<LesHouchesEvents version="3.0">
<header>
<!--
#*********************************************************************
#                                                                    *
#                        MadGraph5_aMC@NLO                           *
#                                                                    *
#                           Going Beyond                             *
#                                                                    *
#                   http://madgraph.hep.uiuc.edu                     *
#                   http://madgraph.phys.ucl.ac.be                   *
#                   http://amcatnlo.cern.ch                          *
#                                                                    *
#                     The MadGraph5_aMC@NLO team                     *
#                                                                    *
#....................................................................*
#                                                                    *
# This file contains all the information necessary to reproduce      *
# the events generated:                                              *
#                                                                    *
# 1. software version                                                *
# 2. proc_card          : code generation info including model       *
# 3. param_card         : model primary parameters in the LH format  *
# 4. run_card           : running parameters (collider and cuts)     *
# 5. pythia_card        : present only if pythia has been run        *
# 6. pgs_card           : present only if pgs has been run           *
# 7. delphes_cards      : present only if delphes has been run       *
#                                                                    *
#                                                                    *
#*********************************************************************
-->
<MGVersion>
#5.2.2.3
</MGVersion>
<MG5ProcCard>
#************************************************************
#*                     MadGraph5_aMC@NLO                    *
#*                                                          *
#*                *                       *                 *
#*                  *        * *        *                   *
#*                    * * * * 5 * * * *                     *
#*                  *        * *        *                   *
#*                *                       *                 *
#*                                                          *
#*                                                          *
#*         VERSION 2.2.3                 2015-02-10         *
#*                                                          *
#*    The MadGraph5_aMC@NLO Development Team - Find us at   *
#*    https://server06.fynu.ucl.ac.be/projects/madgraph     *
#*                                                          *
#************************************************************
#*                                                          *
#*               Command File for MadGraph5_aMC@NLO         *
#*                                                          *
#*     run as ./bin/mg5_aMC  filename                       *
#*                                                          *
#************************************************************
set group_subprocesses Auto
set ignore_six_quark_processes False
set loop_optimized_output True
set gauge unitary
set complex_mass_scheme False
import model sm
define p = g u c d s u~ c~ d~ s~
define j = g u c d s u~ c~ d~ s~
define l+ = e+ mu+
define l- = e- mu-
define vl = ve vm vt
define vl~ = ve~ vm~ vt~
import model Zprime_UFO
generate p p > zph, zph > j j
add process p p > zph, zph > b b~
output Dijet_signal
</MG5ProcCard>
<MGProcCard>
#*********************************************************************
#                        MadGraph/MadEvent                           *
#                   http://madgraph.hep.uiuc.edu                     *
#                                                                    *
#                          proc_card.dat                             *
#*********************************************************************
#                                                                    *
#            This Files is generated by MADGRAPH 5                   *
#                                                                    *
# WARNING: This Files is generated for MADEVENT (compatibility issue)*
#          This files is NOT a valid MG4 proc_card.dat               *
#          Running this in MG4 will NEVER reproduce the result of MG5*
#                                                                    *
#*********************************************************************
#*********************************************************************
# Process(es) requested : mg2 input                                  *
#*********************************************************************
# Begin PROCESS # This is TAG. Do not modify this line
p p > zph , zph > j j           #Process
# Be carefull the coupling are here in MG5 convention
          
end_coup           # End the couplings input

done               # this tells MG there are no more procs
# End PROCESS  # This is TAG. Do not modify this line
#*********************************************************************
# Model information                                                  *
#*********************************************************************
# Begin MODEL  # This is TAG. Do not modify this line
Zprime_UFO
# End   MODEL  # This is TAG. Do not modify this line
#*********************************************************************
# Start multiparticle definitions                                    *
#*********************************************************************
# Begin MULTIPARTICLES # This is TAG. Do not modify this line

# End  MULTIPARTICLES # This is TAG. Do not modify this line
</MGProcCard>
<MGRunCard>
#*********************************************************************
#                       MadGraph5_aMC@NLO                            *
#                                                                    *
#                     run_card.dat MadEvent                          *
#                                                                    *
#  This file is used to set the parameters of the run.               *
#                                                                    *
#  Some notation/conventions:                                        *
#                                                                    *
#   Lines starting with a '# ' are info or comments                  *
#                                                                    *
#   mind the format:   value    = variable     ! comment             *
#*********************************************************************
#
#*******************                                                 
# Running parameters
#*******************                                                 
#                                                                    
#*********************************************************************
# Tag name for the run (one word)                                    *
#*********************************************************************
  tag_1     = run_tag ! name of the run 
#*********************************************************************
# Run to generate the grid pack                                      *
#*********************************************************************
  .false.     = gridpack  !True = setting up the grid pack
#*********************************************************************
# Number of events and rnd seed                                      *
# Warning: Do not generate more than 1M events in a single run       *
# If you want to run Pythia, avoid more than 50k events in a run.    *
#*********************************************************************
  2000 = nevents ! Number of unweighted events requested 
 768 = iseed   ! rnd seed (0=assigned automatically=default))
#*********************************************************************
# Collider type and energy                                           *
# lpp: 0=No PDF, 1=proton, -1=antiproton, 2=photon from proton,      *
#                                         3=photon from electron     *
#*********************************************************************
        1     = lpp1    ! beam 1 type 
        1     = lpp2    ! beam 2 type
     4000     = ebeam1  ! beam 1 total energy in GeV
     4000     = ebeam2  ! beam 2 total energy in GeV
#*********************************************************************
# Beam polarization from -100 (left-handed) to 100 (right-handed)    *
#*********************************************************************
        0     = polbeam1 ! beam polarization for beam 1
        0     = polbeam2 ! beam polarization for beam 2
#*********************************************************************
# PDF CHOICE: this automatically fixes also alpha_s and its evol.    *
#*********************************************************************
 'nn23lo1'    = pdlabel     ! PDF set                                     
 230000    = lhaid     ! if pdlabel=lhapdf, this is the lhapdf number
#*********************************************************************
# Renormalization and factorization scales                           *
#*********************************************************************
 F        = fixed_ren_scale  ! if .true. use fixed ren scale
 F        = fixed_fac_scale  ! if .true. use fixed fac scale
 91.1880  = scale            ! fixed ren scale
 91.1880  = dsqrt_q2fact1    ! fixed fact scale for pdf1
 91.1880  = dsqrt_q2fact2    ! fixed fact scale for pdf2
 1        = scalefact        ! scale factor for event-by-event scales
#*********************************************************************
# Matching - Warning! ickkw > 1 is still beta
#*********************************************************************
 0        = ickkw            ! 0 no matching, 1 MLM, 2 CKKW matching
 1        = highestmult      ! for ickkw=2, highest mult group
 1        = ktscheme         ! for ickkw=1, 1 Durham kT, 2 Pythia pTE
 1        = alpsfact         ! scale factor for QCD emission vx
 F        = chcluster        ! cluster only according to channel diag
 T        = pdfwgt           ! for ickkw=1, perform pdf reweighting
 5        = asrwgtflavor     ! highest quark flavor for a_s reweight
 T        = clusinfo         ! include clustering tag in output
 3.0      = lhe_version       ! Change the way clustering information pass to shower.        
#*********************************************************************
#**********************************************************
#
#**********************************************************
# Automatic ptj and mjj cuts if xqcut > 0
# (turn off for VBF and single top processes)
#**********************************************************
   T  = auto_ptj_mjj  ! Automatic setting of ptj and mjj
#**********************************************************
#                                                                    
#**********************************
# BW cutoff (M+/-bwcutoff*Gamma)
#**********************************
  15  = bwcutoff      ! (M+/-bwcutoff*Gamma)
#**********************************************************
# Apply pt/E/eta/dr/mij cuts on decay products or not
# (note that etmiss/ptll/ptheavy/ht/sorted cuts always apply)
#**********************************************************
   T  = cut_decays    ! Cut decay products 
#*************************************************************
# Number of helicities to sum per event (0 = all helicities)
# 0 gives more stable result, but longer run time (needed for
# long decay chains e.g.).
# Use >=2 if most helicities contribute, e.g. pure QCD.
#*************************************************************
   0  = nhel          ! Number of helicities used per event
#*******************                                                 
# Standard Cuts
#*******************                                                 
#                                                                    
#*********************************************************************
# Minimum and maximum pt's (for max, -1 means no cut)                *
#*********************************************************************
 20  = ptj       ! minimum pt for the jets 
  0  = ptb       ! minimum pt for the b 
 10  = pta       ! minimum pt for the photons 
 10  = ptl       ! minimum pt for the charged leptons 
  0  = misset    ! minimum missing Et (sum of neutrino's momenta)
  0  = ptheavy   ! minimum pt for one heavy final state
 1.0 = ptonium   ! minimum pt for the quarkonium states
 -1  = ptjmax    ! maximum pt for the jets
 -1  = ptbmax    ! maximum pt for the b
 -1  = ptamax    ! maximum pt for the photons
 -1  = ptlmax    ! maximum pt for the charged leptons
 -1  = missetmax ! maximum missing Et (sum of neutrino's momenta)
#*********************************************************************
# Minimum and maximum E's (in the center of mass frame)              *
#*********************************************************************
  0  = ej     ! minimum E for the jets 
  0  = eb     ! minimum E for the b 
  0  = ea     ! minimum E for the photons 
  0  = el     ! minimum E for the charged leptons 
 -1   = ejmax ! maximum E for the jets
 -1   = ebmax ! maximum E for the b
 -1   = eamax ! maximum E for the photons
 -1   = elmax ! maximum E for the charged leptons
#*********************************************************************
# Maximum and minimum absolute rapidity (for max, -1 means no cut)   *
#*********************************************************************
   5  = etaj    ! max rap for the jets 
  -1  = etab    ! max rap for the b
 2.5  = etaa    ! max rap for the photons 
 2.5  = etal    ! max rap for the charged leptons 
 0.6  = etaonium ! max rap for the quarkonium states
   0  = etajmin ! min rap for the jets
   0  = etabmin ! min rap for the b
   0  = etaamin ! min rap for the photons
   0  = etalmin ! main rap for the charged leptons
#*********************************************************************
# Minimum and maximum DeltaR distance                                *
#*********************************************************************
 0.4 = drjj    ! min distance between jets 
 0   = drbb    ! min distance between b's 
 0.4 = drll    ! min distance between leptons 
 0.4 = draa    ! min distance between gammas 
 0   = drbj    ! min distance between b and jet 
 0.4 = draj    ! min distance between gamma and jet 
 0.4 = drjl    ! min distance between jet and lepton 
 0   = drab    ! min distance between gamma and b 
 0   = drbl    ! min distance between b and lepton 
 0.4 = dral    ! min distance between gamma and lepton 
 -1  = drjjmax ! max distance between jets
 -1  = drbbmax ! max distance between b's
 -1  = drllmax ! max distance between leptons
 -1  = draamax ! max distance between gammas
 -1  = drbjmax ! max distance between b and jet
 -1  = drajmax ! max distance between gamma and jet
 -1  = drjlmax ! max distance between jet and lepton
 -1  = drabmax ! max distance between gamma and b
 -1  = drblmax ! max distance between b and lepton
 -1  = dralmax ! maxdistance between gamma and lepton
#*********************************************************************
# Minimum and maximum invariant mass for pairs                       *
# WARNING: for four lepton final state mmll cut require to have      *
#          different lepton masses for each flavor!                  *           
#*********************************************************************
 0   = mmjj    ! min invariant mass of a jet pair 
 0   = mmbb    ! min invariant mass of a b pair 
 0   = mmaa    ! min invariant mass of gamma gamma pair
 0   = mmll    ! min invariant mass of l+l- (same flavour) lepton pair
 -1  = mmjjmax ! max invariant mass of a jet pair
 -1  = mmbbmax ! max invariant mass of a b pair
 -1  = mmaamax ! max invariant mass of gamma gamma pair
 -1  = mmllmax ! max invariant mass of l+l- (same flavour) lepton pair
#*********************************************************************
# Minimum and maximum invariant mass for all letpons                 *
#*********************************************************************
 0   = mmnl    ! min invariant mass for all letpons (l+- and vl) 
 -1  = mmnlmax ! max invariant mass for all letpons (l+- and vl) 
#*********************************************************************
# Minimum and maximum pt for 4-momenta sum of leptons                *
#*********************************************************************
 0   = ptllmin  ! Minimum pt for 4-momenta sum of leptons(l and vl)
 -1  = ptllmax  ! Maximum pt for 4-momenta sum of leptons(l and vl)
#*********************************************************************
# Inclusive cuts                                                     *
#*********************************************************************
 0  = xptj ! minimum pt for at least one jet  
 0  = xptb ! minimum pt for at least one b 
 0  = xpta ! minimum pt for at least one photon 
 0  = xptl ! minimum pt for at least one charged lepton 
#*********************************************************************
# Control the pt's of the jets sorted by pt                          *
#*********************************************************************
 0   = ptj1min ! minimum pt for the leading jet in pt
 0   = ptj2min ! minimum pt for the second jet in pt
 0   = ptj3min ! minimum pt for the third jet in pt
 0   = ptj4min ! minimum pt for the fourth jet in pt
 -1  = ptj1max ! maximum pt for the leading jet in pt 
 -1  = ptj2max ! maximum pt for the second jet in pt
 -1  = ptj3max ! maximum pt for the third jet in pt
 -1  = ptj4max ! maximum pt for the fourth jet in pt
 0   = cutuse  ! reject event if fails any (0) / all (1) jet pt cuts
#*********************************************************************
# Control the pt's of leptons sorted by pt                           *
#*********************************************************************
 0   = ptl1min ! minimum pt for the leading lepton in pt
 0   = ptl2min ! minimum pt for the second lepton in pt
 0   = ptl3min ! minimum pt for the third lepton in pt
 0   = ptl4min ! minimum pt for the fourth lepton in pt
 -1  = ptl1max ! maximum pt for the leading lepton in pt 
 -1  = ptl2max ! maximum pt for the second lepton in pt
 -1  = ptl3max ! maximum pt for the third lepton in pt
 -1  = ptl4max ! maximum pt for the fourth lepton in pt
#*********************************************************************
# Control the Ht(k)=Sum of k leading jets                            *
#*********************************************************************
 0   = htjmin ! minimum jet HT=Sum(jet pt)
 -1  = htjmax ! maximum jet HT=Sum(jet pt)
 0   = ihtmin  !inclusive Ht for all partons (including b)
 -1  = ihtmax  !inclusive Ht for all partons (including b)
 0   = ht2min ! minimum Ht for the two leading jets
 0   = ht3min ! minimum Ht for the three leading jets
 0   = ht4min ! minimum Ht for the four leading jets
 -1  = ht2max ! maximum Ht for the two leading jets
 -1  = ht3max ! maximum Ht for the three leading jets
 -1  = ht4max ! maximum Ht for the four leading jets
#***********************************************************************
# Photon-isolation cuts, according to hep-ph/9801442                   *
# When ptgmin=0, all the other parameters are ignored                  *
# When ptgmin>0, pta and draj are not going to be used                 *
#***********************************************************************
   0 = ptgmin ! Min photon transverse momentum
 0.4 = R0gamma ! Radius of isolation code
 1.0 = xn ! n parameter of eq.(3.4) in hep-ph/9801442
 1.0 = epsgamma ! epsilon_gamma parameter of eq.(3.4) in hep-ph/9801442
 .true. = isoEM ! isolate photons from EM energy (photons and leptons)
#*********************************************************************
# WBF cuts                                                           *
#*********************************************************************
 0   = xetamin ! minimum rapidity for two jets in the WBF case  
 0   = deltaeta ! minimum rapidity for two jets in the WBF case 
#*********************************************************************
# KT DURHAM CUT                                                      *
#*********************************************************************
 -1    =  ktdurham        
 0.4  =  dparameter 
#*********************************************************************
# maximal pdg code for quark to be considered as a light jet         *
# (otherwise b cuts are applied)                                     *
#*********************************************************************
 4 = maxjetflavor    ! Maximum jet pdg code
#*********************************************************************
# Jet measure cuts                                                   *
#*********************************************************************
 0   = xqcut   ! minimum kt jet measure between partons
#*********************************************************************
#
#*********************************************************************
# Store info for systematics studies                                 *
# WARNING: If use_syst is T, matched Pythia output is                *
#          meaningful ONLY if plotted taking matchscale              *
#          reweighting into account!                                 *
#*********************************************************************
   F  = use_syst      ! Enable systematics studies
#
#**************************************
# Parameter of the systematics study
#  will be used by SysCalc (if installed)
#**************************************                                  
#
0.5 1 2 = sys_scalefact  # factorization/renormalization scale factor
0.5 1 2 = sys_alpsfact  # \alpha_s emission scale factors
30 50 = sys_matchscale # variation of merging scale
# PDF sets and number of members (0 or none for all members).
CT10nlo.LHgrid = sys_pdf # matching scales
# MSTW2008nlo68cl.LHgrid 1  = sys_pdf
</MGRunCard>
<slha>
######################################################################
## PARAM_CARD AUTOMATICALY GENERATED BY MG5 FOLLOWING UFO MODEL   ####
######################################################################
##                                                                  ##
##  Width set on Auto will be computed following the information    ##
##        present in the decay.py files of the model.               ##
##        See  arXiv:1402.1178 for more details.                    ##
##                                                                  ##
######################################################################

###################################
## INFORMATION FOR CKMBLOCK
###################################
Block ckmblock 
    1 2.277360e-01 # cabi 

###################################
## INFORMATION FOR FRBLOCK
###################################
Block frblock 
    1 2.000000e-01 # gz 

###################################
## INFORMATION FOR MASS
###################################
Block mass 
    1 5.040000e-03 # MD 
    2 2.550000e-03 # MU 
    3 1.010000e-01 # MS 
    4 1.270000e+00 # MC 
    5 4.700000e+00 # MB 
    6 1.720000e+02 # MT 
   11 5.110000e-04 # Me 
   13 1.056600e-01 # MM 
   15 1.777000e+00 # MTA 
   23 9.118760e+01 # MZ 
   25 1.200000e+02 # MH 
  10030 3.500000e+03 # MZph 
  10031 3.000000e+02 # MZpl 
## Dependent parameters, given by model restrictions.
## Those values should be edited following the 
## analytical expression. MG5 ignores those values 
## but they are important for interfacing the output of MG5
## to external program such as Pythia.
  12 0.000000 # ve : 0.0 
  14 0.000000 # vm : 0.0 
  16 0.000000 # vt : 0.0 
  21 0.000000 # g : 0.0 
  22 0.000000 # a : 0.0 
  24 79.824360 # w+ : cmath.sqrt(MZ__exp__2/2. + cmath.sqrt(MZ__exp__4/4. - (aEW*cmath.pi*MZ__exp__2)/(Gf*sqrt__2))) 

###################################
## INFORMATION FOR SMINPUTS
###################################
Block sminputs 
    1 1.279000e+02 # aEWM1 
    2 1.166370e-05 # Gf 
    3 1.184000e-01 # aS 

###################################
## INFORMATION FOR YUKAWA
###################################
Block yukawa 
    1 5.040000e-03 # ymdo 
    2 2.550000e-03 # ymup 
    3 1.010000e-01 # yms 
    4 1.270000e+00 # ymc 
    5 4.700000e+00 # ymb 
    6 1.720000e+02 # ymt 
   11 5.110000e-04 # yme 
   13 1.056600e-01 # ymm 
   15 1.777000e+00 # ymtau 

###################################
## INFORMATION FOR DECAY
###################################
DECAY   6 1.508336e+00 # WT 
DECAY  23 2.495200e+00 # WZ 
DECAY  24 2.085000e+00 # WW 
DECAY  25 5.753088e-03 # WH 
## Dependent parameters, given by model restrictions.
## Those values should be edited following the 
## analytical expression. MG5 ignores those values 
## but they are important for interfacing the output of MG5
## to external program such as Pythia.
DECAY  1 0.000000 # d : 0.0 
DECAY  2 0.000000 # u : 0.0 
DECAY  3 0.000000 # s : 0.0 
DECAY  4 0.000000 # c : 0.0 
DECAY  5 0.000000 # b : 0.0 
DECAY  11 0.000000 # e- : 0.0 
DECAY  12 0.000000 # ve : 0.0 
DECAY  13 0.000000 # mu- : 0.0 
DECAY  14 0.000000 # vm : 0.0 
DECAY  15 0.000000 # ta- : 0.0 
DECAY  16 0.000000 # vt : 0.0 
DECAY  21 0.000000 # g : 0.0 
DECAY  22 0.000000 # a : 0.0 
DECAY  10030 0.308725 # zph : (gz__exp__2*MZph*(5 + cmath.sqrt(1 - (4*MT__exp__2)/MZph__exp__2)))/(144.*cmath.pi) 
DECAY  10031 0.132629 # zpl : (5*gz__exp__2*MZpl)/(144.*cmath.pi) 
#===========================================================
# QUANTUM NUMBERS OF NEW STATE(S) (NON SM PDG CODE)
#===========================================================

Block QNUMBERS 10030  # zph 
        1 0  # 3 times electric charge
        2 3  # number of spin states (2S+1)
        3 1  # colour rep (1: singlet, 3: triplet, 8: octet)
        4 0  # Particle/Antiparticle distinction (0=own anti)
Block QNUMBERS 10031  # zpl 
        1 0  # 3 times electric charge
        2 3  # number of spin states (2S+1)
        3 1  # colour rep (1: singlet, 3: triplet, 8: octet)
        4 0  # Particle/Antiparticle distinction (0=own anti)
</slha>
## END BANNER##
<MGGenerationInfo>
#  Number of Events        :         3874
#  Integrated weight (pb)  :  0.89717E-05
#  Max wgt                 :  0.37001E-08
#  Average wgt             :  0.23159E-08
</MGGenerationInfo>
</header>
<init>
     2212     2212  0.40000000000E+04  0.40000000000E+04 0 0  247000  247000 2   1
  0.89675828800E-05  0.20209721485E-07  0.37000960000E-08   0
</init>
<event>
 5   0  0.3628017E-08  0.3500791E+04  0.7818609E-02  0.8113602E-01
        2   -1    0    0  501    0  0.00000000000E+00  0.00000000000E+00  0.27261765424E+04  0.27261765424E+04  0.25500000920E-02 0.  1.
       -2   -1    0    0    0  501  0.00000000000E+00  0.00000000000E+00 -0.11238763213E+04  0.11238763213E+04  0.25500000920E-02 0. -1.
    10030    2    1    2    0    0  0.00000000000E+00  0.00000000000E+00  0.16023002211E+04  0.38500528637E+04  0.35007914898E+04 0.  0.
        1    1    3    3  502    0 -0.37288169358E+03 -0.81787303631E+03  0.24529714979E+04  0.26124751158E+04  0.50400001928E-02 0.  1.
       -1    1    3    3    0  502  0.37288169358E+03  0.81787303631E+03 -0.85067127682E+03  0.12375777479E+04  0.50400001928E-02 0. -1.
</event>
<event>
 5   0  0.3628017E-08  0.3500119E+04  0.7818609E-02  0.8113762E-01
        2   -1    0    0  501    0  0.00000000000E+00  0.00000000000E+00  0.29117091580E+04  0.29117091580E+04  0.25500000920E-02 0.  1.
       -2   -1    0    0    0  501  0.00000000000E+00  0.00000000000E+00 -0.10518592962E+04  0.10518592962E+04  0.25500000920E-02 0. -1.
    10030    2    1    2    0    0  0.00000000000E+00  0.00000000000E+00  0.18598498618E+04  0.39635684542E+04  0.35001190526E+04 0.  0.
        1    1    3    3  502    0 -0.16821484448E+03  0.84268610334E+03 -0.79650482618E+03  0.11716808613E+04  0.50400001928E-02 0. -1.
       -1    1    3    3    0  502  0.16821484448E+03 -0.84268610334E+03  0.26563546880E+04  0.27918875929E+04  0.50400001928E-02 0.  1.
</event>
<event>
 5   0  0.3467834E-08  0.3501413E+04  0.7818609E-02  0.8113455E-01
       -2   -1    0    0    0  501  0.00000000000E+00  0.00000000000E+00  0.18084730781E+04  0.18084730781E+04  0.25500000920E-02 0.  1.
        2   -1    0    0  501    0  0.00000000000E+00  0.00000000000E+00 -0.16947850172E+04  0.16947850172E+04  0.25500000920E-02 0. -1.
    10030    2    1    2    0    0  0.00000000000E+00  0.00000000000E+00  0.11368806087E+03  0.35032580952E+04  0.35014129015E+04 0.  0.
        3    1    3    3  502    0 -0.15682721116E+03 -0.34907057526E+03 -0.16524262466E+04  0.16961596480E+04  0.10100000352E+00 0. -1.
       -3    1    3    3    0  502  0.15682721116E+03  0.34907057526E+03  0.17661143075E+04  0.18070984473E+04  0.10100000352E+00 0.  1.
</event>
<event>
 5   0  0.3628017E-08  0.3500254E+04  0.7818609E-02  0.8113730E-01
       -2   -1    0    0    0  501  0.00000000000E+00  0.00000000000E+00  0.22399993313E+04  0.22399993313E+04  0.25500000920E-02 0.  1.
        2   -1    0    0  501    0  0.00000000000E+00  0.00000000000E+00 -0.13673865770E+04  0.13673865770E+04  0.25500000920E-02 0. -1.
    10030    2    1    2    0    0  0.00000000000E+00  0.00000000000E+00  0.87261275421E+03  0.36073859083E+04  0.35002542869E+04 0.  0.
        1    1    3    3  502    0  0.10822986214E+04  0.58928184774E+03  0.17170490603E+04  0.21134996753E+04  0.50400001928E-02 0.  1.
       -1    1    3    3    0  502 -0.10822986214E+04 -0.58928184774E+03 -0.84443630608E+03  0.14938862330E+04  0.50400001928E-02 0. -1.
</event>
<event>
 5   0  0.3467834E-08  0.3499798E+04  0.7818609E-02  0.8113838E-01
        2   -1    0    0  501    0  0.00000000000E+00  0.00000000000E+00  0.22229204635E+04  0.22229204635E+04  0.25500000920E-02 0. -1.
       -2   -1    0    0    0  501  0.00000000000E+00  0.00000000000E+00 -0.13775331668E+04  0.13775331668E+04  0.25500000920E-02 0.  1.
    10030    2    1    2    0    0  0.00000000000E+00  0.00000000000E+00  0.84538729677E+03  0.36004536303E+04  0.34997980888E+04 0.  0.
        3    1    3    3  502    0 -0.15538402020E+04  0.76107451935E+03  0.15345532537E+03  0.17370095982E+04  0.10100000352E+00 0.  1.
       -3    1    3    3    0  502  0.15538402020E+04 -0.76107451935E+03  0.69193197140E+03  0.18634440320E+04  0.10100000352E+00 0. -1.
</event>
<event>
 5   0  0.1121462E-08  0.3500216E+04  0.7818609E-02  0.8113739E-01
       -1   -1    0    0    0  501  0.00000000000E+00  0.00000000000E+00  0.29914319002E+04  0.29914319002E+04  0.50400001928E-02 0. -1.
        1   -1    0    0  501    0  0.00000000000E+00  0.00000000000E+00 -0.10238836215E+04  0.10238836215E+04  0.50400001928E-02 0.  1.
    10030    2    1    2    0    0  0.00000000000E+00  0.00000000000E+00  0.19675482787E+04  0.40153155217E+04  0.35002160661E+04 0.  0.
        1    1    3    3  502    0  0.16802587737E+04  0.16132364750E+03  0.45361234095E+03  0.17478727132E+04  0.50400001928E-02 0.  1.
       -1    1    3    3    0  502 -0.16802587737E+04 -0.16132364750E+03  0.15139359378E+04  0.22674428084E+04  0.50400001928E-02 0. -1.
</event>
<event>
 5   0  0.1140808E-08  0.3503889E+04  0.7818609E-02  0.8112869E-01
       -1   -1    0    0    0  501  0.00000000000E+00  0.00000000000E+00  0.13815680685E+04  0.13815680685E+04  0.50400001928E-02 0. -1.
        1   -1    0    0  501    0  0.00000000000E+00  0.00000000000E+00 -0.22216133588E+04  0.22216133588E+04  0.50400001928E-02 0.  1.
    10030    2    1    2    0    0  0.00000000000E+00  0.00000000000E+00 -0.84004529035E+03  0.36031814273E+04  0.35038893117E+04 0.  0.
        3    1    3    3  502    0  0.96318011550E+03  0.12965858636E+04  0.27777796291E+03  0.16389055627E+04  0.10100000352E+00 0. -1.
       -3    1    3    3    0  502 -0.96318011550E+03 -0.12965858636E+04 -0.11178232533E+04  0.19642758646E+04  0.10100000352E+00 0.  1.
</event>
<event>
 5   0  0.3628017E-08  0.3500814E+04  0.7818609E-02  0.8113597E-01
       -2   -1    0    0    0  501  0.00000000000E+00  0.00000000000E+00  0.10411548970E+04  0.10411548970E+04  0.25500000920E-02 0.  1.
        2   -1    0    0  501    0  0.00000000000E+00  0.00000000000E+00 -0.29428142291E+04  0.29428142291E+04  0.25500000920E-02 0. -1.
    10030    2    1    2    0    0  0.00000000000E+00  0.00000000000E+00 -0.19016593321E+04  0.39839691261E+04  0.35008144456E+04 0.  0.
        1    1    3    3  502    0 -0.11927293721E+04  0.67051302012E+03 -0.21931586171E+04  0.25849827436E+04  0.50400001928E-02 0. -1.
       -1    1    3    3    0  502  0.11927293721E+04 -0.67051302012E+03  0.29149928499E+03  0.13989863825E+04  0.50400001928E-02 0.  1.
</event>
<event>
 5   0  0.1121462E-08  0.3500894E+04  0.7818609E-02  0.8113578E-01
        1   -1    0    0  501    0  0.00000000000E+00  0.00000000000E+00  0.13420270201E+04  0.13420270202E+04  0.50400001928E-02 0.  1.
       -1   -1    0    0    0  501  0.00000000000E+00  0.00000000000E+00 -0.22831618915E+04  0.22831618915E+04  0.50400001928E-02 0. -1.
    10030    2    1    2    0    0  0.00000000000E+00  0.00000000000E+00 -0.94113487138E+03  0.36251889117E+04  0.35008941428E+04 0.  0.
        2    1    3    3  502    0  0.32550567044E+03 -0.10457297096E+04 -0.18845364420E+04  0.21796747850E+04  0.25500000920E-02 0. -1.
       -2    1    3    3    0  502 -0.32550567044E+03  0.10457297096E+04  0.94340157060E+03  0.14455141267E+04  0.25500000920E-02 0.  1.
</event>
<event>
 5   0  0.3628017E-08  0.3501917E+04  0.7818609E-02  0.8113336E-01
       -2   -1    0    0    0  501  0.00000000000E+00  0.00000000000E+00  0.14437223427E+04  0.14437223427E+04  0.25500000920E-02 0.  1.
        2   -1    0    0  501    0  0.00000000000E+00  0.00000000000E+00 -0.21235770372E+04  0.21235770372E+04  0.25500000920E-02 0. -1.
    10030    2    1    2    0    0  0.00000000000E+00  0.00000000000E+00 -0.67985469454E+03  0.35672993799E+04  0.35019169693E+04 0.  0.
        1    1    3    3  502    0 -0.33098210567E+03 -0.16633892181E+04 -0.78330390886E+03  0.18681482433E+04  0.50400001928E-02 0. -1.
       -1    1    3    3    0  502  0.33098210567E+03  0.16633892181E+04  0.10344921432E+03  0.16991511366E+04  0.50400001928E-02 0.  1.
</event>
<event>
 5   0  0.1121462E-08  0.3499489E+04  0.7818609E-02  0.8113911E-01
       -1   -1    0    0    0  501  0.00000000000E+00  0.00000000000E+00  0.11424352162E+04  0.11424352162E+04  0.50400001928E-02 0.  1.
        1   -1    0    0  501    0  0.00000000000E+00  0.00000000000E+00 -0.26798939212E+04  0.26798939212E+04  0.50400001928E-02 0. -1.
    10030    2    1    2    0    0  0.00000000000E+00  0.00000000000E+00 -0.15374587050E+04  0.38223291373E+04  0.34994886433E+04 0.  0.
        2    1    3    3  502    0  0.16676833301E+04 -0.20030958872E+02 -0.13467330661E+04  0.21436554948E+04  0.25500000920E-02 0.  1.
       -2    1    3    3    0  502 -0.16676833301E+04  0.20030958872E+02 -0.19072563892E+03  0.16786736426E+04  0.25500000920E-02 0. -1.
</event>
<event>
 5   0  0.3554451E-08  0.3499681E+04  0.7818609E-02  0.8113866E-01
        2   -1    0    0  501    0  0.00000000000E+00  0.00000000000E+00  0.28304143964E+04  0.28304143964E+04  0.25500000920E-02 0.  1.
       -2   -1    0    0    0  501  0.00000000000E+00  0.00000000000E+00 -0.10817998599E+04  0.10817998599E+04  0.25500000920E-02 0. -1.
    10030    2    1    2    0    0  0.00000000000E+00  0.00000000000E+00  0.17486145364E+04  0.39122142563E+04  0.34996810698E+04 0.  0.
        5    1    3    3  502    0 -0.16466462314E+04  0.11212271185E+03  0.22449015172E+03  0.16656630007E+04  0.46999998093E+01 0. -1.
       -5    1    3    3    0  502  0.16466462314E+04 -0.11212271185E+03  0.15241243847E+04  0.22465512556E+04  0.46999998093E+01 0.  1.
</event>
<event>
 5   0  0.1129219E-08  0.3499339E+04  0.7818609E-02  0.8113947E-01
        1   -1    0    0  501    0  0.00000000000E+00  0.00000000000E+00  0.19037256497E+04  0.19037256497E+04  0.50400001928E-02 0.  1.
       -1   -1    0    0    0  501  0.00000000000E+00  0.00000000000E+00 -0.16080796932E+04  0.16080796932E+04  0.50400001928E-02 0. -1.
    10030    2    1    2    0    0  0.00000000000E+00  0.00000000000E+00  0.29564595652E+03  0.35118053429E+04  0.34993385425E+04 0.  0.
        5    1    3    3  502    0  0.74260986240E+03  0.10391745875E+04  0.13478955745E+04  0.18569323630E+04  0.46999998093E+01 0.  1.
       -5    1    3    3    0  502 -0.74260986240E+03 -0.10391745875E+04 -0.10522496180E+04  0.16548729799E+04  0.46999998093E+01 0. -1.
</event>
<event>
 5   0  0.1121462E-08  0.3498833E+04  0.7818609E-02  0.8114066E-01
        1   -1    0    0  501    0  0.00000000000E+00  0.00000000000E+00  0.20133095382E+04  0.20133095382E+04  0.50400001928E-02 0.  1.
       -1   -1    0    0    0  501  0.00000000000E+00  0.00000000000E+00 -0.15201133574E+04  0.15201133574E+04  0.50400001928E-02 0. -1.
    10030    2    1    2    0    0  0.00000000000E+00  0.00000000000E+00  0.49319618080E+03  0.35334228955E+04  0.34988333607E+04 0.  0.
        1    1    3    3  502    0 -0.89233117409E+03 -0.60450548702E+03  0.16381817848E+04  0.19609490988E+04  0.50400001928E-02 0.  1.
       -1    1    3    3    0  502  0.89233117409E+03  0.60450548702E+03 -0.11449856040E+04  0.15724737967E+04  0.50400001928E-02 0. -1.
</event>
<event>
 5   0  0.1140808E-08  0.3505406E+04  0.7818609E-02  0.8112510E-01
        1   -1    0    0  501    0  0.00000000000E+00  0.00000000000E+00  0.23150583240E+04  0.23150583240E+04  0.50400001928E-02 0.  1.
       -1   -1    0    0    0  501  0.00000000000E+00  0.00000000000E+00 -0.13269505373E+04  0.13269505374E+04  0.50400001928E-02 0. -1.
    10030    2    1    2    0    0  0.00000000000E+00  0.00000000000E+00  0.98810778665E+03  0.36420088613E+04  0.35054060461E+04 0.  0.
        3    1    3    3  502    0  0.10971331081E+04 -0.11938084804E+04  0.11856423338E+04  0.20086382199E+04  0.10100000352E+00 0.  1.
       -3    1    3    3    0  502 -0.10971331081E+04  0.11938084804E+04 -0.19753454715E+03  0.16333706414E+04  0.10100000352E+00 0. -1.
</event>
<event>
 5   0  0.1140808E-08  0.3497103E+04  0.7818609E-02  0.8114477E-01
       -1   -1    0    0    0  501  0.00000000000E+00  0.00000000000E+00  0.16635786892E+04  0.16635786892E+04  0.50400001928E-02 0. -1.
        1   -1    0    0  501    0  0.00000000000E+00  0.00000000000E+00 -0.18378649862E+04  0.18378649862E+04  0.50400001928E-02 0.  1.
    10030    2    1    2    0    0  0.00000000000E+00  0.00000000000E+00 -0.17428629695E+03  0.35014436754E+04  0.34971033869E+04 0.  0.
        3    1    3    3  502    0  0.16668899295E+04 -0.51100455904E+03 -0.22067027116E+03  0.17573682241E+04  0.10100000352E+00 0. -1.
       -3    1    3    3    0  502 -0.16668899295E+04  0.51100455904E+03  0.46383974204E+02  0.17440754513E+04  0.10100000352E+00 0.  1.
</event>
<event>
 5   0  0.3628017E-08  0.3500398E+04  0.7818609E-02  0.8113696E-01
       -2   -1    0    0    0  501  0.00000000000E+00  0.00000000000E+00  0.16950435318E+04  0.16950435318E+04  0.25500000920E-02 0.  1.
        2   -1    0    0  501    0  0.00000000000E+00  0.00000000000E+00 -0.18071494430E+04  0.18071494430E+04  0.25500000920E-02 0. -1.
    10030    2    1    2    0    0  0.00000000000E+00  0.00000000000E+00 -0.11210591123E+03  0.35021929749E+04  0.35003982485E+04 0.  0.
        1    1    3    3  502    0 -0.62383694105E+03  0.25698843227E+03  0.15596996271E+04  0.16993759178E+04  0.50400001928E-02 0.  1.
       -1    1    3    3    0  502  0.62383694105E+03 -0.25698843227E+03 -0.16718055383E+04  0.18028170571E+04  0.50400001928E-02 0. -1.
</event>
<event>
 5   0  0.1121462E-08  0.3498529E+04  0.7818609E-02  0.8114139E-01
        1   -1    0    0  501    0  0.00000000000E+00  0.00000000000E+00  0.10589022064E+04  0.10589022064E+04  0.50400001928E-02 0. -1.
       -1   -1    0    0    0  501  0.00000000000E+00  0.00000000000E+00 -0.28897164633E+04  0.28897164633E+04  0.50400001928E-02 0.  1.
    10030    2    1    2    0    0  0.00000000000E+00  0.00000000000E+00 -0.18308142569E+04  0.39486186697E+04  0.34985294847E+04 0.  0.
        4    1    3    3  502    0  0.48724452623E+03 -0.97281305803E+03 -0.24613512360E+04  0.26911008889E+04  0.12699999809E+01 0.  1.
       -4    1    3    3    0  502 -0.48724452623E+03  0.97281305803E+03  0.63053697908E+03  0.12575177808E+04  0.12699999809E+01 0. -1.
</event>
<event>
 5   0  0.1121462E-08  0.3501580E+04  0.7818609E-02  0.8113416E-01
       -1   -1    0    0    0  501  0.00000000000E+00  0.00000000000E+00  0.14962091210E+04  0.14962091210E+04  0.50400001928E-02 0.  1.
        1   -1    0    0  501    0  0.00000000000E+00  0.00000000000E+00 -0.20486880337E+04  0.20486880337E+04  0.50400001928E-02 0. -1.
    10030    2    1    2    0    0  0.00000000000E+00  0.00000000000E+00 -0.55247891272E+03  0.35448971548E+04  0.35015800560E+04 0.  0.
        1    1    3    3  502    0  0.14941620552E+04 -0.21301221799E+03 -0.11745559256E+04  0.19124528947E+04  0.50400001928E-02 0. -1.
       -1    1    3    3    0  502 -0.14941620552E+04  0.21301221799E+03  0.62207701285E+03  0.16324442600E+04  0.50400001928E-02 0.  1.
</event>
<event>
 5   0  0.3553585E-08  0.3500705E+04  0.7818609E-02  0.8113623E-01
        2   -1    0    0  501    0  0.00000000000E+00  0.00000000000E+00  0.20612865513E+04  0.20612865513E+04  0.25500000920E-02 0. -1.
       -2   -1    0    0    0  501  0.00000000000E+00  0.00000000000E+00 -0.14863211143E+04  0.14863211143E+04  0.25500000920E-02 0.  1.
    10030    2    1    2    0    0  0.00000000000E+00  0.00000000000E+00  0.57496543693E+03  0.35476076656E+04  0.35007049140E+04 0.  0.
        2    1    3    3  502    0  0.12002566133E+04 -0.11487398095E+04  0.84578563892E+03  0.18642887209E+04  0.25500000920E-02 0. -1.
       -2    1    3    3    0  502 -0.12002566133E+04  0.11487398095E+04 -0.27082020199E+03  0.16833189447E+04  0.25500000920E-02 0.  1.
</event>
<event>
 5   0  0.1140808E-08  0.3502575E+04  0.7818609E-02  0.8113180E-01
       -1   -1    0    0    0  501  0.00000000000E+00  0.00000000000E+00  0.28459626371E+04  0.28459626371E+04  0.50400001928E-02 0. -1.
        1   -1    0    0  501    0  0.00000000000E+00  0.00000000000E+00 -0.10776700167E+04  0.10776700167E+04  0.50400001928E-02 0.  1.
    10030    2    1    2    0    0  0.00000000000E+00  0.00000000000E+00  0.17682926204E+04  0.39236326539E+04  0.35025753969E+04 0.  0.
        3    1    3    3  502    0  0.13334210125E+04 -0.10232208057E+04  0.14352369658E+04  0.22101804388E+04  0.10100000352E+00 0.  1.
       -3    1    3    3    0  502 -0.13334210125E+04  0.10232208057E+04  0.33305565457E+03  0.17134522150E+04  0.10100000352E+00 0. -1.
</event>
<event>
 5   0  0.3467834E-08  0.3503067E+04  0.7818609E-02  0.8113064E-01
       -2   -1    0    0    0  501  0.00000000000E+00  0.00000000000E+00  0.17074349514E+04  0.17074349514E+04  0.25500000920E-02 0. -1.
        2   -1    0    0  501    0  0.00000000000E+00  0.00000000000E+00 -0.17967705229E+04  0.17967705229E+04  0.25500000920E-02 0.  1.
    10030    2    1    2    0    0  0.00000000000E+00  0.00000000000E+00 -0.89335571562E+02  0.35042054743E+04  0.35030665369E+04 0.  0.
        3    1    3    3  502    0  0.89153282795E+03 -0.14154304442E+04  0.47472607957E+03  0.17388614052E+04  0.10100000352E+00 0.  1.
       -3    1    3    3    0  502 -0.89153282795E+03  0.14154304442E+04 -0.56406165113E+03  0.17653440691E+04  0.10100000352E+00 0. -1.
</event>
<event>
 5   0  0.1121462E-08  0.3499149E+04  0.7818609E-02  0.8113992E-01
        1   -1    0    0  501    0  0.00000000000E+00  0.00000000000E+00  0.18634280658E+04  0.18634280658E+04  0.50400001928E-02 0.  1.
       -1   -1    0    0    0  501  0.00000000000E+00  0.00000000000E+00 -0.16426772433E+04  0.16426772433E+04  0.50400001928E-02 0. -1.
    10030    2    1    2    0    0  0.00000000000E+00  0.00000000000E+00  0.22075082250E+03  0.35061053092E+04  0.34991489699E+04 0.  0.
        1    1    3    3  502    0 -0.34154430531E+03 -0.13740987567E+04  0.11401397826E+04  0.18178885086E+04  0.50400001928E-02 0.  1.
       -1    1    3    3    0  502  0.34154430531E+03  0.13740987567E+04 -0.91938896012E+03  0.16882168006E+04  0.50400001928E-02 0. -1.
</event>
<event>
 5   0  0.3553585E-08  0.3498665E+04  0.7818609E-02  0.8114107E-01
        2   -1    0    0  501    0  0.00000000000E+00  0.00000000000E+00  0.11147799532E+04  0.11147799532E+04  0.25500000920E-02 0. -1.
       -2   -1    0    0    0  501  0.00000000000E+00  0.00000000000E+00 -0.27450828815E+04  0.27450828815E+04  0.25500000920E-02 0.  1.
    10030    2    1    2    0    0  0.00000000000E+00  0.00000000000E+00 -0.16303029283E+04  0.38598628347E+04  0.34986645259E+04 0.  0.
        2    1    3    3  502    0 -0.12853116673E+04 -0.10686262663E+03  0.48868728196E+03  0.13792247687E+04  0.25500000920E-02 0. -1.
       -2    1    3    3    0  502  0.12853116673E+04  0.10686262663E+03 -0.21189902103E+04  0.24806380660E+04  0.25500000920E-02 0.  1.
</event>
<event>
 5   0  0.1121462E-08  0.3500228E+04  0.7818609E-02  0.8113736E-01
        1   -1    0    0  501    0  0.00000000000E+00  0.00000000000E+00  0.21711330300E+04  0.21711330300E+04  0.50400001928E-02 0. -1.
       -1   -1    0    0    0  501  0.00000000000E+00  0.00000000000E+00 -0.14107379729E+04  0.14107379729E+04  0.50400001928E-02 0.  1.
    10030    2    1    2    0    0  0.00000000000E+00  0.00000000000E+00  0.76039505705E+03  0.35818710029E+04  0.35002284552E+04 0.  0.
        2    1    3    3  502    0 -0.70376547203E+03  0.24642025071E+03  0.20004447235E+04  0.21348976255E+04  0.25500000920E-02 0. -1.
       -2    1    3    3    0  502  0.70376547203E+03 -0.24642025071E+03 -0.12400496664E+04  0.14469733774E+04  0.25500000920E-02 0.  1.
</event>
<event>
 5   0  0.3467834E-08  0.3501067E+04  0.7818609E-02  0.8113537E-01
        2   -1    0    0  501    0  0.00000000000E+00  0.00000000000E+00  0.20863532425E+04  0.20863532425E+04  0.25500000920E-02 0. -1.
       -2   -1    0    0    0  501  0.00000000000E+00  0.00000000000E+00 -0.14687671827E+04  0.14687671827E+04  0.25500000920E-02 0.  1.
    10030    2    1    2    0    0  0.00000000000E+00  0.00000000000E+00  0.61758605982E+03  0.35551204253E+04  0.35010667941E+04 0.  0.
        3    1    3    3  502    0  0.12851190249E+04 -0.47406090509E+03  0.14156229167E+04  0.19698357552E+04  0.10100000352E+00 0. -1.
       -3    1    3    3    0  502 -0.12851190249E+04  0.47406090509E+03 -0.79803685688E+03  0.15852846701E+04  0.10100000352E+00 0.  1.
</event>
<event>
 5   0  0.3554451E-08  0.3486697E+04  0.7818609E-02  0.8116950E-01
        2   -1    0    0  501    0  0.00000000000E+00  0.00000000000E+00  0.29435322971E+04  0.29435322971E+04  0.25500000920E-02 0.  1.
       -2   -1    0    0    0  501  0.00000000000E+00  0.00000000000E+00 -0.10325228512E+04  0.10325228512E+04  0.25500000920E-02 0. -1.
    10030    2    1    2    0    0  0.00000000000E+00  0.00000000000E+00  0.19110094459E+04  0.39760551483E+04  0.34866972108E+04 0.  0.
        5    1    3    3  502    0  0.16870020343E+04  0.24463396452E+03  0.53897148925E+03  0.17878294093E+04  0.46999998093E+01 0. -1.
       -5    1    3    3    0  502 -0.16870020343E+04 -0.24463396452E+03  0.13720379566E+04  0.21882257390E+04  0.46999998093E+01 0.  1.
</event>
<event>
 5   0  0.1121462E-08  0.3501001E+04  0.7818609E-02  0.8113553E-01
        1   -1    0    0  501    0  0.00000000000E+00  0.00000000000E+00  0.12143378803E+04  0.12143378803E+04  0.50400001928E-02 0. -1.
       -1   -1    0    0    0  501  0.00000000000E+00  0.00000000000E+00 -0.25233936995E+04  0.25233936996E+04  0.50400001928E-02 0.  1.
    10030    2    1    2    0    0  0.00000000000E+00  0.00000000000E+00 -0.13090558193E+04  0.37377315798E+04  0.35010013175E+04 0.  0.
        2    1    3    3  502    0 -0.12108699493E+03 -0.14344345062E+04 -0.17178603811E+04  0.22412739016E+04  0.25500000920E-02 0.  1.
       -2    1    3    3    0  502  0.12108699493E+03  0.14344345062E+04  0.40880456183E+03  0.14964576783E+04  0.25500000920E-02 0. -1.
</event>
<event>
 5   0  0.3467834E-08  0.3499105E+04  0.7818609E-02  0.8114002E-01
        2   -1    0    0  501    0  0.00000000000E+00  0.00000000000E+00  0.25364097798E+04  0.25364097798E+04  0.25500000920E-02 0.  1.
       -2   -1    0    0    0  501  0.00000000000E+00  0.00000000000E+00 -0.12067978311E+04  0.12067978311E+04  0.25500000920E-02 0. -1.
    10030    2    1    2    0    0  0.00000000000E+00  0.00000000000E+00  0.13296119486E+04  0.37432076109E+04  0.34991049262E+04 0.  0.
        3    1    3    3  502    0  0.46549011350E+03  0.37052419876E+03  0.24248690678E+04  0.24967897857E+04  0.10100000352E+00 0.  1.
       -3    1    3    3    0  502 -0.46549011350E+03 -0.37052419876E+03 -0.10952571192E+04  0.12464178252E+04  0.10100000352E+00 0. -1.
</event>
<event>
 5   0  0.3628017E-08  0.3500615E+04  0.7818609E-02  0.8113644E-01
        2   -1    0    0  501    0  0.00000000000E+00  0.00000000000E+00  0.21663548680E+04  0.21663548680E+04  0.25500000920E-02 0.  1.
       -2   -1    0    0    0  501  0.00000000000E+00  0.00000000000E+00 -0.14141621536E+04  0.14141621536E+04  0.25500000920E-02 0. -1.
    10030    2    1    2    0    0  0.00000000000E+00  0.00000000000E+00  0.75219271436E+03  0.35805170216E+04  0.35006154120E+04 0.  0.
        1    1    3    3  502    0 -0.56789635495E+03 -0.15760067921E+04  0.89489493154E+03  0.18992473818E+04  0.50400001928E-02 0.  1.
       -1    1    3    3    0  502  0.56789635495E+03  0.15760067921E+04 -0.14270221718E+03  0.16812696398E+04  0.50400001928E-02 0. -1.
</event>
<event>
 5   0  0.1129219E-08  0.3500520E+04  0.7818609E-02  0.8113667E-01
       -1   -1    0    0    0  501  0.00000000000E+00  0.00000000000E+00  0.32176140124E+04  0.32176140124E+04  0.50400001928E-02 0.  1.
        1   -1    0    0  501    0  0.00000000000E+00  0.00000000000E+00 -0.95207531267E+03  0.95207531269E+03  0.50400001928E-02 0. -1.
    10030    2    1    2    0    0  0.00000000000E+00  0.00000000000E+00  0.22655386997E+04  0.41696893251E+04  0.35005204567E+04 0.  0.
        5    1    3    3  502    0  0.15809974675E+03 -0.92191416388E+03  0.28949122755E+04  0.30422788216E+04  0.46999998093E+01 0.  1.
       -5    1    3    3    0  502 -0.15809974675E+03  0.92191416388E+03 -0.62937357578E+03  0.11274105035E+04  0.46999998093E+01 0. -1.
</event>
<event>
 5   0  0.3467834E-08  0.3500261E+04  0.7818609E-02  0.8113728E-01
        2   -1    0    0  501    0  0.00000000000E+00  0.00000000000E+00  0.13178343291E+04  0.13178343291E+04  0.25500000920E-02 0.  1.
       -2   -1    0    0    0  501  0.00000000000E+00  0.00000000000E+00 -0.23242354253E+04  0.23242354253E+04  0.25500000920E-02 0. -1.
    10030    2    1    2    0    0  0.00000000000E+00  0.00000000000E+00 -0.10064010962E+04  0.36420697543E+04  0.35002612658E+04 0.  0.
        3    1    3    3  502    0  0.25046612628E+02  0.13544762606E+04 -0.16561178614E+04  0.21396167073E+04  0.10100000352E+00 0. -1.
       -3    1    3    3    0  502 -0.25046612628E+02 -0.13544762606E+04  0.64971676518E+03  0.15024530470E+04  0.10100000352E+00 0.  1.
</event>
<event>
 5   0  0.1121462E-08  0.3498729E+04  0.7818609E-02  0.8114091E-01
        1   -1    0    0  501    0  0.00000000000E+00  0.00000000000E+00  0.13476166152E+04  0.13476166152E+04  0.50400001928E-02 0. -1.
       -1   -1    0    0    0  501  0.00000000000E+00  0.00000000000E+00 -0.22708800537E+04  0.22708800537E+04  0.50400001928E-02 0.  1.
    10030    2    1    2    0    0  0.00000000000E+00  0.00000000000E+00 -0.92326343851E+03  0.36184966689E+04  0.34987287356E+04 0.  0.
        4    1    3    3  502    0  0.98449084998E+03  0.47534155056E+03 -0.18740691845E+04  0.21696333203E+04  0.12699999809E+01 0.  1.
       -4    1    3    3    0  502 -0.98449084998E+03 -0.47534155056E+03  0.95080574596E+03  0.14488633486E+04  0.12699999809E+01 0. -1.
</event>
<event>
 5   0  0.1121462E-08  0.3500425E+04  0.7818609E-02  0.8113689E-01
       -1   -1    0    0    0  501  0.00000000000E+00  0.00000000000E+00  0.13338246110E+04  0.13338246111E+04  0.50400001928E-02 0.  1.
        1   -1    0    0  501    0  0.00000000000E+00  0.00000000000E+00 -0.22965872276E+04  0.22965872276E+04  0.50400001928E-02 0. -1.
    10030    2    1    2    0    0  0.00000000000E+00  0.00000000000E+00 -0.96276261651E+03  0.36304118386E+04  0.35004254402E+04 0.  0.
        1    1    3    3  502    0  0.82016490557E+03 -0.14178208562E+04 -0.11210151086E+04  0.19848328208E+04  0.50400001928E-02 0. -1.
       -1    1    3    3    0  502 -0.82016490557E+03  0.14178208562E+04  0.15825249205E+03  0.16455790178E+04  0.50400001928E-02 0.  1.
</event>
<event>
 5   0  0.1140808E-08  0.3502671E+04  0.7818609E-02  0.8113157E-01
        1   -1    0    0  501    0  0.00000000000E+00  0.00000000000E+00  0.18238965751E+04  0.18238965751E+04  0.50400001928E-02 0. -1.
       -1   -1    0    0    0  501  0.00000000000E+00  0.00000000000E+00 -0.16816613942E+04  0.16816613943E+04  0.50400001928E-02 0.  1.
    10030    2    1    2    0    0  0.00000000000E+00  0.00000000000E+00  0.14223518089E+03  0.35055579694E+04  0.35026712421E+04 0.  0.
        3    1    3    3  502    0 -0.14295595689E+04 -0.76702935053E+03 -0.58912441119E+03  0.17259901992E+04  0.10100000352E+00 0.  1.
       -3    1    3    3    0  502  0.14295595689E+04  0.76702935053E+03  0.73135959208E+03  0.17795677702E+04  0.10100000352E+00 0. -1.
</event>
<event>
 5   0  0.3700096E-08  0.3503177E+04  0.7818609E-02  0.8113037E-01
       -2   -1    0    0    0  501  0.00000000000E+00  0.00000000000E+00  0.12590499405E+04  0.12590499405E+04  0.25500000920E-02 0.  1.
        2   -1    0    0  501    0  0.00000000000E+00  0.00000000000E+00 -0.24368074128E+04  0.24368074128E+04  0.25500000920E-02 0. -1.
    10030    2    1    2    0    0  0.00000000000E+00  0.00000000000E+00 -0.11777574723E+04  0.36958573532E+04  0.35031769741E+04 0.  0.
        4    1    3    3  502    0  0.79717588028E+03  0.61593201841E+03 -0.21005892825E+04  0.23296649077E+04  0.12699999809E+01 0. -1.
       -4    1    3    3    0  502 -0.79717588028E+03 -0.61593201841E+03  0.92283181022E+03  0.13661924455E+04  0.12699999809E+01 0.  1.
</event>
<event>
 5   0  0.3700096E-08  0.3503588E+04  0.7818609E-02  0.8112940E-01
        2   -1    0    0  501    0  0.00000000000E+00  0.00000000000E+00  0.20506749056E+04  0.20506749056E+04  0.25500000920E-02 0.  1.
       -2   -1    0    0    0  501  0.00000000000E+00  0.00000000000E+00 -0.14964746567E+04  0.14964746567E+04  0.25500000920E-02 0. -1.
    10030    2    1    2    0    0  0.00000000000E+00  0.00000000000E+00  0.55420024896E+03  0.35471495623E+04  0.35035884606E+04 0.  0.
        4    1    3    3  502    0  0.10714344797E+04  0.13832251474E+04  0.18943392665E+03  0.17598779725E+04  0.12699999809E+01 0.  1.
       -4    1    3    3    0  502 -0.10714344797E+04 -0.13832251474E+04  0.36476632231E+03  0.17872715898E+04  0.12699999809E+01 0. -1.
</event>
<event>
 5   0  0.1121462E-08  0.3500609E+04  0.7818609E-02  0.8113646E-01
       -1   -1    0    0    0  501  0.00000000000E+00  0.00000000000E+00  0.20331851555E+04  0.20331851555E+04  0.50400001928E-02 0.  1.
        1   -1    0    0  501    0  0.00000000000E+00  0.00000000000E+00 -0.15067812574E+04  0.15067812574E+04  0.50400001928E-02 0. -1.
    10030    2    1    2    0    0  0.00000000000E+00  0.00000000000E+00  0.52640389816E+03  0.35399664129E+04  0.35006086815E+04 0.  0.
        2    1    3    3  502    0  0.21327852507E+03  0.17372143013E+02  0.20199078462E+04  0.20312107788E+04  0.25500000920E-02 0.  1.
       -2    1    3    3    0  502 -0.21327852507E+03 -0.17372143013E+02 -0.14935039481E+04  0.15087556341E+04  0.25500000920E-02 0. -1.
</event>
<event>
 5   0  0.1129219E-08  0.3501412E+04  0.7818609E-02  0.8113455E-01
       -1   -1    0    0    0  501  0.00000000000E+00  0.00000000000E+00  0.18007106207E+04  0.18007106207E+04  0.50400001928E-02 0. -1.
        1   -1    0    0  501    0  0.00000000000E+00  0.00000000000E+00 -0.17020901891E+04  0.17020901892E+04  0.50400001928E-02 0.  1.
    10030    2    1    2    0    0  0.00000000000E+00  0.00000000000E+00  0.98620431519E+02  0.35028008098E+04  0.35014122185E+04 0.  0.
        5    1    3    3  502    0 -0.11857904808E+04  0.12281447943E+04 -0.33880122968E+03  0.17404732297E+04  0.46999998093E+01 0.  1.
       -5    1    3    3    0  502  0.11857904808E+04 -0.12281447943E+04  0.43742166120E+03  0.17623275801E+04  0.46999998093E+01 0. -1.
</event>
<event>
 5   0  0.1129219E-08  0.3499596E+04  0.7818609E-02  0.8113886E-01
        1   -1    0    0  501    0  0.00000000000E+00  0.00000000000E+00  0.21915842628E+04  0.21915842628E+04  0.50400001928E-02 0.  1.
       -1   -1    0    0    0  501  0.00000000000E+00  0.00000000000E+00 -0.13970683198E+04  0.13970683198E+04  0.50400001928E-02 0. -1.
    10030    2    1    2    0    0  0.00000000000E+00  0.00000000000E+00  0.79451594297E+03  0.35886525827E+04  0.34995959446E+04 0.  0.
        5    1    3    3  502    0  0.66165650928E+03  0.36988114865E+03 -0.12199512139E+04  0.14362814677E+04  0.46999998093E+01 0. -1.
       -5    1    3    3    0  502 -0.66165650928E+03 -0.36988114865E+03  0.20144671568E+04  0.21523711149E+04  0.46999998093E+01 0.  1.
</event>
<event>
 5   0  0.3553585E-08  0.3501659E+04  0.7818609E-02  0.8113397E-01
        2   -1    0    0  501    0  0.00000000000E+00  0.00000000000E+00  0.20389255984E+04  0.20389255984E+04  0.25500000920E-02 0.  1.
       -2   -1    0    0    0  501  0.00000000000E+00  0.00000000000E+00 -0.15034412121E+04  0.15034412121E+04  0.25500000920E-02 0. -1.
    10030    2    1    2    0    0  0.00000000000E+00  0.00000000000E+00  0.53548438631E+03  0.35423668105E+04  0.35016594769E+04 0.  0.
        2    1    3    3  502    0 -0.12812299157E+03 -0.16406858987E+04 -0.33681625132E+03  0.16797949001E+04  0.25500000920E-02 0. -1.
       -2    1    3    3    0  502  0.12812299157E+03  0.16406858987E+04  0.87230063763E+03  0.18625719104E+04  0.25500000920E-02 0.  1.
</event>
<event>
 5   0  0.3467834E-08  0.3498712E+04  0.7818609E-02  0.8114095E-01
        2   -1    0    0  501    0  0.00000000000E+00  0.00000000000E+00  0.27635730902E+04  0.27635730902E+04  0.25500000920E-02 0. -1.
       -2   -1    0    0    0  501  0.00000000000E+00  0.00000000000E+00 -0.11073511088E+04  0.11073511088E+04  0.25500000920E-02 0.  1.
    10030    2    1    2    0    0  0.00000000000E+00  0.00000000000E+00  0.16562219814E+04  0.38709241990E+04  0.34987116060E+04 0.  0.
        3    1    3    3  502    0  0.14016439297E+04  0.92428274275E+03  0.28458232436E+03  0.17029067513E+04  0.10100000352E+00 0.  1.
       -3    1    3    3    0  502 -0.14016439297E+04 -0.92428274275E+03  0.13716396571E+04  0.21680174476E+04  0.10100000352E+00 0. -1.
</event>
<event>
 5   0  0.3628017E-08  0.3502766E+04  0.7818609E-02  0.8113135E-01
       -2   -1    0    0    0  501  0.00000000000E+00  0.00000000000E+00  0.10223041508E+04  0.10223041508E+04  0.25500000920E-02 0. -1.
        2   -1    0    0  501    0  0.00000000000E+00  0.00000000000E+00 -0.30004204954E+04  0.30004204954E+04  0.25500000920E-02 0.  1.
    10030    2    1    2    0    0  0.00000000000E+00  0.00000000000E+00 -0.19781163446E+04  0.40227246463E+04  0.35027659509E+04 0.  0.
        1    1    3    3  502    0 -0.12406560616E+04 -0.62259216753E+03  0.23740824779E+03  0.14082652969E+04  0.50400001928E-02 0. -1.
       -1    1    3    3    0  502  0.12406560616E+04  0.62259216753E+03 -0.22155245924E+04  0.26144593494E+04  0.50400001928E-02 0.  1.
</event>
<event>
 5   0  0.3553585E-08  0.3499628E+04  0.7818609E-02  0.8113878E-01
       -2   -1    0    0    0  501  0.00000000000E+00  0.00000000000E+00  0.16731548506E+04  0.16731548507E+04  0.25500000920E-02 0. -1.
        2   -1    0    0  501    0  0.00000000000E+00  0.00000000000E+00 -0.18299853847E+04  0.18299853847E+04  0.25500000920E-02 0.  1.
    10030    2    1    2    0    0  0.00000000000E+00  0.00000000000E+00 -0.15683053410E+03  0.35031402354E+04  0.34996279363E+04 0.  0.
        2    1    3    3  502    0 -0.16763666012E+04 -0.37636909115E+03  0.25356535974E+03  0.17367078240E+04  0.25500000920E-02 0.  1.
       -2    1    3    3    0  502  0.16763666012E+04  0.37636909115E+03 -0.41039589384E+03  0.17664324114E+04  0.25500000920E-02 0. -1.
</event>
<event>
 5   0  0.3467834E-08  0.3500521E+04  0.7818609E-02  0.8113667E-01
        2   -1    0    0  501    0  0.00000000000E+00  0.00000000000E+00  0.20325136891E+04  0.20325136891E+04  0.25500000920E-02 0. -1.
       -2   -1    0    0    0  501  0.00000000000E+00  0.00000000000E+00 -0.15072031509E+04  0.15072031509E+04  0.25500000920E-02 0.  1.
    10030    2    1    2    0    0  0.00000000000E+00  0.00000000000E+00  0.52531053828E+03  0.35397168400E+04  0.35005205535E+04 0.  0.
        3    1    3    3  502    0 -0.14260306550E+04 -0.51955671935E+03  0.11441434959E+04  0.19006753966E+04  0.10100000352E+00 0. -1.
       -3    1    3    3    0  502  0.14260306550E+04  0.51955671935E+03 -0.61883295766E+03  0.16390414434E+04  0.10100000352E+00 0.  1.
</event>
<event>
 5   0  0.1129219E-08  0.3495831E+04  0.7818609E-02  0.8114779E-01
       -1   -1    0    0    0  501  0.00000000000E+00  0.00000000000E+00  0.17383583140E+04  0.17383583140E+04  0.50400001928E-02 0. -1.
        1   -1    0    0  501    0  0.00000000000E+00  0.00000000000E+00 -0.17575255704E+04  0.17575255704E+04  0.50400001928E-02 0.  1.
    10030    2    1    2    0    0  0.00000000000E+00  0.00000000000E+00 -0.19167256403E+02  0.34958838845E+04  0.34958313389E+04 0.  0.
        5    1    3    3  502    0 -0.13752595205E+04 -0.56798695042E+03 -0.92678832853E+03  0.17529707985E+04  0.46999998093E+01 0.  1.
       -5    1    3    3    0  502  0.13752595205E+04  0.56798695042E+03  0.90762107213E+03  0.17429130860E+04  0.46999998093E+01 0. -1.
</event>
<event>
 5   0  0.3554451E-08  0.3500439E+04  0.7818609E-02  0.8113686E-01
       -2   -1    0    0    0  501  0.00000000000E+00  0.00000000000E+00  0.17941602685E+04  0.17941602685E+04  0.25500000920E-02 0. -1.
        2   -1    0    0  501    0  0.00000000000E+00  0.00000000000E+00 -0.17073553615E+04  0.17073553615E+04  0.25500000920E-02 0.  1.
    10030    2    1    2    0    0  0.00000000000E+00  0.00000000000E+00  0.86804907003E+02  0.35015156300E+04  0.35004394889E+04 0.  0.
        5    1    3    3  502    0 -0.13457747540E+03  0.11976605231E+04  0.13129440143E+04  0.17822305967E+04  0.46999998093E+01 0. -1.
       -5    1    3    3    0  502  0.13457747540E+03 -0.11976605231E+04 -0.12261391073E+04  0.17192850333E+04  0.46999998093E+01 0.  1.
</event>
<event>
 5   0  0.1129219E-08  0.3500158E+04  0.7818609E-02  0.8113753E-01
       -1   -1    0    0    0  501  0.00000000000E+00  0.00000000000E+00  0.13668120594E+04  0.13668120594E+04  0.50400001928E-02 0.  1.
        1   -1    0    0  501    0  0.00000000000E+00  0.00000000000E+00 -0.22408169675E+04  0.22408169675E+04  0.50400001928E-02 0. -1.
    10030    2    1    2    0    0  0.00000000000E+00  0.00000000000E+00 -0.87400490811E+03  0.36076290269E+04  0.35001575131E+04 0.  0.
        5    1    3    3  502    0  0.14985064439E+04  0.86444545852E+03 -0.70963516648E+03  0.18698640787E+04  0.46999998093E+01 0. -1.
       -5    1    3    3    0  502 -0.14985064439E+04 -0.86444545852E+03 -0.16436974163E+03  0.17377649482E+04  0.46999998093E+01 0.  1.
</event>
<event>
 5   0  0.1140808E-08  0.3501998E+04  0.7818609E-02  0.8113317E-01
        1   -1    0    0  501    0  0.00000000000E+00  0.00000000000E+00  0.11735742401E+04  0.11735742401E+04  0.50400001928E-02 0.  1.
       -1   -1    0    0    0  501  0.00000000000E+00  0.00000000000E+00 -0.26125299130E+04  0.26125299130E+04  0.50400001928E-02 0. -1.
    10030    2    1    2    0    0  0.00000000000E+00  0.00000000000E+00 -0.14389556729E+04  0.37861041531E+04  0.35019981767E+04 0.  0.
        3    1    3    3  502    0  0.38227116076E+03  0.33365127256E+03  0.10923511768E+04  0.12044440691E+04  0.10100000352E+00 0.  1.
       -3    1    3    3    0  502 -0.38227116076E+03 -0.33365127256E+03 -0.25313068497E+04  0.25816600840E+04  0.10100000352E+00 0. -1.
</event>
<event>
 5   0  0.3467834E-08  0.3500098E+04  0.7818609E-02  0.8113767E-01
        2   -1    0    0  501    0  0.00000000000E+00  0.00000000000E+00  0.17999008101E+04  0.17999008101E+04  0.25500000920E-02 0.  1.
       -2   -1    0    0    0  501  0.00000000000E+00  0.00000000000E+00 -0.17015777476E+04  0.17015777476E+04  0.25500000920E-02 0. -1.
    10030    2    1    2    0    0  0.00000000000E+00  0.00000000000E+00  0.98323062582E+02  0.35014785577E+04  0.35000978080E+04 0.  0.
        3    1    3    3  502    0 -0.81339893002E+03 -0.57902725827E+03  0.14870109489E+04  0.17911147248E+04  0.10100000352E+00 0.  1.
       -3    1    3    3    0  502  0.81339893002E+03  0.57902725827E+03 -0.13886878863E+04  0.17103638329E+04  0.10100000352E+00 0. -1.
</event>
<event>
 5   0  0.1121462E-08  0.3499884E+04  0.7818609E-02  0.8113817E-01
        1   -1    0    0  501    0  0.00000000000E+00  0.00000000000E+00  0.17700909428E+04  0.17700909428E+04  0.50400001928E-02 0. -1.
       -1   -1    0    0    0  501  0.00000000000E+00  0.00000000000E+00 -0.17300225154E+04  0.17300225154E+04  0.50400001928E-02 0.  1.
    10030    2    1    2    0    0  0.00000000000E+00  0.00000000000E+00  0.40068427361E+02  0.35001134582E+04  0.34998841040E+04 0.  0.
        1    1    3    3  502    0 -0.17023648476E+04 -0.19583238390E+03  0.37488247689E+03  0.17541189436E+04  0.50400001928E-02 0. -1.
       -1    1    3    3    0  502  0.17023648476E+04  0.19583238390E+03 -0.33481404952E+03  0.17459945145E+04  0.50400001928E-02 0.  1.
</event>
<event>
 5   0  0.1140808E-08  0.3501747E+04  0.7818609E-02  0.8113376E-01
        1   -1    0    0  501    0  0.00000000000E+00  0.00000000000E+00  0.25018891406E+04  0.25018891406E+04  0.50400001928E-02 0.  1.
       -1   -1    0    0    0  501  0.00000000000E+00  0.00000000000E+00 -0.12252971795E+04  0.12252971795E+04  0.50400001928E-02 0. -1.
    10030    2    1    2    0    0  0.00000000000E+00  0.00000000000E+00  0.12765919611E+04  0.37271863201E+04  0.35017468254E+04 0.  0.
        3    1    3    3  502    0  0.48199681134E+03 -0.13897018668E+04  0.16491567007E+04  0.22098212684E+04  0.10100000352E+00 0.  1.
       -3    1    3    3    0  502 -0.48199681134E+03  0.13897018668E+04 -0.37256473960E+03  0.15173650517E+04  0.10100000352E+00 0. -1.
</event>
<event>
 5   0  0.1121462E-08  0.3500723E+04  0.7818609E-02  0.8113619E-01
       -1   -1    0    0    0  501  0.00000000000E+00  0.00000000000E+00  0.11080607564E+04  0.11080607564E+04  0.50400001928E-02 0.  1.
        1   -1    0    0  501    0  0.00000000000E+00  0.00000000000E+00 -0.27649788516E+04  0.27649788516E+04  0.50400001928E-02 0. -1.
    10030    2    1    2    0    0  0.00000000000E+00  0.00000000000E+00 -0.16569180952E+04  0.38730396080E+04  0.35007225299E+04 0.  0.
        4    1    3    3  502    0  0.13001817622E+04  0.86711537250E+03  0.43669121083E+02  0.15634162238E+04  0.12699999809E+01 0.  1.
       -4    1    3    3    0  502 -0.13001817622E+04 -0.86711537250E+03 -0.17005872162E+04  0.23096233842E+04  0.12699999809E+01 0. -1.
</event>
<event>
 5   0  0.1129219E-08  0.3499283E+04  0.7818609E-02  0.8113960E-01
        1   -1    0    0  501    0  0.00000000000E+00  0.00000000000E+00  0.10136948652E+04  0.10136948652E+04  0.50400001928E-02 0.  1.
       -1   -1    0    0    0  501  0.00000000000E+00  0.00000000000E+00 -0.30198886545E+04  0.30198886545E+04  0.50400001928E-02 0. -1.
    10030    2    1    2    0    0  0.00000000000E+00  0.00000000000E+00 -0.20061937893E+04  0.40335835197E+04  0.34992831395E+04 0.  0.
        5    1    3    3  502    0 -0.16922929536E+04  0.21052049871E+03 -0.14540459877E+04  0.22410814678E+04  0.46999998093E+01 0. -1.
       -5    1    3    3    0  502  0.16922929536E+04 -0.21052049871E+03 -0.55214780160E+03  0.17925020519E+04  0.46999998093E+01 0.  1.
</event>
<event>
 5   0  0.3700096E-08  0.3501523E+04  0.7818609E-02  0.8113429E-01
        2   -1    0    0  501    0  0.00000000000E+00  0.00000000000E+00  0.22699630086E+04  0.22699630086E+04  0.25500000920E-02 0.  1.
       -2   -1    0    0    0  501  0.00000000000E+00  0.00000000000E+00 -0.13503150640E+04  0.13503150640E+04  0.25500000920E-02 0. -1.
    10030    2    1    2    0    0  0.00000000000E+00  0.00000000000E+00  0.91964794456E+03  0.36202780726E+04  0.35015226661E+04 0.  0.
        4    1    3    3  502    0 -0.34398539660E+03  0.13320713370E+03  0.22293282151E+04  0.22596406788E+04  0.12699999809E+01 0.  1.
       -4    1    3    3    0  502  0.34398539660E+03 -0.13320713370E+03 -0.13096802706E+04  0.13606373939E+04  0.12699999809E+01 0. -1.
</event>
<event>
 5   0  0.3628017E-08  0.3500605E+04  0.7818609E-02  0.8113647E-01
       -2   -1    0    0    0  501  0.00000000000E+00  0.00000000000E+00  0.11922246894E+04  0.11922246894E+04  0.25500000920E-02 0. -1.
        2   -1    0    0  501    0  0.00000000000E+00  0.00000000000E+00 -0.25696150673E+04  0.25696150673E+04  0.25500000920E-02 0.  1.
    10030    2    1    2    0    0  0.00000000000E+00  0.00000000000E+00 -0.13773903779E+04  0.37618397568E+04  0.35006048195E+04 0.  0.
        1    1    3    3  502    0 -0.22763879896E+03  0.80482714238E+03 -0.23409622353E+04  0.24858942735E+04  0.50400001928E-02 0.  1.
       -1    1    3    3    0  502  0.22763879896E+03 -0.80482714238E+03  0.96357185738E+03  0.12759454833E+04  0.50400001928E-02 0. -1.
</event>
<event>
 5   0  0.1121462E-08  0.3501745E+04  0.7818609E-02  0.8113377E-01
        1   -1    0    0  501    0  0.00000000000E+00  0.00000000000E+00  0.23771529133E+04  0.23771529133E+04  0.50400001928E-02 0.  1.
       -1   -1    0    0    0  501  0.00000000000E+00  0.00000000000E+00 -0.12895906490E+04  0.12895906490E+04  0.50400001928E-02 0. -1.
    10030    2    1    2    0    0  0.00000000000E+00  0.00000000000E+00  0.10875622642E+04  0.36667435623E+04  0.35017448041E+04 0.  0.
        4    1    3    3  502    0  0.85082249161E+03 -0.15267837673E+04  0.65151218054E+03  0.18653249900E+04  0.12699999809E+01 0.  1.
       -4    1    3    3    0  502 -0.85082249161E+03  0.15267837673E+04  0.43605008369E+03  0.18014185723E+04  0.12699999809E+01 0. -1.
</event>
<event>
 5   0  0.3553585E-08  0.3516684E+04  0.7818609E-02  0.8109847E-01
       -2   -1    0    0    0  501  0.00000000000E+00  0.00000000000E+00  0.15225921830E+04  0.15225921830E+04  0.25500000920E-02 0.  1.
        2   -1    0    0  501    0  0.00000000000E+00  0.00000000000E+00 -0.20305939206E+04  0.20305939206E+04  0.25500000920E-02 0. -1.
    10030    2    1    2    0    0  0.00000000000E+00  0.00000000000E+00 -0.50800173766E+03  0.35531861036E+04  0.35166839098E+04 0.  0.
        2    1    3    3  502    0 -0.11074588674E+03 -0.17274379281E+04 -0.56617384006E+03  0.18212246605E+04  0.25500000920E-02 0. -1.
       -2    1    3    3    0  502  0.11074588674E+03  0.17274379281E+04  0.58172102401E+02  0.17319614431E+04  0.25500000920E-02 0.  1.
</event>
<event>
 5   0  0.1129219E-08  0.3493579E+04  0.7818609E-02  0.8115313E-01
       -1   -1    0    0    0  501  0.00000000000E+00  0.00000000000E+00  0.10774053405E+04  0.10774053406E+04  0.50400001928E-02 0.  1.
        1   -1    0    0  501    0  0.00000000000E+00  0.00000000000E+00 -0.28320571198E+04  0.28320571198E+04  0.50400001928E-02 0. -1.
    10030    2    1    2    0    0  0.00000000000E+00  0.00000000000E+00 -0.17546517793E+04  0.39094624603E+04  0.34935789475E+04 0.  0.
        5    1    3    3  502    0  0.64745004294E+02 -0.10925598373E+03  0.10722251249E+04  0.10797303340E+04  0.46999998093E+01 0.  1.
       -5    1    3    3    0  502 -0.64745004294E+02  0.10925598373E+03 -0.28268769042E+04  0.28297321264E+04  0.46999998093E+01 0. -1.
</event>
<event>
 5   0  0.3553585E-08  0.3499917E+04  0.7818609E-02  0.8113810E-01
       -2   -1    0    0    0  501  0.00000000000E+00  0.00000000000E+00  0.14236062727E+04  0.14236062727E+04  0.25500000920E-02 0. -1.
        2   -1    0    0  501    0  0.00000000000E+00  0.00000000000E+00 -0.21511242920E+04  0.21511242920E+04  0.25500000920E-02 0.  1.
    10030    2    1    2    0    0  0.00000000000E+00  0.00000000000E+00 -0.72751801929E+03  0.35747305647E+04  0.34999165907E+04 0.  0.
        2    1    3    3  502    0  0.15746298039E+04 -0.72174592293E+03 -0.10948390987E+03  0.17356160068E+04  0.25500000920E-02 0.  1.
       -2    1    3    3    0  502 -0.15746298039E+04  0.72174592293E+03 -0.61803410942E+03  0.18391145579E+04  0.25500000920E-02 0. -1.
</event>
<event>
 5   0  0.1121462E-08  0.3501634E+04  0.7818609E-02  0.8113403E-01
       -1   -1    0    0    0  501  0.00000000000E+00  0.00000000000E+00  0.20396620880E+04  0.20396620880E+04  0.50400001928E-02 0.  1.
        1   -1    0    0  501    0  0.00000000000E+00  0.00000000000E+00 -0.15028763308E+04  0.15028763308E+04  0.50400001928E-02 0. -1.
    10030    2    1    2    0    0  0.00000000000E+00  0.00000000000E+00  0.53678575721E+03  0.35425384188E+04  0.35016338329E+04 0.  0.
        4    1    3    3  502    0 -0.16155684232E+04 -0.26982604545E+03 -0.35729012386E+03  0.16764621291E+04  0.12699999809E+01 0. -1.
       -4    1    3    3    0  502  0.16155684232E+04  0.26982604545E+03  0.89407588107E+03  0.18660762897E+04  0.12699999809E+01 0.  1.
</event>
<event>
 5   0  0.1121462E-08  0.3499371E+04  0.7818609E-02  0.8113939E-01
        1   -1    0    0  501    0  0.00000000000E+00  0.00000000000E+00  0.16313968947E+04  0.16313968948E+04  0.50400001928E-02 0.  1.
       -1   -1    0    0    0  501  0.00000000000E+00  0.00000000000E+00 -0.18765509094E+04  0.18765509094E+04  0.50400001928E-02 0. -1.
    10030    2    1    2    0    0  0.00000000000E+00  0.00000000000E+00 -0.24515401465E+03  0.35079478042E+04  0.34993709872E+04 0.  0.
        4    1    3    3  502    0 -0.45295165297E+03 -0.12249141674E+04  0.10446727732E+04  0.16724002910E+04  0.12699999809E+01 0.  1.
       -4    1    3    3    0  502  0.45295165297E+03  0.12249141674E+04 -0.12898267879E+04  0.18355475131E+04  0.12699999809E+01 0. -1.
</event>
<event>
 5   0  0.1121462E-08  0.3499979E+04  0.7818609E-02  0.8113795E-01
        1   -1    0    0  501    0  0.00000000000E+00  0.00000000000E+00  0.24525651400E+04  0.24525651401E+04  0.50400001928E-02 0. -1.
       -1   -1    0    0    0  501  0.00000000000E+00  0.00000000000E+00 -0.12486779633E+04  0.12486779633E+04  0.50400001928E-02 0.  1.
    10030    2    1    2    0    0  0.00000000000E+00  0.00000000000E+00  0.12038871767E+04  0.37012431034E+04  0.34999794537E+04 0.  0.
        4    1    3    3  502    0 -0.52960234676E+03 -0.61815976226E+03  0.22401751076E+04  0.23834819619E+04  0.12699999809E+01 0. -1.
       -4    1    3    3    0  502  0.52960234676E+03  0.61815976226E+03 -0.10362879309E+04  0.13177611414E+04  0.12699999809E+01 0.  1.
</event>
<event>
 5   0  0.3553585E-08  0.3495157E+04  0.7818609E-02  0.8114939E-01
       -2   -1    0    0    0  501  0.00000000000E+00  0.00000000000E+00  0.16026102696E+04  0.16026102696E+04  0.25500000920E-02 0. -1.
        2   -1    0    0  501    0  0.00000000000E+00  0.00000000000E+00 -0.19056606907E+04  0.19056606908E+04  0.25500000920E-02 0.  1.
    10030    2    1    2    0    0  0.00000000000E+00  0.00000000000E+00 -0.30305042112E+03  0.35082709604E+04  0.34951574462E+04 0.  0.
        2    1    3    3  502    0  0.42734703761E+03  0.16877047355E+04 -0.30394561894E+03  0.17673018147E+04  0.25500000920E-02 0. -1.
       -2    1    3    3    0  502 -0.42734703761E+03 -0.16877047355E+04  0.89519782118E+00  0.17409691457E+04  0.25500000920E-02 0.  1.
</event>
<event>
 5   0  0.1121462E-08  0.3501174E+04  0.7818609E-02  0.8113512E-01
       -3   -1    0    0    0  501  0.00000000000E+00  0.00000000000E+00  0.25587916703E+04  0.25587916723E+04  0.10100000352E+00 0. -1.
        3   -1    0    0  501    0  0.00000000000E+00  0.00000000000E+00 -0.11976572613E+04  0.11976572656E+04  0.10100000352E+00 0.  1.
    10030    2    1    2    0    0  0.00000000000E+00  0.00000000000E+00  0.13611344089E+04  0.37564489379E+04  0.35011743378E+04 0.  0.
        5    1    3    3  502    0  0.14904277991E+04  0.19047186385E+02  0.16655414249E+04  0.22351259803E+04  0.46999998093E+01 0. -1.
       -5    1    3    3    0  502 -0.14904277991E+04 -0.19047186385E+02 -0.30440701599E+03  0.15213229575E+04  0.46999998093E+01 0.  1.
</event>
<event>
 5   0  0.3554451E-08  0.3499420E+04  0.7818609E-02  0.8113928E-01
        2   -1    0    0  501    0  0.00000000000E+00  0.00000000000E+00  0.18787815509E+04  0.18787815509E+04  0.25500000920E-02 0. -1.
       -2   -1    0    0    0  501  0.00000000000E+00  0.00000000000E+00 -0.16295052232E+04  0.16295052232E+04  0.25500000920E-02 0.  1.
    10030    2    1    2    0    0  0.00000000000E+00  0.00000000000E+00  0.24927632773E+03  0.35082867741E+04  0.34994195807E+04 0.  0.
        5    1    3    3  502    0  0.71831335730E+03  0.14284636618E+04  0.83705807572E+03  0.18047633708E+04  0.46999998093E+01 0. -1.
       -5    1    3    3    0  502 -0.71831335730E+03 -0.14284636618E+04 -0.58778174799E+03  0.17035234033E+04  0.46999998093E+01 0.  1.
</event>
<event>
 5   0  0.3554451E-08  0.3498648E+04  0.7818609E-02  0.8114110E-01
       -2   -1    0    0    0  501  0.00000000000E+00  0.00000000000E+00  0.20602510791E+04  0.20602510791E+04  0.25500000920E-02 0. -1.
        2   -1    0    0  501    0  0.00000000000E+00  0.00000000000E+00 -0.14853212914E+04  0.14853212914E+04  0.25500000920E-02 0.  1.
    10030    2    1    2    0    0  0.00000000000E+00  0.00000000000E+00  0.57492978775E+03  0.35455723705E+04  0.34986481923E+04 0.  0.
        5    1    3    3  502    0  0.70464960973E+03 -0.55594611628E+03 -0.12341744691E+04  0.15260458273E+04  0.46999998093E+01 0.  1.
       -5    1    3    3    0  502 -0.70464960973E+03  0.55594611628E+03  0.18091042569E+04  0.20195265432E+04  0.46999998093E+01 0. -1.
</event>
<event>
 5   0  0.3700096E-08  0.3484192E+04  0.7818609E-02  0.8117546E-01
       -2   -1    0    0    0  501  0.00000000000E+00  0.00000000000E+00  0.28338604430E+04  0.28338604430E+04  0.25500000920E-02 0.  1.
        2   -1    0    0  501    0  0.00000000000E+00  0.00000000000E+00 -0.10709416817E+04  0.10709416817E+04  0.25500000920E-02 0. -1.
    10030    2    1    2    0    0  0.00000000000E+00  0.00000000000E+00  0.17629187613E+04  0.39048021247E+04  0.34841924565E+04 0.  0.
        4    1    3    3  502    0  0.15551574993E+03 -0.50850772055E+03  0.27406826954E+04  0.27917930618E+04  0.12699999809E+01 0.  1.
       -4    1    3    3    0  502 -0.15551574993E+03  0.50850772055E+03 -0.97776393408E+03  0.11130090629E+04  0.12699999809E+01 0. -1.
</event>
<event>
 5   0  0.1121462E-08  0.3499499E+04  0.7818609E-02  0.8113909E-01
        1   -1    0    0  501    0  0.00000000000E+00  0.00000000000E+00  0.18370305618E+04  0.18370305618E+04  0.50400001928E-02 0. -1.
       -1   -1    0    0    0  501  0.00000000000E+00  0.00000000000E+00 -0.16666151188E+04  0.16666151188E+04  0.50400001928E-02 0.  1.
    10030    2    1    2    0    0  0.00000000000E+00  0.00000000000E+00  0.17041544302E+03  0.35036456806E+04  0.34994987687E+04 0.  0.
        1    1    3    3  502    0  0.14858585700E+04 -0.87829392244E+03  0.37268384070E+03  0.17658055242E+04  0.50400001928E-02 0.  1.
       -1    1    3    3    0  502 -0.14858585700E+04  0.87829392244E+03 -0.20226839768E+03  0.17378401564E+04  0.50400001928E-02 0. -1.
</event>
<event>
 5   0  0.1121462E-08  0.3497943E+04  0.7818609E-02  0.8114278E-01
        1   -1    0    0  501    0  0.00000000000E+00  0.00000000000E+00  0.32035742053E+04  0.32035742053E+04  0.50400001928E-02 0.  1.
       -1   -1    0    0    0  501  0.00000000000E+00  0.00000000000E+00 -0.95484021119E+03  0.95484021120E+03  0.50400001928E-02 0. -1.
    10030    2    1    2    0    0  0.00000000000E+00  0.00000000000E+00  0.22487339941E+04  0.41584144165E+04  0.34979430932E+04 0.  0.
        2    1    3    3  502    0  0.12563730137E+03 -0.13449862218E+04 -0.19630592037E+03  0.13650306527E+04  0.25500000920E-02 0. -1.
       -2    1    3    3    0  502 -0.12563730137E+03  0.13449862218E+04  0.24450399145E+04  0.27933837638E+04  0.25500000920E-02 0.  1.
</event>
<event>
 5   0  0.3553585E-08  0.3499382E+04  0.7818609E-02  0.8113936E-01
       -2   -1    0    0    0  501  0.00000000000E+00  0.00000000000E+00  0.17852128061E+04  0.17852128061E+04  0.25500000920E-02 0. -1.
        2   -1    0    0  501    0  0.00000000000E+00  0.00000000000E+00 -0.17148760962E+04  0.17148760962E+04  0.25500000920E-02 0.  1.
    10030    2    1    2    0    0  0.00000000000E+00  0.00000000000E+00  0.70336709882E+02  0.35000889022E+04  0.34993820984E+04 0.  0.
        2    1    3    3  502    0  0.68181619331E+03  0.83163875354E+03 -0.13452996883E+04  0.17223029900E+04  0.25500000920E-02 0.  1.
       -2    1    3    3    0  502 -0.68181619331E+03 -0.83163875354E+03  0.14156363982E+04  0.17777859123E+04  0.25500000920E-02 0. -1.
</event>
<event>
 5   0  0.1121462E-08  0.3500985E+04  0.7818609E-02  0.8113556E-01
       -1   -1    0    0    0  501  0.00000000000E+00  0.00000000000E+00  0.12441563437E+04  0.12441563437E+04  0.50400001928E-02 0. -1.
        1   -1    0    0  501    0  0.00000000000E+00  0.00000000000E+00 -0.24628936699E+04  0.24628936699E+04  0.50400001928E-02 0.  1.
    10030    2    1    2    0    0  0.00000000000E+00  0.00000000000E+00 -0.12187373262E+04  0.37070500137E+04  0.35009854518E+04 0.  0.
        2    1    3    3  502    0  0.72285487474E+02 -0.13704726318E+04 -0.17599759306E+04  0.22318009998E+04  0.25500000920E-02 0.  1.
       -2    1    3    3    0  502 -0.72285487474E+02  0.13704726318E+04  0.54123860446E+03  0.14752490139E+04  0.25500000920E-02 0. -1.
</event>
<event>
 5   0  0.3467834E-08  0.3501053E+04  0.7818609E-02  0.8113540E-01
        2   -1    0    0  501    0  0.00000000000E+00  0.00000000000E+00  0.19446576021E+04  0.19446576021E+04  0.25500000920E-02 0. -1.
       -2   -1    0    0    0  501  0.00000000000E+00  0.00000000000E+00 -0.15757752872E+04  0.15757752873E+04  0.25500000920E-02 0.  1.
    10030    2    1    2    0    0  0.00000000000E+00  0.00000000000E+00  0.36888231484E+03  0.35204328893E+04  0.35010532081E+04 0.  0.
        3    1    3    3  502    0  0.42788987437E+03  0.90093338998E+03 -0.12621229939E+04  0.16086407864E+04  0.10100000352E+00 0.  1.
       -3    1    3    3    0  502 -0.42788987437E+03 -0.90093338998E+03  0.16310053087E+04  0.19117921030E+04  0.10100000352E+00 0. -1.
</event>
<event>
 5   0  0.3554451E-08  0.3499705E+04  0.7818609E-02  0.8113860E-01
       -2   -1    0    0    0  501  0.00000000000E+00  0.00000000000E+00  0.15143654039E+04  0.15143654039E+04  0.25500000920E-02 0.  1.
        2   -1    0    0  501    0  0.00000000000E+00  0.00000000000E+00 -0.20219583344E+04  0.20219583344E+04  0.25500000920E-02 0. -1.
    10030    2    1    2    0    0  0.00000000000E+00  0.00000000000E+00 -0.50759293051E+03  0.35363237384E+04  0.34997049875E+04 0.  0.
        5    1    3    3  502    0 -0.75714481865E+03  0.14159800085E+04 -0.95655467773E+03  0.18690336012E+04  0.46999998093E+01 0. -1.
       -5    1    3    3    0  502  0.75714481865E+03 -0.14159800085E+04  0.44896174721E+03  0.16672901372E+04  0.46999998093E+01 0.  1.
</event>
<event>
 5   0  0.1129219E-08  0.3499262E+04  0.7818609E-02  0.8113965E-01
        1   -1    0    0  501    0  0.00000000000E+00  0.00000000000E+00  0.16880030974E+04  0.16880030974E+04  0.50400001928E-02 0. -1.
       -1   -1    0    0    0  501  0.00000000000E+00  0.00000000000E+00 -0.18135092351E+04  0.18135092351E+04  0.50400001928E-02 0.  1.
    10030    2    1    2    0    0  0.00000000000E+00  0.00000000000E+00 -0.12550613765E+03  0.35015123325E+04  0.34992623257E+04 0.  0.
        5    1    3    3  502    0 -0.74827496840E+03 -0.30992431850E+03  0.14891208578E+04  0.16951317148E+04  0.46999998093E+01 0. -1.
       -5    1    3    3    0  502  0.74827496840E+03  0.30992431850E+03 -0.16146269955E+04  0.18063806177E+04  0.46999998093E+01 0.  1.
</event>
<event>
 5   0  0.1140808E-08  0.3499370E+04  0.7818609E-02  0.8113939E-01
        1   -1    0    0  501    0  0.00000000000E+00  0.00000000000E+00  0.20896888288E+04  0.20896888288E+04  0.50400001928E-02 0. -1.
       -1   -1    0    0    0  501  0.00000000000E+00  0.00000000000E+00 -0.14650012588E+04  0.14650012588E+04  0.50400001928E-02 0.  1.
    10030    2    1    2    0    0  0.00000000000E+00  0.00000000000E+00  0.62468756994E+03  0.35546900876E+04  0.34993695230E+04 0.  0.
        3    1    3    3  502    0 -0.22176815192E+03  0.12757333488E+04  0.15076878526E+04  0.19874102147E+04  0.10100000352E+00 0. -1.
       -3    1    3    3    0  502  0.22176815192E+03 -0.12757333488E+04 -0.88300028264E+03  0.15672798729E+04  0.10100000352E+00 0.  1.
</event>
<event>
 5   0  0.3467834E-08  0.3502287E+04  0.7818609E-02  0.8113248E-01
       -2   -1    0    0    0  501  0.00000000000E+00  0.00000000000E+00  0.19029252785E+04  0.19029252785E+04  0.25500000920E-02 0. -1.
        2   -1    0    0  501    0  0.00000000000E+00  0.00000000000E+00 -0.16114682922E+04  0.16114682922E+04  0.25500000920E-02 0.  1.
    10030    2    1    2    0    0  0.00000000000E+00  0.00000000000E+00  0.29145698637E+03  0.35143935707E+04  0.35022871091E+04 0.  0.
        3    1    3    3  502    0 -0.37930278881E+03 -0.30781941781E+03 -0.15417147112E+04  0.16172531219E+04  0.10100000352E+00 0.  1.
       -3    1    3    3    0  502  0.37930278881E+03  0.30781941781E+03  0.18331716975E+04  0.18971404488E+04  0.10100000352E+00 0. -1.
</event>
<event>
 5   0  0.3628017E-08  0.3502625E+04  0.7818609E-02  0.8113168E-01
       -2   -1    0    0    0  501  0.00000000000E+00  0.00000000000E+00  0.19370686076E+04  0.19370686076E+04  0.25500000920E-02 0.  1.
        2   -1    0    0  501    0  0.00000000000E+00  0.00000000000E+00 -0.15833696375E+04  0.15833696375E+04  0.25500000920E-02 0. -1.
    10030    2    1    2    0    0  0.00000000000E+00  0.00000000000E+00  0.35369897009E+03  0.35204382451E+04  0.35026250835E+04 0.  0.
        1    1    3    3  502    0  0.77489688936E+02  0.54272511603E+03 -0.14949014949E+04  0.15922580453E+04  0.50400001928E-02 0. -1.
       -1    1    3    3    0  502 -0.77489688936E+02 -0.54272511603E+03  0.18486004650E+04  0.19281801997E+04  0.50400001928E-02 0.  1.
</event>
<event>
 5   0  0.3628017E-08  0.3499922E+04  0.7818609E-02  0.8113809E-01
       -2   -1    0    0    0  501  0.00000000000E+00  0.00000000000E+00  0.21832988568E+04  0.21832988568E+04  0.25500000920E-02 0.  1.
        2   -1    0    0  501    0  0.00000000000E+00  0.00000000000E+00 -0.14026310634E+04  0.14026310634E+04  0.25500000920E-02 0. -1.
    10030    2    1    2    0    0  0.00000000000E+00  0.00000000000E+00  0.78066779346E+03  0.35859299202E+04  0.34999215975E+04 0.  0.
        1    1    3    3  502    0  0.16889678825E+03 -0.17392282036E+04  0.48711104869E+03  0.18140336389E+04  0.50400001928E-02 0. -1.
       -1    1    3    3    0  502 -0.16889678825E+03  0.17392282036E+04  0.29355674478E+03  0.17718962813E+04  0.50400001928E-02 0.  1.
</event>
<event>
 5   0  0.3553585E-08  0.3497859E+04  0.7818609E-02  0.8114297E-01
       -2   -1    0    0    0  501  0.00000000000E+00  0.00000000000E+00  0.15453901956E+04  0.15453901956E+04  0.25500000920E-02 0. -1.
        2   -1    0    0  501    0  0.00000000000E+00  0.00000000000E+00 -0.19792765252E+04  0.19792765252E+04  0.25500000920E-02 0.  1.
    10030    2    1    2    0    0  0.00000000000E+00  0.00000000000E+00 -0.43388632960E+03  0.35246667208E+04  0.34978590803E+04 0.  0.
        2    1    3    3  502    0 -0.21179599111E+03 -0.16611093731E+04 -0.72540192425E+03  0.18249246129E+04  0.25500000920E-02 0.  1.
       -2    1    3    3    0  502  0.21179599111E+03  0.16611093731E+04  0.29151559465E+03  0.16997421078E+04  0.25500000920E-02 0. -1.
</event>
<event>
 5   0  0.1121462E-08  0.3502376E+04  0.7818609E-02  0.8113227E-01
        1   -1    0    0  501    0  0.00000000000E+00  0.00000000000E+00  0.22488409662E+04  0.22488409662E+04  0.50400001928E-02 0. -1.
       -1   -1    0    0    0  501  0.00000000000E+00  0.00000000000E+00 -0.13636619731E+04  0.13636619731E+04  0.50400001928E-02 0.  1.
    10030    2    1    2    0    0  0.00000000000E+00  0.00000000000E+00  0.88517899308E+03  0.36125029394E+04  0.35023757133E+04 0.  0.
        1    1    3    3  502    0  0.10999236595E+04  0.60885166181E+03  0.16999892377E+04  0.21143547032E+04  0.50400001928E-02 0. -1.
       -1    1    3    3    0  502 -0.10999236595E+04 -0.60885166181E+03 -0.81481024461E+03  0.14981482361E+04  0.50400001928E-02 0.  1.
</event>
<event>
 5   0  0.3628017E-08  0.3496242E+04  0.7818609E-02  0.8114681E-01
        2   -1    0    0  501    0  0.00000000000E+00  0.00000000000E+00  0.15162411453E+04  0.15162411453E+04  0.25500000920E-02 0.  1.
       -2   -1    0    0    0  501  0.00000000000E+00  0.00000000000E+00 -0.20154620841E+04  0.20154620841E+04  0.25500000920E-02 0. -1.
    10030    2    1    2    0    0  0.00000000000E+00  0.00000000000E+00 -0.49922093886E+03  0.35317032294E+04  0.34962417186E+04 0.  0.
        1    1    3    3  502    0  0.55313458152E+03 -0.25747455959E+03  0.14051980743E+04  0.15319375452E+04  0.50400001928E-02 0.  1.
       -1    1    3    3    0  502 -0.55313458152E+03  0.25747455959E+03 -0.19044190132E+04  0.19997656843E+04  0.50400001928E-02 0. -1.
</event>
<event>
 5   0  0.3700096E-08  0.3499734E+04  0.7818609E-02  0.8113853E-01
        2   -1    0    0  501    0  0.00000000000E+00  0.00000000000E+00  0.13379932187E+04  0.13379932187E+04  0.25500000920E-02 0. -1.
       -2   -1    0    0    0  501  0.00000000000E+00  0.00000000000E+00 -0.22885276510E+04  0.22885276510E+04  0.25500000920E-02 0.  1.
    10030    2    1    2    0    0  0.00000000000E+00  0.00000000000E+00 -0.95053443229E+03  0.36265208696E+04  0.34997339772E+04 0.  0.
        4    1    3    3  502    0 -0.14494605338E+04 -0.91306155332E+03 -0.10538240964E+03  0.17163112493E+04  0.12699999809E+01 0.  1.
       -4    1    3    3    0  502  0.14494605338E+04  0.91306155332E+03 -0.84515202265E+03  0.19102096203E+04  0.12699999809E+01 0. -1.
</event>
<event>
 5   0  0.3467834E-08  0.3499780E+04  0.7818609E-02  0.8113842E-01
        2   -1    0    0  501    0  0.00000000000E+00  0.00000000000E+00  0.16573922784E+04  0.16573922784E+04  0.25500000920E-02 0.  1.
       -2   -1    0    0    0  501  0.00000000000E+00  0.00000000000E+00 -0.18475498979E+04  0.18475498979E+04  0.25500000920E-02 0. -1.
    10030    2    1    2    0    0  0.00000000000E+00  0.00000000000E+00 -0.19015761959E+03  0.35049421763E+04  0.34997799558E+04 0.  0.
        3    1    3    3  502    0 -0.63857692704E+03 -0.42150490168E+03 -0.16711434257E+04  0.18379791167E+04  0.10100000352E+00 0. -1.
       -3    1    3    3    0  502  0.63857692704E+03  0.42150490168E+03  0.14809858061E+04  0.16669630596E+04  0.10100000352E+00 0.  1.
</event>
<event>
 5   0  0.1129219E-08  0.3500328E+04  0.7818609E-02  0.8113712E-01
       -1   -1    0    0    0  501  0.00000000000E+00  0.00000000000E+00  0.17971871106E+04  0.17971871106E+04  0.50400001928E-02 0. -1.
        1   -1    0    0  501    0  0.00000000000E+00  0.00000000000E+00 -0.17043708779E+04  0.17043708779E+04  0.50400001928E-02 0.  1.
    10030    2    1    2    0    0  0.00000000000E+00  0.00000000000E+00  0.92816232662E+02  0.35015579885E+04  0.35003276266E+04 0.  0.
        5    1    3    3  502    0  0.17158985099E+04  0.30145004000E+03  0.21341427631E+03  0.17552058473E+04  0.46999998093E+01 0. -1.
       -5    1    3    3    0  502 -0.17158985099E+04 -0.30145004000E+03 -0.12059804364E+03  0.17463521412E+04  0.46999998093E+01 0.  1.
</event>
<event>
 5   0  0.1121462E-08  0.3515891E+04  0.7818609E-02  0.8110034E-01
       -1   -1    0    0    0  501  0.00000000000E+00  0.00000000000E+00  0.14590083268E+04  0.14590083268E+04  0.50400001928E-02 0. -1.
        1   -1    0    0  501    0  0.00000000000E+00  0.00000000000E+00 -0.21181317014E+04  0.21181317014E+04  0.50400001928E-02 0.  1.
    10030    2    1    2    0    0  0.00000000000E+00  0.00000000000E+00 -0.65912337454E+03  0.35771400282E+04  0.35158906636E+04 0.  0.
        2    1    3    3  502    0  0.63335039368E+03 -0.13550840370E+04 -0.12692235771E+04  0.19617119965E+04  0.25500000920E-02 0.  1.
       -2    1    3    3    0  502 -0.63335039368E+03  0.13550840370E+04  0.61010020259E+03  0.16154280317E+04  0.25500000920E-02 0. -1.
</event>
<event>
 5   0  0.3628017E-08  0.3499662E+04  0.7818609E-02  0.8113870E-01
       -2   -1    0    0    0  501  0.00000000000E+00  0.00000000000E+00  0.12288788007E+04  0.12288788007E+04  0.25500000920E-02 0. -1.
        2   -1    0    0  501    0  0.00000000000E+00  0.00000000000E+00 -0.24916272761E+04  0.24916272761E+04  0.25500000920E-02 0.  1.
    10030    2    1    2    0    0  0.00000000000E+00  0.00000000000E+00 -0.12627484755E+04  0.37205060768E+04  0.34996616630E+04 0.  0.
        1    1    3    3  502    0 -0.66478455522E+03  0.30215679731E+03  0.10591527048E+04  0.12864842351E+04  0.50400001928E-02 0. -1.
       -1    1    3    3    0  502  0.66478455522E+03 -0.30215679731E+03 -0.23219011803E+04  0.24340218417E+04  0.50400001928E-02 0.  1.
</event>
<event>
 5   0  0.3700096E-08  0.3498773E+04  0.7818609E-02  0.8114081E-01
        2   -1    0    0  501    0  0.00000000000E+00  0.00000000000E+00  0.20610136270E+04  0.20610136270E+04  0.25500000920E-02 0. -1.
       -2   -1    0    0    0  501  0.00000000000E+00  0.00000000000E+00 -0.14848779430E+04  0.14848779430E+04  0.25500000920E-02 0.  1.
    10030    2    1    2    0    0  0.00000000000E+00  0.00000000000E+00  0.57613568397E+03  0.35458915701E+04  0.34987733136E+04 0.  0.
        4    1    3    3  502    0 -0.26730493621E+03  0.67204406194E+03 -0.13262604867E+04  0.15106500725E+04  0.12699999809E+01 0.  1.
       -4    1    3    3    0  502  0.26730493621E+03 -0.67204406194E+03  0.19023961707E+04  0.20352414975E+04  0.12699999809E+01 0. -1.
</event>
<event>
 5   0  0.3467834E-08  0.3499120E+04  0.7818609E-02  0.8113999E-01
        2   -1    0    0  501    0  0.00000000000E+00  0.00000000000E+00  0.14374397798E+04  0.14374397798E+04  0.25500000920E-02 0. -1.
       -2   -1    0    0    0  501  0.00000000000E+00  0.00000000000E+00 -0.21294523775E+04  0.21294523775E+04  0.25500000920E-02 0.  1.
    10030    2    1    2    0    0  0.00000000000E+00  0.00000000000E+00 -0.69201259770E+03  0.35668921572E+04  0.34991196358E+04 0.  0.
        3    1    3    3  502    0 -0.10010043834E+04 -0.13408461524E+04 -0.86686404335E+03  0.18844976678E+04  0.10100000352E+00 0.  1.
       -3    1    3    3    0  502  0.10010043834E+04  0.13408461524E+04  0.17485144565E+03  0.16823944895E+04  0.10100000352E+00 0. -1.
</event>
<event>
 5   0  0.1140808E-08  0.3501145E+04  0.7818609E-02  0.8113519E-01
        1   -1    0    0  501    0  0.00000000000E+00  0.00000000000E+00  0.23511150621E+04  0.23511150621E+04  0.50400001928E-02 0.  1.
       -1   -1    0    0    0  501  0.00000000000E+00  0.00000000000E+00 -0.13034259912E+04  0.13034259912E+04  0.50400001928E-02 0. -1.
    10030    2    1    2    0    0  0.00000000000E+00  0.00000000000E+00  0.10476890709E+04  0.36545410533E+04  0.35011452300E+04 0.  0.
        3    1    3    3  502    0  0.93184001963E+03 -0.10098050566E+04  0.16560196106E+04  0.21518441011E+04  0.10100000352E+00 0.  1.
       -3    1    3    3    0  502 -0.93184001963E+03  0.10098050566E+04 -0.60833053970E+03  0.15026969522E+04  0.10100000352E+00 0. -1.
</event>
<event>
 5   0  0.3553585E-08  0.3499935E+04  0.7818609E-02  0.8113805E-01
        2   -1    0    0  501    0  0.00000000000E+00  0.00000000000E+00  0.20027054287E+04  0.20027054287E+04  0.25500000920E-02 0. -1.
       -2   -1    0    0    0  501  0.00000000000E+00  0.00000000000E+00 -0.15291246394E+04  0.15291246394E+04  0.25500000920E-02 0.  1.
    10030    2    1    2    0    0  0.00000000000E+00  0.00000000000E+00  0.47358078936E+03  0.35318300681E+04  0.34999349802E+04 0.  0.
        2    1    3    3  502    0 -0.57203413300E+02  0.11397393104E+04 -0.11019905353E+04  0.15863987727E+04  0.25500000920E-02 0.  1.
       -2    1    3    3    0  502  0.57203413300E+02 -0.11397393104E+04  0.15755713246E+04  0.19454312954E+04  0.25500000920E-02 0. -1.
</event>
<event>
 5   0  0.1121462E-08  0.3499007E+04  0.7818609E-02  0.8114025E-01
        1   -1    0    0  501    0  0.00000000000E+00  0.00000000000E+00  0.21985356177E+04  0.21985356177E+04  0.50400001928E-02 0. -1.
       -1   -1    0    0    0  501  0.00000000000E+00  0.00000000000E+00 -0.13921823999E+04  0.13921823999E+04  0.50400001928E-02 0.  1.
    10030    2    1    2    0    0  0.00000000000E+00  0.00000000000E+00  0.80635321783E+03  0.35907180176E+04  0.34990070549E+04 0.  0.
        1    1    3    3  502    0  0.53008069846E+03 -0.12989423683E+04  0.14758125071E+04  0.20362365725E+04  0.50400001928E-02 0. -1.
       -1    1    3    3    0  502 -0.53008069846E+03  0.12989423683E+04 -0.66945928929E+03  0.15544814451E+04  0.50400001928E-02 0.  1.
</event>
<event>
 5   0  0.1121462E-08  0.3500600E+04  0.7818609E-02  0.8113648E-01
        1   -1    0    0  501    0  0.00000000000E+00  0.00000000000E+00  0.14300048677E+04  0.14300048677E+04  0.50400001928E-02 0.  1.
       -1   -1    0    0    0  501  0.00000000000E+00  0.00000000000E+00 -0.21423353273E+04  0.21423353274E+04  0.50400001928E-02 0. -1.
    10030    2    1    2    0    0  0.00000000000E+00  0.00000000000E+00 -0.71233045968E+03  0.35723401950E+04  0.35005999179E+04 0.  0.
        2    1    3    3  502    0  0.53565351203E+03  0.82792043361E+03  0.11195593640E+04  0.14919082073E+04  0.25500000920E-02 0.  1.
       -2    1    3    3    0  502 -0.53565351203E+03 -0.82792043361E+03 -0.18318898237E+04  0.20804319877E+04  0.25500000920E-02 0. -1.
</event>
<event>
 5   0  0.3554451E-08  0.3499822E+04  0.7818609E-02  0.8113832E-01
        2   -1    0    0  501    0  0.00000000000E+00  0.00000000000E+00  0.20729252367E+04  0.20729252367E+04  0.25500000920E-02 0. -1.
       -2   -1    0    0    0  501  0.00000000000E+00  0.00000000000E+00 -0.14772306893E+04  0.14772306893E+04  0.25500000920E-02 0.  1.
    10030    2    1    2    0    0  0.00000000000E+00  0.00000000000E+00  0.59569454744E+03  0.35501559260E+04  0.34998221533E+04 0.  0.
        5    1    3    3  502    0  0.95408167924E+03  0.11561905043E+04 -0.61797623653E+03  0.16214083544E+04  0.46999998093E+01 0.  1.
       -5    1    3    3    0  502 -0.95408167924E+03 -0.11561905043E+04  0.12136707840E+04  0.19287475716E+04  0.46999998093E+01 0. -1.
</event>
<event>
 5   0  0.1121462E-08  0.3494897E+04  0.7818609E-02  0.8115000E-01
        1   -1    0    0  501    0  0.00000000000E+00  0.00000000000E+00  0.20595393970E+04  0.20595393970E+04  0.50400001928E-02 0. -1.
       -1   -1    0    0    0  501  0.00000000000E+00  0.00000000000E+00 -0.14826502648E+04  0.14826502648E+04  0.50400001928E-02 0.  1.
    10030    2    1    2    0    0  0.00000000000E+00  0.00000000000E+00  0.57688913221E+03  0.35421896618E+04  0.34948972130E+04 0.  0.
        1    1    3    3  502    0  0.41732733938E+03  0.14777114709E+04  0.11338682584E+04  0.19087824724E+04  0.50400001928E-02 0. -1.
       -1    1    3    3    0  502 -0.41732733938E+03 -0.14777114709E+04 -0.55697912620E+03  0.16334071894E+04  0.50400001928E-02 0.  1.
</event>
<event>
 5   0  0.3700096E-08  0.3509066E+04  0.7818609E-02  0.8111645E-01
       -2   -1    0    0    0  501  0.00000000000E+00  0.00000000000E+00  0.17432982702E+04  0.17432982702E+04  0.25500000920E-02 0.  1.
        2   -1    0    0  501    0  0.00000000000E+00  0.00000000000E+00 -0.17658399063E+04  0.17658399063E+04  0.25500000920E-02 0. -1.
    10030    2    1    2    0    0  0.00000000000E+00  0.00000000000E+00 -0.22541636127E+02  0.35091381765E+04  0.35090657754E+04 0.  0.
        4    1    3    3  502    0  0.11869572657E+04 -0.43064738839E+03 -0.12295156859E+04  0.17623947227E+04  0.12699999809E+01 0. -1.
       -4    1    3    3    0  502 -0.11869572657E+04  0.43064738839E+03  0.12069740498E+04  0.17467434538E+04  0.12699999809E+01 0.  1.
</event>
<event>
 5   0  0.1121462E-08  0.3499144E+04  0.7818609E-02  0.8113993E-01
        3   -1    0    0  501    0  0.00000000000E+00  0.00000000000E+00  0.13858690400E+04  0.13858690437E+04  0.10100000352E+00 0.  1.
       -3   -1    0    0    0  501  0.00000000000E+00  0.00000000000E+00 -0.22087244918E+04  0.22087244941E+04  0.10100000352E+00 0. -1.
    10030    2    1    2    0    0  0.00000000000E+00  0.00000000000E+00 -0.82285545179E+03  0.35945935379E+04  0.34991444108E+04 0.  0.
        5    1    3    3  502    0  0.40189268143E+03 -0.63522504302E+03 -0.20343811533E+04  0.21688147338E+04  0.46999998093E+01 0. -1.
       -5    1    3    3    0  502 -0.40189268143E+03  0.63522504302E+03  0.12115257015E+04  0.14257788041E+04  0.46999998093E+01 0.  1.
</event>
<event>
 5   0  0.3467834E-08  0.3499288E+04  0.7818609E-02  0.8113959E-01
       -2   -1    0    0    0  501  0.00000000000E+00  0.00000000000E+00  0.18556493986E+04  0.18556493986E+04  0.25500000920E-02 0. -1.
        2   -1    0    0  501    0  0.00000000000E+00  0.00000000000E+00 -0.16496944550E+04  0.16496944550E+04  0.25500000920E-02 0.  1.
    10030    2    1    2    0    0  0.00000000000E+00  0.00000000000E+00  0.20595494355E+03  0.35053438536E+04  0.34992882266E+04 0.  0.
        3    1    3    3  502    0 -0.14557148800E+04  0.95256973476E+03 -0.83784437520E+02  0.17416988126E+04  0.10100000352E+00 0.  1.
       -3    1    3    3    0  502  0.14557148800E+04 -0.95256973476E+03  0.28973938107E+03  0.17636450410E+04  0.10100000352E+00 0. -1.
</event>
<event>
 5   0  0.3554451E-08  0.3503142E+04  0.7818609E-02  0.8113046E-01
       -2   -1    0    0    0  501  0.00000000000E+00  0.00000000000E+00  0.33865943449E+04  0.33865943449E+04  0.25500000920E-02 0.  1.
        2   -1    0    0  501    0  0.00000000000E+00  0.00000000000E+00 -0.90592530512E+03  0.90592530513E+03  0.25500000920E-02 0. -1.
    10030    2    1    2    0    0  0.00000000000E+00  0.00000000000E+00  0.24806690398E+04  0.42925196500E+04  0.35031423124E+04 0.  0.
        5    1    3    3  502    0 -0.10205376445E+04  0.61191946858E+03 -0.33460682404E+03  0.12360931747E+04  0.46999998093E+01 0. -1.
       -5    1    3    3    0  502  0.10205376445E+04 -0.61191946858E+03  0.28152758638E+04  0.30564264753E+04  0.46999998093E+01 0.  1.
</event>
<event>
 5   0  0.1140808E-08  0.3504124E+04  0.7818609E-02  0.8112813E-01
        1   -1    0    0  501    0  0.00000000000E+00  0.00000000000E+00  0.20963527189E+04  0.20963527189E+04  0.50400001928E-02 0. -1.
       -1   -1    0    0    0  501  0.00000000000E+00  0.00000000000E+00 -0.14643156323E+04  0.14643156323E+04  0.50400001928E-02 0.  1.
    10030    2    1    2    0    0  0.00000000000E+00  0.00000000000E+00  0.63203708662E+03  0.35606683512E+04  0.35041244596E+04 0.  0.
        3    1    3    3  502    0 -0.16423470285E+04  0.41123242936E+03 -0.14215212737E+03  0.16990065069E+04  0.10100000352E+00 0. -1.
       -3    1    3    3    0  502  0.16423470285E+04 -0.41123242936E+03  0.77418921400E+03  0.18616618442E+04  0.10100000352E+00 0.  1.
</event>
<event>
 5   0  0.3553585E-08  0.3500365E+04  0.7818609E-02  0.8113704E-01
        2   -1    0    0  501    0  0.00000000000E+00  0.00000000000E+00  0.19906823854E+04  0.19906823854E+04  0.25500000920E-02 0.  1.
       -2   -1    0    0    0  501  0.00000000000E+00  0.00000000000E+00 -0.15387378323E+04  0.15387378323E+04  0.25500000920E-02 0. -1.
    10030    2    1    2    0    0  0.00000000000E+00  0.00000000000E+00  0.45194455314E+03  0.35294202177E+04  0.35003647229E+04 0.  0.
        2    1    3    3  502    0  0.64623077537E+03 -0.10199936081E+04 -0.10514842819E+04  0.16011309661E+04  0.25500000920E-02 0. -1.
       -2    1    3    3    0  502 -0.64623077537E+03  0.10199936081E+04  0.15034288351E+04  0.19282892515E+04  0.25500000920E-02 0.  1.
</event>
<event>
 5   0  0.3700096E-08  0.3500648E+04  0.7818609E-02  0.8113636E-01
       -2   -1    0    0    0  501  0.00000000000E+00  0.00000000000E+00  0.12383148641E+04  0.12383148641E+04  0.25500000920E-02 0. -1.
        2   -1    0    0  501    0  0.00000000000E+00  0.00000000000E+00 -0.24740341936E+04  0.24740341936E+04  0.25500000920E-02 0.  1.
    10030    2    1    2    0    0  0.00000000000E+00  0.00000000000E+00 -0.12357193294E+04  0.37123490577E+04  0.35006475494E+04 0.  0.
        4    1    3    3  502    0 -0.16053730990E+04  0.49451371850E+02 -0.13556054067E+04  0.21017459068E+04  0.12699999809E+01 0.  1.
       -4    1    3    3    0  502  0.16053730990E+04 -0.49451371850E+02  0.11988607727E+03  0.16106031509E+04  0.12699999809E+01 0. -1.
</event>
<event>
 5   0  0.3700096E-08  0.3499438E+04  0.7818609E-02  0.8113923E-01
       -2   -1    0    0    0  501  0.00000000000E+00  0.00000000000E+00  0.11761228071E+04  0.11761228071E+04  0.25500000920E-02 0. -1.
        2   -1    0    0  501    0  0.00000000000E+00  0.00000000000E+00 -0.26030588647E+04  0.26030588648E+04  0.25500000920E-02 0.  1.
    10030    2    1    2    0    0  0.00000000000E+00  0.00000000000E+00 -0.14269360577E+04  0.37791816718E+04  0.34994381829E+04 0.  0.
        4    1    3    3  502    0 -0.71760167525E+03  0.15828394318E+04 -0.93262513580E+03  0.19723397497E+04  0.12699999809E+01 0. -1.
       -4    1    3    3    0  502  0.71760167525E+03 -0.15828394318E+04 -0.49431092185E+03  0.18068419222E+04  0.12699999809E+01 0.  1.
</event>
<event>
 5   0  0.1121462E-08  0.3505217E+04  0.7818609E-02  0.8112555E-01
       -1   -1    0    0    0  501  0.00000000000E+00  0.00000000000E+00  0.14365448753E+04  0.14365448753E+04  0.50400001928E-02 0.  1.
        1   -1    0    0  501    0  0.00000000000E+00  0.00000000000E+00 -0.21382109351E+04  0.21382109351E+04  0.50400001928E-02 0. -1.
    10030    2    1    2    0    0  0.00000000000E+00  0.00000000000E+00 -0.70166605983E+03  0.35747558104E+04  0.35052166615E+04 0.  0.
        4    1    3    3  502    0 -0.40887229098E+03  0.11610390899E+04 -0.16231594525E+04  0.20371147586E+04  0.12699999809E+01 0. -1.
       -4    1    3    3    0  502  0.40887229098E+03 -0.11610390899E+04  0.92149339262E+03  0.15376410518E+04  0.12699999809E+01 0.  1.
</event>
<event>
 5   0  0.1129219E-08  0.3490153E+04  0.7818609E-02  0.8116128E-01
        1   -1    0    0  501    0  0.00000000000E+00  0.00000000000E+00  0.19251735296E+04  0.19251735296E+04  0.50400001928E-02 0.  1.
       -1   -1    0    0    0  501  0.00000000000E+00  0.00000000000E+00 -0.15818271734E+04  0.15818271734E+04  0.50400001928E-02 0. -1.
    10030    2    1    2    0    0  0.00000000000E+00  0.00000000000E+00  0.34334635621E+03  0.35070007030E+04  0.34901528921E+04 0.  0.
        5    1    3    3  502    0  0.88634928719E+03  0.11003878509E+04 -0.85738041831E+03  0.16527527804E+04  0.46999998093E+01 0. -1.
       -5    1    3    3    0  502 -0.88634928719E+03 -0.11003878509E+04  0.12007267745E+04  0.18542479226E+04  0.46999998093E+01 0.  1.
</event>
<event>
 5   0  0.1121462E-08  0.3499346E+04  0.7818609E-02  0.8113945E-01
        1   -1    0    0  501    0  0.00000000000E+00  0.00000000000E+00  0.22507577376E+04  0.22507577376E+04  0.50400001928E-02 0.  1.
       -1   -1    0    0    0  501  0.00000000000E+00  0.00000000000E+00 -0.13601445233E+04  0.13601445234E+04  0.50400001928E-02 0. -1.
    10030    2    1    2    0    0  0.00000000000E+00  0.00000000000E+00  0.89061321427E+03  0.36109022610E+04  0.34993461162E+04 0.  0.
        1    1    3    3  502    0  0.11793136750E+04 -0.18911440793E+03 -0.87405117484E+03  0.14800373170E+04  0.50400001928E-02 0. -1.
       -1    1    3    3    0  502 -0.11793136750E+04  0.18911440793E+03  0.17646643891E+04  0.21308649440E+04  0.50400001928E-02 0.  1.
</event>
<event>
 5   0  0.1121462E-08  0.3495751E+04  0.7818609E-02  0.8114798E-01
        1   -1    0    0  501    0  0.00000000000E+00  0.00000000000E+00  0.14731995973E+04  0.14731995974E+04  0.50400001928E-02 0.  1.
       -1   -1    0    0    0  501  0.00000000000E+00  0.00000000000E+00 -0.20737646904E+04  0.20737646904E+04  0.50400001928E-02 0. -1.
    10030    2    1    2    0    0  0.00000000000E+00  0.00000000000E+00 -0.60056509303E+03  0.35469642877E+04  0.34957513109E+04 0.  0.
        4    1    3    3  502    0 -0.14873685656E+04 -0.22039023673E+03 -0.12045347819E+04  0.19265883733E+04  0.12699999809E+01 0. -1.
       -4    1    3    3    0  502  0.14873685656E+04  0.22039023673E+03  0.60396968886E+03  0.16203759145E+04  0.12699999809E+01 0.  1.
</event>
<event>
 5   0  0.1121462E-08  0.3499839E+04  0.7818609E-02  0.8113828E-01
       -1   -1    0    0    0  501  0.00000000000E+00  0.00000000000E+00  0.15423619220E+04  0.15423619220E+04  0.50400001928E-02 0.  1.
        1   -1    0    0  501    0  0.00000000000E+00  0.00000000000E+00 -0.19854079231E+04  0.19854079231E+04  0.50400001928E-02 0. -1.
    10030    2    1    2    0    0  0.00000000000E+00  0.00000000000E+00 -0.44304600116E+03  0.35277698451E+04  0.34998386136E+04 0.  0.
        1    1    3    3  502    0 -0.11224498063E+04 -0.12448430907E+04 -0.72821726514E+03  0.18275197053E+04  0.50400001928E-02 0. -1.
       -1    1    3    3    0  502  0.11224498063E+04  0.12448430907E+04  0.28517126398E+03  0.17002501398E+04  0.50400001928E-02 0.  1.
</event>
<event>
 5   0  0.3553585E-08  0.3502290E+04  0.7818609E-02  0.8113248E-01
        2   -1    0    0  501    0  0.00000000000E+00  0.00000000000E+00  0.21012799530E+04  0.21012799530E+04  0.25500000920E-02 0.  1.
       -2   -1    0    0    0  501  0.00000000000E+00  0.00000000000E+00 -0.14593525741E+04  0.14593525741E+04  0.25500000920E-02 0. -1.
    10030    2    1    2    0    0  0.00000000000E+00  0.00000000000E+00  0.64192737891E+03  0.35606325271E+04  0.35022897129E+04 0.  0.
        2    1    3    3  502    0 -0.10296918352E+04  0.26566300170E+03  0.17354225480E+04  0.20353214798E+04  0.25500000920E-02 0.  1.
       -2    1    3    3    0  502  0.10296918352E+04 -0.26566300170E+03 -0.10934951691E+04  0.15253110473E+04  0.25500000920E-02 0. -1.
</event>
<event>
 5   0  0.1121462E-08  0.3500334E+04  0.7818609E-02  0.8113711E-01
       -1   -1    0    0    0  501  0.00000000000E+00  0.00000000000E+00  0.10888712893E+04  0.10888712893E+04  0.50400001928E-02 0.  1.
        1   -1    0    0  501    0  0.00000000000E+00  0.00000000000E+00 -0.28130828575E+04  0.28130828575E+04  0.50400001928E-02 0. -1.
    10030    2    1    2    0    0  0.00000000000E+00  0.00000000000E+00 -0.17242115682E+04  0.39019541468E+04  0.35003343600E+04 0.  0.
        4    1    3    3  502    0  0.64385340182E+03  0.16064123757E+04 -0.57146990802E+03  0.18225496955E+04  0.12699999809E+01 0. -1.
       -4    1    3    3    0  502 -0.64385340182E+03 -0.16064123757E+04 -0.11527416602E+04  0.20794044513E+04  0.12699999809E+01 0.  1.
</event>
<event>
 5   0  0.3700096E-08  0.3504859E+04  0.7818609E-02  0.8112639E-01
        2   -1    0    0  501    0  0.00000000000E+00  0.00000000000E+00  0.21930173101E+04  0.21930173101E+04  0.25500000920E-02 0.  1.
       -2   -1    0    0    0  501  0.00000000000E+00  0.00000000000E+00 -0.14003576973E+04  0.14003576973E+04  0.25500000920E-02 0. -1.
    10030    2    1    2    0    0  0.00000000000E+00  0.00000000000E+00  0.79265961281E+03  0.35933750074E+04  0.35048587250E+04 0.  0.
        4    1    3    3  502    0  0.12187078199E+04 -0.10479993630E+04  0.11121427988E+04  0.19545880980E+04  0.12699999809E+01 0.  1.
       -4    1    3    3    0  502 -0.12187078199E+04  0.10479993630E+04 -0.31948318598E+03  0.16387869093E+04  0.12699999809E+01 0. -1.
</event>
<event>
 5   0  0.1121462E-08  0.3499387E+04  0.7818609E-02  0.8113935E-01
       -1   -1    0    0    0  501  0.00000000000E+00  0.00000000000E+00  0.16912188449E+04  0.16912188449E+04  0.50400001928E-02 0.  1.
        1   -1    0    0  501    0  0.00000000000E+00  0.00000000000E+00 -0.18101897485E+04  0.18101897485E+04  0.50400001928E-02 0. -1.
    10030    2    1    2    0    0  0.00000000000E+00  0.00000000000E+00 -0.11897090364E+03  0.35014085934E+04  0.34993868123E+04 0.  0.
        1    1    3    3  502    0  0.12585929121E+04  0.11798505284E+04 -0.35175629893E+03  0.17606350791E+04  0.50400001928E-02 0.  1.
       -1    1    3    3    0  502 -0.12585929121E+04 -0.11798505284E+04  0.23278539529E+03  0.17407735143E+04  0.50400001928E-02 0. -1.
</event>
<event>
 5   0  0.1140808E-08  0.3500341E+04  0.7818609E-02  0.8113709E-01
        1   -1    0    0  501    0  0.00000000000E+00  0.00000000000E+00  0.33616919279E+04  0.33616919279E+04  0.50400001928E-02 0. -1.
       -1   -1    0    0    0  501  0.00000000000E+00  0.00000000000E+00 -0.91117687408E+03  0.91117687410E+03  0.50400001928E-02 0.  1.
    10030    2    1    2    0    0  0.00000000000E+00  0.00000000000E+00  0.24505150538E+04  0.42728688020E+04  0.35003405220E+04 0.  0.
        3    1    3    3  502    0  0.13807587151E+04  0.31482884272E+03  0.24805536457E+04  0.28563540097E+04  0.10100000352E+00 0. -1.
       -3    1    3    3    0  502 -0.13807587151E+04 -0.31482884272E+03 -0.30038591897E+02  0.14165147923E+04  0.10100000352E+00 0.  1.
</event>
<event>
 5   0  0.3553585E-08  0.3511396E+04  0.7818609E-02  0.8111094E-01
        2   -1    0    0  501    0  0.00000000000E+00  0.00000000000E+00  0.18909978009E+04  0.18909978009E+04  0.25500000920E-02 0. -1.
       -2   -1    0    0    0  501  0.00000000000E+00  0.00000000000E+00 -0.16300790791E+04  0.16300790791E+04  0.25500000920E-02 0.  1.
    10030    2    1    2    0    0  0.00000000000E+00  0.00000000000E+00  0.26091872182E+03  0.35210768800E+04  0.35113962772E+04 0.  0.
        2    1    3    3  502    0  0.74410142513E+03 -0.47435157906E+03 -0.13915458091E+04  0.16477548635E+04  0.25500000920E-02 0.  1.
       -2    1    3    3    0  502 -0.74410142513E+03  0.47435157906E+03  0.16524645309E+04  0.18733220165E+04  0.25500000920E-02 0. -1.
</event>
<event>
 5   0  0.3467834E-08  0.3499551E+04  0.7818609E-02  0.8113896E-01
       -2   -1    0    0    0  501  0.00000000000E+00  0.00000000000E+00  0.13061542776E+04  0.13061542777E+04  0.25500000920E-02 0. -1.
        2   -1    0    0  501    0  0.00000000000E+00  0.00000000000E+00 -0.23440683192E+04  0.23440683192E+04  0.25500000920E-02 0.  1.
    10030    2    1    2    0    0  0.00000000000E+00  0.00000000000E+00 -0.10379140416E+04  0.36502225969E+04  0.34995513211E+04 0.  0.
        3    1    3    3  502    0  0.91041332263E+03  0.14866747299E+04 -0.67597286105E+03  0.18697576018E+04  0.10100000352E+00 0. -1.
       -3    1    3    3    0  502 -0.91041332263E+03 -0.14866747299E+04 -0.36194118054E+03  0.17804649951E+04  0.10100000352E+00 0.  1.
</event>
<event>
 5   0  0.3554451E-08  0.3499766E+04  0.7818609E-02  0.8113846E-01
        2   -1    0    0  501    0  0.00000000000E+00  0.00000000000E+00  0.24370810894E+04  0.24370810894E+04  0.25500000920E-02 0.  1.
       -2   -1    0    0    0  501  0.00000000000E+00  0.00000000000E+00 -0.12564578741E+04  0.12564578741E+04  0.25500000920E-02 0. -1.
    10030    2    1    2    0    0  0.00000000000E+00  0.00000000000E+00  0.11806232154E+04  0.36935389635E+04  0.34997655491E+04 0.  0.
        5    1    3    3  502    0 -0.36301907951E+03 -0.34704848366E+02 -0.12159031076E+04  0.12694210238E+04  0.46999998093E+01 0. -1.
       -5    1    3    3    0  502  0.36301907951E+03  0.34704848366E+02  0.23965263230E+04  0.24241179397E+04  0.46999998093E+01 0.  1.
</event>
<event>
 5   0  0.1121462E-08  0.3498673E+04  0.7818609E-02  0.8114104E-01
       -1   -1    0    0    0  501  0.00000000000E+00  0.00000000000E+00  0.26435292581E+04  0.26435292581E+04  0.50400001928E-02 0. -1.
        1   -1    0    0  501    0  0.00000000000E+00  0.00000000000E+00 -0.11576110525E+04  0.11576110525E+04  0.50400001928E-02 0.  1.
    10030    2    1    2    0    0  0.00000000000E+00  0.00000000000E+00  0.14859182057E+04  0.38011403106E+04  0.34986732838E+04 0.  0.
        4    1    3    3  502    0  0.87678486532E+02 -0.11688309139E+04  0.21538096261E+04  0.24520910955E+04  0.12699999809E+01 0. -1.
       -4    1    3    3    0  502 -0.87678486532E+02  0.11688309139E+04 -0.66789142042E+03  0.13490492151E+04  0.12699999809E+01 0.  1.
</event>
<event>
 5   0  0.1121462E-08  0.3500242E+04  0.7818609E-02  0.8113733E-01
       -1   -1    0    0    0  501  0.00000000000E+00  0.00000000000E+00  0.26459178732E+04  0.26459178732E+04  0.50400001928E-02 0. -1.
        1   -1    0    0  501    0  0.00000000000E+00  0.00000000000E+00 -0.11576034569E+04  0.11576034569E+04  0.50400001928E-02 0.  1.
    10030    2    1    2    0    0  0.00000000000E+00  0.00000000000E+00  0.14883144163E+04  0.38035213301E+04  0.35002420926E+04 0.  0.
        1    1    3    3  502    0 -0.30305280474E+03  0.95461543055E+03 -0.81539336332E+03  0.12915099534E+04  0.50400001928E-02 0.  1.
       -1    1    3    3    0  502  0.30305280474E+03 -0.95461543055E+03  0.23037077796E+04  0.25120113767E+04  0.50400001928E-02 0. -1.
</event>
<event>
 5   0  0.1129219E-08  0.3498192E+04  0.7818609E-02  0.8114219E-01
       -1   -1    0    0    0  501  0.00000000000E+00  0.00000000000E+00  0.16050627885E+04  0.16050627885E+04  0.50400001928E-02 0.  1.
        1   -1    0    0  501    0  0.00000000000E+00  0.00000000000E+00 -0.19060543862E+04  0.19060543862E+04  0.50400001928E-02 0. -1.
    10030    2    1    2    0    0  0.00000000000E+00  0.00000000000E+00 -0.30099159768E+03  0.35111171747E+04  0.34981920862E+04 0.  0.
        5    1    3    3  502    0  0.10783908555E+04  0.11589755115E+04  0.59600202786E+03  0.16915648320E+04  0.46999998093E+01 0.  1.
       -5    1    3    3    0  502 -0.10783908555E+04 -0.11589755115E+04 -0.89699362554E+03  0.18195523427E+04  0.46999998093E+01 0. -1.
</event>
<event>
 5   0  0.3467834E-08  0.3499598E+04  0.7818609E-02  0.8113885E-01
        2   -1    0    0  501    0  0.00000000000E+00  0.00000000000E+00  0.18787457453E+04  0.18787457453E+04  0.25500000920E-02 0. -1.
       -2   -1    0    0    0  501  0.00000000000E+00  0.00000000000E+00 -0.16297022719E+04  0.16297022719E+04  0.25500000920E-02 0.  1.
    10030    2    1    2    0    0  0.00000000000E+00  0.00000000000E+00  0.24904347344E+03  0.35084480172E+04  0.34995978109E+04 0.  0.
        3    1    3    3  502    0 -0.17034402618E+04 -0.14469727832E+03  0.49849347500E+03  0.17807699971E+04  0.10100000352E+00 0. -1.
       -3    1    3    3    0  502  0.17034402618E+04  0.14469727832E+03 -0.24945000156E+03  0.17276780201E+04  0.10100000352E+00 0.  1.
</event>
<event>
 5   0  0.3553585E-08  0.3498222E+04  0.7818609E-02  0.8114211E-01
        2   -1    0    0  501    0  0.00000000000E+00  0.00000000000E+00  0.26523759273E+04  0.26523759273E+04  0.25500000920E-02 0.  1.
       -2   -1    0    0    0  501  0.00000000000E+00  0.00000000000E+00 -0.11534523158E+04  0.11534523158E+04  0.25500000920E-02 0. -1.
    10030    2    1    2    0    0  0.00000000000E+00  0.00000000000E+00  0.14989236115E+04  0.38058282431E+04  0.34982219231E+04 0.  0.
        2    1    3    3  502    0 -0.34699242608E+03 -0.92392574210E+02  0.26118444387E+04  0.26364126202E+04  0.25500000920E-02 0.  1.
       -2    1    3    3    0  502  0.34699242608E+03  0.92392574210E+02 -0.11129208273E+04  0.11694156230E+04  0.25500000920E-02 0. -1.
</event>
<event>
 5   0  0.1121462E-08  0.3500793E+04  0.7818609E-02  0.8113602E-01
       -1   -1    0    0    0  501  0.00000000000E+00  0.00000000000E+00  0.11689521784E+04  0.11689521784E+04  0.50400001928E-02 0.  1.
        1   -1    0    0  501    0  0.00000000000E+00  0.00000000000E+00 -0.26210546049E+04  0.26210546049E+04  0.50400001928E-02 0. -1.
    10030    2    1    2    0    0  0.00000000000E+00  0.00000000000E+00 -0.14521024266E+04  0.37900067833E+04  0.35007927617E+04 0.  0.
        2    1    3    3  502    0 -0.10149531872E+04  0.56493459357E+03  0.69155565278E+03  0.13518617859E+04  0.25500000920E-02 0.  1.
       -2    1    3    3    0  502  0.10149531872E+04 -0.56493459357E+03 -0.21436580794E+04  0.24381449974E+04  0.25500000920E-02 0. -1.
</event>
<event>
 5   0  0.1121462E-08  0.3500480E+04  0.7818609E-02  0.8113676E-01
        1   -1    0    0  501    0  0.00000000000E+00  0.00000000000E+00  0.20929668486E+04  0.20929668486E+04  0.50400001928E-02 0.  1.
       -1   -1    0    0    0  501  0.00000000000E+00  0.00000000000E+00 -0.14636348381E+04  0.14636348381E+04  0.50400001928E-02 0. -1.
    10030    2    1    2    0    0  0.00000000000E+00  0.00000000000E+00  0.62933201051E+03  0.35566016866E+04  0.35004795069E+04 0.  0.
        2    1    3    3  502    0  0.11326444407E+04 -0.12677270266E+04 -0.10833069686E+03  0.17034526066E+04  0.25500000920E-02 0. -1.
       -2    1    3    3    0  502 -0.11326444407E+04  0.12677270266E+04  0.73766270736E+03  0.18531490800E+04  0.25500000920E-02 0.  1.
</event>
<event>
 5   0  0.3628017E-08  0.3499019E+04  0.7818609E-02  0.8114022E-01
       -2   -1    0    0    0  501  0.00000000000E+00  0.00000000000E+00  0.13609617281E+04  0.13609617281E+04  0.25500000920E-02 0.  1.
        2   -1    0    0  501    0  0.00000000000E+00  0.00000000000E+00 -0.22489856172E+04  0.22489856172E+04  0.25500000920E-02 0. -1.
    10030    2    1    2    0    0  0.00000000000E+00  0.00000000000E+00 -0.88802388911E+03  0.36099473453E+04  0.34990189208E+04 0.  0.
        1    1    3    3  502    0  0.18636548120E+02  0.32560549399E+03  0.13293218074E+04  0.13687449456E+04  0.50400001928E-02 0.  1.
       -1    1    3    3    0  502 -0.18636548120E+02 -0.32560549399E+03 -0.22173456965E+04  0.22412023997E+04  0.50400001928E-02 0. -1.
</event>
<event>
 5   0  0.1140808E-08  0.3506052E+04  0.7818609E-02  0.8112357E-01
       -1   -1    0    0    0  501  0.00000000000E+00  0.00000000000E+00  0.14599547935E+04  0.14599547935E+04  0.50400001928E-02 0. -1.
        1   -1    0    0  501    0  0.00000000000E+00  0.00000000000E+00 -0.21049288281E+04  0.21049288281E+04  0.50400001928E-02 0.  1.
    10030    2    1    2    0    0  0.00000000000E+00  0.00000000000E+00 -0.64497403459E+03  0.35648836216E+04  0.35060524426E+04 0.  0.
        3    1    3    3  502    0 -0.78350900488E+03 -0.98322717787E+02  0.12688781774E+04  0.14945251944E+04  0.10100000352E+00 0. -1.
       -3    1    3    3    0  502  0.78350900488E+03  0.98322717787E+02 -0.19138522120E+04  0.20703584272E+04  0.10100000352E+00 0.  1.
</event>
<event>
 5   0  0.3628017E-08  0.3500301E+04  0.7818609E-02  0.8113718E-01
       -2   -1    0    0    0  501  0.00000000000E+00  0.00000000000E+00  0.15931287219E+04  0.15931287219E+04  0.25500000920E-02 0. -1.
        2   -1    0    0  501    0  0.00000000000E+00  0.00000000000E+00 -0.19226491869E+04  0.19226491869E+04  0.25500000920E-02 0.  1.
    10030    2    1    2    0    0  0.00000000000E+00  0.00000000000E+00 -0.32952046493E+03  0.35157779088E+04  0.35003014966E+04 0.  0.
        1    1    3    3  502    0 -0.10714061681E+04  0.97666886095E+03  0.82000029379E+03  0.16655911032E+04  0.50400001928E-02 0.  1.
       -1    1    3    3    0  502  0.10714061681E+04 -0.97666886095E+03 -0.11495207587E+04  0.18501868057E+04  0.50400001928E-02 0. -1.
</event>
<event>
 5   0  0.1121462E-08  0.3499733E+04  0.7818609E-02  0.8113853E-01
        1   -1    0    0  501    0  0.00000000000E+00  0.00000000000E+00  0.20685727220E+04  0.20685727220E+04  0.50400001928E-02 0. -1.
       -1   -1    0    0    0  501  0.00000000000E+00  0.00000000000E+00 -0.14802634332E+04  0.14802634332E+04  0.50400001928E-02 0.  1.
    10030    2    1    2    0    0  0.00000000000E+00  0.00000000000E+00  0.58830928876E+03  0.35488361553E+04  0.34997328809E+04 0.  0.
        2    1    3    3  502    0 -0.25359950163E+03  0.17489872514E+03 -0.14525495359E+04  0.14848577122E+04  0.25500000920E-02 0.  1.
       -2    1    3    3    0  502  0.25359950163E+03 -0.17489872514E+03  0.20408588246E+04  0.20639784431E+04  0.25500000920E-02 0. -1.
</event>
<event>
 5   0  0.1121462E-08  0.3498800E+04  0.7818609E-02  0.8114074E-01
       -1   -1    0    0    0  501  0.00000000000E+00  0.00000000000E+00  0.14338011751E+04  0.14338011751E+04  0.50400001928E-02 0.  1.
        1   -1    0    0  501    0  0.00000000000E+00  0.00000000000E+00 -0.21344659859E+04  0.21344659859E+04  0.50400001928E-02 0. -1.
    10030    2    1    2    0    0  0.00000000000E+00  0.00000000000E+00 -0.70066481077E+03  0.35682671610E+04  0.34987997020E+04 0.  0.
        4    1    3    3  502    0 -0.12734368091E+04  0.11209969758E+04 -0.78556390691E+03  0.18695956224E+04  0.12699999809E+01 0. -1.
       -4    1    3    3    0  502  0.12734368091E+04 -0.11209969758E+04  0.84899096143E+02  0.16986715386E+04  0.12699999809E+01 0.  1.
</event>
<event>
 5   0  0.3700096E-08  0.3500370E+04  0.7818609E-02  0.8113702E-01
       -2   -1    0    0    0  501  0.00000000000E+00  0.00000000000E+00  0.11644343274E+04  0.11644343274E+04  0.25500000920E-02 0. -1.
        2   -1    0    0  501    0  0.00000000000E+00  0.00000000000E+00 -0.26305888142E+04  0.26305888142E+04  0.25500000920E-02 0.  1.
    10030    2    1    2    0    0  0.00000000000E+00  0.00000000000E+00 -0.14661544868E+04  0.37950231416E+04  0.35003702184E+04 0.  0.
        4    1    3    3  502    0 -0.74968582598E+03 -0.59267751761E+03  0.85658409275E+03  0.12833679903E+04  0.12699999809E+01 0. -1.
       -4    1    3    3    0  502  0.74968582598E+03  0.59267751761E+03 -0.23227385795E+04  0.25116551513E+04  0.12699999809E+01 0.  1.
</event>
<event>
 5   0  0.3553585E-08  0.3498677E+04  0.7818609E-02  0.8114103E-01
       -2   -1    0    0    0  501  0.00000000000E+00  0.00000000000E+00  0.11050800241E+04  0.11050800241E+04  0.25500000920E-02 0.  1.
        2   -1    0    0  501    0  0.00000000000E+00  0.00000000000E+00 -0.27691985536E+04  0.27691985536E+04  0.25500000920E-02 0. -1.
    10030    2    1    2    0    0  0.00000000000E+00  0.00000000000E+00 -0.16641185295E+04  0.38742785777E+04  0.34986774669E+04 0.  0.
        2    1    3    3  502    0 -0.63445044024E+03  0.13025721446E+04 -0.19175861856E+04  0.24034055697E+04  0.25500000920E-02 0. -1.
       -2    1    3    3    0  502  0.63445044024E+03 -0.13025721446E+04  0.25346765614E+03  0.14708730080E+04  0.25500000920E-02 0.  1.
</event>
<event>
 5   0  0.1129219E-08  0.3501121E+04  0.7818609E-02  0.8113524E-01
        1   -1    0    0  501    0  0.00000000000E+00  0.00000000000E+00  0.20416874580E+04  0.20416874580E+04  0.50400001928E-02 0.  1.
       -1   -1    0    0    0  501  0.00000000000E+00  0.00000000000E+00 -0.15009454318E+04  0.15009454318E+04  0.50400001928E-02 0. -1.
    10030    2    1    2    0    0  0.00000000000E+00  0.00000000000E+00  0.54074202622E+03  0.35426328897E+04  0.35011206567E+04 0.  0.
        5    1    3    3  502    0 -0.16475540742E+04 -0.49560970010E+03 -0.56532310857E+02  0.17214184252E+04  0.46999998093E+01 0.  1.
       -5    1    3    3    0  502  0.16475540742E+04  0.49560970010E+03  0.59727433707E+03  0.18212144646E+04  0.46999998093E+01 0. -1.
</event>
<event>
 5   0  0.3554451E-08  0.3500592E+04  0.7818609E-02  0.8113650E-01
       -2   -1    0    0    0  501  0.00000000000E+00  0.00000000000E+00  0.13487395472E+04  0.13487395472E+04  0.25500000920E-02 0. -1.
        2   -1    0    0  501    0  0.00000000000E+00  0.00000000000E+00 -0.22714065214E+04  0.22714065214E+04  0.25500000920E-02 0.  1.
    10030    2    1    2    0    0  0.00000000000E+00  0.00000000000E+00 -0.92266697419E+03  0.36201460686E+04  0.35005918374E+04 0.  0.
        5    1    3    3  502    0 -0.91028140312E+03 -0.11755315276E+04  0.49380431702E+03  0.15666369709E+04  0.46999998093E+01 0. -1.
       -5    1    3    3    0  502  0.91028140312E+03  0.11755315276E+04 -0.14164712912E+04  0.20535090976E+04  0.46999998093E+01 0.  1.
</event>
<event>
 5   0  0.3553585E-08  0.3500047E+04  0.7818609E-02  0.8113779E-01
        2   -1    0    0  501    0  0.00000000000E+00  0.00000000000E+00  0.12393656825E+04  0.12393656825E+04  0.25500000920E-02 0. -1.
       -2   -1    0    0    0  501  0.00000000000E+00  0.00000000000E+00 -0.24710884524E+04  0.24710884524E+04  0.25500000920E-02 0.  1.
    10030    2    1    2    0    0  0.00000000000E+00  0.00000000000E+00 -0.12317227699E+04  0.37104541349E+04  0.35000469861E+04 0.  0.
        2    1    3    3  502    0 -0.12742710568E+04 -0.13921233502E+03 -0.18788836690E+04  0.22745000862E+04  0.25500000920E-02 0.  1.
       -2    1    3    3    0  502  0.12742710568E+04  0.13921233502E+03  0.64716089915E+03  0.14359540486E+04  0.25500000920E-02 0. -1.
</event>
<event>
 5   0  0.1121462E-08  0.3494499E+04  0.7818609E-02  0.8115095E-01
       -1   -1    0    0    0  501  0.00000000000E+00  0.00000000000E+00  0.16705315658E+04  0.16705315658E+04  0.50400001928E-02 0. -1.
        1   -1    0    0  501    0  0.00000000000E+00  0.00000000000E+00 -0.18274902158E+04  0.18274902159E+04  0.50400001928E-02 0.  1.
    10030    2    1    2    0    0  0.00000000000E+00  0.00000000000E+00 -0.15695865005E+03  0.34980217817E+04  0.34944985859E+04 0.  0.
        2    1    3    3  502    0 -0.53633070464E+03 -0.42060610932E+03  0.15319683611E+04  0.16767489924E+04  0.25500000920E-02 0. -1.
       -2    1    3    3    0  502  0.53633070464E+03  0.42060610932E+03 -0.16889270112E+04  0.18212727893E+04  0.25500000920E-02 0.  1.
</event>
<event>
 5   0  0.1140808E-08  0.3498939E+04  0.7818609E-02  0.8114042E-01
        1   -1    0    0  501    0  0.00000000000E+00  0.00000000000E+00  0.23697679301E+04  0.23697679301E+04  0.50400001928E-02 0. -1.
       -1   -1    0    0    0  501  0.00000000000E+00  0.00000000000E+00 -0.12915369076E+04  0.12915369077E+04  0.50400001928E-02 0.  1.
    10030    2    1    2    0    0  0.00000000000E+00  0.00000000000E+00  0.10782310224E+04  0.36613048378E+04  0.34989385501E+04 0.  0.
        3    1    3    3  502    0 -0.26401709841E+03  0.49462599140E+03 -0.11949767710E+04  0.13199732547E+04  0.10100000352E+00 0.  1.
       -3    1    3    3    0  502  0.26401709841E+03 -0.49462599140E+03  0.22732077934E+04  0.23413315831E+04  0.10100000352E+00 0. -1.
</event>
<event>
 5   0  0.3628017E-08  0.3500510E+04  0.7818609E-02  0.8113669E-01
        2   -1    0    0  501    0  0.00000000000E+00  0.00000000000E+00  0.18933178314E+04  0.18933178314E+04  0.25500000920E-02 0. -1.
       -2   -1    0    0    0  501  0.00000000000E+00  0.00000000000E+00 -0.16180020880E+04  0.16180020880E+04  0.25500000920E-02 0.  1.
    10030    2    1    2    0    0  0.00000000000E+00  0.00000000000E+00  0.27531574335E+03  0.35113199194E+04  0.35005097939E+04 0.  0.
        1    1    3    3  502    0 -0.22146205068E+03  0.54094189980E+03 -0.15172030998E+04  0.16259055400E+04  0.50400001928E-02 0.  1.
       -1    1    3    3    0  502  0.22146205068E+03 -0.54094189980E+03  0.17925188432E+04  0.18854143794E+04  0.50400001928E-02 0. -1.
</event>
<event>
 5   0  0.1140808E-08  0.3499486E+04  0.7818609E-02  0.8113912E-01
       -1   -1    0    0    0  501  0.00000000000E+00  0.00000000000E+00  0.16078401331E+04  0.16078401331E+04  0.50400001928E-02 0.  1.
        1   -1    0    0  501    0  0.00000000000E+00  0.00000000000E+00 -0.19041698019E+04  0.19041698019E+04  0.50400001928E-02 0. -1.
    10030    2    1    2    0    0  0.00000000000E+00  0.00000000000E+00 -0.29632966880E+03  0.35120099350E+04  0.34994860352E+04 0.  0.
        3    1    3    3  502    0 -0.12375835092E+04 -0.87111699406E+03 -0.10294549341E+04  0.18303647809E+04  0.10100000352E+00 0.  1.
       -3    1    3    3    0  502  0.12375835092E+04  0.87111699406E+03  0.73312526533E+03  0.16816451541E+04  0.10100000352E+00 0. -1.
</event>
<event>
 5   0  0.3553585E-08  0.3500500E+04  0.7818609E-02  0.8113671E-01
        2   -1    0    0  501    0  0.00000000000E+00  0.00000000000E+00  0.20674592125E+04  0.20674592125E+04  0.25500000920E-02 0. -1.
       -2   -1    0    0    0  501  0.00000000000E+00  0.00000000000E+00 -0.14817103464E+04  0.14817103464E+04  0.25500000920E-02 0.  1.
    10030    2    1    2    0    0  0.00000000000E+00  0.00000000000E+00  0.58574886606E+03  0.35491695589E+04  0.35005003676E+04 0.  0.
        2    1    3    3  502    0 -0.15035993965E+04 -0.89124801260E+03  0.20082930125E+03  0.17593938085E+04  0.25500000920E-02 0.  1.
       -2    1    3    3    0  502  0.15035993965E+04  0.89124801260E+03  0.38491956481E+03  0.17897757504E+04  0.25500000920E-02 0. -1.
</event>
<event>
 5   0  0.3467834E-08  0.3498247E+04  0.7818609E-02  0.8114205E-01
       -2   -1    0    0    0  501  0.00000000000E+00  0.00000000000E+00  0.15218347563E+04  0.15218347563E+04  0.25500000920E-02 0. -1.
        2   -1    0    0  501    0  0.00000000000E+00  0.00000000000E+00 -0.20103586482E+04  0.20103586482E+04  0.25500000920E-02 0.  1.
    10030    2    1    2    0    0  0.00000000000E+00  0.00000000000E+00 -0.48852389192E+03  0.35321934045E+04  0.34982473688E+04 0.  0.
        3    1    3    3  502    0 -0.16081298101E+04  0.24305872300E+03 -0.89414935828E+03  0.18559800953E+04  0.10100000352E+00 0. -1.
       -3    1    3    3    0  502  0.16081298101E+04 -0.24305872300E+03  0.40562546636E+03  0.16762133092E+04  0.10100000352E+00 0.  1.
</event>
<event>
 5   0  0.3628017E-08  0.3509186E+04  0.7818609E-02  0.8111616E-01
       -2   -1    0    0    0  501  0.00000000000E+00  0.00000000000E+00  0.13867754872E+04  0.13867754872E+04  0.25500000920E-02 0.  1.
        2   -1    0    0  501    0  0.00000000000E+00  0.00000000000E+00 -0.22199676507E+04  0.22199676507E+04  0.25500000920E-02 0. -1.
    10030    2    1    2    0    0  0.00000000000E+00  0.00000000000E+00 -0.83319216347E+03  0.36067431380E+04  0.35091860711E+04 0.  0.
        1    1    3    3  502    0  0.16447463272E+03 -0.74165521808E+03  0.12089841419E+04  0.14278469886E+04  0.50400001928E-02 0.  1.
       -1    1    3    3    0  502 -0.16447463272E+03  0.74165521808E+03 -0.20421763054E+04  0.21788961494E+04  0.50400001928E-02 0. -1.
</event>
<event>
 5   0  0.3554451E-08  0.3503053E+04  0.7818609E-02  0.8113067E-01
        2   -1    0    0  501    0  0.00000000000E+00  0.00000000000E+00  0.31544919887E+04  0.31544919887E+04  0.25500000920E-02 0. -1.
       -2   -1    0    0    0  501  0.00000000000E+00  0.00000000000E+00 -0.97253244159E+03  0.97253244160E+03  0.25500000920E-02 0.  1.
    10030    2    1    2    0    0  0.00000000000E+00  0.00000000000E+00  0.21819595471E+04  0.41270244303E+04  0.35030534085E+04 0.  0.
        5    1    3    3  502    0  0.17213857974E+04  0.32292659822E+03  0.11137347450E+04  0.20755427781E+04  0.46999998093E+01 0.  1.
       -5    1    3    3    0  502 -0.17213857974E+04 -0.32292659822E+03  0.10682248021E+04  0.20514816522E+04  0.46999998093E+01 0. -1.
</event>
<event>
 5   0  0.1121462E-08  0.3500522E+04  0.7818609E-02  0.8113666E-01
        1   -1    0    0  501    0  0.00000000000E+00  0.00000000000E+00  0.22238559578E+04  0.22238559578E+04  0.50400001928E-02 0. -1.
       -1   -1    0    0    0  501  0.00000000000E+00  0.00000000000E+00 -0.13775235177E+04  0.13775235177E+04  0.50400001928E-02 0.  1.
    10030    2    1    2    0    0  0.00000000000E+00  0.00000000000E+00  0.84633244007E+03  0.36013794755E+04  0.35005221793E+04 0.  0.
        4    1    3    3  502    0 -0.16186255559E+04  0.30414240381E+03  0.10326546514E+04  0.19439209176E+04  0.12699999809E+01 0. -1.
       -4    1    3    3    0  502  0.16186255559E+04 -0.30414240381E+03 -0.18632221130E+03  0.16574585579E+04  0.12699999809E+01 0.  1.
</event>
<event>
 5   0  0.1129219E-08  0.3499217E+04  0.7818609E-02  0.8113975E-01
       -1   -1    0    0    0  501  0.00000000000E+00  0.00000000000E+00  0.12875147126E+04  0.12875147126E+04  0.50400001928E-02 0. -1.
        1   -1    0    0  501    0  0.00000000000E+00  0.00000000000E+00 -0.23775500354E+04  0.23775500354E+04  0.50400001928E-02 0.  1.
    10030    2    1    2    0    0  0.00000000000E+00  0.00000000000E+00 -0.10900353228E+04  0.36650647481E+04  0.34992174272E+04 0.  0.
        5    1    3    3  502    0 -0.22596075744E+03  0.49659005307E+03 -0.22861685933E+04  0.23503720709E+04  0.46999998093E+01 0.  1.
       -5    1    3    3    0  502  0.22596075744E+03 -0.49659005307E+03  0.11961332705E+04  0.13146926772E+04  0.46999998093E+01 0. -1.
</event>
<event>
 5   0  0.3700096E-08  0.3497165E+04  0.7818609E-02  0.8114462E-01
        2   -1    0    0  501    0  0.00000000000E+00  0.00000000000E+00  0.14362600448E+04  0.14362600448E+04  0.25500000920E-02 0. -1.
       -2   -1    0    0    0  501  0.00000000000E+00  0.00000000000E+00 -0.21288214650E+04  0.21288214650E+04  0.25500000920E-02 0.  1.
    10030    2    1    2    0    0  0.00000000000E+00  0.00000000000E+00 -0.69256142021E+03  0.35650815098E+04  0.34971652593E+04 0.  0.
        4    1    3    3  502    0  0.10615860624E+04 -0.57011023241E+03 -0.16379908963E+04  0.20334715229E+04  0.12699999809E+01 0.  1.
       -4    1    3    3    0  502 -0.10615860624E+04  0.57011023241E+03  0.94542947610E+03  0.15316099870E+04  0.12699999809E+01 0. -1.
</event>
<event>
 5   0  0.1121462E-08  0.3498407E+04  0.7818609E-02  0.8114168E-01
        1   -1    0    0  501    0  0.00000000000E+00  0.00000000000E+00  0.26957290858E+04  0.26957290858E+04  0.50400001928E-02 0. -1.
       -1   -1    0    0    0  501  0.00000000000E+00  0.00000000000E+00 -0.11350221105E+04  0.11350221105E+04  0.50400001928E-02 0.  1.
    10030    2    1    2    0    0  0.00000000000E+00  0.00000000000E+00  0.15607069754E+04  0.38307511963E+04  0.34984065609E+04 0.  0.
        4    1    3    3  502    0 -0.13353315109E+04 -0.90843562397E+03  0.44709019437E+02  0.16156627235E+04  0.12699999809E+01 0.  1.
       -4    1    3    3    0  502  0.13353315109E+04  0.90843562397E+03  0.15159979559E+04  0.22150884728E+04  0.12699999809E+01 0. -1.
</event>
<event>
 5   0  0.1140808E-08  0.3500412E+04  0.7818609E-02  0.8113692E-01
       -1   -1    0    0    0  501  0.00000000000E+00  0.00000000000E+00  0.16288379886E+04  0.16288379886E+04  0.50400001928E-02 0.  1.
        1   -1    0    0  501    0  0.00000000000E+00  0.00000000000E+00 -0.18806173323E+04  0.18806173323E+04  0.50400001928E-02 0. -1.
    10030    2    1    2    0    0  0.00000000000E+00  0.00000000000E+00 -0.25177934370E+03  0.35094553209E+04  0.35004119488E+04 0.  0.
        3    1    3    3  502    0  0.55565261745E+03  0.64788311898E+03 -0.16578158211E+04  0.18646328523E+04  0.10100000352E+00 0. -1.
       -3    1    3    3    0  502 -0.55565261745E+03 -0.64788311898E+03  0.14060364774E+04  0.16448224686E+04  0.10100000352E+00 0.  1.
</event>
<event>
 5   0  0.3628017E-08  0.3499548E+04  0.7818609E-02  0.8113897E-01
        2   -1    0    0  501    0  0.00000000000E+00  0.00000000000E+00  0.11340758485E+04  0.11340758485E+04  0.25500000920E-02 0. -1.
       -2   -1    0    0    0  501  0.00000000000E+00  0.00000000000E+00 -0.26997387011E+04  0.26997387011E+04  0.25500000920E-02 0.  1.
    10030    2    1    2    0    0  0.00000000000E+00  0.00000000000E+00 -0.15656628526E+04  0.38338145496E+04  0.34995476611E+04 0.  0.
        1    1    3    3  502    0  0.14139840399E+04  0.29459803461E+03  0.29922103168E+03  0.14750159636E+04  0.50400001928E-02 0. -1.
       -1    1    3    3    0  502 -0.14139840399E+04 -0.29459803461E+03 -0.18648838842E+04  0.23587985859E+04  0.50400001928E-02 0.  1.
</event>
<event>
 5   0  0.1129219E-08  0.3499715E+04  0.7818609E-02  0.8113857E-01
       -1   -1    0    0    0  501  0.00000000000E+00  0.00000000000E+00  0.13027951126E+04  0.13027951126E+04  0.50400001928E-02 0. -1.
        1   -1    0    0  501    0  0.00000000000E+00  0.00000000000E+00 -0.23503327084E+04  0.23503327084E+04  0.50400001928E-02 0.  1.
    10030    2    1    2    0    0  0.00000000000E+00  0.00000000000E+00 -0.10475375957E+04  0.36531278210E+04  0.34997153973E+04 0.  0.
        5    1    3    3  502    0  0.14628639133E+04  0.89177663119E+02  0.47420384161E+03  0.15403943838E+04  0.46999998093E+01 0. -1.
       -5    1    3    3    0  502 -0.14628639133E+04 -0.89177663119E+02 -0.15217414373E+04  0.21127334372E+04  0.46999998093E+01 0.  1.
</event>
<event>
 5   0  0.3700096E-08  0.3499573E+04  0.7818609E-02  0.8113891E-01
        2   -1    0    0  501    0  0.00000000000E+00  0.00000000000E+00  0.17463091590E+04  0.17463091590E+04  0.25500000920E-02 0.  1.
       -2   -1    0    0    0  501  0.00000000000E+00  0.00000000000E+00 -0.17532711574E+04  0.17532711574E+04  0.25500000920E-02 0. -1.
    10030    2    1    2    0    0  0.00000000000E+00  0.00000000000E+00 -0.69619983457E+01  0.34995803164E+04  0.34995733913E+04 0.  0.
        4    1    3    3  502    0  0.17220888209E+04  0.30228773534E+03  0.65686221896E+02  0.17496525582E+04  0.12699999809E+01 0.  1.
       -4    1    3    3    0  502 -0.17220888209E+04 -0.30228773534E+03 -0.72648220241E+02  0.17499277581E+04  0.12699999809E+01 0. -1.
</event>
<event>
 5   0  0.3628017E-08  0.3500107E+04  0.7818609E-02  0.8113765E-01
       -2   -1    0    0    0  501  0.00000000000E+00  0.00000000000E+00  0.23484707358E+04  0.23484707358E+04  0.25500000920E-02 0.  1.
        2   -1    0    0  501    0  0.00000000000E+00  0.00000000000E+00 -0.13041200805E+04  0.13041200805E+04  0.25500000920E-02 0. -1.
    10030    2    1    2    0    0  0.00000000000E+00  0.00000000000E+00  0.10443506553E+04  0.36525908163E+04  0.35001073383E+04 0.  0.
        1    1    3    3  502    0 -0.14601083566E+04 -0.79296766647E+03  0.10956367776E+04  0.19902598025E+04  0.50400001928E-02 0. -1.
       -1    1    3    3    0  502  0.14601083566E+04  0.79296766647E+03 -0.51286122334E+02  0.16623310138E+04  0.50400001928E-02 0.  1.
</event>
<event>
 5   0  0.3467834E-08  0.3497993E+04  0.7818609E-02  0.8114266E-01
        2   -1    0    0  501    0  0.00000000000E+00  0.00000000000E+00  0.25236239700E+04  0.25236239700E+04  0.25500000920E-02 0. -1.
       -2   -1    0    0    0  501  0.00000000000E+00  0.00000000000E+00 -0.12121409644E+04  0.12121409644E+04  0.25500000920E-02 0.  1.
    10030    2    1    2    0    0  0.00000000000E+00  0.00000000000E+00  0.13114830056E+04  0.37357649344E+04  0.34979925631E+04 0.  0.
        3    1    3    3  502    0  0.10788544206E+04  0.46095375308E+02 -0.81362002202E+03  0.13520462991E+04  0.10100000352E+00 0.  1.
       -3    1    3    3    0  502 -0.10788544206E+04 -0.46095375308E+02  0.21251030276E+04  0.23837186353E+04  0.10100000352E+00 0. -1.
</event>
<event>
 5   0  0.3553585E-08  0.3500044E+04  0.7818609E-02  0.8113779E-01
        2   -1    0    0  501    0  0.00000000000E+00  0.00000000000E+00  0.22620662883E+04  0.22620662883E+04  0.25500000920E-02 0. -1.
       -2   -1    0    0    0  501  0.00000000000E+00  0.00000000000E+00 -0.13538849769E+04  0.13538849769E+04  0.25500000920E-02 0.  1.
    10030    2    1    2    0    0  0.00000000000E+00  0.00000000000E+00  0.90818131141E+03  0.36159512653E+04  0.35000443224E+04 0.  0.
        2    1    3    3  502    0 -0.94329544225E+03 -0.49043016070E+03 -0.98199594404E+03  0.14472885227E+04  0.25500000920E-02 0.  1.
       -2    1    3    3    0  502  0.94329544225E+03  0.49043016070E+03  0.18901772555E+04  0.21686627426E+04  0.25500000920E-02 0. -1.
</event>
<event>
 5   0  0.3628017E-08  0.3497663E+04  0.7818609E-02  0.8114344E-01
        2   -1    0    0  501    0  0.00000000000E+00  0.00000000000E+00  0.10989629581E+04  0.10989629581E+04  0.25500000920E-02 0.  1.
       -2   -1    0    0    0  501  0.00000000000E+00  0.00000000000E+00 -0.27829973815E+04  0.27829973815E+04  0.25500000920E-02 0. -1.
    10030    2    1    2    0    0  0.00000000000E+00  0.00000000000E+00 -0.16840344234E+04  0.38819603397E+04  0.34976626681E+04 0.  0.
        1    1    3    3  502    0  0.52882481875E+03 -0.54824885679E+03 -0.25892045272E+04  0.26989280431E+04  0.50400001928E-02 0. -1.
       -1    1    3    3    0  502 -0.52882481875E+03  0.54824885679E+03  0.90517010382E+03  0.11830322966E+04  0.50400001928E-02 0.  1.
</event>
<event>
 5   0  0.3554451E-08  0.3497670E+04  0.7818609E-02  0.8114342E-01
       -2   -1    0    0    0  501  0.00000000000E+00  0.00000000000E+00  0.19093159991E+04  0.19093159991E+04  0.25500000920E-02 0. -1.
        2   -1    0    0  501    0  0.00000000000E+00  0.00000000000E+00 -0.16018423167E+04  0.16018423167E+04  0.25500000920E-02 0.  1.
    10030    2    1    2    0    0  0.00000000000E+00  0.00000000000E+00  0.30747368241E+03  0.35111583159E+04  0.34976696033E+04 0.  0.
        5    1    3    3  502    0  0.10033152675E+04  0.89054627569E+03  0.12799756320E+04  0.18542043856E+04  0.46999998093E+01 0. -1.
       -5    1    3    3    0  502 -0.10033152675E+04 -0.89054627569E+03 -0.97250194955E+03  0.16569539303E+04  0.46999998093E+01 0.  1.
</event>
<event>
 5   0  0.3553585E-08  0.3500040E+04  0.7818609E-02  0.8113780E-01
       -2   -1    0    0    0  501  0.00000000000E+00  0.00000000000E+00  0.11714808169E+04  0.11714808169E+04  0.25500000920E-02 0. -1.
        2   -1    0    0  501    0  0.00000000000E+00  0.00000000000E+00 -0.26142728702E+04  0.26142728702E+04  0.25500000920E-02 0.  1.
    10030    2    1    2    0    0  0.00000000000E+00  0.00000000000E+00 -0.14427920533E+04  0.37857536871E+04  0.35000402955E+04 0.  0.
        2    1    3    3  502    0 -0.36430547008E+03  0.26789359695E+03  0.11071962652E+04  0.11959803612E+04  0.25500000920E-02 0. -1.
       -2    1    3    3    0  502  0.36430547008E+03 -0.26789359695E+03 -0.25499883185E+04  0.25897733259E+04  0.25500000920E-02 0.  1.
</event>
<event>
 5   0  0.1140808E-08  0.3500458E+04  0.7818609E-02  0.8113682E-01
        1   -1    0    0  501    0  0.00000000000E+00  0.00000000000E+00  0.20795063428E+04  0.20795063428E+04  0.50400001928E-02 0.  1.
       -1   -1    0    0    0  501  0.00000000000E+00  0.00000000000E+00 -0.14730903610E+04  0.14730903610E+04  0.50400001928E-02 0. -1.
    10030    2    1    2    0    0  0.00000000000E+00  0.00000000000E+00  0.60641598181E+03  0.35525967039E+04  0.35004575411E+04 0.  0.
        3    1    3    3  502    0 -0.62515215215E+03 -0.61280812224E+03  0.18413521078E+04  0.20388542378E+04  0.10100000352E+00 0.  1.
       -3    1    3    3    0  502  0.62515215215E+03  0.61280812224E+03 -0.12349361260E+04  0.15137424660E+04  0.10100000352E+00 0. -1.
</event>
<event>
 5   0  0.1121462E-08  0.3499444E+04  0.7818609E-02  0.8113922E-01
       -1   -1    0    0    0  501  0.00000000000E+00  0.00000000000E+00  0.15699020248E+04  0.15699020248E+04  0.50400001928E-02 0. -1.
        1   -1    0    0  501    0  0.00000000000E+00  0.00000000000E+00 -0.19501386496E+04  0.19501386496E+04  0.50400001928E-02 0.  1.
    10030    2    1    2    0    0  0.00000000000E+00  0.00000000000E+00 -0.38023662476E+03  0.35200406744E+04  0.34994437356E+04 0.  0.
        1    1    3    3  502    0 -0.16438664706E+04  0.47804146342E+03  0.17354243740E+03  0.17207375138E+04  0.50400001928E-02 0. -1.
       -1    1    3    3    0  502  0.16438664706E+04 -0.47804146342E+03 -0.55377906216E+03  0.17993031606E+04  0.50400001928E-02 0.  1.
</event>
<event>
 5   0  0.3553585E-08  0.3499871E+04  0.7818609E-02  0.8113821E-01
       -2   -1    0    0    0  501  0.00000000000E+00  0.00000000000E+00  0.18523315795E+04  0.18523315795E+04  0.25500000920E-02 0.  1.
        2   -1    0    0  501    0  0.00000000000E+00  0.00000000000E+00 -0.16531997166E+04  0.16531997166E+04  0.25500000920E-02 0. -1.
    10030    2    1    2    0    0  0.00000000000E+00  0.00000000000E+00  0.19913186284E+03  0.35055312961E+04  0.34998708789E+04 0.  0.
        2    1    3    3  502    0  0.13994321541E+04 -0.65645999108E+03 -0.72208021973E+03  0.17060920015E+04  0.25500000920E-02 0. -1.
       -2    1    3    3    0  502 -0.13994321541E+04  0.65645999108E+03  0.92121208257E+03  0.17994392946E+04  0.25500000920E-02 0.  1.
</event>
<event>
 5   0  0.3554451E-08  0.3500545E+04  0.7818609E-02  0.8113661E-01
       -2   -1    0    0    0  501  0.00000000000E+00  0.00000000000E+00  0.19708110983E+04  0.19708110983E+04  0.25500000920E-02 0. -1.
        2   -1    0    0  501    0  0.00000000000E+00  0.00000000000E+00 -0.15544128279E+04  0.15544128279E+04  0.25500000920E-02 0.  1.
    10030    2    1    2    0    0  0.00000000000E+00  0.00000000000E+00  0.41639827049E+03  0.35252239262E+04  0.35005451304E+04 0.  0.
        5    1    3    3  502    0 -0.91080237751E+03 -0.12676906177E+04 -0.58910943197E+03  0.16684341419E+04  0.46999998093E+01 0.  1.
       -5    1    3    3    0  502  0.91080237751E+03  0.12676906177E+04  0.10055077025E+04  0.18567897842E+04  0.46999998093E+01 0. -1.
</event>
<event>
 5   0  0.3554451E-08  0.3499141E+04  0.7818609E-02  0.8113994E-01
       -2   -1    0    0    0  501  0.00000000000E+00  0.00000000000E+00  0.12659505608E+04  0.12659505608E+04  0.25500000920E-02 0.  1.
        2   -1    0    0  501    0  0.00000000000E+00  0.00000000000E+00 -0.24179435194E+04  0.24179435194E+04  0.25500000920E-02 0. -1.
    10030    2    1    2    0    0  0.00000000000E+00  0.00000000000E+00 -0.11519929586E+04  0.36838940802E+04  0.34991410113E+04 0.  0.
        5    1    3    3  502    0 -0.40525177203E+03 -0.15259770991E+04  0.21755166731E+03  0.15937960734E+04  0.46999998093E+01 0.  1.
       -5    1    3    3    0  502  0.40525177203E+03  0.15259770991E+04 -0.13695446259E+04  0.20900980068E+04  0.46999998093E+01 0. -1.
</event>
<event>
 5   0  0.1121462E-08  0.3499580E+04  0.7818609E-02  0.8113890E-01
       -1   -1    0    0    0  501  0.00000000000E+00  0.00000000000E+00  0.99488514766E+03  0.99488514767E+03  0.50400001928E-02 0. -1.
        1   -1    0    0  501    0  0.00000000000E+00  0.00000000000E+00 -0.30775054635E+04  0.30775054635E+04  0.50400001928E-02 0.  1.
    10030    2    1    2    0    0  0.00000000000E+00  0.00000000000E+00 -0.20826203158E+04  0.40723906112E+04  0.34995796762E+04 0.  0.
        4    1    3    3  502    0  0.96738856463E+03 -0.81782094485E+03  0.36336822609E+03  0.13178428637E+04  0.12699999809E+01 0. -1.
       -4    1    3    3    0  502 -0.96738856463E+03  0.81782094485E+03 -0.24459885419E+04  0.27545477474E+04  0.12699999809E+01 0.  1.
</event>
<event>
 5   0  0.1121462E-08  0.3492512E+04  0.7818609E-02  0.8115567E-01
        3   -1    0    0  501    0  0.00000000000E+00  0.00000000000E+00  0.14092497248E+04  0.14092497284E+04  0.10100000352E+00 0.  1.
       -3   -1    0    0    0  501  0.00000000000E+00  0.00000000000E+00 -0.21638536432E+04  0.21638536455E+04  0.10100000352E+00 0. -1.
    10030    2    1    2    0    0  0.00000000000E+00  0.00000000000E+00 -0.75460391834E+03  0.35731033740E+04  0.34925120827E+04 0.  0.
        2    1    3    3  502    0  0.79791098581E+03  0.15403963802E+04 -0.58173079638E+03  0.18297250255E+04  0.25500000920E-02 0. -1.
       -2    1    3    3    0  502 -0.79791098581E+03 -0.15403963802E+04 -0.17287312196E+03  0.17433783485E+04  0.25500000920E-02 0.  1.
</event>
<event>
 5   0  0.3628017E-08  0.3500401E+04  0.7818609E-02  0.8113695E-01
       -2   -1    0    0    0  501  0.00000000000E+00  0.00000000000E+00  0.95518481647E+03  0.95518481648E+03  0.25500000920E-02 0. -1.
        2   -1    0    0  501    0  0.00000000000E+00  0.00000000000E+00 -0.32069206351E+04  0.32069206351E+04  0.25500000920E-02 0.  1.
    10030    2    1    2    0    0  0.00000000000E+00  0.00000000000E+00 -0.22517358186E+04  0.41621054515E+04  0.35004010617E+04 0.  0.
        1    1    3    3  502    0  0.52465338682E+03  0.95314696759E+03 -0.27559551319E+04  0.29629443139E+04  0.50400001928E-02 0.  1.
       -1    1    3    3    0  502 -0.52465338682E+03 -0.95314696759E+03  0.50421931331E+03  0.11991611377E+04  0.50400001928E-02 0. -1.
</event>
<event>
 5   0  0.3700096E-08  0.3499406E+04  0.7818609E-02  0.8113931E-01
       -2   -1    0    0    0  501  0.00000000000E+00  0.00000000000E+00  0.23284642459E+04  0.23284642459E+04  0.25500000920E-02 0.  1.
        2   -1    0    0  501    0  0.00000000000E+00  0.00000000000E+00 -0.13147985669E+04  0.13147985669E+04  0.25500000920E-02 0. -1.
    10030    2    1    2    0    0  0.00000000000E+00  0.00000000000E+00  0.10136656790E+04  0.36432628128E+04  0.34994064946E+04 0.  0.
        4    1    3    3  502    0  0.16990267882E+04 -0.66073610171E+02  0.77065341575E+02  0.17020571168E+04  0.12699999809E+01 0.  1.
       -4    1    3    3    0  502 -0.16990267882E+04  0.66073610171E+02  0.93660033743E+03  0.19412056960E+04  0.12699999809E+01 0. -1.
</event>
<event>
 5   0  0.3553585E-08  0.3499419E+04  0.7818609E-02  0.8113928E-01
       -2   -1    0    0    0  501  0.00000000000E+00  0.00000000000E+00  0.10643619652E+04  0.10643619652E+04  0.25500000920E-02 0.  1.
        2   -1    0    0  501    0  0.00000000000E+00  0.00000000000E+00 -0.28763556253E+04  0.28763556253E+04  0.25500000920E-02 0. -1.
    10030    2    1    2    0    0  0.00000000000E+00  0.00000000000E+00 -0.18119936601E+04  0.39407175905E+04  0.34994191095E+04 0.  0.
        2    1    3    3  502    0  0.91597353928E+03  0.13199903959E+04 -0.12572519440E+03  0.16115796581E+04  0.25500000920E-02 0.  1.
       -2    1    3    3    0  502 -0.91597353928E+03 -0.13199903959E+04 -0.16862684657E+04  0.23291379324E+04  0.25500000920E-02 0. -1.
</event>
<event>
 5   0  0.3553585E-08  0.3499668E+04  0.7818609E-02  0.8113869E-01
        2   -1    0    0  501    0  0.00000000000E+00  0.00000000000E+00  0.21578792411E+04  0.21578792411E+04  0.25500000920E-02 0. -1.
       -2   -1    0    0    0  501  0.00000000000E+00  0.00000000000E+00 -0.14189481237E+04  0.14189481237E+04  0.25500000920E-02 0.  1.
    10030    2    1    2    0    0  0.00000000000E+00  0.00000000000E+00  0.73893111745E+03  0.35768273648E+04  0.34996678130E+04 0.  0.
        2    1    3    3  502    0  0.81273758007E+03  0.14382180128E+03 -0.12075018849E+04  0.14626304682E+04  0.25500000920E-02 0.  1.
       -2    1    3    3    0  502 -0.81273758007E+03 -0.14382180128E+03  0.19464330024E+04  0.21141968965E+04  0.25500000920E-02 0. -1.
</event>
<event>
 5   0  0.1121462E-08  0.3499890E+04  0.7818609E-02  0.8113816E-01
        1   -1    0    0  501    0  0.00000000000E+00  0.00000000000E+00  0.20131151260E+04  0.20131151260E+04  0.50400001928E-02 0.  1.
       -1   -1    0    0    0  501  0.00000000000E+00  0.00000000000E+00 -0.15211786604E+04  0.15211786604E+04  0.50400001928E-02 0. -1.
    10030    2    1    2    0    0  0.00000000000E+00  0.00000000000E+00  0.49193646559E+03  0.35342937864E+04  0.34998901529E+04 0.  0.
        2    1    3    3  502    0 -0.31754210373E+03  0.15740168424E+04 -0.45653217263E+03  0.16693662367E+04  0.25500000920E-02 0. -1.
       -2    1    3    3    0  502  0.31754210373E+03 -0.15740168424E+04  0.94846863822E+03  0.18649275496E+04  0.25500000920E-02 0.  1.
</event>
<event>
 5   0  0.1140808E-08  0.3499319E+04  0.7818609E-02  0.8113951E-01
        1   -1    0    0  501    0  0.00000000000E+00  0.00000000000E+00  0.31189196020E+04  0.31189196020E+04  0.50400001928E-02 0. -1.
       -1   -1    0    0    0  501  0.00000000000E+00  0.00000000000E+00 -0.98152868097E+03  0.98152868099E+03  0.50400001928E-02 0.  1.
    10030    2    1    2    0    0  0.00000000000E+00  0.00000000000E+00  0.21373909210E+04  0.41004482830E+04  0.34993193870E+04 0.  0.
        3    1    3    3  502    0  0.12058838914E+02 -0.40457721871E+03 -0.92591478777E+03  0.10105178603E+04  0.10100000352E+00 0.  1.
       -3    1    3    3    0  502 -0.12058838914E+02  0.40457721871E+03  0.30633057088E+04  0.30899304227E+04  0.10100000352E+00 0. -1.
</event>
<event>
 5   0  0.3554451E-08  0.3502927E+04  0.7818609E-02  0.8113097E-01
        2   -1    0    0  501    0  0.00000000000E+00  0.00000000000E+00  0.21537550442E+04  0.21537550442E+04  0.25500000920E-02 0. -1.
       -2   -1    0    0    0  501  0.00000000000E+00  0.00000000000E+00 -0.14243146008E+04  0.14243146008E+04  0.25500000920E-02 0.  1.
    10030    2    1    2    0    0  0.00000000000E+00  0.00000000000E+00  0.72944044342E+03  0.35780696450E+04  0.35029272079E+04 0.  0.
        5    1    3    3  502    0 -0.32770237009E+03  0.10150888770E+03 -0.13896532150E+04  0.14313808178E+04  0.46999998093E+01 0.  1.
       -5    1    3    3    0  502  0.32770237009E+03 -0.10150888770E+03  0.21190936584E+04  0.21466888272E+04  0.46999998093E+01 0. -1.
</event>
<event>
 5   0  0.3628017E-08  0.3499116E+04  0.7818609E-02  0.8113999E-01
        2   -1    0    0  501    0  0.00000000000E+00  0.00000000000E+00  0.14511971355E+04  0.14511971355E+04  0.25500000920E-02 0. -1.
       -2   -1    0    0    0  501  0.00000000000E+00  0.00000000000E+00 -0.21092607580E+04  0.21092607580E+04  0.25500000920E-02 0.  1.
    10030    2    1    2    0    0  0.00000000000E+00  0.00000000000E+00 -0.65806362250E+03  0.35604578935E+04  0.34991159855E+04 0.  0.
        1    1    3    3  502    0 -0.53487590729E+03  0.15117102885E+04 -0.10410073747E+04  0.19118202286E+04  0.50400001928E-02 0.  1.
       -1    1    3    3    0  502  0.53487590729E+03 -0.15117102885E+04  0.38294375215E+03  0.16486376648E+04  0.50400001928E-02 0. -1.
</event>
<event>
 5   0  0.1121462E-08  0.3501293E+04  0.7818609E-02  0.8113484E-01
        1   -1    0    0  501    0  0.00000000000E+00  0.00000000000E+00  0.19799144317E+04  0.19799144317E+04  0.50400001928E-02 0. -1.
       -1   -1    0    0    0  501  0.00000000000E+00  0.00000000000E+00 -0.15479273925E+04  0.15479273925E+04  0.50400001928E-02 0.  1.
    10030    2    1    2    0    0  0.00000000000E+00  0.00000000000E+00  0.43198703924E+03  0.35278418242E+04  0.35012933517E+04 0.  0.
        4    1    3    3  502    0  0.34508762612E+03 -0.94284533281E+03 -0.12290074072E+04  0.15869793985E+04  0.12699999809E+01 0.  1.
       -4    1    3    3    0  502 -0.34508762612E+03  0.94284533281E+03  0.16609944465E+04  0.19408624257E+04  0.12699999809E+01 0. -1.
</event>
<event>
 5   0  0.1140808E-08  0.3498820E+04  0.7818609E-02  0.8114070E-01
       -1   -1    0    0    0  501  0.00000000000E+00  0.00000000000E+00  0.18500651356E+04  0.18500651356E+04  0.50400001928E-02 0.  1.
        1   -1    0    0  501    0  0.00000000000E+00  0.00000000000E+00 -0.16542308343E+04  0.16542308343E+04  0.50400001928E-02 0. -1.
    10030    2    1    2    0    0  0.00000000000E+00  0.00000000000E+00  0.19583430130E+03  0.35042959700E+04  0.34988196826E+04 0.  0.
        3    1    3    3  502    0  0.11861480719E+04 -0.12612387036E+04 -0.15300334682E+03  0.17381255278E+04  0.10100000352E+00 0. -1.
       -3    1    3    3    0  502 -0.11861480719E+04  0.12612387036E+04  0.34883764812E+03  0.17661704422E+04  0.10100000352E+00 0.  1.
</event>
<event>
 5   0  0.3554451E-08  0.3499191E+04  0.7818609E-02  0.8113982E-01
        2   -1    0    0  501    0  0.00000000000E+00  0.00000000000E+00  0.16585651438E+04  0.16585651438E+04  0.25500000920E-02 0.  1.
       -2   -1    0    0    0  501  0.00000000000E+00  0.00000000000E+00 -0.18456219920E+04  0.18456219920E+04  0.25500000920E-02 0. -1.
    10030    2    1    2    0    0  0.00000000000E+00  0.00000000000E+00 -0.18705684818E+03  0.35041871358E+04  0.34991909376E+04 0.  0.
        5    1    3    3  502    0 -0.20432070671E+03  0.12894777537E+03 -0.18288290962E+04  0.18447255712E+04  0.46999998093E+01 0. -1.
       -5    1    3    3    0  502  0.20432070671E+03 -0.12894777537E+03  0.16417722480E+04  0.16594615646E+04  0.46999998093E+01 0.  1.
</event>
<event>
 5   0  0.1121462E-08  0.3500477E+04  0.7818609E-02  0.8113677E-01
        1   -1    0    0  501    0  0.00000000000E+00  0.00000000000E+00  0.17211215563E+04  0.17211215563E+04  0.50400001928E-02 0. -1.
       -1   -1    0    0    0  501  0.00000000000E+00  0.00000000000E+00 -0.17798475865E+04  0.17798475865E+04  0.50400001928E-02 0.  1.
    10030    2    1    2    0    0  0.00000000000E+00  0.00000000000E+00 -0.58726030161E+02  0.35009691428E+04  0.35004765665E+04 0.  0.
        2    1    3    3  502    0 -0.23772101369E+03  0.17314403508E+04 -0.12391244521E+03  0.17520705644E+04  0.25500000920E-02 0.  1.
       -2    1    3    3    0  502  0.23772101369E+03 -0.17314403508E+04  0.65186415045E+02  0.17488985784E+04  0.25500000920E-02 0. -1.
</event>
<event>
 5   0  0.3553585E-08  0.3501220E+04  0.7818609E-02  0.8113501E-01
        2   -1    0    0  501    0  0.00000000000E+00  0.00000000000E+00  0.21823873969E+04  0.21823873969E+04  0.25500000920E-02 0. -1.
       -2   -1    0    0    0  501  0.00000000000E+00  0.00000000000E+00 -0.14042582137E+04  0.14042582137E+04  0.25500000920E-02 0.  1.
    10030    2    1    2    0    0  0.00000000000E+00  0.00000000000E+00  0.77812918321E+03  0.35866456105E+04  0.35012200316E+04 0.  0.
        2    1    3    3  502    0  0.56962003469E+03  0.14671818380E+04 -0.39615289313E+03  0.16229684669E+04  0.25500000920E-02 0.  1.
       -2    1    3    3    0  502 -0.56962003469E+03 -0.14671818380E+04  0.11742820763E+04  0.19636771437E+04  0.25500000920E-02 0. -1.
</event>
<event>
 5   0  0.3700096E-08  0.3500441E+04  0.7818609E-02  0.8113685E-01
       -2   -1    0    0    0  501  0.00000000000E+00  0.00000000000E+00  0.16752811583E+04  0.16752811583E+04  0.25500000920E-02 0. -1.
        2   -1    0    0  501    0  0.00000000000E+00  0.00000000000E+00 -0.18285122908E+04  0.18285122908E+04  0.25500000920E-02 0.  1.
    10030    2    1    2    0    0  0.00000000000E+00  0.00000000000E+00 -0.15323113247E+03  0.35037934490E+04  0.35004412227E+04 0.  0.
        4    1    3    3  502    0  0.50843324122E+03  0.16467954573E+04  0.22835791153E+03  0.17385593426E+04  0.12699999809E+01 0. -1.
       -4    1    3    3    0  502 -0.50843324122E+03 -0.16467954573E+04 -0.38158904400E+03  0.17652341064E+04  0.12699999809E+01 0.  1.
</event>
<event>
 5   0  0.1121462E-08  0.3498705E+04  0.7818609E-02  0.8114097E-01
        1   -1    0    0  501    0  0.00000000000E+00  0.00000000000E+00  0.18692662830E+04  0.18692662830E+04  0.50400001928E-02 0. -1.
       -1   -1    0    0    0  501  0.00000000000E+00  0.00000000000E+00 -0.16371310584E+04  0.16371310584E+04  0.50400001928E-02 0.  1.
    10030    2    1    2    0    0  0.00000000000E+00  0.00000000000E+00  0.23213522458E+03  0.35063973415E+04  0.34987048395E+04 0.  0.
        1    1    3    3  502    0 -0.16834348860E+03 -0.67961441384E+03 -0.14905848962E+04  0.16468329042E+04  0.50400001928E-02 0.  1.
       -1    1    3    3    0  502  0.16834348860E+03  0.67961441384E+03  0.17227201208E+04  0.18595644372E+04  0.50400001928E-02 0. -1.
</event>
<event>
 5   0  0.1121462E-08  0.3499129E+04  0.7818609E-02  0.8113996E-01
       -1   -1    0    0    0  501  0.00000000000E+00  0.00000000000E+00  0.17932803935E+04  0.17932803935E+04  0.50400001928E-02 0. -1.
        1   -1    0    0  501    0  0.00000000000E+00  0.00000000000E+00 -0.17069146212E+04  0.17069146212E+04  0.50400001928E-02 0.  1.
    10030    2    1    2    0    0  0.00000000000E+00  0.00000000000E+00  0.86365772252E+02  0.35001950147E+04  0.34991293337E+04 0.  0.
        1    1    3    3  502    0 -0.13367069225E+04  0.89358515557E+03 -0.64673485767E+03  0.17330740905E+04  0.50400001928E-02 0.  1.
       -1    1    3    3    0  502  0.13367069225E+04 -0.89358515557E+03  0.73310062992E+03  0.17671209242E+04  0.50400001928E-02 0. -1.
</event>
<event>
 5   0  0.1129219E-08  0.3500640E+04  0.7818609E-02  0.8113638E-01
        1   -1    0    0  501    0  0.00000000000E+00  0.00000000000E+00  0.21547069296E+04  0.21547069296E+04  0.50400001928E-02 0. -1.
       -1   -1    0    0    0  501  0.00000000000E+00  0.00000000000E+00 -0.14218267076E+04  0.14218267076E+04  0.50400001928E-02 0.  1.
    10030    2    1    2    0    0  0.00000000000E+00  0.00000000000E+00  0.73288022203E+03  0.35765336372E+04  0.35006398613E+04 0.  0.
        5    1    3    3  502    0 -0.15338455203E+03 -0.56972475737E+03  0.20500387123E+04  0.21332589931E+04  0.46999998093E+01 0. -1.
       -5    1    3    3    0  502  0.15338455203E+03  0.56972475737E+03 -0.13171584902E+04  0.14432746441E+04  0.46999998093E+01 0.  1.
</event>
<event>
 5   0  0.3628017E-08  0.3500105E+04  0.7818609E-02  0.8113765E-01
        2   -1    0    0  501    0  0.00000000000E+00  0.00000000000E+00  0.94232155676E+03  0.94232155676E+03  0.25500000920E-02 0.  1.
       -2   -1    0    0    0  501  0.00000000000E+00  0.00000000000E+00 -0.32501466021E+04  0.32501466021E+04  0.25500000920E-02 0. -1.
    10030    2    1    2    0    0  0.00000000000E+00  0.00000000000E+00 -0.23078250454E+04  0.41924681589E+04  0.35001046875E+04 0.  0.
        1    1    3    3  502    0  0.17066380804E+04  0.34844950332E+03 -0.95115786119E+03  0.19846238613E+04  0.50400001928E-02 0.  1.
       -1    1    3    3    0  502 -0.17066380804E+04 -0.34844950332E+03 -0.13566671842E+04  0.22078442976E+04  0.50400001928E-02 0. -1.
</event>
<event>
 5   0  0.3700096E-08  0.3499862E+04  0.7818609E-02  0.8113823E-01
        2   -1    0    0  501    0  0.00000000000E+00  0.00000000000E+00  0.17149377019E+04  0.17149377019E+04  0.25500000920E-02 0.  1.
       -2   -1    0    0    0  501  0.00000000000E+00  0.00000000000E+00 -0.17856387263E+04  0.17856387263E+04  0.25500000920E-02 0. -1.
    10030    2    1    2    0    0  0.00000000000E+00  0.00000000000E+00 -0.70701024426E+02  0.35005764282E+04  0.34998623823E+04 0.  0.
        4    1    3    3  502    0 -0.37898762447E+03 -0.27430085279E+03 -0.17219285042E+04  0.17843519731E+04  0.12699999809E+01 0. -1.
       -4    1    3    3    0  502  0.37898762447E+03  0.27430085279E+03  0.16512274798E+04  0.17162244551E+04  0.12699999809E+01 0.  1.
</event>
<event>
 5   0  0.1121462E-08  0.3500634E+04  0.7818609E-02  0.8113640E-01
        1   -1    0    0  501    0  0.00000000000E+00  0.00000000000E+00  0.22922567886E+04  0.22922567886E+04  0.50400001928E-02 0.  1.
       -1   -1    0    0    0  501  0.00000000000E+00  0.00000000000E+00 -0.13365035212E+04  0.13365035212E+04  0.50400001928E-02 0. -1.
    10030    2    1    2    0    0  0.00000000000E+00  0.00000000000E+00  0.95575326745E+03  0.36287603098E+04  0.35006338109E+04 0.  0.
        4    1    3    3  502    0 -0.90546720891E+03  0.96997220643E+03  0.16610968823E+04  0.21260200876E+04  0.12699999809E+01 0.  1.
       -4    1    3    3    0  502  0.90546720891E+03 -0.96997220643E+03 -0.70534361481E+03  0.15027402222E+04  0.12699999809E+01 0. -1.
</event>
<event>
 5   0  0.1129219E-08  0.3511596E+04  0.7818609E-02  0.8111047E-01
       -1   -1    0    0    0  501  0.00000000000E+00  0.00000000000E+00  0.13988794232E+04  0.13988794232E+04  0.50400001928E-02 0. -1.
        1   -1    0    0  501    0  0.00000000000E+00  0.00000000000E+00 -0.22037828854E+04  0.22037828854E+04  0.50400001928E-02 0.  1.
    10030    2    1    2    0    0  0.00000000000E+00  0.00000000000E+00 -0.80490346223E+03  0.36026623086E+04  0.35115959514E+04 0.  0.
        5    1    3    3  502    0  0.21983734330E+03 -0.22702051154E+03  0.13694560109E+04  0.14054531746E+04  0.46999998093E+01 0. -1.
       -5    1    3    3    0  502 -0.21983734330E+03  0.22702051154E+03 -0.21743594731E+04  0.21972091340E+04  0.46999998093E+01 0.  1.
</event>
<event>
 5   0  0.3628017E-08  0.3501426E+04  0.7818609E-02  0.8113452E-01
       -2   -1    0    0    0  501  0.00000000000E+00  0.00000000000E+00  0.23670426321E+04  0.23670426321E+04  0.25500000920E-02 0. -1.
        2   -1    0    0  501    0  0.00000000000E+00  0.00000000000E+00 -0.12948632013E+04  0.12948632013E+04  0.25500000920E-02 0.  1.
    10030    2    1    2    0    0  0.00000000000E+00  0.00000000000E+00  0.10721794308E+04  0.36619058333E+04  0.35014262238E+04 0.  0.
        1    1    3    3  502    0 -0.25575688083E+02  0.10535005381E+04 -0.92601233211E+03  0.14028600567E+04  0.50400001928E-02 0.  1.
       -1    1    3    3    0  502  0.25575688083E+02 -0.10535005381E+04  0.19981917629E+04  0.22590457766E+04  0.50400001928E-02 0. -1.
</event>
<event>
 5   0  0.1140808E-08  0.3500066E+04  0.7818609E-02  0.8113774E-01
       -1   -1    0    0    0  501  0.00000000000E+00  0.00000000000E+00  0.15627256964E+04  0.15627256964E+04  0.50400001928E-02 0. -1.
        1   -1    0    0  501    0  0.00000000000E+00  0.00000000000E+00 -0.19597909389E+04  0.19597909389E+04  0.50400001928E-02 0.  1.
    10030    2    1    2    0    0  0.00000000000E+00  0.00000000000E+00 -0.39706524248E+03  0.35225166354E+04  0.35000660907E+04 0.  0.
        3    1    3    3  502    0 -0.86638069154E+03  0.11039463389E+04 -0.12508506323E+04  0.18798777451E+04  0.10100000352E+00 0.  1.
       -3    1    3    3    0  502  0.86638069154E+03 -0.11039463389E+04  0.85378538982E+03  0.16426388903E+04  0.10100000352E+00 0. -1.
</event>
<event>
 5   0  0.3553585E-08  0.3499297E+04  0.7818609E-02  0.8113956E-01
       -2   -1    0    0    0  501  0.00000000000E+00  0.00000000000E+00  0.17486232695E+04  0.17486232695E+04  0.25500000920E-02 0. -1.
        2   -1    0    0  501    0  0.00000000000E+00  0.00000000000E+00 -0.17506747717E+04  0.17506747717E+04  0.25500000920E-02 0.  1.
    10030    2    1    2    0    0  0.00000000000E+00  0.00000000000E+00 -0.20515022507E+01  0.34992980412E+04  0.34992974398E+04 0.  0.
        2    1    3    3  502    0  0.10513138828E+04  0.10644658421E+04  0.90612501735E+03  0.17491171934E+04  0.25500000920E-02 0. -1.
       -2    1    3    3    0  502 -0.10513138828E+04 -0.10644658421E+04 -0.90817651960E+03  0.17501808478E+04  0.25500000920E-02 0.  1.
</event>
<event>
 5   0  0.3553585E-08  0.3501822E+04  0.7818609E-02  0.8113358E-01
       -2   -1    0    0    0  501  0.00000000000E+00  0.00000000000E+00  0.13015512816E+04  0.13015512816E+04  0.25500000920E-02 0.  1.
        2   -1    0    0  501    0  0.00000000000E+00  0.00000000000E+00 -0.23554122171E+04  0.23554122171E+04  0.25500000920E-02 0. -1.
    10030    2    1    2    0    0  0.00000000000E+00  0.00000000000E+00 -0.10538609355E+04  0.36569634987E+04  0.35018222627E+04 0.  0.
        2    1    3    3  502    0 -0.10587359327E+04  0.15176297763E+03 -0.19746131878E+04  0.22456738450E+04  0.25500000920E-02 0. -1.
       -2    1    3    3    0  502  0.10587359327E+04 -0.15176297763E+03  0.92075225235E+03  0.14112896537E+04  0.25500000920E-02 0.  1.
</event>
<event>
 5   0  0.3700096E-08  0.3499778E+04  0.7818609E-02  0.8113843E-01
       -2   -1    0    0    0  501  0.00000000000E+00  0.00000000000E+00  0.13932450341E+04  0.13932450341E+04  0.25500000920E-02 0. -1.
        2   -1    0    0  501    0  0.00000000000E+00  0.00000000000E+00 -0.21978270613E+04  0.21978270613E+04  0.25500000920E-02 0.  1.
    10030    2    1    2    0    0  0.00000000000E+00  0.00000000000E+00 -0.80458202720E+03  0.35910720953E+04  0.34997780723E+04 0.  0.
        4    1    3    3  502    0  0.11366044126E+03  0.38555580395E+03 -0.21498140205E+04  0.21870697084E+04  0.12699999809E+01 0.  1.
       -4    1    3    3    0  502 -0.11366044126E+03 -0.38555580395E+03  0.13452319933E+04  0.14040023869E+04  0.12699999809E+01 0. -1.
</event>
<event>
 5   0  0.3554451E-08  0.3499185E+04  0.7818609E-02  0.8113983E-01
       -2   -1    0    0    0  501  0.00000000000E+00  0.00000000000E+00  0.23474622924E+04  0.23474622924E+04  0.25500000920E-02 0. -1.
        2   -1    0    0  501    0  0.00000000000E+00  0.00000000000E+00 -0.13039927902E+04  0.13039927902E+04  0.25500000920E-02 0.  1.
    10030    2    1    2    0    0  0.00000000000E+00  0.00000000000E+00  0.10434695022E+04  0.36514550826E+04  0.34991849935E+04 0.  0.
        5    1    3    3  502    0  0.13454894645E+04  0.11138677956E+04  0.41733908728E+03  0.17958945874E+04  0.46999998093E+01 0. -1.
       -5    1    3    3    0  502 -0.13454894645E+04 -0.11138677956E+04  0.62613041492E+03  0.18555604953E+04  0.46999998093E+01 0.  1.
</event>
<event>
 5   0  0.3628017E-08  0.3500728E+04  0.7818609E-02  0.8113617E-01
       -2   -1    0    0    0  501  0.00000000000E+00  0.00000000000E+00  0.13236178998E+04  0.13236178998E+04  0.25500000920E-02 0. -1.
        2   -1    0    0  501    0  0.00000000000E+00  0.00000000000E+00 -0.23146966648E+04  0.23146966648E+04  0.25500000920E-02 0.  1.
    10030    2    1    2    0    0  0.00000000000E+00  0.00000000000E+00 -0.99107876503E+03  0.36383145646E+04  0.35007278889E+04 0.  0.
        1    1    3    3  502    0  0.15534209704E+02  0.13581419104E+03  0.13180616424E+04  0.13251314272E+04  0.50400001928E-02 0. -1.
       -1    1    3    3    0  502 -0.15534209704E+02 -0.13581419104E+03 -0.23091404074E+04  0.23131831374E+04  0.50400001928E-02 0.  1.
</event>
<event>
 5   0  0.3554451E-08  0.3499652E+04  0.7818609E-02  0.8113872E-01
        2   -1    0    0  501    0  0.00000000000E+00  0.00000000000E+00  0.21121103178E+04  0.21121103178E+04  0.25500000920E-02 0. -1.
       -2   -1    0    0    0  501  0.00000000000E+00  0.00000000000E+00 -0.14496830181E+04  0.14496830181E+04  0.25500000920E-02 0.  1.
    10030    2    1    2    0    0  0.00000000000E+00  0.00000000000E+00  0.66242729970E+03  0.35617933359E+04  0.34996516741E+04 0.  0.
        5    1    3    3  502    0 -0.47186635179E+03  0.49293946964E+03  0.19711037425E+04  0.20858857179E+04  0.46999998093E+01 0. -1.
       -5    1    3    3    0  502  0.47186635179E+03 -0.49293946964E+03 -0.13086764428E+04  0.14759076179E+04  0.46999998093E+01 0.  1.
</event>
<event>
 5   0  0.1121462E-08  0.3500282E+04  0.7818609E-02  0.8113723E-01
       -1   -1    0    0    0  501  0.00000000000E+00  0.00000000000E+00  0.13481748907E+04  0.13481748907E+04  0.50400001928E-02 0.  1.
        1   -1    0    0  501    0  0.00000000000E+00  0.00000000000E+00 -0.22719553712E+04  0.22719553712E+04  0.50400001928E-02 0. -1.
    10030    2    1    2    0    0  0.00000000000E+00  0.00000000000E+00 -0.92378048050E+03  0.36201302620E+04  0.35002818083E+04 0.  0.
        4    1    3    3  502    0  0.30779806033E+03 -0.15396685749E+04 -0.12614535591E+04  0.20140967358E+04  0.12699999809E+01 0.  1.
       -4    1    3    3    0  502 -0.30779806033E+03  0.15396685749E+04  0.33767307861E+03  0.16060335262E+04  0.12699999809E+01 0. -1.
</event>
<event>
 5   0  0.1129219E-08  0.3500374E+04  0.7818609E-02  0.8113701E-01
       -1   -1    0    0    0  501  0.00000000000E+00  0.00000000000E+00  0.16851801425E+04  0.16851801425E+04  0.50400001928E-02 0.  1.
        1   -1    0    0  501    0  0.00000000000E+00  0.00000000000E+00 -0.18177016745E+04  0.18177016745E+04  0.50400001928E-02 0. -1.
    10030    2    1    2    0    0  0.00000000000E+00  0.00000000000E+00 -0.13252153197E+03  0.35028818170E+04  0.35003741324E+04 0.  0.
        5    1    3    3  502    0  0.14682729063E+04  0.88862282141E+03  0.27699638358E+03  0.17384547543E+04  0.46999998093E+01 0.  1.
       -5    1    3    3    0  502 -0.14682729063E+04 -0.88862282141E+03 -0.40951791555E+03  0.17644270626E+04  0.46999998093E+01 0. -1.
</event>
<event>
 5   0  0.3700096E-08  0.3502337E+04  0.7818609E-02  0.8113236E-01
        2   -1    0    0  501    0  0.00000000000E+00  0.00000000000E+00  0.21928420751E+04  0.21928420751E+04  0.25500000920E-02 0.  1.
       -2   -1    0    0    0  501  0.00000000000E+00  0.00000000000E+00 -0.13984553335E+04  0.13984553335E+04  0.25500000920E-02 0. -1.
    10030    2    1    2    0    0  0.00000000000E+00  0.00000000000E+00  0.79438674163E+03  0.35912974085E+04  0.35023373312E+04 0.  0.
        4    1    3    3  502    0  0.48854393651E+03  0.10605193728E+04 -0.94102797342E+03  0.14996372153E+04  0.12699999809E+01 0. -1.
       -4    1    3    3    0  502 -0.48854393651E+03 -0.10605193728E+04  0.17354147150E+04  0.20916601932E+04  0.12699999809E+01 0.  1.
</event>
<event>
 5   0  0.3553585E-08  0.3498336E+04  0.7818609E-02  0.8114184E-01
        2   -1    0    0  501    0  0.00000000000E+00  0.00000000000E+00  0.23974715279E+04  0.23974715279E+04  0.25500000920E-02 0. -1.
       -2   -1    0    0    0  501  0.00000000000E+00  0.00000000000E+00 -0.12761728745E+04  0.12761728745E+04  0.25500000920E-02 0.  1.
    10030    2    1    2    0    0  0.00000000000E+00  0.00000000000E+00  0.11212986534E+04  0.36736444025E+04  0.34983356794E+04 0.  0.
        2    1    3    3  502    0  0.98176562178E+03 -0.76989008609E+03 -0.72675276122E+03  0.14438712050E+04  0.25500000920E-02 0.  1.
       -2    1    3    3    0  502 -0.98176562178E+03  0.76989008609E+03  0.18480514146E+04  0.22297731974E+04  0.25500000920E-02 0. -1.
</event>
<event>
 5   0  0.1129219E-08  0.3499209E+04  0.7818609E-02  0.8113977E-01
       -1   -1    0    0    0  501  0.00000000000E+00  0.00000000000E+00  0.16604428624E+04  0.16604428624E+04  0.50400001928E-02 0. -1.
        1   -1    0    0  501    0  0.00000000000E+00  0.00000000000E+00 -0.18435539025E+04  0.18435539025E+04  0.50400001928E-02 0.  1.
    10030    2    1    2    0    0  0.00000000000E+00  0.00000000000E+00 -0.18311104012E+03  0.35039967649E+04  0.34992090071E+04 0.  0.
        5    1    3    3  502    0  0.45383397266E+03 -0.47578176472E+03  0.15320080721E+04  0.16671545775E+04  0.46999998093E+01 0. -1.
       -5    1    3    3    0  502 -0.45383397266E+03  0.47578176472E+03 -0.17151191122E+04  0.18368421874E+04  0.46999998093E+01 0.  1.
</event>
<event>
 5   0  0.1121462E-08  0.3514499E+04  0.7818609E-02  0.8110362E-01
        1   -1    0    0  501    0  0.00000000000E+00  0.00000000000E+00  0.14424495840E+04  0.14424495840E+04  0.50400001928E-02 0. -1.
       -1   -1    0    0    0  501  0.00000000000E+00  0.00000000000E+00 -0.21407515893E+04  0.21407515893E+04  0.50400001928E-02 0.  1.
    10030    2    1    2    0    0  0.00000000000E+00  0.00000000000E+00 -0.69830200534E+03  0.35832011733E+04  0.35144992470E+04 0.  0.
        4    1    3    3  502    0  0.76834522990E+03  0.18250543929E+01 -0.19604135130E+04  0.21056069144E+04  0.12699999809E+01 0.  1.
       -4    1    3    3    0  502 -0.76834522990E+03 -0.18250543929E+01  0.12621115077E+04  0.14775942589E+04  0.12699999809E+01 0. -1.
</event>
<event>
 5   0  0.3554451E-08  0.3499005E+04  0.7818609E-02  0.8114026E-01
       -2   -1    0    0    0  501  0.00000000000E+00  0.00000000000E+00  0.11219304452E+04  0.11219304452E+04  0.25500000920E-02 0. -1.
        2   -1    0    0  501    0  0.00000000000E+00  0.00000000000E+00 -0.27281186034E+04  0.27281186034E+04  0.25500000920E-02 0.  1.
    10030    2    1    2    0    0  0.00000000000E+00  0.00000000000E+00 -0.16061881582E+04  0.38500490486E+04  0.34990051839E+04 0.  0.
        5    1    3    3  502    0 -0.33422202045E+03 -0.10174891626E+04 -0.23252674773E+04  0.25600545865E+04  0.46999998093E+01 0.  1.
       -5    1    3    3    0  502  0.33422202045E+03  0.10174891626E+04  0.71907931911E+03  0.12899944620E+04  0.46999998093E+01 0. -1.
</event>
<event>
 5   0  0.1121462E-08  0.3510263E+04  0.7818609E-02  0.8111362E-01
        1   -1    0    0  501    0  0.00000000000E+00  0.00000000000E+00  0.19312600149E+04  0.19312600150E+04  0.50400001928E-02 0.  1.
       -1   -1    0    0    0  501  0.00000000000E+00  0.00000000000E+00 -0.15950660769E+04  0.15950660769E+04  0.50400001928E-02 0. -1.
    10030    2    1    2    0    0  0.00000000000E+00  0.00000000000E+00  0.33619393801E+03  0.35263260919E+04  0.35102634292E+04 0.  0.
        2    1    3    3  502    0  0.86452574695E+01 -0.35299342320E+03 -0.15590165701E+04  0.15985029757E+04  0.25500000920E-02 0. -1.
       -2    1    3    3    0  502 -0.86452574695E+01  0.35299342320E+03  0.18952105081E+04  0.19278231162E+04  0.25500000920E-02 0.  1.
</event>
<event>
 5   0  0.1140808E-08  0.3498452E+04  0.7818609E-02  0.8114157E-01
       -1   -1    0    0    0  501  0.00000000000E+00  0.00000000000E+00  0.14779282250E+04  0.14779282250E+04  0.50400001928E-02 0.  1.
        1   -1    0    0  501    0  0.00000000000E+00  0.00000000000E+00 -0.20703246911E+04  0.20703246911E+04  0.50400001928E-02 0. -1.
    10030    2    1    2    0    0  0.00000000000E+00  0.00000000000E+00 -0.59239646613E+03  0.35482529161E+04  0.34984518266E+04 0.  0.
        3    1    3    3  502    0 -0.30217009164E+03  0.13789617609E+03  0.14456511556E+04  0.14833170240E+04  0.10100000352E+00 0.  1.
       -3    1    3    3    0  502  0.30217009164E+03 -0.13789617609E+03 -0.20380476218E+04  0.20649358921E+04  0.10100000352E+00 0. -1.
</event>
<event>
 5   0  0.1121462E-08  0.3507782E+04  0.7818609E-02  0.8111948E-01
        1   -1    0    0  501    0  0.00000000000E+00  0.00000000000E+00  0.24771726757E+04  0.24771726757E+04  0.50400001928E-02 0.  1.
       -1   -1    0    0    0  501  0.00000000000E+00  0.00000000000E+00 -0.12417924988E+04  0.12417924988E+04  0.50400001928E-02 0. -1.
    10030    2    1    2    0    0  0.00000000000E+00  0.00000000000E+00  0.12353801770E+04  0.37189651745E+04  0.35077824601E+04 0.  0.
        1    1    3    3  502    0 -0.72538500753E+03 -0.15578280071E+04  0.24567637944E+03  0.17359056404E+04  0.50400001928E-02 0. -1.
       -1    1    3    3    0  502  0.72538500753E+03  0.15578280071E+04  0.98970379751E+03  0.19830595341E+04  0.50400001928E-02 0.  1.
</event>
<event>
 5   0  0.3628017E-08  0.3500025E+04  0.7818609E-02  0.8113784E-01
       -2   -1    0    0    0  501  0.00000000000E+00  0.00000000000E+00  0.15402266746E+04  0.15402266746E+04  0.25500000920E-02 0.  1.
        2   -1    0    0  501    0  0.00000000000E+00  0.00000000000E+00 -0.19883720823E+04  0.19883720823E+04  0.25500000920E-02 0. -1.
    10030    2    1    2    0    0  0.00000000000E+00  0.00000000000E+00 -0.44814540769E+03  0.35285987569E+04  0.35000249829E+04 0.  0.
        1    1    3    3  502    0 -0.15848771945E+04 -0.16055404922E+03 -0.95450840690E+03  0.18570674795E+04  0.50400001928E-02 0. -1.
       -1    1    3    3    0  502  0.15848771945E+04  0.16055404922E+03  0.50636299921E+03  0.16715312774E+04  0.50400001928E-02 0.  1.
</event>
<event>
 5   0  0.3467834E-08  0.3499716E+04  0.7818609E-02  0.8113857E-01
        2   -1    0    0  501    0  0.00000000000E+00  0.00000000000E+00  0.28418446517E+04  0.28418446517E+04  0.25500000920E-02 0.  1.
       -2   -1    0    0    0  501  0.00000000000E+00  0.00000000000E+00 -0.10774701468E+04  0.10774701468E+04  0.25500000920E-02 0. -1.
    10030    2    1    2    0    0  0.00000000000E+00  0.00000000000E+00  0.17643745049E+04  0.39193147985E+04  0.34997158594E+04 0.  0.
        3    1    3    3  502    0  0.33454025511E+02  0.25683398008E+03  0.28202595212E+04  0.28321275823E+04  0.10100000352E+00 0.  1.
       -3    1    3    3    0  502 -0.33454025511E+02 -0.25683398008E+03 -0.10558850163E+04  0.10871872162E+04  0.10100000352E+00 0. -1.
</event>
<event>
 5   0  0.3554451E-08  0.3500652E+04  0.7818609E-02  0.8113636E-01
        2   -1    0    0  501    0  0.00000000000E+00  0.00000000000E+00  0.25803059756E+04  0.25803059756E+04  0.25500000920E-02 0.  1.
       -2   -1    0    0    0  501  0.00000000000E+00  0.00000000000E+00 -0.11873166573E+04  0.11873166573E+04  0.25500000920E-02 0. -1.
    10030    2    1    2    0    0  0.00000000000E+00  0.00000000000E+00  0.13929893183E+04  0.37676226328E+04  0.35006515197E+04 0.  0.
        5    1    3    3  502    0  0.46083180458E+03  0.16848648862E+04  0.57624884166E+03  0.18393532707E+04  0.46999998093E+01 0. -1.
       -5    1    3    3    0  502 -0.46083180458E+03 -0.16848648862E+04  0.81674047664E+03  0.19282693621E+04  0.46999998093E+01 0.  1.
</event>
<event>
 5   0  0.3700096E-08  0.3500793E+04  0.7818609E-02  0.8113602E-01
        2   -1    0    0  501    0  0.00000000000E+00  0.00000000000E+00  0.23135282502E+04  0.23135282502E+04  0.25500000920E-02 0.  1.
       -2   -1    0    0    0  501  0.00000000000E+00  0.00000000000E+00 -0.13243358140E+04  0.13243358140E+04  0.25500000920E-02 0. -1.
    10030    2    1    2    0    0  0.00000000000E+00  0.00000000000E+00  0.98919243623E+03  0.36378640642E+04  0.35007932349E+04 0.  0.
        4    1    3    3  502    0  0.13897234473E+04  0.70324101583E+03  0.13246245263E+04  0.20446297794E+04  0.12699999809E+01 0.  1.
       -4    1    3    3    0  502 -0.13897234473E+04 -0.70324101583E+03 -0.33543209002E+03  0.15932342848E+04  0.12699999809E+01 0. -1.
</event>
<event>
 5   0  0.3628017E-08  0.3503332E+04  0.7818609E-02  0.8113001E-01
        2   -1    0    0  501    0  0.00000000000E+00  0.00000000000E+00  0.18481854902E+04  0.18481854902E+04  0.25500000920E-02 0. -1.
       -2   -1    0    0    0  501  0.00000000000E+00  0.00000000000E+00 -0.16601870706E+04  0.16601870706E+04  0.25500000920E-02 0.  1.
    10030    2    1    2    0    0  0.00000000000E+00  0.00000000000E+00  0.18799841964E+03  0.35083725608E+04  0.35033319311E+04 0.  0.
        1    1    3    3  502    0 -0.86655672276E+03 -0.10239557481E+04  0.12220869042E+04  0.18146355913E+04  0.50400001928E-02 0. -1.
       -1    1    3    3    0  502  0.86655672276E+03  0.10239557481E+04 -0.10340884846E+04  0.16937369695E+04  0.50400001928E-02 0.  1.
</event>
<event>
 5   0  0.1121462E-08  0.3499122E+04  0.7818609E-02  0.8113998E-01
        1   -1    0    0  501    0  0.00000000000E+00  0.00000000000E+00  0.18273078838E+04  0.18273078838E+04  0.50400001928E-02 0. -1.
       -1   -1    0    0    0  501  0.00000000000E+00  0.00000000000E+00 -0.16751221422E+04  0.16751221422E+04  0.50400001928E-02 0.  1.
    10030    2    1    2    0    0  0.00000000000E+00  0.00000000000E+00  0.15218574159E+03  0.35024300260E+04  0.34991221167E+04 0.  0.
        2    1    3    3  502    0 -0.10976394953E+04 -0.13183070970E+04 -0.26806037177E+03  0.17362610479E+04  0.25500000920E-02 0. -1.
       -2    1    3    3    0  502  0.10976394953E+04  0.13183070970E+04  0.42024611336E+03  0.17661689781E+04  0.25500000920E-02 0.  1.
</event>
<event>
 5   0  0.1140808E-08  0.3500227E+04  0.7818609E-02  0.8113736E-01
       -1   -1    0    0    0  501  0.00000000000E+00  0.00000000000E+00  0.22350402956E+04  0.22350402956E+04  0.50400001928E-02 0. -1.
        1   -1    0    0  501    0  0.00000000000E+00  0.00000000000E+00 -0.13703993296E+04  0.13703993296E+04  0.50400001928E-02 0.  1.
    10030    2    1    2    0    0  0.00000000000E+00  0.00000000000E+00  0.86464096602E+03  0.36054396252E+04  0.35002272627E+04 0.  0.
        3    1    3    3  502    0  0.83236525395E+03  0.14119974862E+04  0.10642167173E+04  0.19542584396E+04  0.10100000352E+00 0. -1.
       -3    1    3    3    0  502 -0.83236525395E+03 -0.14119974862E+04 -0.19957575132E+03  0.16511811856E+04  0.10100000352E+00 0.  1.
</event>
<event>
 5   0  0.3467834E-08  0.3499827E+04  0.7818609E-02  0.8113831E-01
       -2   -1    0    0    0  501  0.00000000000E+00  0.00000000000E+00  0.13603683759E+04  0.13603683759E+04  0.25500000920E-02 0.  1.
        2   -1    0    0  501    0  0.00000000000E+00  0.00000000000E+00 -0.22510062617E+04  0.22510062617E+04  0.25500000920E-02 0. -1.
    10030    2    1    2    0    0  0.00000000000E+00  0.00000000000E+00 -0.89063788579E+03  0.36113746376E+04  0.34998272714E+04 0.  0.
        3    1    3    3  502    0  0.97064437717E+03 -0.18008921021E+03  0.10455900923E+04  0.14379990549E+04  0.10100000352E+00 0.  1.
       -3    1    3    3    0  502 -0.97064437717E+03  0.18008921021E+03 -0.19362279780E+04  0.21733755828E+04  0.10100000352E+00 0. -1.
</event>
<event>
 5   0  0.3467834E-08  0.3501226E+04  0.7818609E-02  0.8113499E-01
       -2   -1    0    0    0  501  0.00000000000E+00  0.00000000000E+00  0.19219839099E+04  0.19219839099E+04  0.25500000920E-02 0. -1.
        2   -1    0    0  501    0  0.00000000000E+00  0.00000000000E+00 -0.15945224684E+04  0.15945224684E+04  0.25500000920E-02 0.  1.
    10030    2    1    2    0    0  0.00000000000E+00  0.00000000000E+00  0.32746144150E+03  0.35165063784E+04  0.35012263728E+04 0.  0.
        3    1    3    3  502    0  0.22395604824E+02 -0.15425599659E+04 -0.66731841137E+03  0.16808648618E+04  0.10100000352E+00 0.  1.
       -3    1    3    3    0  502 -0.22395604824E+02  0.15425599659E+04  0.99477985287E+03  0.18356415165E+04  0.10100000352E+00 0. -1.
</event>
<event>
 5   0  0.1121462E-08  0.3499866E+04  0.7818609E-02  0.8113822E-01
       -1   -1    0    0    0  501  0.00000000000E+00  0.00000000000E+00  0.12207936789E+04  0.12207936789E+04  0.50400001928E-02 0.  1.
        1   -1    0    0  501    0  0.00000000000E+00  0.00000000000E+00 -0.25084217744E+04  0.25084217744E+04  0.50400001928E-02 0. -1.
    10030    2    1    2    0    0  0.00000000000E+00  0.00000000000E+00 -0.12876280954E+04  0.37292154533E+04  0.34998659667E+04 0.  0.
        4    1    3    3  502    0 -0.33737942224E+03  0.11055329975E+04 -0.20437756233E+04  0.23479881802E+04  0.12699999809E+01 0.  1.
       -4    1    3    3    0  502  0.33737942224E+03 -0.11055329975E+04  0.75614752790E+03  0.13812272731E+04  0.12699999809E+01 0. -1.
</event>
<event>
 5   0  0.1121462E-08  0.3497745E+04  0.7818609E-02  0.8114324E-01
       -1   -1    0    0    0  501  0.00000000000E+00  0.00000000000E+00  0.19023190311E+04  0.19023190311E+04  0.50400001928E-02 0. -1.
        1   -1    0    0  501    0  0.00000000000E+00  0.00000000000E+00 -0.16078036897E+04  0.16078036897E+04  0.50400001928E-02 0.  1.
    10030    2    1    2    0    0  0.00000000000E+00  0.00000000000E+00  0.29451534142E+03  0.35101227209E+04  0.34977453065E+04 0.  0.
        1    1    3    3  502    0 -0.80782163031E+03 -0.37711595599E+03  0.16571626872E+04  0.18817492933E+04  0.50400001928E-02 0. -1.
       -1    1    3    3    0  502  0.80782163031E+03  0.37711595599E+03 -0.13626473458E+04  0.16283734276E+04  0.50400001928E-02 0.  1.
</event>
<event>
 5   0  0.3554451E-08  0.3499808E+04  0.7818609E-02  0.8113835E-01
       -2   -1    0    0    0  501  0.00000000000E+00  0.00000000000E+00  0.14736606576E+04  0.14736606576E+04  0.25500000920E-02 0.  1.
        2   -1    0    0  501    0  0.00000000000E+00  0.00000000000E+00 -0.20779300930E+04  0.20779300930E+04  0.25500000920E-02 0. -1.
    10030    2    1    2    0    0  0.00000000000E+00  0.00000000000E+00 -0.60426943544E+03  0.35515907506E+04  0.34998078961E+04 0.  0.
        5    1    3    3  502    0  0.85814458138E+03  0.84035638387E+03 -0.15935719725E+04  0.19955211590E+04  0.46999998093E+01 0. -1.
       -5    1    3    3    0  502 -0.85814458138E+03 -0.84035638387E+03  0.98930253701E+03  0.15560695917E+04  0.46999998093E+01 0.  1.
</event>
<event>
 5   0  0.1121462E-08  0.3501192E+04  0.7818609E-02  0.8113508E-01
       -1   -1    0    0    0  501  0.00000000000E+00  0.00000000000E+00  0.17228193299E+04  0.17228193299E+04  0.50400001928E-02 0. -1.
        1   -1    0    0  501    0  0.00000000000E+00  0.00000000000E+00 -0.17788200277E+04  0.17788200277E+04  0.50400001928E-02 0.  1.
    10030    2    1    2    0    0  0.00000000000E+00  0.00000000000E+00 -0.56000697833E+02  0.35016393576E+04  0.35011915275E+04 0.  0.
        1    1    3    3  502    0 -0.15881154858E+04 -0.69387627052E+03  0.21903418605E+03  0.17468689275E+04  0.50400001928E-02 0.  1.
       -1    1    3    3    0  502  0.15881154858E+04  0.69387627052E+03 -0.27503488388E+03  0.17547704301E+04  0.50400001928E-02 0. -1.
</event>
<event>
 5   0  0.1121462E-08  0.3500281E+04  0.7818609E-02  0.8113723E-01
       -1   -1    0    0    0  501  0.00000000000E+00  0.00000000000E+00  0.14851257497E+04  0.14851257497E+04  0.50400001928E-02 0. -1.
        1   -1    0    0  501    0  0.00000000000E+00  0.00000000000E+00 -0.20624460809E+04  0.20624460809E+04  0.50400001928E-02 0.  1.
    10030    2    1    2    0    0  0.00000000000E+00  0.00000000000E+00 -0.57732033121E+03  0.35475718305E+04  0.35002810070E+04 0.  0.
        1    1    3    3  502    0 -0.10592482503E+03 -0.15016775294E+04 -0.11933205892E+04  0.19210074178E+04  0.50400001928E-02 0.  1.
       -1    1    3    3    0  502  0.10592482503E+03  0.15016775294E+04  0.61600025796E+03  0.16265644127E+04  0.50400001928E-02 0. -1.
</event>
<event>
 5   0  0.3700096E-08  0.3499779E+04  0.7818609E-02  0.8113842E-01
        2   -1    0    0  501    0  0.00000000000E+00  0.00000000000E+00  0.19554048355E+04  0.19554048355E+04  0.25500000920E-02 0. -1.
       -2   -1    0    0    0  501  0.00000000000E+00  0.00000000000E+00 -0.15659740935E+04  0.15659740935E+04  0.25500000920E-02 0.  1.
    10030    2    1    2    0    0  0.00000000000E+00  0.00000000000E+00  0.38943074202E+03  0.35213789289E+04  0.34997790299E+04 0.  0.
        4    1    3    3  502    0  0.35897323347E+02 -0.16982194428E+04  0.61787468020E+03  0.18074868263E+04  0.12699999809E+01 0.  1.
       -4    1    3    3    0  502 -0.35897323347E+02  0.16982194428E+04 -0.22844393818E+03  0.17138921027E+04  0.12699999809E+01 0. -1.
</event>
<event>
 5   0  0.1140808E-08  0.3500118E+04  0.7818609E-02  0.8113762E-01
        1   -1    0    0  501    0  0.00000000000E+00  0.00000000000E+00  0.21119532579E+04  0.21119532579E+04  0.50400001928E-02 0.  1.
       -1   -1    0    0    0  501  0.00000000000E+00  0.00000000000E+00 -0.14501773742E+04  0.14501773742E+04  0.50400001928E-02 0. -1.
    10030    2    1    2    0    0  0.00000000000E+00  0.00000000000E+00  0.66177588370E+03  0.35621306322E+04  0.35001181866E+04 0.  0.
        3    1    3    3  502    0  0.16127288205E+04  0.53830812925E+03  0.75300992937E+03  0.18594875246E+04  0.10100000352E+00 0.  1.
       -3    1    3    3    0  502 -0.16127288205E+04 -0.53830812925E+03 -0.91234045664E+02  0.17026431075E+04  0.10100000352E+00 0. -1.
</event>
<event>
 5   0  0.1140808E-08  0.3498212E+04  0.7818609E-02  0.8114214E-01
       -1   -1    0    0    0  501  0.00000000000E+00  0.00000000000E+00  0.15933828720E+04  0.15933828720E+04  0.50400001928E-02 0. -1.
        1   -1    0    0  501    0  0.00000000000E+00  0.00000000000E+00 -0.19200479095E+04  0.19200479095E+04  0.50400001928E-02 0.  1.
    10030    2    1    2    0    0  0.00000000000E+00  0.00000000000E+00 -0.32666503746E+03  0.35134307815E+04  0.34982118017E+04 0.  0.
        3    1    3    3  502    0  0.38152330167E+03  0.16891929006E+04 -0.41024501085E+03  0.17796723475E+04  0.10100000352E+00 0. -1.
       -3    1    3    3    0  502 -0.38152330167E+03 -0.16891929006E+04  0.83579973392E+02  0.17337584340E+04  0.10100000352E+00 0.  1.
</event>
<event>
 5   0  0.1121462E-08  0.3499021E+04  0.7818609E-02  0.8114022E-01
        1   -1    0    0  501    0  0.00000000000E+00  0.00000000000E+00  0.24138164299E+04  0.24138164299E+04  0.50400001928E-02 0. -1.
       -1   -1    0    0    0  501  0.00000000000E+00  0.00000000000E+00 -0.12680278617E+04  0.12680278617E+04  0.50400001928E-02 0.  1.
    10030    2    1    2    0    0  0.00000000000E+00  0.00000000000E+00  0.11457885682E+04  0.36818442916E+04  0.34990207122E+04 0.  0.
        1    1    3    3  502    0 -0.15334762635E+04 -0.75258539054E+03  0.97060058402E+03  0.19646881978E+04  0.50400001928E-02 0.  1.
       -1    1    3    3    0  502  0.15334762635E+04  0.75258539054E+03  0.17518798414E+03  0.17171560938E+04  0.50400001928E-02 0. -1.
</event>
<event>
 5   0  0.1129219E-08  0.3500711E+04  0.7818609E-02  0.8113621E-01
       -1   -1    0    0    0  501  0.00000000000E+00  0.00000000000E+00  0.15068062151E+04  0.15068062151E+04  0.50400001928E-02 0. -1.
        1   -1    0    0  501    0  0.00000000000E+00  0.00000000000E+00 -0.20332701709E+04  0.20332701709E+04  0.50400001928E-02 0.  1.
    10030    2    1    2    0    0  0.00000000000E+00  0.00000000000E+00 -0.52646395583E+03  0.35400763861E+04  0.35007108596E+04 0.  0.
        5    1    3    3  502    0 -0.24098223809E+02 -0.15502796185E+03 -0.20261391029E+04  0.20322096711E+04  0.46999998093E+01 0.  1.
       -5    1    3    3    0  502  0.24098223809E+02  0.15502796185E+03  0.14996751470E+04  0.15078667149E+04  0.46999998093E+01 0. -1.
</event>
<event>
 5   0  0.1129219E-08  0.3499568E+04  0.7818609E-02  0.8113892E-01
       -1   -1    0    0    0  501  0.00000000000E+00  0.00000000000E+00  0.23867745944E+04  0.23867745945E+04  0.50400001928E-02 0. -1.
        1   -1    0    0  501    0  0.00000000000E+00  0.00000000000E+00 -0.12827958662E+04  0.12827958662E+04  0.50400001928E-02 0.  1.
    10030    2    1    2    0    0  0.00000000000E+00  0.00000000000E+00  0.11039787282E+04  0.36695704607E+04  0.34995683067E+04 0.  0.
        5    1    3    3  502    0 -0.99455774658E+03  0.10478581012E+04 -0.48317055943E+03  0.15233606241E+04  0.46999998093E+01 0.  1.
       -5    1    3    3    0  502  0.99455774658E+03 -0.10478581012E+04  0.15871492877E+04  0.21462098366E+04  0.46999998093E+01 0. -1.
</event>
<event>
 5   0  0.1121462E-08  0.3499169E+04  0.7818609E-02  0.8113987E-01
       -1   -1    0    0    0  501  0.00000000000E+00  0.00000000000E+00  0.26338339413E+04  0.26338339413E+04  0.50400001928E-02 0.  1.
        1   -1    0    0  501    0  0.00000000000E+00  0.00000000000E+00 -0.11622015281E+04  0.11622015282E+04  0.50400001928E-02 0. -1.
    10030    2    1    2    0    0  0.00000000000E+00  0.00000000000E+00  0.14716324132E+04  0.37960354695E+04  0.34991689479E+04 0.  0.
        2    1    3    3  502    0  0.16815154297E+04 -0.12606837424E+03  0.22969664620E+03  0.17018072525E+04  0.25500000920E-02 0. -1.
       -2    1    3    3    0  502 -0.16815154297E+04  0.12606837424E+03  0.12419357670E+04  0.20942282170E+04  0.25500000920E-02 0.  1.
</event>
<event>
 5   0  0.1121462E-08  0.3499326E+04  0.7818609E-02  0.8113950E-01
       -1   -1    0    0    0  501  0.00000000000E+00  0.00000000000E+00  0.15789119418E+04  0.15789119418E+04  0.50400001928E-02 0.  1.
        1   -1    0    0  501    0  0.00000000000E+00  0.00000000000E+00 -0.19388797045E+04  0.19388797045E+04  0.50400001928E-02 0. -1.
    10030    2    1    2    0    0  0.00000000000E+00  0.00000000000E+00 -0.35996776270E+03  0.35177916463E+04  0.34993258317E+04 0.  0.
        2    1    3    3  502    0  0.19732976472E+03 -0.14366175950E+04 -0.11641860540E+04  0.18596070334E+04  0.25500000920E-02 0. -1.
       -2    1    3    3    0  502 -0.19732976472E+03  0.14366175950E+04  0.80421829127E+03  0.16581846129E+04  0.25500000920E-02 0.  1.
</event>
<event>
 5   0  0.1121462E-08  0.3499684E+04  0.7818609E-02  0.8113865E-01
        1   -1    0    0  501    0  0.00000000000E+00  0.00000000000E+00  0.15845493571E+04  0.15845493571E+04  0.50400001928E-02 0.  1.
       -1   -1    0    0    0  501  0.00000000000E+00  0.00000000000E+00 -0.19323773623E+04  0.19323773624E+04  0.50400001928E-02 0. -1.
    10030    2    1    2    0    0  0.00000000000E+00  0.00000000000E+00 -0.34782800526E+03  0.35169267195E+04  0.34996841613E+04 0.  0.
        2    1    3    3  502    0 -0.85811604313E+03  0.96475923016E+03 -0.13607593742E+04  0.18758437009E+04  0.25500000920E-02 0. -1.
       -2    1    3    3    0  502  0.85811604313E+03 -0.96475923016E+03  0.10129313689E+04  0.16410830186E+04  0.25500000920E-02 0.  1.
</event>
<event>
 5   0  0.3554451E-08  0.3494839E+04  0.7818609E-02  0.8115014E-01
       -2   -1    0    0    0  501  0.00000000000E+00  0.00000000000E+00  0.15442478466E+04  0.15442478466E+04  0.25500000920E-02 0. -1.
        2   -1    0    0  501    0  0.00000000000E+00  0.00000000000E+00 -0.19773220368E+04  0.19773220368E+04  0.25500000920E-02 0.  1.
    10030    2    1    2    0    0  0.00000000000E+00  0.00000000000E+00 -0.43307419024E+03  0.35215698834E+04  0.34948392222E+04 0.  0.
        5    1    3    3  502    0 -0.82097469307E+03  0.12296740571E+04  0.72190541361E+03  0.16453775401E+04  0.46999998093E+01 0. -1.
       -5    1    3    3    0  502  0.82097469307E+03 -0.12296740571E+04 -0.11549796038E+04  0.18761923432E+04  0.46999998093E+01 0.  1.
</event>
<event>
 5   0  0.1121462E-08  0.3511457E+04  0.7818609E-02  0.8111080E-01
        1   -1    0    0  501    0  0.00000000000E+00  0.00000000000E+00  0.22946572998E+04  0.22946572998E+04  0.50400001928E-02 0. -1.
       -1   -1    0    0    0  501  0.00000000000E+00  0.00000000000E+00 -0.13433739004E+04  0.13433739004E+04  0.50400001928E-02 0.  1.
    10030    2    1    2    0    0  0.00000000000E+00  0.00000000000E+00  0.95128339940E+03  0.36380312002E+04  0.35114570918E+04 0.  0.
        1    1    3    3  502    0 -0.81358382432E+03 -0.11214467862E+04 -0.64166619594E+03  0.15268585529E+04  0.50400001928E-02 0.  1.
       -1    1    3    3    0  502  0.81358382432E+03  0.11214467862E+04  0.15929495953E+04  0.21111726473E+04  0.50400001928E-02 0. -1.
</event>
<event>
 5   0  0.3554451E-08  0.3499872E+04  0.7818609E-02  0.8113820E-01
        2   -1    0    0  501    0  0.00000000000E+00  0.00000000000E+00  0.25409185128E+04  0.25409185128E+04  0.25500000920E-02 0. -1.
       -2   -1    0    0    0  501  0.00000000000E+00  0.00000000000E+00 -0.12051844210E+04  0.12051844210E+04  0.25500000920E-02 0.  1.
    10030    2    1    2    0    0  0.00000000000E+00  0.00000000000E+00  0.13357340918E+04  0.37461029338E+04  0.34998716586E+04 0.  0.
        5    1    3    3  502    0 -0.76963915300E+03  0.58919687257E+03 -0.89160509110E+03  0.13169962449E+04  0.46999998093E+01 0.  1.
       -5    1    3    3    0  502  0.76963915300E+03 -0.58919687257E+03  0.22273391829E+04  0.24291066890E+04  0.46999998093E+01 0. -1.
</event>
<event>
 5   0  0.1121462E-08  0.3499058E+04  0.7818609E-02  0.8114013E-01
       -1   -1    0    0    0  501  0.00000000000E+00  0.00000000000E+00  0.29432070474E+04  0.29432070474E+04  0.50400001928E-02 0. -1.
        1   -1    0    0  501    0  0.00000000000E+00  0.00000000000E+00 -0.10399717195E+04  0.10399717195E+04  0.50400001928E-02 0.  1.
    10030    2    1    2    0    0  0.00000000000E+00  0.00000000000E+00  0.19032353279E+04  0.39831787669E+04  0.34990582126E+04 0.  0.
        4    1    3    3  502    0 -0.10107369463E+04 -0.60515208992E+03  0.24240433438E+04  0.26951411785E+04  0.12699999809E+01 0. -1.
       -4    1    3    3    0  502  0.10107369463E+04  0.60515208992E+03 -0.52080801591E+03  0.12880375883E+04  0.12699999809E+01 0.  1.
</event>
<event>
 5   0  0.3700096E-08  0.3498413E+04  0.7818609E-02  0.8114166E-01
        2   -1    0    0  501    0  0.00000000000E+00  0.00000000000E+00  0.18061005096E+04  0.18061005096E+04  0.25500000920E-02 0. -1.
       -2   -1    0    0    0  501  0.00000000000E+00  0.00000000000E+00 -0.16941051814E+04  0.16941051814E+04  0.25500000920E-02 0.  1.
    10030    2    1    2    0    0  0.00000000000E+00  0.00000000000E+00  0.11199532812E+03  0.35002056910E+04  0.34984134870E+04 0.  0.
        4    1    3    3  502    0  0.16173873106E+04 -0.49646690038E+03 -0.38841624895E+03  0.17358830292E+04  0.12699999809E+01 0.  1.
       -4    1    3    3    0  502 -0.16173873106E+04  0.49646690038E+03  0.50041157708E+03  0.17643226618E+04  0.12699999809E+01 0. -1.
</event>
<event>
 5   0  0.3628017E-08  0.3498589E+04  0.7818609E-02  0.8114124E-01
       -2   -1    0    0    0  501  0.00000000000E+00  0.00000000000E+00  0.17613558593E+04  0.17613558593E+04  0.25500000920E-02 0. -1.
        2   -1    0    0  501    0  0.00000000000E+00  0.00000000000E+00 -0.17373155537E+04  0.17373155537E+04  0.25500000920E-02 0.  1.
    10030    2    1    2    0    0  0.00000000000E+00  0.00000000000E+00  0.24040305629E+02  0.34986714130E+04  0.34985888184E+04 0.  0.
        1    1    3    3  502    0  0.10859026457E+04  0.11714484518E+04  0.72516734030E+03  0.17542359313E+04  0.50400001928E-02 0. -1.
       -1    1    3    3    0  502 -0.10859026457E+04 -0.11714484518E+04 -0.70112703467E+03  0.17444354817E+04  0.50400001928E-02 0.  1.
</event>
<event>
 5   0  0.1140808E-08  0.3499372E+04  0.7818609E-02  0.8113939E-01
        1   -1    0    0  501    0  0.00000000000E+00  0.00000000000E+00  0.22115435300E+04  0.22115435300E+04  0.50400001928E-02 0. -1.
       -1   -1    0    0    0  501  0.00000000000E+00  0.00000000000E+00 -0.13842826654E+04  0.13842826654E+04  0.50400001928E-02 0.  1.
    10030    2    1    2    0    0  0.00000000000E+00  0.00000000000E+00  0.82726086458E+03  0.35958261954E+04  0.34993721565E+04 0.  0.
        3    1    3    3  502    0  0.13105868113E+04 -0.87231017438E+03  0.11981118988E+04  0.19783920144E+04  0.10100000352E+00 0. -1.
       -3    1    3    3    0  502 -0.13105868113E+04  0.87231017438E+03 -0.37085103427E+03  0.16174341810E+04  0.10100000352E+00 0.  1.
</event>
<event>
 5   0  0.3467834E-08  0.3499583E+04  0.7818609E-02  0.8113889E-01
       -2   -1    0    0    0  501  0.00000000000E+00  0.00000000000E+00  0.12924182258E+04  0.12924182258E+04  0.25500000920E-02 0.  1.
        2   -1    0    0  501    0  0.00000000000E+00  0.00000000000E+00 -0.23690242953E+04  0.23690242953E+04  0.25500000920E-02 0. -1.
    10030    2    1    2    0    0  0.00000000000E+00  0.00000000000E+00 -0.10766060695E+04  0.36614425212E+04  0.34995829333E+04 0.  0.
        3    1    3    3  502    0 -0.12905826669E+04  0.91145036656E+02 -0.17708646085E+04  0.21931421545E+04  0.10100000352E+00 0. -1.
       -3    1    3    3    0  502  0.12905826669E+04 -0.91145036656E+02  0.69425853903E+03  0.14683003667E+04  0.10100000352E+00 0.  1.
</event>
<event>
 5   0  0.1121462E-08  0.3500588E+04  0.7818609E-02  0.8113651E-01
        1   -1    0    0  501    0  0.00000000000E+00  0.00000000000E+00  0.15120231181E+04  0.15120231181E+04  0.50400001928E-02 0. -1.
       -1   -1    0    0    0  501  0.00000000000E+00  0.00000000000E+00 -0.20261127999E+04  0.20261127999E+04  0.50400001928E-02 0.  1.
    10030    2    1    2    0    0  0.00000000000E+00  0.00000000000E+00 -0.51408968173E+03  0.35381359180E+04  0.35005881753E+04 0.  0.
        4    1    3    3  502    0  0.36400882862E+03  0.16634847735E+04  0.15207302559E+03  0.17096233026E+04  0.12699999809E+01 0.  1.
       -4    1    3    3    0  502 -0.36400882862E+03 -0.16634847735E+04 -0.66616270732E+03  0.18285126153E+04  0.12699999809E+01 0. -1.
</event>
<event>
 5   0  0.3553585E-08  0.3501446E+04  0.7818609E-02  0.8113447E-01
        2   -1    0    0  501    0  0.00000000000E+00  0.00000000000E+00  0.20324980025E+04  0.20324980025E+04  0.25500000920E-02 0. -1.
       -2   -1    0    0    0  501  0.00000000000E+00  0.00000000000E+00 -0.15080115787E+04  0.15080115787E+04  0.25500000920E-02 0.  1.
    10030    2    1    2    0    0  0.00000000000E+00  0.00000000000E+00  0.52448642382E+03  0.35405095812E+04  0.35014457137E+04 0.  0.
        2    1    3    3  502    0  0.11926234561E+03 -0.16047072370E+04  0.95966394931E+03  0.18735697796E+04  0.25500000920E-02 0. -1.
       -2    1    3    3    0  502 -0.11926234561E+03  0.16047072370E+04 -0.43517752550E+03  0.16669398016E+04  0.25500000920E-02 0.  1.
</event>
<event>
 5   0  0.1121462E-08  0.3500339E+04  0.7818609E-02  0.8113710E-01
       -1   -1    0    0    0  501  0.00000000000E+00  0.00000000000E+00  0.14733394809E+04  0.14733394809E+04  0.50400001928E-02 0. -1.
        1   -1    0    0  501    0  0.00000000000E+00  0.00000000000E+00 -0.20790136418E+04  0.20790136418E+04  0.50400001928E-02 0.  1.
    10030    2    1    2    0    0  0.00000000000E+00  0.00000000000E+00 -0.60567416096E+03  0.35523531227E+04  0.35003387720E+04 0.  0.
        4    1    3    3  502    0  0.10711257225E+04  0.10555097138E+04  0.60583384013E+03  0.16212486929E+04  0.12699999809E+01 0. -1.
       -4    1    3    3    0  502 -0.10711257225E+04 -0.10555097138E+04 -0.12115080011E+04  0.19311044298E+04  0.12699999809E+01 0.  1.
</event>
<event>
 5   0  0.1121462E-08  0.3500100E+04  0.7818609E-02  0.8113766E-01
       -1   -1    0    0    0  501  0.00000000000E+00  0.00000000000E+00  0.23493177597E+04  0.23493177597E+04  0.50400001928E-02 0. -1.
        1   -1    0    0  501    0  0.00000000000E+00  0.00000000000E+00 -0.13036443327E+04  0.13036443327E+04  0.50400001928E-02 0.  1.
    10030    2    1    2    0    0  0.00000000000E+00  0.00000000000E+00  0.10456734270E+04  0.36529620923E+04  0.35000998746E+04 0.  0.
        1    1    3    3  502    0 -0.81098346508E+03  0.63965428401E+03  0.19972720814E+04  0.22485434287E+04  0.50400001928E-02 0. -1.
       -1    1    3    3    0  502  0.81098346508E+03 -0.63965428401E+03 -0.95159865440E+03  0.14044186636E+04  0.50400001928E-02 0.  1.
</event>
<event>
 5   0  0.1121462E-08  0.3506518E+04  0.7818609E-02  0.8112247E-01
       -1   -1    0    0    0  501  0.00000000000E+00  0.00000000000E+00  0.18469103923E+04  0.18469103923E+04  0.50400001928E-02 0.  1.
        1   -1    0    0  501    0  0.00000000000E+00  0.00000000000E+00 -0.16643564017E+04  0.16643564017E+04  0.50400001928E-02 0. -1.
    10030    2    1    2    0    0  0.00000000000E+00  0.00000000000E+00  0.18255399057E+03  0.35112667940E+04  0.35065180078E+04 0.  0.
        2    1    3    3  502    0  0.10297768875E+04  0.83199541366E+03  0.12422945663E+04  0.18154758593E+04  0.25500000920E-02 0.  1.
       -2    1    3    3    0  502 -0.10297768875E+04 -0.83199541366E+03 -0.10597405757E+04  0.16957909347E+04  0.25500000920E-02 0. -1.
</event>
<event>
 5   0  0.3553585E-08  0.3499857E+04  0.7818609E-02  0.8113824E-01
       -2   -1    0    0    0  501  0.00000000000E+00  0.00000000000E+00  0.13948627685E+04  0.13948627685E+04  0.25500000920E-02 0. -1.
        2   -1    0    0  501    0  0.00000000000E+00  0.00000000000E+00 -0.21953766237E+04  0.21953766237E+04  0.25500000920E-02 0.  1.
    10030    2    1    2    0    0  0.00000000000E+00  0.00000000000E+00 -0.80051385521E+03  0.35902393922E+04  0.34998566343E+04 0.  0.
        2    1    3    3  502    0 -0.13300302681E+04  0.19740224322E+03 -0.15491352358E+04  0.20512845094E+04  0.25500000920E-02 0.  1.
       -2    1    3    3    0  502  0.13300302681E+04 -0.19740224322E+03  0.74862138059E+03  0.15389548828E+04  0.25500000920E-02 0. -1.
</event>
<event>
 5   0  0.3628017E-08  0.3500063E+04  0.7818609E-02  0.8113775E-01
       -2   -1    0    0    0  501  0.00000000000E+00  0.00000000000E+00  0.28433124027E+04  0.28433124027E+04  0.25500000920E-02 0.  1.
        2   -1    0    0  501    0  0.00000000000E+00  0.00000000000E+00 -0.10771274591E+04  0.10771274591E+04  0.25500000920E-02 0. -1.
    10030    2    1    2    0    0  0.00000000000E+00  0.00000000000E+00  0.17661849436E+04  0.39204398618E+04  0.35000627788E+04 0.  0.
        1    1    3    3  502    0  0.12775351251E+04  0.52684700302E+03  0.20858095147E+04  0.25020521761E+04  0.50400001928E-02 0. -1.
       -1    1    3    3    0  502 -0.12775351251E+04 -0.52684700302E+03 -0.31962457107E+03  0.14183876857E+04  0.50400001928E-02 0.  1.
</event>
<event>
 5   0  0.1121462E-08  0.3501175E+04  0.7818609E-02  0.8113512E-01
        1   -1    0    0  501    0  0.00000000000E+00  0.00000000000E+00  0.19381907157E+04  0.19381907157E+04  0.50400001928E-02 0.  1.
       -1   -1    0    0    0  501  0.00000000000E+00  0.00000000000E+00 -0.15811425243E+04  0.15811425244E+04  0.50400001928E-02 0. -1.
    10030    2    1    2    0    0  0.00000000000E+00  0.00000000000E+00  0.35704819138E+03  0.35193332401E+04  0.35011745235E+04 0.  0.
        2    1    3    3  502    0 -0.13901515222E+04 -0.86011285282E+03 -0.45101511624E+03  0.16957977501E+04  0.25500000920E-02 0. -1.
       -2    1    3    3    0  502  0.13901515222E+04  0.86011285282E+03  0.80806330762E+03  0.18235354900E+04  0.25500000920E-02 0.  1.
</event>
<event>
 5   0  0.3628017E-08  0.3494613E+04  0.7818609E-02  0.8115068E-01
        2   -1    0    0  501    0  0.00000000000E+00  0.00000000000E+00  0.20995240285E+04  0.20995240285E+04  0.25500000920E-02 0. -1.
       -2   -1    0    0    0  501  0.00000000000E+00  0.00000000000E+00 -0.14541772846E+04  0.14541772846E+04  0.25500000920E-02 0.  1.
    10030    2    1    2    0    0  0.00000000000E+00  0.00000000000E+00  0.64534674389E+03  0.35537013130E+04  0.34946130833E+04 0.  0.
        1    1    3    3  502    0 -0.52378685719E+03 -0.19430275415E+03 -0.13609086355E+04  0.14711147291E+04  0.50400001928E-02 0.  1.
       -1    1    3    3    0  502  0.52378685719E+03  0.19430275415E+03  0.20062553794E+04  0.20825865839E+04  0.50400001928E-02 0. -1.
</event>
<event>
 5   0  0.1121462E-08  0.3498865E+04  0.7818609E-02  0.8114059E-01
       -1   -1    0    0    0  501  0.00000000000E+00  0.00000000000E+00  0.17892396520E+04  0.17892396520E+04  0.50400001928E-02 0.  1.
        1   -1    0    0  501    0  0.00000000000E+00  0.00000000000E+00 -0.17105111388E+04  0.17105111388E+04  0.50400001928E-02 0. -1.
    10030    2    1    2    0    0  0.00000000000E+00  0.00000000000E+00  0.78728513263E+02  0.34997507908E+04  0.34988651616E+04 0.  0.
        1    1    3    3  502    0  0.10930676734E+03  0.17447142840E+04  0.10674934738E+03  0.17513912542E+04  0.50400001928E-02 0. -1.
       -1    1    3    3    0  502 -0.10930676734E+03 -0.17447142840E+04 -0.28020834118E+02  0.17483595366E+04  0.50400001928E-02 0.  1.
</event>
<event>
 5   0  0.3554451E-08  0.3496705E+04  0.7818609E-02  0.8114571E-01
       -2   -1    0    0    0  501  0.00000000000E+00  0.00000000000E+00  0.31577985517E+04  0.31577985517E+04  0.25500000920E-02 0.  1.
        2   -1    0    0  501    0  0.00000000000E+00  0.00000000000E+00 -0.96799623359E+03  0.96799623359E+03  0.25500000920E-02 0. -1.
    10030    2    1    2    0    0  0.00000000000E+00  0.00000000000E+00  0.21898023181E+04  0.41257947852E+04  0.34967053662E+04 0.  0.
        5    1    3    3  502    0  0.12116739019E+04 -0.31648439812E+03  0.25343898813E+04  0.28269188491E+04  0.46999998093E+01 0.  1.
       -5    1    3    3    0  502 -0.12116739019E+04  0.31648439812E+03 -0.34458756324E+03  0.12988759362E+04  0.46999998093E+01 0. -1.
</event>
<event>
 5   0  0.3700096E-08  0.3499253E+04  0.7818609E-02  0.8113967E-01
        2   -1    0    0  501    0  0.00000000000E+00  0.00000000000E+00  0.19476396048E+04  0.19476396048E+04  0.25500000920E-02 0. -1.
       -2   -1    0    0    0  501  0.00000000000E+00  0.00000000000E+00 -0.15717447123E+04  0.15717447123E+04  0.25500000920E-02 0.  1.
    10030    2    1    2    0    0  0.00000000000E+00  0.00000000000E+00  0.37589489246E+03  0.35193843171E+04  0.34992526347E+04 0.  0.
        4    1    3    3  502    0 -0.85840026407E+03 -0.14837901177E+04  0.54025763195E+03  0.17973213538E+04  0.12699999809E+01 0.  1.
       -4    1    3    3    0  502  0.85840026407E+03  0.14837901177E+04 -0.16436273949E+03  0.17220629634E+04  0.12699999809E+01 0. -1.
</event>
<event>
 5   0  0.3700096E-08  0.3485043E+04  0.7818609E-02  0.8117344E-01
       -2   -1    0    0    0  501  0.00000000000E+00  0.00000000000E+00  0.16558758469E+04  0.16558758469E+04  0.25500000920E-02 0. -1.
        2   -1    0    0  501    0  0.00000000000E+00  0.00000000000E+00 -0.18337011618E+04  0.18337011618E+04  0.25500000920E-02 0.  1.
    10030    2    1    2    0    0  0.00000000000E+00  0.00000000000E+00 -0.17782531484E+03  0.34895770087E+04  0.34850431643E+04 0.  0.
        4    1    3    3  502    0  0.13364575214E+04 -0.34630089606E+03  0.97564347362E+03  0.16905398007E+04  0.12699999809E+01 0. -1.
       -4    1    3    3    0  502 -0.13364575214E+04  0.34630089606E+03 -0.11534687885E+04  0.17990372081E+04  0.12699999809E+01 0.  1.
</event>
<event>
 5   0  0.1121462E-08  0.3500507E+04  0.7818609E-02  0.8113670E-01
       -1   -1    0    0    0  501  0.00000000000E+00  0.00000000000E+00  0.16632787199E+04  0.16632787199E+04  0.50400001928E-02 0.  1.
        1   -1    0    0  501    0  0.00000000000E+00  0.00000000000E+00 -0.18417767053E+04  0.18417767053E+04  0.50400001928E-02 0. -1.
    10030    2    1    2    0    0  0.00000000000E+00  0.00000000000E+00 -0.17849798543E+03  0.35050554253E+04  0.35005073923E+04 0.  0.
        2    1    3    3  502    0 -0.43224734461E+03 -0.71492175623E+03 -0.16292449979E+04  0.18309533439E+04  0.25500000920E-02 0. -1.
       -2    1    3    3    0  502  0.43224734461E+03  0.71492175623E+03  0.14507470125E+04  0.16741020813E+04  0.25500000920E-02 0.  1.
</event>
<event>
 5   0  0.1140808E-08  0.3499629E+04  0.7818609E-02  0.8113878E-01
       -1   -1    0    0    0  501  0.00000000000E+00  0.00000000000E+00  0.12535744746E+04  0.12535744746E+04  0.50400001928E-02 0.  1.
        1   -1    0    0  501    0  0.00000000000E+00  0.00000000000E+00 -0.24424963278E+04  0.24424963278E+04  0.50400001928E-02 0. -1.
    10030    2    1    2    0    0  0.00000000000E+00  0.00000000000E+00 -0.11889218532E+04  0.36960708024E+04  0.34996291522E+04 0.  0.
        3    1    3    3  502    0 -0.20321412874E+03 -0.20502356499E+03 -0.24171749950E+04  0.24343511683E+04  0.10100000352E+00 0. -1.
       -3    1    3    3    0  502  0.20321412874E+03  0.20502356499E+03  0.12282531418E+04  0.12617196340E+04  0.10100000352E+00 0.  1.
</event>
<event>
 5   0  0.1129219E-08  0.3499538E+04  0.7818609E-02  0.8113899E-01
       -1   -1    0    0    0  501  0.00000000000E+00  0.00000000000E+00  0.22252604162E+04  0.22252604162E+04  0.50400001928E-02 0.  1.
        1   -1    0    0  501    0  0.00000000000E+00  0.00000000000E+00 -0.13758802087E+04  0.13758802087E+04  0.50400001928E-02 0. -1.
    10030    2    1    2    0    0  0.00000000000E+00  0.00000000000E+00  0.84938020756E+03  0.36011406249E+04  0.34995381214E+04 0.  0.
        5    1    3    3  502    0  0.54685426775E+03  0.15659306526E+04 -0.14869586347E+03  0.16653290812E+04  0.46999998093E+01 0. -1.
       -5    1    3    3    0  502 -0.54685426775E+03 -0.15659306526E+04  0.99807607104E+03  0.19358115437E+04  0.46999998093E+01 0.  1.
</event>
<event>
 5   0  0.3700096E-08  0.3501355E+04  0.7818609E-02  0.8113469E-01
       -2   -1    0    0    0  501  0.00000000000E+00  0.00000000000E+00  0.20809812225E+04  0.20809812225E+04  0.25500000920E-02 0.  1.
        2   -1    0    0  501    0  0.00000000000E+00  0.00000000000E+00 -0.14728009025E+04  0.14728009025E+04  0.25500000920E-02 0. -1.
    10030    2    1    2    0    0  0.00000000000E+00  0.00000000000E+00  0.60818031997E+03  0.35537821250E+04  0.35013546079E+04 0.  0.
        4    1    3    3  502    0 -0.11503426480E+04  0.60999096514E+03  0.14918659988E+04  0.19801623561E+04  0.12699999809E+01 0.  1.
       -4    1    3    3    0  502  0.11503426480E+04 -0.60999096514E+03 -0.88368567880E+03  0.15736197689E+04  0.12699999809E+01 0. -1.
</event>
<event>
 5   0  0.3554451E-08  0.3500282E+04  0.7818609E-02  0.8113723E-01
        2   -1    0    0  501    0  0.00000000000E+00  0.00000000000E+00  0.24812258890E+04  0.24812258890E+04  0.25500000920E-02 0. -1.
       -2   -1    0    0    0  501  0.00000000000E+00  0.00000000000E+00 -0.12344679088E+04  0.12344679088E+04  0.25500000920E-02 0.  1.
    10030    2    1    2    0    0  0.00000000000E+00  0.00000000000E+00  0.12467579803E+04  0.37156937978E+04  0.35002821226E+04 0.  0.
        5    1    3    3  502    0  0.17105691567E+04 -0.86881019041E+02  0.10052041613E+04  0.19859639088E+04  0.46999998093E+01 0.  1.
       -5    1    3    3    0  502 -0.17105691567E+04  0.86881019041E+02  0.24155381899E+03  0.17297298890E+04  0.46999998093E+01 0. -1.
</event>
<event>
 5   0  0.3628017E-08  0.3499506E+04  0.7818609E-02  0.8113907E-01
       -2   -1    0    0    0  501  0.00000000000E+00  0.00000000000E+00  0.18342559808E+04  0.18342559808E+04  0.25500000920E-02 0.  1.
        2   -1    0    0  501    0  0.00000000000E+00  0.00000000000E+00 -0.16691425590E+04  0.16691425590E+04  0.25500000920E-02 0. -1.
    10030    2    1    2    0    0  0.00000000000E+00  0.00000000000E+00  0.16511342187E+03  0.35033985398E+04  0.34995055203E+04 0.  0.
        1    1    3    3  502    0 -0.11360702781E+04 -0.20174583970E+03 -0.12343067944E+04  0.16896361512E+04  0.50400001928E-02 0. -1.
       -1    1    3    3    0  502  0.11360702781E+04  0.20174583970E+03  0.13994202163E+04  0.18137623886E+04  0.50400001928E-02 0.  1.
</event>
<event>
 5   0  0.3628017E-08  0.3499507E+04  0.7818609E-02  0.8113907E-01
        2   -1    0    0  501    0  0.00000000000E+00  0.00000000000E+00  0.19163690818E+04  0.19163690818E+04  0.25500000920E-02 0. -1.
       -2   -1    0    0    0  501  0.00000000000E+00  0.00000000000E+00 -0.15976244141E+04  0.15976244141E+04  0.25500000920E-02 0.  1.
    10030    2    1    2    0    0  0.00000000000E+00  0.00000000000E+00  0.31874466766E+03  0.35139934959E+04  0.34995074119E+04 0.  0.
        1    1    3    3  502    0  0.11326219900E+03 -0.14781451440E+04  0.10926802035E+04  0.18416545332E+04  0.50400001928E-02 0. -1.
       -1    1    3    3    0  502 -0.11326219900E+03  0.14781451440E+04 -0.77393553583E+03  0.16723389627E+04  0.50400001928E-02 0.  1.
</event>
<event>
 5   0  0.1121462E-08  0.3501781E+04  0.7818609E-02  0.8113368E-01
       -3   -1    0    0    0  501  0.00000000000E+00  0.00000000000E+00  0.19570953858E+04  0.19570953884E+04  0.10100000352E+00 0. -1.
        3   -1    0    0  501    0  0.00000000000E+00  0.00000000000E+00 -0.15664115036E+04  0.15664115069E+04  0.10100000352E+00 0.  1.
    10030    2    1    2    0    0  0.00000000000E+00  0.00000000000E+00  0.39068388220E+03  0.35235068953E+04  0.35017805393E+04 0.  0.
        3    1    3    3  502    0 -0.16809504831E+04 -0.22210178841E+03  0.63473538335E+03  0.18104730730E+04  0.10100000352E+00 0. -1.
       -3    1    3    3    0  502  0.16809504831E+04  0.22210178841E+03 -0.24405150114E+03  0.17130338223E+04  0.10100000352E+00 0.  1.
</event>
<event>
 5   0  0.1121462E-08  0.3493466E+04  0.7818609E-02  0.8115340E-01
       -3   -1    0    0    0  501  0.00000000000E+00  0.00000000000E+00  0.15837584491E+04  0.15837584523E+04  0.10100000352E+00 0.  1.
        3   -1    0    0  501    0  0.00000000000E+00  0.00000000000E+00 -0.19264784104E+04  0.19264784130E+04  0.10100000352E+00 0. -1.
    10030    2    1    2    0    0  0.00000000000E+00  0.00000000000E+00 -0.34271996132E+03  0.35102368653E+04  0.34934661697E+04 0.  0.
        3    1    3    3  502    0  0.15750213035E+04  0.20321024182E+03  0.55951759518E+03  0.16837596201E+04  0.10100000352E+00 0. -1.
       -3    1    3    3    0  502 -0.15750213035E+04 -0.20321024182E+03 -0.90223755650E+03  0.18264772452E+04  0.10100000352E+00 0.  1.
</event>
<event>
 5   0  0.3700096E-08  0.3503101E+04  0.7818609E-02  0.8113055E-01
        2   -1    0    0  501    0  0.00000000000E+00  0.00000000000E+00  0.17233802047E+04  0.17233802047E+04  0.25500000920E-02 0. -1.
       -2   -1    0    0    0  501  0.00000000000E+00  0.00000000000E+00 -0.17801817687E+04  0.17801817687E+04  0.25500000920E-02 0.  1.
    10030    2    1    2    0    0  0.00000000000E+00  0.00000000000E+00 -0.56801563977E+02  0.35035619734E+04  0.35031014949E+04 0.  0.
        4    1    3    3  502    0 -0.80297271333E+02 -0.69061667446E+03 -0.16362592572E+04  0.17778484223E+04  0.12699999809E+01 0.  1.
       -4    1    3    3    0  502  0.80297271333E+02  0.69061667446E+03  0.15794576932E+04  0.17257135511E+04  0.12699999809E+01 0. -1.
</event>
<event>
 5   0  0.1121462E-08  0.3500548E+04  0.7818609E-02  0.8113660E-01
       -1   -1    0    0    0  501  0.00000000000E+00  0.00000000000E+00  0.32277298607E+04  0.32277298607E+04  0.50400001928E-02 0.  1.
        1   -1    0    0  501    0  0.00000000000E+00  0.00000000000E+00 -0.94910658894E+03  0.94910658895E+03  0.50400001928E-02 0. -1.
    10030    2    1    2    0    0  0.00000000000E+00  0.00000000000E+00  0.22786232717E+04  0.41768364496E+04  0.35005483445E+04 0.  0.
        4    1    3    3  502    0 -0.15990146139E+04  0.70766344360E+03  0.12303609329E+04  0.21380890821E+04  0.12699999809E+01 0. -1.
       -4    1    3    3    0  502  0.15990146139E+04 -0.70766344360E+03  0.10482623388E+04  0.20387473675E+04  0.12699999809E+01 0.  1.
</event>
<event>
 5   0  0.3700096E-08  0.3494773E+04  0.7818609E-02  0.8115030E-01
        2   -1    0    0  501    0  0.00000000000E+00  0.00000000000E+00  0.14112055479E+04  0.14112055479E+04  0.25500000920E-02 0.  1.
       -2   -1    0    0    0  501  0.00000000000E+00  0.00000000000E+00 -0.21636535599E+04  0.21636535599E+04  0.25500000920E-02 0. -1.
    10030    2    1    2    0    0  0.00000000000E+00  0.00000000000E+00 -0.75244801198E+03  0.35748591078E+04  0.34947731872E+04 0.  0.
        4    1    3    3  502    0 -0.77322473943E+03  0.75249782126E+03 -0.17822139573E+04  0.20833669075E+04  0.12699999809E+01 0. -1.
       -4    1    3    3    0  502  0.77322473943E+03 -0.75249782126E+03  0.10297659453E+04  0.14914922003E+04  0.12699999809E+01 0.  1.
</event>
<event>
 5   0  0.1140808E-08  0.3499209E+04  0.7818609E-02  0.8113977E-01
        1   -1    0    0  501    0  0.00000000000E+00  0.00000000000E+00  0.20787145290E+04  0.20787145290E+04  0.50400001928E-02 0. -1.
       -1   -1    0    0    0  501  0.00000000000E+00  0.00000000000E+00 -0.14726003232E+04  0.14726003232E+04  0.50400001928E-02 0.  1.
    10030    2    1    2    0    0  0.00000000000E+00  0.00000000000E+00  0.60611420577E+03  0.35513148523E+04  0.34992088748E+04 0.  0.
        3    1    3    3  502    0  0.10763844101E+04 -0.77776076593E+03  0.14591422126E+04  0.19729701504E+04  0.10100000352E+00 0. -1.
       -3    1    3    3    0  502 -0.10763844101E+04  0.77776076593E+03 -0.85302800682E+03  0.15783447019E+04  0.10100000352E+00 0.  1.
</event>
<event>
 5   0  0.1121462E-08  0.3500076E+04  0.7818609E-02  0.8113772E-01
       -1   -1    0    0    0  501  0.00000000000E+00  0.00000000000E+00  0.18407867383E+04  0.18407867383E+04  0.50400001928E-02 0. -1.
        1   -1    0    0  501    0  0.00000000000E+00  0.00000000000E+00 -0.16637634771E+04  0.16637634771E+04  0.50400001928E-02 0.  1.
    10030    2    1    2    0    0  0.00000000000E+00  0.00000000000E+00  0.17702326116E+03  0.35045502154E+04  0.35000764245E+04 0.  0.
        4    1    3    3  502    0 -0.11322790643E+04  0.13187503056E+04 -0.11540005360E+03  0.17419750381E+04  0.12699999809E+01 0.  1.
       -4    1    3    3    0  502  0.11322790643E+04 -0.13187503056E+04  0.29242331475E+03  0.17625751774E+04  0.12699999809E+01 0. -1.
</event>
<event>
 5   0  0.1121462E-08  0.3499634E+04  0.7818609E-02  0.8113877E-01
        1   -1    0    0  501    0  0.00000000000E+00  0.00000000000E+00  0.18330379586E+04  0.18330379586E+04  0.50400001928E-02 0.  1.
       -1   -1    0    0    0  501  0.00000000000E+00  0.00000000000E+00 -0.16703746503E+04  0.16703746503E+04  0.50400001928E-02 0. -1.
    10030    2    1    2    0    0  0.00000000000E+00  0.00000000000E+00  0.16266330834E+03  0.35034126089E+04  0.34996343461E+04 0.  0.
        2    1    3    3  502    0  0.16906481476E+04 -0.26535609081E+03  0.44662987912E+03  0.17686670865E+04  0.25500000920E-02 0.  1.
       -2    1    3    3    0  502 -0.16906481476E+04  0.26535609081E+03 -0.28396657077E+03  0.17347455224E+04  0.25500000920E-02 0. -1.
</event>
<event>
 5   0  0.3628017E-08  0.3498101E+04  0.7818609E-02  0.8114240E-01
       -2   -1    0    0    0  501  0.00000000000E+00  0.00000000000E+00  0.11419821330E+04  0.11419821330E+04  0.25500000920E-02 0. -1.
        2   -1    0    0  501    0  0.00000000000E+00  0.00000000000E+00 -0.26788311392E+04  0.26788311392E+04  0.25500000920E-02 0.  1.
    10030    2    1    2    0    0  0.00000000000E+00  0.00000000000E+00 -0.15368490062E+04  0.38208132722E+04  0.34981007980E+04 0.  0.
        1    1    3    3  502    0 -0.10918144652E+04 -0.93456716068E+03 -0.18572335676E+04  0.23483592419E+04  0.50400001928E-02 0.  1.
       -1    1    3    3    0  502  0.10918144652E+04  0.93456716068E+03  0.32038456136E+03  0.14724540304E+04  0.50400001928E-02 0. -1.
</event>
<event>
 5   0  0.1140808E-08  0.3499532E+04  0.7818609E-02  0.8113901E-01
        1   -1    0    0  501    0  0.00000000000E+00  0.00000000000E+00  0.21787317618E+04  0.21787317619E+04  0.50400001928E-02 0. -1.
       -1   -1    0    0    0  501  0.00000000000E+00  0.00000000000E+00 -0.14052585411E+04  0.14052585411E+04  0.50400001928E-02 0.  1.
    10030    2    1    2    0    0  0.00000000000E+00  0.00000000000E+00  0.77347322072E+03  0.35839903030E+04  0.34995322071E+04 0.  0.
        3    1    3    3  502    0  0.64946928400E+03  0.80243537590E+03  0.18336204808E+04  0.21042521144E+04  0.10100000352E+00 0. -1.
       -3    1    3    3    0  502 -0.64946928400E+03 -0.80243537590E+03 -0.10601472601E+04  0.14797381885E+04  0.10100000352E+00 0.  1.
</event>
<event>
 5   0  0.3467834E-08  0.3500072E+04  0.7818609E-02  0.8113773E-01
        2   -1    0    0  501    0  0.00000000000E+00  0.00000000000E+00  0.16652072290E+04  0.16652072290E+04  0.25500000920E-02 0.  1.
       -2   -1    0    0    0  501  0.00000000000E+00  0.00000000000E+00 -0.18391865517E+04  0.18391865517E+04  0.25500000920E-02 0. -1.
    10030    2    1    2    0    0  0.00000000000E+00  0.00000000000E+00 -0.17397932265E+03  0.35043937807E+04  0.35000724229E+04 0.  0.
        3    1    3    3  502    0  0.26289955352E+03  0.17301075753E+04 -0.71532542102E+02  0.17514295054E+04  0.10100000352E+00 0.  1.
       -3    1    3    3    0  502 -0.26289955352E+03 -0.17301075753E+04 -0.10244678055E+03  0.17529642753E+04  0.10100000352E+00 0. -1.
</event>
<event>
 5   0  0.3553585E-08  0.3499755E+04  0.7818609E-02  0.8113848E-01
        2   -1    0    0  501    0  0.00000000000E+00  0.00000000000E+00  0.24019104532E+04  0.24019104532E+04  0.25500000920E-02 0. -1.
       -2   -1    0    0    0  501  0.00000000000E+00  0.00000000000E+00 -0.12748478739E+04  0.12748478739E+04  0.25500000920E-02 0.  1.
    10030    2    1    2    0    0  0.00000000000E+00  0.00000000000E+00  0.11270625793E+04  0.36767583272E+04  0.34997545255E+04 0.  0.
        2    1    3    3  502    0 -0.68475593108E+03 -0.35482558501E+03 -0.10866687483E+04  0.13325317443E+04  0.25500000920E-02 0.  1.
       -2    1    3    3    0  502  0.68475593108E+03  0.35482558501E+03  0.22137313276E+04  0.23442265829E+04  0.25500000920E-02 0. -1.
</event>
<event>
 5   0  0.3700096E-08  0.3498281E+04  0.7818609E-02  0.8114198E-01
        2   -1    0    0  501    0  0.00000000000E+00  0.00000000000E+00  0.17017522479E+04  0.17017522479E+04  0.25500000920E-02 0.  1.
       -2   -1    0    0    0  501  0.00000000000E+00  0.00000000000E+00 -0.17978479410E+04  0.17978479410E+04  0.25500000920E-02 0. -1.
    10030    2    1    2    0    0  0.00000000000E+00  0.00000000000E+00 -0.96095693104E+02  0.34996001890E+04  0.34982805920E+04 0.  0.
        4    1    3    3  502    0 -0.56765631575E+03  0.89707922709E+03 -0.14387180221E+04  0.17879865750E+04  0.12699999809E+01 0. -1.
       -4    1    3    3    0  502  0.56765631575E+03 -0.89707922709E+03  0.13426223290E+04  0.17116136140E+04  0.12699999809E+01 0.  1.
</event>
<event>
 5   0  0.1121462E-08  0.3502584E+04  0.7818609E-02  0.8113178E-01
        1   -1    0    0  501    0  0.00000000000E+00  0.00000000000E+00  0.24001878188E+04  0.24001878188E+04  0.50400001928E-02 0. -1.
       -1   -1    0    0    0  501  0.00000000000E+00  0.00000000000E+00 -0.12778261939E+04  0.12778261939E+04  0.50400001928E-02 0.  1.
    10030    2    1    2    0    0  0.00000000000E+00  0.00000000000E+00  0.11223616249E+04  0.36780140127E+04  0.35025835408E+04 0.  0.
        4    1    3    3  502    0 -0.35647974104E+03 -0.11667080917E+04  0.18805902569E+04  0.22416304120E+04  0.12699999809E+01 0. -1.
       -4    1    3    3    0  502  0.35647974104E+03  0.11667080917E+04 -0.75822863191E+03  0.14363836007E+04  0.12699999809E+01 0.  1.
</event>
<event>
 5   0  0.1121462E-08  0.3498920E+04  0.7818609E-02  0.8114046E-01
        1   -1    0    0  501    0  0.00000000000E+00  0.00000000000E+00  0.19871174115E+04  0.19871174115E+04  0.50400001928E-02 0. -1.
       -1   -1    0    0    0  501  0.00000000000E+00  0.00000000000E+00 -0.15402260274E+04  0.15402260275E+04  0.50400001928E-02 0.  1.
    10030    2    1    2    0    0  0.00000000000E+00  0.00000000000E+00  0.44689138408E+03  0.35273434390E+04  0.34989198086E+04 0.  0.
        1    1    3    3  502    0 -0.84995238508E+03 -0.29758883785E+03  0.17355072676E+04  0.19552400490E+04  0.50400001928E-02 0. -1.
       -1    1    3    3    0  502  0.84995238508E+03  0.29758883785E+03 -0.12886158836E+04  0.15721033899E+04  0.50400001928E-02 0.  1.
</event>
<event>
 5   0  0.3700096E-08  0.3500524E+04  0.7818609E-02  0.8113666E-01
        2   -1    0    0  501    0  0.00000000000E+00  0.00000000000E+00  0.17491495202E+04  0.17491495202E+04  0.25500000920E-02 0.  1.
       -2   -1    0    0    0  501  0.00000000000E+00  0.00000000000E+00 -0.17513753251E+04  0.17513753251E+04  0.25500000920E-02 0. -1.
    10030    2    1    2    0    0  0.00000000000E+00  0.00000000000E+00 -0.22258049197E+01  0.35005248453E+04  0.35005241376E+04 0.  0.
        4    1    3    3  502    0 -0.10241345508E+04 -0.12060818784E+03  0.14131072332E+04  0.17493631923E+04  0.12699999809E+01 0.  1.
       -4    1    3    3    0  502  0.10241345508E+04  0.12060818784E+03 -0.14153330381E+04  0.17511616530E+04  0.12699999809E+01 0. -1.
</event>
<event>
 5   0  0.3554451E-08  0.3494002E+04  0.7818609E-02  0.8115213E-01
       -2   -1    0    0    0  501  0.00000000000E+00  0.00000000000E+00  0.12651946374E+04  0.12651946374E+04  0.25500000920E-02 0.  1.
        2   -1    0    0  501    0  0.00000000000E+00  0.00000000000E+00 -0.24122871485E+04  0.24122871485E+04  0.25500000920E-02 0. -1.
    10030    2    1    2    0    0  0.00000000000E+00  0.00000000000E+00 -0.11470925111E+04  0.36774817859E+04  0.34940021546E+04 0.  0.
        5    1    3    3  502    0 -0.13502091951E+04 -0.46937009444E+03  0.48349178117E+03  0.15090260265E+04  0.46999998093E+01 0.  1.
       -5    1    3    3    0  502  0.13502091951E+04  0.46937009444E+03 -0.16305842923E+04  0.21684557594E+04  0.46999998093E+01 0. -1.
</event>
<event>
 5   0  0.1121462E-08  0.3499851E+04  0.7818609E-02  0.8113825E-01
       -1   -1    0    0    0  501  0.00000000000E+00  0.00000000000E+00  0.26224618621E+04  0.26224618621E+04  0.50400001928E-02 0. -1.
        1   -1    0    0  501    0  0.00000000000E+00  0.00000000000E+00 -0.11676962394E+04  0.11676962394E+04  0.50400001928E-02 0.  1.
    10030    2    1    2    0    0  0.00000000000E+00  0.00000000000E+00  0.14547656226E+04  0.37901581015E+04  0.34998507707E+04 0.  0.
        2    1    3    3  502    0 -0.14995714399E+04  0.77231257375E+03  0.12319225025E+04  0.20887350879E+04  0.25500000920E-02 0. -1.
       -2    1    3    3    0  502  0.14995714399E+04 -0.77231257375E+03  0.22284312010E+03  0.17014230136E+04  0.25500000920E-02 0.  1.
</event>
<event>
 5   0  0.1140808E-08  0.3499923E+04  0.7818609E-02  0.8113808E-01
       -1   -1    0    0    0  501  0.00000000000E+00  0.00000000000E+00  0.19983981242E+04  0.19983981242E+04  0.50400001928E-02 0. -1.
        1   -1    0    0  501    0  0.00000000000E+00  0.00000000000E+00 -0.15324100929E+04  0.15324100929E+04  0.50400001928E-02 0.  1.
    10030    2    1    2    0    0  0.00000000000E+00  0.00000000000E+00  0.46598803131E+03  0.35308082171E+04  0.34999231164E+04 0.  0.
        3    1    3    3  502    0 -0.12780066536E+04  0.76540738034E+03  0.11593652026E+04  0.18876644691E+04  0.10100000352E+00 0. -1.
       -3    1    3    3    0  502  0.12780066536E+04 -0.76540738034E+03 -0.69337717131E+03  0.16431437480E+04  0.10100000352E+00 0.  1.
</event>
<event>
 5   0  0.3553585E-08  0.3499195E+04  0.7818609E-02  0.8113981E-01
       -2   -1    0    0    0  501  0.00000000000E+00  0.00000000000E+00  0.13758705868E+04  0.13758705868E+04  0.25500000920E-02 0.  1.
        2   -1    0    0  501    0  0.00000000000E+00  0.00000000000E+00 -0.22248399308E+04  0.22248399308E+04  0.25500000920E-02 0. -1.
    10030    2    1    2    0    0  0.00000000000E+00  0.00000000000E+00 -0.84896934405E+03  0.36007105177E+04  0.34991952339E+04 0.  0.
        2    1    3    3  502    0  0.60669112586E+03  0.15023565961E+04  0.25492944613E+03  0.16401641645E+04  0.25500000920E-02 0.  1.
       -2    1    3    3    0  502 -0.60669112586E+03 -0.15023565961E+04 -0.11038987902E+04  0.19605463532E+04  0.25500000920E-02 0. -1.
</event>
<event>
 5   0  0.3700096E-08  0.3501069E+04  0.7818609E-02  0.8113537E-01
       -2   -1    0    0    0  501  0.00000000000E+00  0.00000000000E+00  0.27822988511E+04  0.27822988511E+04  0.25500000920E-02 0. -1.
        2   -1    0    0  501    0  0.00000000000E+00  0.00000000000E+00 -0.11013812523E+04  0.11013812523E+04  0.25500000920E-02 0.  1.
    10030    2    1    2    0    0  0.00000000000E+00  0.00000000000E+00  0.16809175989E+04  0.38836801034E+04  0.35010694325E+04 0.  0.
        4    1    3    3  502    0  0.14596863182E+04 -0.91784274598E+02 -0.22656723103E+03  0.14800144674E+04  0.12699999809E+01 0.  1.
       -4    1    3    3    0  502 -0.14596863182E+04  0.91784274598E+02  0.19074848299E+04  0.24036656360E+04  0.12699999809E+01 0. -1.
</event>
<event>
 5   0  0.1121462E-08  0.3500022E+04  0.7818609E-02  0.8113785E-01
        1   -1    0    0  501    0  0.00000000000E+00  0.00000000000E+00  0.17489161794E+04  0.17489161794E+04  0.50400001928E-02 0. -1.
       -1   -1    0    0    0  501  0.00000000000E+00  0.00000000000E+00 -0.17511061364E+04  0.17511061364E+04  0.50400001928E-02 0.  1.
    10030    2    1    2    0    0  0.00000000000E+00  0.00000000000E+00 -0.21899570706E+01  0.35000223158E+04  0.35000216307E+04 0.  0.
        1    1    3    3  502    0  0.12772617091E+04 -0.71613428815E+02  0.11930626557E+04  0.17492639758E+04  0.50400001928E-02 0. -1.
       -1    1    3    3    0  502 -0.12772617091E+04  0.71613428815E+02 -0.11952526127E+04  0.17507583400E+04  0.50400001928E-02 0.  1.
</event>
<event>
 5   0  0.1121462E-08  0.3500924E+04  0.7818609E-02  0.8113571E-01
       -1   -1    0    0    0  501  0.00000000000E+00  0.00000000000E+00  0.14819221306E+04  0.14819221307E+04  0.50400001928E-02 0.  1.
        1   -1    0    0  501    0  0.00000000000E+00  0.00000000000E+00 -0.20676645436E+04  0.20676645436E+04  0.50400001928E-02 0. -1.
    10030    2    1    2    0    0  0.00000000000E+00  0.00000000000E+00 -0.58574241295E+03  0.35495866743E+04  0.35009243613E+04 0.  0.
        1    1    3    3  502    0 -0.95403721746E+03 -0.13194159874E+04  0.35876932081E+03  0.16672615229E+04  0.50400001928E-02 0.  1.
       -1    1    3    3    0  502  0.95403721746E+03  0.13194159874E+04 -0.94451173375E+03  0.18823251514E+04  0.50400001928E-02 0. -1.
</event>
<event>
 5   0  0.3467834E-08  0.3507679E+04  0.7818609E-02  0.8111973E-01
       -2   -1    0    0    0  501  0.00000000000E+00  0.00000000000E+00  0.13551709520E+04  0.13551709520E+04  0.25500000920E-02 0.  1.
        2   -1    0    0  501    0  0.00000000000E+00  0.00000000000E+00 -0.22697894170E+04  0.22697894170E+04  0.25500000920E-02 0. -1.
    10030    2    1    2    0    0  0.00000000000E+00  0.00000000000E+00 -0.91461846501E+03  0.36249603689E+04  0.35076788250E+04 0.  0.
        3    1    3    3  502    0  0.86758669552E+03 -0.81739293626E+02 -0.20302256949E+04  0.22093447827E+04  0.10100000352E+00 0. -1.
       -3    1    3    3    0  502 -0.86758669552E+03  0.81739293626E+02  0.11156072299E+04  0.14156155862E+04  0.10100000352E+00 0.  1.
</event>
<event>
 5   0  0.1121462E-08  0.3501455E+04  0.7818609E-02  0.8113445E-01
       -1   -1    0    0    0  501  0.00000000000E+00  0.00000000000E+00  0.18343047471E+04  0.18343047471E+04  0.50400001928E-02 0. -1.
        1   -1    0    0  501    0  0.00000000000E+00  0.00000000000E+00 -0.16709578538E+04  0.16709578538E+04  0.50400001928E-02 0.  1.
    10030    2    1    2    0    0  0.00000000000E+00  0.00000000000E+00  0.16334689337E+03  0.35052626009E+04  0.35014545112E+04 0.  0.
        4    1    3    3  502    0  0.13469911114E+04 -0.11154389658E+04  0.16210489937E+03  0.17563794442E+04  0.12699999809E+01 0.  1.
       -4    1    3    3    0  502 -0.13469911114E+04  0.11154389658E+04  0.12419939916E+01  0.17488831568E+04  0.12699999809E+01 0. -1.
</event>
<event>
 5   0  0.1140808E-08  0.3499882E+04  0.7818609E-02  0.8113818E-01
       -1   -1    0    0    0  501  0.00000000000E+00  0.00000000000E+00  0.16634386379E+04  0.16634386380E+04  0.50400001928E-02 0. -1.
        1   -1    0    0  501    0  0.00000000000E+00  0.00000000000E+00 -0.18409420475E+04  0.18409420475E+04  0.50400001928E-02 0.  1.
    10030    2    1    2    0    0  0.00000000000E+00  0.00000000000E+00 -0.17750340951E+03  0.35043806854E+04  0.34998823592E+04 0.  0.
        3    1    3    3  502    0  0.13626812481E+04  0.68179180363E+03  0.77290874748E+03  0.17085456357E+04  0.10100000352E+00 0. -1.
       -3    1    3    3    0  502 -0.13626812481E+04 -0.68179180363E+03 -0.95041215699E+03  0.17958350497E+04  0.10100000352E+00 0.  1.
</event>
<event>
 5   0  0.1121462E-08  0.3501749E+04  0.7818609E-02  0.8113376E-01
        1   -1    0    0  501    0  0.00000000000E+00  0.00000000000E+00  0.17439174810E+04  0.17439174810E+04  0.50400001928E-02 0.  1.
       -1   -1    0    0    0  501  0.00000000000E+00  0.00000000000E+00 -0.17578590648E+04  0.17578590648E+04  0.50400001928E-02 0. -1.
    10030    2    1    2    0    0  0.00000000000E+00  0.00000000000E+00 -0.13941583728E+02  0.35017765458E+04  0.35017487930E+04 0.  0.
        1    1    3    3  502    0  0.64158528680E+03  0.15814849077E+04  0.38397342574E+03  0.17493318111E+04  0.50400001928E-02 0.  1.
       -1    1    3    3    0  502 -0.64158528680E+03 -0.15814849077E+04 -0.39791500947E+03  0.17524447347E+04  0.50400001928E-02 0. -1.
</event>
<event>
 5   0  0.1140808E-08  0.3492130E+04  0.7818609E-02  0.8115658E-01
       -1   -1    0    0    0  501  0.00000000000E+00  0.00000000000E+00  0.19711097648E+04  0.19711097648E+04  0.50400001928E-02 0. -1.
        1   -1    0    0  501    0  0.00000000000E+00  0.00000000000E+00 -0.15467136151E+04  0.15467136152E+04  0.50400001928E-02 0.  1.
    10030    2    1    2    0    0  0.00000000000E+00  0.00000000000E+00  0.42439614969E+03  0.35178233800E+04  0.34921296140E+04 0.  0.
        3    1    3    3  502    0  0.11218660716E+04  0.10591134525E+04  0.10357937994E+04  0.18582716682E+04  0.10100000352E+00 0. -1.
       -3    1    3    3    0  502 -0.11218660716E+04 -0.10591134525E+04 -0.61139764967E+03  0.16595517118E+04  0.10100000352E+00 0.  1.
</event>
<event>
 5   0  0.1121462E-08  0.3500790E+04  0.7818609E-02  0.8113603E-01
       -4   -1    0    0    0  501  0.00000000000E+00  0.00000000000E+00  0.15645112181E+04  0.15645117336E+04  0.12699999809E+01 0.  1.
        4   -1    0    0  501    0  0.00000000000E+00  0.00000000000E+00 -0.19583628388E+04  0.19583632506E+04  0.12699999809E+01 0. -1.
    10030    2    1    2    0    0  0.00000000000E+00  0.00000000000E+00 -0.39385162069E+03  0.35228749841E+04  0.35007897758E+04 0.  0.
        5    1    3    3  502    0  0.42428117779E+03 -0.12769076291E+04  0.92966920773E+03  0.16354860247E+04  0.46999998093E+01 0.  1.
       -5    1    3    3    0  502 -0.42428117779E+03  0.12769076291E+04 -0.13235208284E+04  0.18873889595E+04  0.46999998093E+01 0. -1.
</event>
<event>
 5   0  0.1121462E-08  0.3503520E+04  0.7818609E-02  0.8112956E-01
       -1   -1    0    0    0  501  0.00000000000E+00  0.00000000000E+00  0.14642496247E+04  0.14642496247E+04  0.50400001928E-02 0. -1.
        1   -1    0    0  501    0  0.00000000000E+00  0.00000000000E+00 -0.20957245028E+04  0.20957245028E+04  0.50400001928E-02 0.  1.
    10030    2    1    2    0    0  0.00000000000E+00  0.00000000000E+00 -0.63147487810E+03  0.35599741275E+04  0.35035204105E+04 0.  0.
        4    1    3    3  502    0  0.85448256570E+03  0.23050991702E+03  0.12203716511E+04  0.15075091564E+04  0.12699999809E+01 0. -1.
       -4    1    3    3    0  502 -0.85448256570E+03 -0.23050991702E+03 -0.18518465292E+04  0.20524649711E+04  0.12699999809E+01 0.  1.
</event>
<event>
 5   0  0.1121462E-08  0.3501172E+04  0.7818609E-02  0.8113512E-01
        1   -1    0    0  501    0  0.00000000000E+00  0.00000000000E+00  0.20149437600E+04  0.20149437600E+04  0.50400001928E-02 0. -1.
       -1   -1    0    0    0  501  0.00000000000E+00  0.00000000000E+00 -0.15209114134E+04  0.15209114134E+04  0.50400001928E-02 0.  1.
    10030    2    1    2    0    0  0.00000000000E+00  0.00000000000E+00  0.49403234653E+03  0.35358551734E+04  0.35011717821E+04 0.  0.
        1    1    3    3  502    0 -0.12477736079E+04 -0.11817206864E+04  0.58370776803E+03  0.18149703898E+04  0.50400001928E-02 0. -1.
       -1    1    3    3    0  502  0.12477736079E+04  0.11817206864E+04 -0.89675421494E+02  0.17208847836E+04  0.50400001928E-02 0.  1.
</event>
<event>
 5   0  0.1140808E-08  0.3502823E+04  0.7818609E-02  0.8113121E-01
        1   -1    0    0  501    0  0.00000000000E+00  0.00000000000E+00  0.24640934641E+04  0.24640934641E+04  0.50400001928E-02 0.  1.
       -1   -1    0    0    0  501  0.00000000000E+00  0.00000000000E+00 -0.12448565013E+04  0.12448565013E+04  0.50400001928E-02 0. -1.
    10030    2    1    2    0    0  0.00000000000E+00  0.00000000000E+00  0.12192369628E+04  0.37089499654E+04  0.35028233005E+04 0.  0.
        3    1    3    3  502    0  0.99730688210E+03  0.13520687367E+04  0.11334335787E+04  0.20266678498E+04  0.10100000352E+00 0.  1.
       -3    1    3    3    0  502 -0.99730688210E+03 -0.13520687367E+04  0.85803384040E+02  0.16822821157E+04  0.10100000352E+00 0. -1.
</event>
<event>
 5   0  0.3554451E-08  0.3499823E+04  0.7818609E-02  0.8113832E-01
       -2   -1    0    0    0  501  0.00000000000E+00  0.00000000000E+00  0.15865224831E+04  0.15865224831E+04  0.25500000920E-02 0.  1.
        2   -1    0    0  501    0  0.00000000000E+00  0.00000000000E+00 -0.19301275982E+04  0.19301275982E+04  0.25500000920E-02 0. -1.
    10030    2    1    2    0    0  0.00000000000E+00  0.00000000000E+00 -0.34360511511E+03  0.35166500812E+04  0.34998233268E+04 0.  0.
        5    1    3    3  502    0  0.29136461748E+03 -0.12575646981E+03  0.15573607956E+04  0.15893718154E+04  0.46999998093E+01 0.  1.
       -5    1    3    3    0  502 -0.29136461748E+03  0.12575646981E+03 -0.19009659107E+04  0.19272782658E+04  0.46999998093E+01 0. -1.
</event>
<event>
 5   0  0.3700096E-08  0.3506451E+04  0.7818609E-02  0.8112263E-01
        2   -1    0    0  501    0  0.00000000000E+00  0.00000000000E+00  0.19787823948E+04  0.19787823948E+04  0.25500000920E-02 0. -1.
       -2   -1    0    0    0  501  0.00000000000E+00  0.00000000000E+00 -0.15533791602E+04  0.15533791602E+04  0.25500000920E-02 0.  1.
    10030    2    1    2    0    0  0.00000000000E+00  0.00000000000E+00  0.42540323454E+03  0.35321615550E+04  0.35064508179E+04 0.  0.
        4    1    3    3  502    0  0.30443519692E+03 -0.17124340283E+04  0.43496999069E+03  0.17928501320E+04  0.12699999809E+01 0. -1.
       -4    1    3    3    0  502 -0.30443519692E+03  0.17124340283E+04 -0.95667561555E+01  0.17393114229E+04  0.12699999809E+01 0.  1.
</event>
<event>
 5   0  0.1129219E-08  0.3501756E+04  0.7818609E-02  0.8113374E-01
       -1   -1    0    0    0  501  0.00000000000E+00  0.00000000000E+00  0.16180543712E+04  0.16180543712E+04  0.50400001928E-02 0.  1.
        1   -1    0    0  501    0  0.00000000000E+00  0.00000000000E+00 -0.18946044969E+04  0.18946044969E+04  0.50400001928E-02 0. -1.
    10030    2    1    2    0    0  0.00000000000E+00  0.00000000000E+00 -0.27655012567E+03  0.35126588681E+04  0.35017556099E+04 0.  0.
        5    1    3    3  502    0  0.11369105295E+04  0.43600169799E+03 -0.14003211968E+04  0.18556897847E+04  0.46999998093E+01 0. -1.
       -5    1    3    3    0  502 -0.11369105295E+04 -0.43600169799E+03  0.11237710712E+04  0.16569690834E+04  0.46999998093E+01 0.  1.
</event>
<event>
 5   0  0.3700096E-08  0.3508603E+04  0.7818609E-02  0.8111754E-01
       -2   -1    0    0    0  501  0.00000000000E+00  0.00000000000E+00  0.23482708082E+04  0.23482708082E+04  0.25500000920E-02 0.  1.
        2   -1    0    0  501    0  0.00000000000E+00  0.00000000000E+00 -0.13105701708E+04  0.13105701708E+04  0.25500000920E-02 0. -1.
    10030    2    1    2    0    0  0.00000000000E+00  0.00000000000E+00  0.10377006374E+04  0.36588409791E+04  0.35086029552E+04 0.  0.
        4    1    3    3  502    0 -0.13364169274E+04 -0.11206403976E+04  0.32174092506E+03  0.17735173922E+04  0.12699999809E+01 0. -1.
       -4    1    3    3    0  502  0.13364169274E+04  0.11206403976E+04  0.71595971234E+03  0.18853235869E+04  0.12699999809E+01 0.  1.
</event>
<event>
 5   0  0.1129219E-08  0.3499675E+04  0.7818609E-02  0.8113867E-01
       -1   -1    0    0    0  501  0.00000000000E+00  0.00000000000E+00  0.96223243986E+03  0.96223243987E+03  0.50400001928E-02 0.  1.
        1   -1    0    0  501    0  0.00000000000E+00  0.00000000000E+00 -0.31821123819E+04  0.31821123819E+04  0.50400001928E-02 0. -1.
    10030    2    1    2    0    0  0.00000000000E+00  0.00000000000E+00 -0.22198799421E+04  0.41443448218E+04  0.34996752771E+04 0.  0.
        5    1    3    3  502    0  0.47822548727E+03  0.26215469047E+03  0.85901257866E+03  0.10175212031E+04  0.46999998093E+01 0.  1.
       -5    1    3    3    0  502 -0.47822548727E+03 -0.26215469047E+03 -0.30788925207E+04  0.31268236187E+04  0.46999998093E+01 0. -1.
</event>
<event>
 5   0  0.3553585E-08  0.3499083E+04  0.7818609E-02  0.8114007E-01
       -2   -1    0    0    0  501  0.00000000000E+00  0.00000000000E+00  0.10927992670E+04  0.10927992670E+04  0.25500000920E-02 0.  1.
        2   -1    0    0  501    0  0.00000000000E+00  0.00000000000E+00 -0.28009669517E+04  0.28009669517E+04  0.25500000920E-02 0. -1.
    10030    2    1    2    0    0  0.00000000000E+00  0.00000000000E+00 -0.17081676847E+04  0.38937662187E+04  0.34990825264E+04 0.  0.
        2    1    3    3  502    0 -0.15203291821E+04  0.10938349727E+03  0.10158022279E+03  0.15276400470E+04  0.25500000920E-02 0.  1.
       -2    1    3    3    0  502  0.15203291821E+04 -0.10938349727E+03 -0.18097479075E+04  0.23661261717E+04  0.25500000920E-02 0. -1.
</event>
<event>
 5   0  0.3628017E-08  0.3500352E+04  0.7818609E-02  0.8113706E-01
       -2   -1    0    0    0  501  0.00000000000E+00  0.00000000000E+00  0.14882267286E+04  0.14882267286E+04  0.25500000920E-02 0.  1.
        2   -1    0    0  501    0  0.00000000000E+00  0.00000000000E+00 -0.20582323562E+04  0.20582323562E+04  0.25500000920E-02 0. -1.
    10030    2    1    2    0    0  0.00000000000E+00  0.00000000000E+00 -0.57000562758E+03  0.35464590848E+04  0.35003522144E+04 0.  0.
        1    1    3    3  502    0  0.85609633751E+02  0.25172579689E+03 -0.20376503718E+04  0.20549243110E+04  0.50400001928E-02 0. -1.
       -1    1    3    3    0  502 -0.85609633751E+02 -0.25172579689E+03  0.14676447442E+04  0.14915347738E+04  0.50400001928E-02 0.  1.
</event>
<event>
 5   0  0.1121462E-08  0.3499837E+04  0.7818609E-02  0.8113829E-01
       -1   -1    0    0    0  501  0.00000000000E+00  0.00000000000E+00  0.13035949091E+04  0.13035949091E+04  0.50400001928E-02 0. -1.
        1   -1    0    0  501    0  0.00000000000E+00  0.00000000000E+00 -0.23490540346E+04  0.23490540346E+04  0.50400001928E-02 0.  1.
    10030    2    1    2    0    0  0.00000000000E+00  0.00000000000E+00 -0.10454591255E+04  0.36526489437E+04  0.34998370709E+04 0.  0.
        4    1    3    3  502    0  0.21278621306E+03 -0.75222607496E+03  0.11112245092E+04  0.13586550567E+04  0.12699999809E+01 0. -1.
       -4    1    3    3    0  502 -0.21278621306E+03  0.75222607496E+03 -0.21566836348E+04  0.22939938870E+04  0.12699999809E+01 0.  1.
</event>
<event>
 5   0  0.3628017E-08  0.3499456E+04  0.7818609E-02  0.8113919E-01
       -2   -1    0    0    0  501  0.00000000000E+00  0.00000000000E+00  0.16582106776E+04  0.16582106776E+04  0.25500000920E-02 0. -1.
        2   -1    0    0  501    0  0.00000000000E+00  0.00000000000E+00 -0.18462966752E+04  0.18462966752E+04  0.25500000920E-02 0.  1.
    10030    2    1    2    0    0  0.00000000000E+00  0.00000000000E+00 -0.18808599762E+03  0.35045073528E+04  0.34994564497E+04 0.  0.
        1    1    3    3  502    0 -0.18282922086E+03  0.36479832831E+03  0.16098958530E+04  0.16608037217E+04  0.50400001928E-02 0. -1.
       -1    1    3    3    0  502  0.18282922086E+03 -0.36479832831E+03 -0.17979818506E+04  0.18437036312E+04  0.50400001928E-02 0.  1.
</event>
<event>
 5   0  0.1121462E-08  0.3500241E+04  0.7818609E-02  0.8113733E-01
       -1   -1    0    0    0  501  0.00000000000E+00  0.00000000000E+00  0.11734640706E+04  0.11734640706E+04  0.50400001928E-02 0.  1.
        1   -1    0    0  501    0  0.00000000000E+00  0.00000000000E+00 -0.26101543828E+04  0.26101543828E+04  0.50400001928E-02 0. -1.
    10030    2    1    2    0    0  0.00000000000E+00  0.00000000000E+00 -0.14366903122E+04  0.37836184535E+04  0.35002413557E+04 0.  0.
        2    1    3    3  502    0 -0.98306979224E+03  0.45112536827E+03 -0.22055904170E+04  0.24565360575E+04  0.25500000920E-02 0. -1.
       -2    1    3    3    0  502  0.98306979224E+03 -0.45112536827E+03  0.76890010484E+03  0.13270823959E+04  0.25500000920E-02 0.  1.
</event>
<event>
 5   0  0.3700096E-08  0.3499378E+04  0.7818609E-02  0.8113937E-01
       -2   -1    0    0    0  501  0.00000000000E+00  0.00000000000E+00  0.12256761350E+04  0.12256761350E+04  0.25500000920E-02 0.  1.
        2   -1    0    0  501    0  0.00000000000E+00  0.00000000000E+00 -0.24977335796E+04  0.24977335796E+04  0.25500000920E-02 0. -1.
    10030    2    1    2    0    0  0.00000000000E+00  0.00000000000E+00 -0.12720574446E+04  0.37234097146E+04  0.34993784820E+04 0.  0.
        4    1    3    3  502    0 -0.10002232890E+04  0.14131679823E+04 -0.36701784987E+03  0.17698005789E+04  0.12699999809E+01 0.  1.
       -4    1    3    3    0  502  0.10002232890E+04 -0.14131679823E+04 -0.90503959473E+03  0.19536091357E+04  0.12699999809E+01 0. -1.
</event>
<event>
 5   0  0.3467834E-08  0.3498481E+04  0.7818609E-02  0.8114150E-01
       -2   -1    0    0    0  501  0.00000000000E+00  0.00000000000E+00  0.30604216402E+04  0.30604216402E+04  0.25500000920E-02 0. -1.
        2   -1    0    0  501    0  0.00000000000E+00  0.00000000000E+00 -0.99981069316E+03  0.99981069316E+03  0.25500000920E-02 0.  1.
    10030    2    1    2    0    0  0.00000000000E+00  0.00000000000E+00  0.20606109471E+04  0.40602323334E+04  0.34984809741E+04 0.  0.
        3    1    3    3  502    0  0.15487740227E+04  0.31816466186E+03  0.18987287759E+04  0.24708501978E+04  0.10100000352E+00 0. -1.
       -3    1    3    3    0  502 -0.15487740227E+04 -0.31816466186E+03  0.16188217120E+03  0.15893821356E+04  0.10100000352E+00 0.  1.
</event>
<event>
 5   0  0.1121462E-08  0.3500570E+04  0.7818609E-02  0.8113655E-01
        1   -1    0    0  501    0  0.00000000000E+00  0.00000000000E+00  0.14075070930E+04  0.14075070930E+04  0.50400001928E-02 0. -1.
       -1   -1    0    0    0  501  0.00000000000E+00  0.00000000000E+00 -0.21765411909E+04  0.21765411909E+04  0.50400001928E-02 0.  1.
    10030    2    1    2    0    0  0.00000000000E+00  0.00000000000E+00 -0.76903409793E+03  0.35840482840E+04  0.35005697619E+04 0.  0.
        2    1    3    3  502    0 -0.10070157347E+02  0.19880028425E+03 -0.21649145450E+04  0.21740464458E+04  0.25500000920E-02 0.  1.
       -2    1    3    3    0  502  0.10070157347E+02 -0.19880028425E+03  0.13958804471E+04  0.14100018382E+04  0.25500000920E-02 0. -1.
</event>
<event>
 5   0  0.1121462E-08  0.3500224E+04  0.7818609E-02  0.8113737E-01
        1   -1    0    0  501    0  0.00000000000E+00  0.00000000000E+00  0.21566504210E+04  0.21566504210E+04  0.50400001928E-02 0. -1.
       -1   -1    0    0    0  501  0.00000000000E+00  0.00000000000E+00 -0.14202075403E+04  0.14202075403E+04  0.50400001928E-02 0.  1.
    10030    2    1    2    0    0  0.00000000000E+00  0.00000000000E+00  0.73644288068E+03  0.35768579613E+04  0.35002235299E+04 0.  0.
        4    1    3    3  502    0  0.16519556812E+04  0.28186355759E+02  0.95803899939E+03  0.19098671107E+04  0.12699999809E+01 0.  1.
       -4    1    3    3    0  502 -0.16519556812E+04 -0.28186355759E+02 -0.22159611872E+03  0.16669908506E+04  0.12699999809E+01 0. -1.
</event>
<event>
 5   0  0.1140808E-08  0.3498121E+04  0.7818609E-02  0.8114235E-01
        1   -1    0    0  501    0  0.00000000000E+00  0.00000000000E+00  0.14526706348E+04  0.14526706348E+04  0.50400001928E-02 0. -1.
       -1   -1    0    0    0  501  0.00000000000E+00  0.00000000000E+00 -0.21059236654E+04  0.21059236654E+04  0.50400001928E-02 0.  1.
    10030    2    1    2    0    0  0.00000000000E+00  0.00000000000E+00 -0.65325303057E+03  0.35585943002E+04  0.34981214775E+04 0.  0.
        3    1    3    3  502    0  0.11577267356E+04 -0.78235048495E+03 -0.13968639201E+04  0.19757611944E+04  0.10100000352E+00 0.  1.
       -3    1    3    3    0  502 -0.11577267356E+04  0.78235048495E+03  0.74361088952E+03  0.15828331058E+04  0.10100000352E+00 0. -1.
</event>
<event>
 5   0  0.1140808E-08  0.3500363E+04  0.7818609E-02  0.8113704E-01
       -1   -1    0    0    0  501  0.00000000000E+00  0.00000000000E+00  0.19079467119E+04  0.19079467119E+04  0.50400001928E-02 0.  1.
        1   -1    0    0  501    0  0.00000000000E+00  0.00000000000E+00 -0.16054617481E+04  0.16054617481E+04  0.50400001928E-02 0. -1.
    10030    2    1    2    0    0  0.00000000000E+00  0.00000000000E+00  0.30248496378E+03  0.35134084600E+04  0.35003631031E+04 0.  0.
        3    1    3    3  502    0 -0.16949333117E+04  0.24486459296E+03 -0.21118194275E+03  0.17255014991E+04  0.10100000352E+00 0. -1.
       -3    1    3    3    0  502  0.16949333117E+04 -0.24486459296E+03  0.51366690653E+03  0.17879069610E+04  0.10100000352E+00 0.  1.
</event>
<event>
 5   0  0.3467834E-08  0.3500970E+04  0.7818609E-02  0.8113560E-01
        2   -1    0    0  501    0  0.00000000000E+00  0.00000000000E+00  0.22611666060E+04  0.22611666060E+04  0.25500000920E-02 0. -1.
       -2   -1    0    0    0  501  0.00000000000E+00  0.00000000000E+00 -0.13551398910E+04  0.13551398910E+04  0.25500000920E-02 0.  1.
    10030    2    1    2    0    0  0.00000000000E+00  0.00000000000E+00  0.90602671504E+03  0.36163064970E+04  0.35009696189E+04 0.  0.
        3    1    3    3  502    0 -0.27335109744E+03  0.38423851139E+03 -0.12882981574E+04  0.13718863687E+04  0.10100000352E+00 0.  1.
       -3    1    3    3    0  502  0.27335109744E+03 -0.38423851139E+03  0.21943248725E+04  0.22444201283E+04  0.10100000352E+00 0. -1.
</event>
<event>
 5   0  0.3554451E-08  0.3500998E+04  0.7818609E-02  0.8113553E-01
        2   -1    0    0  501    0  0.00000000000E+00  0.00000000000E+00  0.20945771624E+04  0.20945771624E+04  0.25500000920E-02 0. -1.
       -2   -1    0    0    0  501  0.00000000000E+00  0.00000000000E+00 -0.14629429497E+04  0.14629429497E+04  0.25500000920E-02 0.  1.
    10030    2    1    2    0    0  0.00000000000E+00  0.00000000000E+00  0.63163421265E+03  0.35575201121E+04  0.35009980819E+04 0.  0.
        5    1    3    3  502    0 -0.11809193434E+04  0.12861485368E+04  0.18940509717E+03  0.17563157276E+04  0.46999998093E+01 0.  1.
       -5    1    3    3    0  502  0.11809193434E+04 -0.12861485368E+04  0.44222911548E+03  0.18012043845E+04  0.46999998093E+01 0. -1.
</event>
<event>
 5   0  0.3553585E-08  0.3500855E+04  0.7818609E-02  0.8113587E-01
        2   -1    0    0  501    0  0.00000000000E+00  0.00000000000E+00  0.25651582033E+04  0.25651582033E+04  0.25500000920E-02 0.  1.
       -2   -1    0    0    0  501  0.00000000000E+00  0.00000000000E+00 -0.11944665541E+04  0.11944665541E+04  0.25500000920E-02 0. -1.
    10030    2    1    2    0    0  0.00000000000E+00  0.00000000000E+00  0.13706916492E+04  0.37596247574E+04  0.35008545699E+04 0.  0.
        2    1    3    3  502    0  0.14371684985E+04 -0.14392426478E+03  0.17472900513E+04  0.22669781672E+04  0.25500000920E-02 0.  1.
       -2    1    3    3    0  502 -0.14371684985E+04  0.14392426478E+03 -0.37659840208E+03  0.14926465903E+04  0.25500000920E-02 0. -1.
</event>
<event>
 5   0  0.1140808E-08  0.3504819E+04  0.7818609E-02  0.8112649E-01
        1   -1    0    0  501    0  0.00000000000E+00  0.00000000000E+00  0.18833670535E+04  0.18833670535E+04  0.50400001928E-02 0.  1.
       -1   -1    0    0    0  501  0.00000000000E+00  0.00000000000E+00 -0.16305578348E+04  0.16305578348E+04  0.50400001928E-02 0. -1.
    10030    2    1    2    0    0  0.00000000000E+00  0.00000000000E+00  0.25280921871E+03  0.35139248882E+04  0.35048189139E+04 0.  0.
        3    1    3    3  502    0  0.42851339199E+03 -0.16708022060E+04 -0.18381026245E+03  0.17346440447E+04  0.10100000352E+00 0. -1.
       -3    1    3    3    0  502 -0.42851339199E+03  0.16708022060E+04  0.43661948116E+03  0.17792808436E+04  0.10100000352E+00 0.  1.
</event>
<event>
 5   0  0.3553585E-08  0.3472529E+04  0.7818609E-02  0.8120331E-01
        2   -1    0    0  501    0  0.00000000000E+00  0.00000000000E+00  0.20868392065E+04  0.20868392065E+04  0.25500000920E-02 0.  1.
       -2   -1    0    0    0  501  0.00000000000E+00  0.00000000000E+00 -0.14445835549E+04  0.14445835549E+04  0.25500000920E-02 0. -1.
    10030    2    1    2    0    0  0.00000000000E+00  0.00000000000E+00  0.64225565163E+03  0.35314227614E+04  0.34725285309E+04 0.  0.
        2    1    3    3  502    0  0.69182305185E-01 -0.31969539945E+03 -0.14143938020E+04  0.14500741293E+04  0.25500000920E-02 0. -1.
       -2    1    3    3    0  502 -0.69182305185E-01  0.31969539945E+03  0.20566494537E+04  0.20813486321E+04  0.25500000920E-02 0.  1.
</event>
<event>
 5   0  0.1121462E-08  0.3499850E+04  0.7818609E-02  0.8113825E-01
        1   -1    0    0  501    0  0.00000000000E+00  0.00000000000E+00  0.22837809028E+04  0.22837809028E+04  0.50400001928E-02 0. -1.
       -1   -1    0    0    0  501  0.00000000000E+00  0.00000000000E+00 -0.13408633589E+04  0.13408633589E+04  0.50400001928E-02 0.  1.
    10030    2    1    2    0    0  0.00000000000E+00  0.00000000000E+00  0.94291754394E+03  0.36246442617E+04  0.34998503581E+04 0.  0.
        1    1    3    3  502    0 -0.20126630115E+03 -0.12005058657E+04  0.17734717626E+04  0.21510287191E+04  0.50400001928E-02 0. -1.
       -1    1    3    3    0  502  0.20126630115E+03  0.12005058657E+04 -0.83055421865E+03  0.14736155427E+04  0.50400001928E-02 0.  1.
</event>
<event>
 5   0  0.1129219E-08  0.3500593E+04  0.7818609E-02  0.8113649E-01
        1   -1    0    0  501    0  0.00000000000E+00  0.00000000000E+00  0.22142467102E+04  0.22142467102E+04  0.50400001928E-02 0.  1.
       -1   -1    0    0    0  501  0.00000000000E+00  0.00000000000E+00 -0.13835577187E+04  0.13835577187E+04  0.50400001928E-02 0. -1.
    10030    2    1    2    0    0  0.00000000000E+00  0.00000000000E+00  0.83068899154E+03  0.35978044289E+04  0.35005931652E+04 0.  0.
        5    1    3    3  502    0 -0.48542331616E+03 -0.19208386326E+03  0.21323614652E+04  0.21953404098E+04  0.46999998093E+01 0.  1.
       -5    1    3    3    0  502  0.48542331616E+03  0.19208386326E+03 -0.13016724737E+04  0.14024640192E+04  0.46999998093E+01 0. -1.
</event>
<event>
 5   0  0.3700096E-08  0.3500178E+04  0.7818609E-02  0.8113748E-01
       -2   -1    0    0    0  501  0.00000000000E+00  0.00000000000E+00  0.14754517594E+04  0.14754517594E+04  0.25500000920E-02 0.  1.
        2   -1    0    0  501    0  0.00000000000E+00  0.00000000000E+00 -0.20758461019E+04  0.20758461019E+04  0.25500000920E-02 0. -1.
    10030    2    1    2    0    0  0.00000000000E+00  0.00000000000E+00 -0.60039434252E+03  0.35512978613E+04  0.35001775860E+04 0.  0.
        4    1    3    3  502    0  0.86462846632E+03 -0.96139306281E+02  0.12405279619E+04  0.15151687656E+04  0.12699999809E+01 0.  1.
       -4    1    3    3    0  502 -0.86462846632E+03  0.96139306281E+02 -0.18409223044E+04  0.20361290958E+04  0.12699999809E+01 0. -1.
</event>
<event>
 5   0  0.1140808E-08  0.3500267E+04  0.7818609E-02  0.8113727E-01
        1   -1    0    0  501    0  0.00000000000E+00  0.00000000000E+00  0.10676134484E+04  0.10676134484E+04  0.50400001928E-02 0.  1.
       -1   -1    0    0    0  501  0.00000000000E+00  0.00000000000E+00 -0.28689846073E+04  0.28689846073E+04  0.50400001928E-02 0. -1.
    10030    2    1    2    0    0  0.00000000000E+00  0.00000000000E+00 -0.18013711589E+04  0.39365980558E+04  0.35002665899E+04 0.  0.
        3    1    3    3  502    0  0.93814616795E+03 -0.82559947446E+03  0.47729824670E+03  0.13377392688E+04  0.10100000352E+00 0.  1.
       -3    1    3    3    0  502 -0.93814616795E+03  0.82559947446E+03 -0.22786694056E+04  0.25988587870E+04  0.10100000352E+00 0. -1.
</event>
<event>
 5   0  0.1121462E-08  0.3498566E+04  0.7818609E-02  0.8114130E-01
        1   -1    0    0  501    0  0.00000000000E+00  0.00000000000E+00  0.26635850216E+04  0.26635850216E+04  0.50400001928E-02 0.  1.
       -1   -1    0    0    0  501  0.00000000000E+00  0.00000000000E+00 -0.11488242342E+04  0.11488242342E+04  0.50400001928E-02 0. -1.
    10030    2    1    2    0    0  0.00000000000E+00  0.00000000000E+00  0.15147607873E+04  0.38124092558E+04  0.34985660049E+04 0.  0.
        1    1    3    3  502    0 -0.33838109711E+03 -0.11034113856E+04  0.21898250957E+04  0.24753489456E+04  0.50400001928E-02 0.  1.
       -1    1    3    3    0  502  0.33838109711E+03  0.11034113856E+04 -0.67506430833E+03  0.13370603102E+04  0.50400001928E-02 0. -1.
</event>
<event>
 5   0  0.1121462E-08  0.3500922E+04  0.7818609E-02  0.8113572E-01
        1   -1    0    0  501    0  0.00000000000E+00  0.00000000000E+00  0.22525130473E+04  0.22525130473E+04  0.50400001928E-02 0.  1.
       -1   -1    0    0    0  501  0.00000000000E+00  0.00000000000E+00 -0.13603086884E+04  0.13603086884E+04  0.50400001928E-02 0. -1.
    10030    2    1    2    0    0  0.00000000000E+00  0.00000000000E+00  0.89220435895E+03  0.36128217357E+04  0.35009216323E+04 0.  0.
        2    1    3    3  502    0  0.17403782031E+04 -0.98212492374E+02  0.61105844707E+03  0.18471476414E+04  0.25500000920E-02 0. -1.
       -2    1    3    3    0  502 -0.17403782031E+04  0.98212492374E+02  0.28114591188E+03  0.17656740943E+04  0.25500000920E-02 0.  1.
</event>
<event>
 5   0  0.1121462E-08  0.3504482E+04  0.7818609E-02  0.8112729E-01
        1   -1    0    0  501    0  0.00000000000E+00  0.00000000000E+00  0.15566440616E+04  0.15566440616E+04  0.50400001928E-02 0.  1.
       -1   -1    0    0    0  501  0.00000000000E+00  0.00000000000E+00 -0.19724155465E+04  0.19724155465E+04  0.50400001928E-02 0. -1.
    10030    2    1    2    0    0  0.00000000000E+00  0.00000000000E+00 -0.41577148490E+03  0.35290596082E+04  0.35044822428E+04 0.  0.
        4    1    3    3  502    0  0.19359181829E+03  0.22463751384E+03  0.15311905062E+04  0.15596428386E+04  0.12699999809E+01 0.  1.
       -4    1    3    3    0  502 -0.19359181829E+03 -0.22463751384E+03 -0.19469619911E+04  0.19694167696E+04  0.12699999809E+01 0. -1.
</event>
<event>
 5   0  0.1121462E-08  0.3501764E+04  0.7818609E-02  0.8113372E-01
       -3   -1    0    0    0  501  0.00000000000E+00  0.00000000000E+00  0.21281737417E+04  0.21281737441E+04  0.10100000352E+00 0. -1.
        3   -1    0    0  501    0  0.00000000000E+00  0.00000000000E+00 -0.14404781324E+04  0.14404781359E+04  0.10100000352E+00 0.  1.
    10030    2    1    2    0    0  0.00000000000E+00  0.00000000000E+00  0.68769560934E+03  0.35686518800E+04  0.35017639826E+04 0.  0.
        1    1    3    3  502    0 -0.78278605680E+03 -0.22067478296E+03 -0.12362969115E+04  0.14798247950E+04  0.50400001928E-02 0.  1.
       -1    1    3    3    0  502  0.78278605680E+03  0.22067478296E+03  0.19239925209E+04  0.20888270850E+04  0.50400001928E-02 0. -1.
</event>
<event>
 5   0  0.3628017E-08  0.3499586E+04  0.7818609E-02  0.8113888E-01
        2   -1    0    0  501    0  0.00000000000E+00  0.00000000000E+00  0.11296682194E+04  0.11296682194E+04  0.25500000920E-02 0.  1.
       -2   -1    0    0    0  501  0.00000000000E+00  0.00000000000E+00 -0.27103311372E+04  0.27103311372E+04  0.25500000920E-02 0. -1.
    10030    2    1    2    0    0  0.00000000000E+00  0.00000000000E+00 -0.15806629178E+04  0.38399993566E+04  0.34995856610E+04 0.  0.
        1    1    3    3  502    0  0.49943791818E+03  0.69871351223E+03 -0.24631364110E+04  0.26085781157E+04  0.50400001928E-02 0. -1.
       -1    1    3    3    0  502 -0.49943791818E+03 -0.69871351223E+03  0.88247349323E+03  0.12314212409E+04  0.50400001928E-02 0.  1.
</event>
<event>
 5   0  0.1121462E-08  0.3502697E+04  0.7818609E-02  0.8113151E-01
        1   -1    0    0  501    0  0.00000000000E+00  0.00000000000E+00  0.19209350089E+04  0.19209350089E+04  0.50400001928E-02 0. -1.
       -1   -1    0    0    0  501  0.00000000000E+00  0.00000000000E+00 -0.15967338528E+04  0.15967338528E+04  0.50400001928E-02 0.  1.
    10030    2    1    2    0    0  0.00000000000E+00  0.00000000000E+00  0.32420115607E+03  0.35176688618E+04  0.35026972223E+04 0.  0.
        2    1    3    3  502    0 -0.18675788550E+03 -0.17291702587E+04  0.36868267675E+03  0.17778737884E+04  0.25500000920E-02 0. -1.
       -2    1    3    3    0  502  0.18675788550E+03  0.17291702587E+04 -0.44481520688E+02  0.17397950733E+04  0.25500000920E-02 0.  1.
</event>
<event>
 5   0  0.3467834E-08  0.3499879E+04  0.7818609E-02  0.8113819E-01
       -2   -1    0    0    0  501  0.00000000000E+00  0.00000000000E+00  0.15439959713E+04  0.15439959713E+04  0.25500000920E-02 0.  1.
        2   -1    0    0  501    0  0.00000000000E+00  0.00000000000E+00 -0.19833527991E+04  0.19833527991E+04  0.25500000920E-02 0. -1.
    10030    2    1    2    0    0  0.00000000000E+00  0.00000000000E+00 -0.43935682772E+03  0.35273487704E+04  0.34998792731E+04 0.  0.
        3    1    3    3  502    0  0.83413407845E+03 -0.10638417302E+03  0.13270300036E+04  0.15710206535E+04  0.10100000352E+00 0.  1.
       -3    1    3    3    0  502 -0.83413407845E+03  0.10638417302E+03 -0.17663868313E+04  0.19563281169E+04  0.10100000352E+00 0. -1.
</event>
<event>
 5   0  0.1121462E-08  0.3501887E+04  0.7818609E-02  0.8113343E-01
        1   -1    0    0  501    0  0.00000000000E+00  0.00000000000E+00  0.15823196221E+04  0.15823196221E+04  0.50400001928E-02 0.  1.
       -1   -1    0    0    0  501  0.00000000000E+00  0.00000000000E+00 -0.19375372654E+04  0.19375372654E+04  0.50400001928E-02 0. -1.
    10030    2    1    2    0    0  0.00000000000E+00  0.00000000000E+00 -0.35521764333E+03  0.35198568875E+04  0.35018870534E+04 0.  0.
        4    1    3    3  502    0  0.12453438614E+03  0.44317908590E+03  0.15204045808E+04  0.15885679770E+04  0.12699999809E+01 0.  1.
       -4    1    3    3    0  502 -0.12453438614E+03 -0.44317908590E+03 -0.18756222241E+04  0.19312889105E+04  0.12699999809E+01 0. -1.
</event>
<event>
 5   0  0.3628017E-08  0.3498057E+04  0.7818609E-02  0.8114251E-01
        2   -1    0    0  501    0  0.00000000000E+00  0.00000000000E+00  0.17999951420E+04  0.17999951420E+04  0.25500000920E-02 0.  1.
       -2   -1    0    0    0  501  0.00000000000E+00  0.00000000000E+00 -0.16995049871E+04  0.16995049871E+04  0.25500000920E-02 0. -1.
    10030    2    1    2    0    0  0.00000000000E+00  0.00000000000E+00  0.10049015490E+03  0.34995001290E+04  0.34980570152E+04 0.  0.
        1    1    3    3  502    0  0.51941195094E+03  0.16564474942E+04  0.26362546266E+03  0.17558774048E+04  0.50400001928E-02 0.  1.
       -1    1    3    3    0  502 -0.51941195094E+03 -0.16564474942E+04 -0.16313530777E+03  0.17436227243E+04  0.50400001928E-02 0. -1.
</event>
<event>
 5   0  0.1140808E-08  0.3500582E+04  0.7818609E-02  0.8113652E-01
       -1   -1    0    0    0  501  0.00000000000E+00  0.00000000000E+00  0.10479037161E+04  0.10479037161E+04  0.50400001928E-02 0. -1.
        1   -1    0    0  501    0  0.00000000000E+00  0.00000000000E+00 -0.29234740238E+04  0.29234740238E+04  0.50400001928E-02 0.  1.
    10030    2    1    2    0    0  0.00000000000E+00  0.00000000000E+00 -0.18755703077E+04  0.39713777399E+04  0.35005824050E+04 0.  0.
        3    1    3    3  502    0  0.29254928455E+03 -0.14507832988E+04 -0.19978887552E+04  0.24863460645E+04  0.10100000352E+00 0.  1.
       -3    1    3    3    0  502 -0.29254928455E+03  0.14507832988E+04  0.12231844756E+03  0.14850316754E+04  0.10100000352E+00 0. -1.
</event>
<event>
 5   0  0.3700096E-08  0.3489497E+04  0.7818609E-02  0.8116283E-01
       -2   -1    0    0    0  501  0.00000000000E+00  0.00000000000E+00  0.15750765508E+04  0.15750765508E+04  0.25500000920E-02 0. -1.
        2   -1    0    0  501    0  0.00000000000E+00  0.00000000000E+00 -0.19326981965E+04  0.19326981965E+04  0.25500000920E-02 0.  1.
    10030    2    1    2    0    0  0.00000000000E+00  0.00000000000E+00 -0.35762164566E+03  0.35077747473E+04  0.34894971610E+04 0.  0.
        4    1    3    3  502    0  0.17196927725E+04 -0.24316103079E+03 -0.34604167768E+03  0.17709367505E+04  0.12699999809E+01 0.  1.
       -4    1    3    3    0  502 -0.17196927725E+04  0.24316103079E+03 -0.11579967979E+02  0.17368379968E+04  0.12699999809E+01 0. -1.
</event>
<event>
 5   0  0.3700096E-08  0.3499859E+04  0.7818609E-02  0.8113823E-01
        2   -1    0    0  501    0  0.00000000000E+00  0.00000000000E+00  0.22876662576E+04  0.22876662576E+04  0.25500000920E-02 0. -1.
       -2   -1    0    0    0  501  0.00000000000E+00  0.00000000000E+00 -0.13385928318E+04  0.13385928318E+04  0.25500000920E-02 0.  1.
    10030    2    1    2    0    0  0.00000000000E+00  0.00000000000E+00  0.94907342576E+03  0.36262590894E+04  0.34998592280E+04 0.  0.
        4    1    3    3  502    0  0.90111449260E+03 -0.14926119202E+04  0.62945027888E+03  0.18536739032E+04  0.12699999809E+01 0.  1.
       -4    1    3    3    0  502 -0.90111449260E+03  0.14926119202E+04  0.31962314688E+03  0.17725851861E+04  0.12699999809E+01 0. -1.
</event>
<event>
 5   0  0.3554451E-08  0.3499456E+04  0.7818609E-02  0.8113919E-01
        2   -1    0    0  501    0  0.00000000000E+00  0.00000000000E+00  0.13190570025E+04  0.13190570025E+04  0.25500000920E-02 0. -1.
       -2   -1    0    0    0  501  0.00000000000E+00  0.00000000000E+00 -0.23210121221E+04  0.23210121221E+04  0.25500000920E-02 0.  1.
    10030    2    1    2    0    0  0.00000000000E+00  0.00000000000E+00 -0.10019551196E+04  0.36400691246E+04  0.34994555534E+04 0.  0.
        5    1    3    3  502    0 -0.81515933482E+03  0.14391918680E+04 -0.10946718137E+04  0.19834531614E+04  0.46999998093E+01 0. -1.
       -5    1    3    3    0  502  0.81515933482E+03 -0.14391918680E+04  0.92716694024E+02  0.16566159631E+04  0.46999998093E+01 0.  1.
</event>
<event>
 5   0  0.3553585E-08  0.3501929E+04  0.7818609E-02  0.8113333E-01
       -2   -1    0    0    0  501  0.00000000000E+00  0.00000000000E+00  0.24349499410E+04  0.24349499410E+04  0.25500000920E-02 0. -1.
        2   -1    0    0  501    0  0.00000000000E+00  0.00000000000E+00 -0.12591125404E+04  0.12591125404E+04  0.25500000920E-02 0.  1.
    10030    2    1    2    0    0  0.00000000000E+00  0.00000000000E+00  0.11758374006E+04  0.36940624814E+04  0.35019286149E+04 0.  0.
        2    1    3    3  502    0 -0.15500398574E+04 -0.44668881669E+03 -0.13041391587E+03  0.16183826024E+04  0.25500000920E-02 0.  1.
       -2    1    3    3    0  502  0.15500398574E+04  0.44668881669E+03  0.13062513165E+04  0.20756798790E+04  0.25500000920E-02 0. -1.
</event>
<event>
 5   0  0.3467834E-08  0.3499604E+04  0.7818609E-02  0.8113884E-01
        2   -1    0    0  501    0  0.00000000000E+00  0.00000000000E+00  0.28332246738E+04  0.28332246738E+04  0.25500000920E-02 0. -1.
       -2   -1    0    0    0  501  0.00000000000E+00  0.00000000000E+00 -0.10806790758E+04  0.10806790758E+04  0.25500000920E-02 0.  1.
    10030    2    1    2    0    0  0.00000000000E+00  0.00000000000E+00  0.17525455980E+04  0.39139037496E+04  0.34996037616E+04 0.  0.
        3    1    3    3  502    0 -0.13796076836E+04  0.10740631820E+04  0.95438004772E+03  0.19919262952E+04  0.10100000352E+00 0. -1.
       -3    1    3    3    0  502  0.13796076836E+04 -0.10740631820E+04  0.79816555032E+03  0.19219774545E+04  0.10100000352E+00 0.  1.
</event>
<event>
 5   0  0.3467834E-08  0.3500153E+04  0.7818609E-02  0.8113754E-01
       -2   -1    0    0    0  501  0.00000000000E+00  0.00000000000E+00  0.13151396092E+04  0.13151396092E+04  0.25500000920E-02 0.  1.
        2   -1    0    0  501    0  0.00000000000E+00  0.00000000000E+00 -0.23288533859E+04  0.23288533859E+04  0.25500000920E-02 0. -1.
    10030    2    1    2    0    0  0.00000000000E+00  0.00000000000E+00 -0.10137137767E+04  0.36439929951E+04  0.35001527577E+04 0.  0.
        3    1    3    3  502    0 -0.74628067517E+03  0.11293395712E+04  0.64797306253E+03  0.15007370899E+04  0.10100000352E+00 0.  1.
       -3    1    3    3    0  502  0.74628067517E+03 -0.11293395712E+04 -0.16616868392E+04  0.21432559052E+04  0.10100000352E+00 0. -1.
</event>
<event>
 5   0  0.3553585E-08  0.3504630E+04  0.7818609E-02  0.8112694E-01
        2   -1    0    0  501    0  0.00000000000E+00  0.00000000000E+00  0.24212282552E+04  0.24212282552E+04  0.25500000920E-02 0. -1.
       -2   -1    0    0    0  501  0.00000000000E+00  0.00000000000E+00 -0.12682026312E+04  0.12682026312E+04  0.25500000920E-02 0.  1.
    10030    2    1    2    0    0  0.00000000000E+00  0.00000000000E+00  0.11530256240E+04  0.36894308865E+04  0.35046301055E+04 0.  0.
        2    1    3    3  502    0  0.45640042580E+03  0.98627229342E+03 -0.87058905857E+03  0.13924653297E+04  0.25500000920E-02 0.  1.
       -2    1    3    3    0  502 -0.45640042580E+03 -0.98627229342E+03  0.20236146826E+04  0.22969655568E+04  0.25500000920E-02 0. -1.
</event>
<event>
 5   0  0.1121462E-08  0.3490096E+04  0.7818609E-02  0.8116141E-01
       -1   -1    0    0    0  501  0.00000000000E+00  0.00000000000E+00  0.11704843446E+04  0.11704843446E+04  0.50400001928E-02 0.  1.
        1   -1    0    0  501    0  0.00000000000E+00  0.00000000000E+00 -0.26016513492E+04  0.26016513492E+04  0.50400001928E-02 0. -1.
    10030    2    1    2    0    0  0.00000000000E+00  0.00000000000E+00 -0.14311670046E+04  0.37721356938E+04  0.34900958006E+04 0.  0.
        2    1    3    3  502    0 -0.24220546828E+03 -0.17224206926E+04 -0.56351657624E+03  0.18283729004E+04  0.25500000920E-02 0.  1.
       -2    1    3    3    0  502  0.24220546828E+03  0.17224206926E+04 -0.86765042841E+03  0.19437627934E+04  0.25500000920E-02 0. -1.
</event>
<event>
 5   0  0.3467834E-08  0.3500717E+04  0.7818609E-02  0.8113620E-01
       -2   -1    0    0    0  501  0.00000000000E+00  0.00000000000E+00  0.12408645837E+04  0.12408645837E+04  0.25500000920E-02 0.  1.
        2   -1    0    0  501    0  0.00000000000E+00  0.00000000000E+00 -0.24690482920E+04  0.24690482920E+04  0.25500000920E-02 0. -1.
    10030    2    1    2    0    0  0.00000000000E+00  0.00000000000E+00 -0.12281837083E+04  0.37099128757E+04  0.35007168300E+04 0.  0.
        3    1    3    3  502    0 -0.10814195218E+04 -0.16700426216E+03 -0.20618920187E+04  0.23342573364E+04  0.10100000352E+00 0.  1.
       -3    1    3    3    0  502  0.10814195218E+04  0.16700426216E+03  0.83370831039E+03  0.13756555392E+04  0.10100000352E+00 0. -1.
</event>
<event>
 5   0  0.1121462E-08  0.3499197E+04  0.7818609E-02  0.8113980E-01
       -1   -1    0    0    0  501  0.00000000000E+00  0.00000000000E+00  0.19960770493E+04  0.19960770493E+04  0.50400001928E-02 0.  1.
        1   -1    0    0  501    0  0.00000000000E+00  0.00000000000E+00 -0.15335557221E+04  0.15335557221E+04  0.50400001928E-02 0. -1.
    10030    2    1    2    0    0  0.00000000000E+00  0.00000000000E+00  0.46252132712E+03  0.35296327714E+04  0.34991972684E+04 0.  0.
        1    1    3    3  502    0  0.93512770284E+03 -0.94441843108E+03 -0.91648741376E+03  0.16144160471E+04  0.50400001928E-02 0. -1.
       -1    1    3    3    0  502 -0.93512770284E+03  0.94441843108E+03  0.13790087409E+04  0.19152167243E+04  0.50400001928E-02 0.  1.
</event>
<event>
 5   0  0.3628017E-08  0.3500853E+04  0.7818609E-02  0.8113588E-01
       -2   -1    0    0    0  501  0.00000000000E+00  0.00000000000E+00  0.19644894451E+04  0.19644894451E+04  0.25500000920E-02 0.  1.
        2   -1    0    0  501    0  0.00000000000E+00  0.00000000000E+00 -0.15596895006E+04  0.15596895006E+04  0.25500000920E-02 0. -1.
    10030    2    1    2    0    0  0.00000000000E+00  0.00000000000E+00  0.40479994446E+03  0.35241789457E+04  0.35008533597E+04 0.  0.
        1    1    3    3  502    0  0.83920100506E+03  0.21661874563E+03 -0.13285258787E+04  0.15862417906E+04  0.50400001928E-02 0. -1.
       -1    1    3    3    0  502 -0.83920100506E+03 -0.21661874563E+03  0.17333258231E+04  0.19379371551E+04  0.50400001928E-02 0.  1.
</event>
<event>
 5   0  0.3553585E-08  0.3500386E+04  0.7818609E-02  0.8113699E-01
        2   -1    0    0  501    0  0.00000000000E+00  0.00000000000E+00  0.16885228704E+04  0.16885228704E+04  0.25500000920E-02 0. -1.
       -2   -1    0    0    0  501  0.00000000000E+00  0.00000000000E+00 -0.18141151752E+04  0.18141151752E+04  0.25500000920E-02 0.  1.
    10030    2    1    2    0    0  0.00000000000E+00  0.00000000000E+00 -0.12559230482E+03  0.35026380457E+04  0.35003856719E+04 0.  0.
        2    1    3    3  502    0 -0.33144761452E+03  0.11311016657E+04  0.12318394647E+04  0.17048979342E+04  0.25500000920E-02 0. -1.
       -2    1    3    3    0  502  0.33144761452E+03 -0.11311016657E+04 -0.13574317696E+04  0.17977401114E+04  0.25500000920E-02 0.  1.
</event>
<event>
 5   0  0.1121462E-08  0.3523668E+04  0.7818609E-02  0.8108204E-01
        1   -1    0    0  501    0  0.00000000000E+00  0.00000000000E+00  0.15185347315E+04  0.15185347315E+04  0.50400001928E-02 0.  1.
       -1   -1    0    0    0  501  0.00000000000E+00  0.00000000000E+00 -0.20441141614E+04  0.20441141614E+04  0.50400001928E-02 0. -1.
    10030    2    1    2    0    0  0.00000000000E+00  0.00000000000E+00 -0.52557942983E+03  0.35626488929E+04  0.35236676059E+04 0.  0.
        2    1    3    3  502    0  0.65470964152E+03 -0.11481662789E+04  0.91505616796E+03  0.16075628477E+04  0.25500000920E-02 0.  1.
       -2    1    3    3    0  502 -0.65470964152E+03  0.11481662789E+04 -0.14406355978E+04  0.19550860452E+04  0.25500000920E-02 0. -1.
</event>
<event>
 5   0  0.3554451E-08  0.3500679E+04  0.7818609E-02  0.8113629E-01
        2   -1    0    0  501    0  0.00000000000E+00  0.00000000000E+00  0.26440991470E+04  0.26440991470E+04  0.25500000920E-02 0. -1.
       -2   -1    0    0    0  501  0.00000000000E+00  0.00000000000E+00 -0.11586886378E+04  0.11586886378E+04  0.25500000920E-02 0.  1.
    10030    2    1    2    0    0  0.00000000000E+00  0.00000000000E+00  0.14854105092E+04  0.38027877849E+04  0.35006785850E+04 0.  0.
        5    1    3    3  502    0 -0.10372840343E+03 -0.76641714788E+03  0.24484078105E+04  0.25676599702E+04  0.46999998093E+01 0. -1.
       -5    1    3    3    0  502  0.10372840343E+03  0.76641714788E+03 -0.96299730126E+03  0.12351278146E+04  0.46999998093E+01 0.  1.
</event>
<event>
 5   0  0.1140808E-08  0.3502625E+04  0.7818609E-02  0.8113168E-01
        1   -1    0    0  501    0  0.00000000000E+00  0.00000000000E+00  0.10408733859E+04  0.10408733859E+04  0.50400001928E-02 0. -1.
       -1   -1    0    0    0  501  0.00000000000E+00  0.00000000000E+00 -0.29466557580E+04  0.29466557580E+04  0.50400001928E-02 0.  1.
    10030    2    1    2    0    0  0.00000000000E+00  0.00000000000E+00 -0.19057823721E+04  0.39875291439E+04  0.35026250476E+04 0.  0.
        3    1    3    3  502    0  0.47908291503E+03 -0.86288591026E+02  0.96230543370E+03  0.10784238120E+04  0.10100000352E+00 0. -1.
       -3    1    3    3    0  502 -0.47908291503E+03  0.86288591026E+02 -0.28680878058E+04  0.29091053319E+04  0.10100000352E+00 0.  1.
</event>
<event>
 5   0  0.1140808E-08  0.3499335E+04  0.7818609E-02  0.8113947E-01
       -1   -1    0    0    0  501  0.00000000000E+00  0.00000000000E+00  0.15395708430E+04  0.15395708430E+04  0.50400001928E-02 0.  1.
        1   -1    0    0  501    0  0.00000000000E+00  0.00000000000E+00 -0.19884353733E+04  0.19884353733E+04  0.50400001928E-02 0. -1.
    10030    2    1    2    0    0  0.00000000000E+00  0.00000000000E+00 -0.44886453032E+03  0.35280062164E+04  0.34993354364E+04 0.  0.
        3    1    3    3  502    0  0.12842024829E+02 -0.76208679275E+03  0.13633987136E+04  0.15619850383E+04  0.10100000352E+00 0.  1.
       -3    1    3    3    0  502 -0.12842024829E+02  0.76208679275E+03 -0.18122632439E+04  0.19660211781E+04  0.10100000352E+00 0. -1.
</event>
<event>
 5   0  0.1121462E-08  0.3498435E+04  0.7818609E-02  0.8114161E-01
       -1   -1    0    0    0  501  0.00000000000E+00  0.00000000000E+00  0.19937435411E+04  0.19937435411E+04  0.50400001928E-02 0.  1.
        1   -1    0    0  501    0  0.00000000000E+00  0.00000000000E+00 -0.15346819567E+04  0.15346819567E+04  0.50400001928E-02 0. -1.
    10030    2    1    2    0    0  0.00000000000E+00  0.00000000000E+00  0.45906158444E+03  0.35284254979E+04  0.34984352153E+04 0.  0.
        4    1    3    3  502    0  0.20526812915E+02 -0.58314328264E+03 -0.14336303691E+04  0.15478291528E+04  0.12699999809E+01 0. -1.
       -4    1    3    3    0  502 -0.20526812915E+02  0.58314328264E+03  0.18926919535E+04  0.19805963451E+04  0.12699999809E+01 0.  1.
</event>
<event>
 5   0  0.3700096E-08  0.3500016E+04  0.7818609E-02  0.8113786E-01
       -2   -1    0    0    0  501  0.00000000000E+00  0.00000000000E+00  0.31880839038E+04  0.31880839038E+04  0.25500000920E-02 0. -1.
        2   -1    0    0  501    0  0.00000000000E+00  0.00000000000E+00 -0.96061722204E+03  0.96061722204E+03  0.25500000920E-02 0.  1.
    10030    2    1    2    0    0  0.00000000000E+00  0.00000000000E+00  0.22274666817E+04  0.41487011258E+04  0.35000161732E+04 0.  0.
        4    1    3    3  502    0 -0.15449450989E+04 -0.81765366422E+03  0.12137088080E+04  0.21280280912E+04  0.12699999809E+01 0. -1.
       -4    1    3    3    0  502  0.15449450989E+04  0.81765366422E+03  0.10137578737E+04  0.20206730346E+04  0.12699999809E+01 0.  1.
</event>
<event>
 5   0  0.3553585E-08  0.3506450E+04  0.7818609E-02  0.8112263E-01
       -2   -1    0    0    0  501  0.00000000000E+00  0.00000000000E+00  0.15345980368E+04  0.15345980368E+04  0.25500000920E-02 0. -1.
        2   -1    0    0  501    0  0.00000000000E+00  0.00000000000E+00 -0.20029991249E+04  0.20029991249E+04  0.25500000920E-02 0.  1.
    10030    2    1    2    0    0  0.00000000000E+00  0.00000000000E+00 -0.46840108812E+03  0.35375971617E+04  0.35064503560E+04 0.  0.
        2    1    3    3  502    0 -0.23612331599E+03  0.39686634927E+03 -0.19405375179E+04  0.19947287981E+04  0.25500000920E-02 0.  1.
       -2    1    3    3    0  502  0.23612331599E+03 -0.39686634927E+03  0.14721364298E+04  0.15428683636E+04  0.25500000920E-02 0. -1.
</event>
<event>
 5   0  0.3700096E-08  0.3504598E+04  0.7818609E-02  0.8112701E-01
        2   -1    0    0  501    0  0.00000000000E+00  0.00000000000E+00  0.18784677113E+04  0.18784677113E+04  0.25500000920E-02 0.  1.
       -2   -1    0    0    0  501  0.00000000000E+00  0.00000000000E+00 -0.16346045162E+04  0.16346045162E+04  0.25500000920E-02 0. -1.
    10030    2    1    2    0    0  0.00000000000E+00  0.00000000000E+00  0.24386319511E+03  0.35130722275E+04  0.35045980109E+04 0.  0.
        4    1    3    3  502    0 -0.65718966206E+03  0.52361933082E+03 -0.14194714301E+04  0.16495381806E+04  0.12699999809E+01 0. -1.
       -4    1    3    3    0  502  0.65718966206E+03 -0.52361933082E+03  0.16633346252E+04  0.18635340469E+04  0.12699999809E+01 0.  1.
</event>
<event>
 5   0  0.3628017E-08  0.3498355E+04  0.7818609E-02  0.8114180E-01
       -2   -1    0    0    0  501  0.00000000000E+00  0.00000000000E+00  0.15644616889E+04  0.15644616889E+04  0.25500000920E-02 0. -1.
        2   -1    0    0  501    0  0.00000000000E+00  0.00000000000E+00 -0.19557024541E+04  0.19557024541E+04  0.25500000920E-02 0.  1.
    10030    2    1    2    0    0  0.00000000000E+00  0.00000000000E+00 -0.39124076522E+03  0.35201641429E+04  0.34983547929E+04 0.  0.
        1    1    3    3  502    0  0.12598742693E+04  0.42391477746E+02  0.10245983372E+04  0.16244635928E+04  0.50400001928E-02 0. -1.
       -1    1    3    3    0  502 -0.12598742693E+04 -0.42391477746E+02 -0.14158391024E+04  0.18957005501E+04  0.50400001928E-02 0.  1.
</event>
<event>
 5   0  0.3467834E-08  0.3495780E+04  0.7818609E-02  0.8114791E-01
        2   -1    0    0  501    0  0.00000000000E+00  0.00000000000E+00  0.17285556141E+04  0.17285556141E+04  0.25500000920E-02 0. -1.
       -2   -1    0    0    0  501  0.00000000000E+00  0.00000000000E+00 -0.17674405644E+04  0.17674405644E+04  0.25500000920E-02 0.  1.
    10030    2    1    2    0    0  0.00000000000E+00  0.00000000000E+00 -0.38884950319E+02  0.34959961785E+04  0.34957799188E+04 0.  0.
        3    1    3    3  502    0  0.16682712410E+04 -0.21092789912E+03  0.45755641007E+03  0.17426925692E+04  0.10100000352E+00 0. -1.
       -3    1    3    3    0  502 -0.16682712410E+04  0.21092789912E+03 -0.49644136039E+03  0.17533036094E+04  0.10100000352E+00 0.  1.
</event>
<event>
 5   0  0.1121462E-08  0.3500902E+04  0.7818609E-02  0.8113576E-01
       -1   -1    0    0    0  501  0.00000000000E+00  0.00000000000E+00  0.21565216613E+04  0.21565216613E+04  0.50400001928E-02 0.  1.
        1   -1    0    0  501    0  0.00000000000E+00  0.00000000000E+00 -0.14208429513E+04  0.14208429513E+04  0.50400001928E-02 0. -1.
    10030    2    1    2    0    0  0.00000000000E+00  0.00000000000E+00  0.73567870998E+03  0.35773646127E+04  0.35009019420E+04 0.  0.
        1    1    3    3  502    0  0.71754006094E+03  0.10577423830E+04 -0.85427371979E+03  0.15373569124E+04  0.50400001928E-02 0. -1.
       -1    1    3    3    0  502 -0.71754006094E+03 -0.10577423830E+04  0.15899524298E+04  0.20400077002E+04  0.50400001928E-02 0.  1.
</event>
<event>
 5   0  0.3553585E-08  0.3503195E+04  0.7818609E-02  0.8113033E-01
       -2   -1    0    0    0  501  0.00000000000E+00  0.00000000000E+00  0.23695733822E+04  0.23695733822E+04  0.25500000920E-02 0.  1.
        2   -1    0    0  501    0  0.00000000000E+00  0.00000000000E+00 -0.12947877054E+04  0.12947877054E+04  0.25500000920E-02 0. -1.
    10030    2    1    2    0    0  0.00000000000E+00  0.00000000000E+00  0.10747856768E+04  0.36643610877E+04  0.35031953885E+04 0.  0.
        2    1    3    3  502    0 -0.87673474952E+03 -0.62225606964E+03 -0.90905822088E+03  0.14079251707E+04  0.25500000920E-02 0. -1.
       -2    1    3    3    0  502  0.87673474952E+03  0.62225606964E+03  0.19838438977E+04  0.22564359170E+04  0.25500000920E-02 0.  1.
</event>
<event>
 5   0  0.1121462E-08  0.3499962E+04  0.7818609E-02  0.8113799E-01
        1   -1    0    0  501    0  0.00000000000E+00  0.00000000000E+00  0.18428450542E+04  0.18428450542E+04  0.50400001928E-02 0.  1.
       -1   -1    0    0    0  501  0.00000000000E+00  0.00000000000E+00 -0.16617965499E+04  0.16617965500E+04  0.50400001928E-02 0. -1.
    10030    2    1    2    0    0  0.00000000000E+00  0.00000000000E+00  0.18104850428E+03  0.35046416042E+04  0.34999620302E+04 0.  0.
        4    1    3    3  502    0  0.16339136262E+04 -0.14663660807E+03  0.70064664650E+03  0.17838395020E+04  0.12699999809E+01 0.  1.
       -4    1    3    3    0  502 -0.16339136262E+04  0.14663660807E+03 -0.51959814222E+03  0.17208021022E+04  0.12699999809E+01 0. -1.
</event>
<event>
 5   0  0.3700096E-08  0.3499568E+04  0.7818609E-02  0.8113892E-01
       -2   -1    0    0    0  501  0.00000000000E+00  0.00000000000E+00  0.13103328504E+04  0.13103328504E+04  0.25500000920E-02 0.  1.
        2   -1    0    0  501    0  0.00000000000E+00  0.00000000000E+00 -0.23366161500E+04  0.23366161500E+04  0.25500000920E-02 0. -1.
    10030    2    1    2    0    0  0.00000000000E+00  0.00000000000E+00 -0.10262832996E+04  0.36469490004E+04  0.34995684877E+04 0.  0.
        4    1    3    3  502    0 -0.11607206706E+04  0.79500973411E+03 -0.15973560477E+04  0.21285819008E+04  0.12699999809E+01 0. -1.
       -4    1    3    3    0  502  0.11607206706E+04 -0.79500973411E+03  0.57107274807E+03  0.15183670996E+04  0.12699999809E+01 0.  1.
</event>
<event>
 5   0  0.3700096E-08  0.3498346E+04  0.7818609E-02  0.8114182E-01
        2   -1    0    0  501    0  0.00000000000E+00  0.00000000000E+00  0.21091160968E+04  0.21091160968E+04  0.25500000920E-02 0.  1.
       -2   -1    0    0    0  501  0.00000000000E+00  0.00000000000E+00 -0.14506580929E+04  0.14506580929E+04  0.25500000920E-02 0. -1.
    10030    2    1    2    0    0  0.00000000000E+00  0.00000000000E+00  0.65845800388E+03  0.35597741897E+04  0.34983460862E+04 0.  0.
        4    1    3    3  502    0  0.69387556078E+03 -0.11600404083E+04 -0.80042104349E+03  0.15709336404E+04  0.12699999809E+01 0. -1.
       -4    1    3    3    0  502 -0.69387556078E+03  0.11600404083E+04  0.14588790474E+04  0.19888405493E+04  0.12699999809E+01 0.  1.
</event>
<event>
 5   0  0.1121462E-08  0.3499858E+04  0.7818609E-02  0.8113824E-01
        1   -1    0    0  501    0  0.00000000000E+00  0.00000000000E+00  0.14186089514E+04  0.14186089515E+04  0.50400001928E-02 0. -1.
       -1   -1    0    0    0  501  0.00000000000E+00  0.00000000000E+00 -0.21586299417E+04  0.21586299418E+04  0.50400001928E-02 0.  1.
    10030    2    1    2    0    0  0.00000000000E+00  0.00000000000E+00 -0.74002099030E+03  0.35772388932E+04  0.34998581447E+04 0.  0.
        1    1    3    3  502    0 -0.56159786686E+02 -0.17237648493E+04 -0.67275617530E+03  0.18512482407E+04  0.50400001928E-02 0. -1.
       -1    1    3    3    0  502  0.56159786686E+02  0.17237648493E+04 -0.67264815003E+02  0.17259906525E+04  0.50400001928E-02 0.  1.
</event>
<event>
 5   0  0.1129219E-08  0.3500975E+04  0.7818609E-02  0.8113559E-01
        1   -1    0    0  501    0  0.00000000000E+00  0.00000000000E+00  0.19458446850E+04  0.19458446850E+04  0.50400001928E-02 0.  1.
       -1   -1    0    0    0  501  0.00000000000E+00  0.00000000000E+00 -0.15747438188E+04  0.15747438188E+04  0.50400001928E-02 0. -1.
    10030    2    1    2    0    0  0.00000000000E+00  0.00000000000E+00  0.37110086614E+03  0.35205885038E+04  0.35009752299E+04 0.  0.
        5    1    3    3  502    0 -0.33273968208E+03  0.55607993118E+03 -0.14496726528E+04  0.15879274153E+04  0.46999998093E+01 0. -1.
       -5    1    3    3    0  502  0.33273968208E+03 -0.55607993118E+03  0.18207735189E+04  0.19326610885E+04  0.46999998093E+01 0.  1.
</event>
<event>
 5   0  0.3467834E-08  0.3500209E+04  0.7818609E-02  0.8113741E-01
       -2   -1    0    0    0  501  0.00000000000E+00  0.00000000000E+00  0.22121316287E+04  0.22121316287E+04  0.25500000920E-02 0. -1.
        2   -1    0    0  501    0  0.00000000000E+00  0.00000000000E+00 -0.13845763252E+04  0.13845763252E+04  0.25500000920E-02 0.  1.
    10030    2    1    2    0    0  0.00000000000E+00  0.00000000000E+00  0.82755530350E+03  0.35967079539E+04  0.35002086117E+04 0.  0.
        3    1    3    3  502    0  0.14909199746E+04  0.68634034225E+03 -0.21038916259E+03  0.16547413834E+04  0.10100000352E+00 0. -1.
       -3    1    3    3    0  502 -0.14909199746E+04 -0.68634034225E+03  0.10379444661E+04  0.19419665705E+04  0.10100000352E+00 0.  1.
</event>
<event>
 5   0  0.1129219E-08  0.3500583E+04  0.7818609E-02  0.8113652E-01
        1   -1    0    0  501    0  0.00000000000E+00  0.00000000000E+00  0.14178867228E+04  0.14178867228E+04  0.50400001928E-02 0. -1.
       -1   -1    0    0    0  501  0.00000000000E+00  0.00000000000E+00 -0.21606237374E+04  0.21606237374E+04  0.50400001928E-02 0.  1.
    10030    2    1    2    0    0  0.00000000000E+00  0.00000000000E+00 -0.74273701458E+03  0.35785104602E+04  0.35005826431E+04 0.  0.
        5    1    3    3  502    0 -0.11911361658E+04  0.12479343289E+04 -0.67350194611E+03  0.18519644749E+04  0.46999998093E+01 0.  1.
       -5    1    3    3    0  502  0.11911361658E+04 -0.12479343289E+04 -0.69235068461E+02  0.17265459854E+04  0.46999998093E+01 0. -1.
</event>
<event>
 5   0  0.1121462E-08  0.3499574E+04  0.7818609E-02  0.8113891E-01
       -1   -1    0    0    0  501  0.00000000000E+00  0.00000000000E+00  0.20106191380E+04  0.20106191380E+04  0.50400001928E-02 0.  1.
        1   -1    0    0  501    0  0.00000000000E+00  0.00000000000E+00 -0.15227918913E+04  0.15227918913E+04  0.50400001928E-02 0. -1.
    10030    2    1    2    0    0  0.00000000000E+00  0.00000000000E+00  0.48782724672E+03  0.35334110293E+04  0.34995739854E+04 0.  0.
        4    1    3    3  502    0  0.69065530739E+03  0.60570683313E+03 -0.12597364095E+04  0.15591096676E+04  0.12699999809E+01 0. -1.
       -4    1    3    3    0  502 -0.69065530739E+03 -0.60570683313E+03  0.17475636562E+04  0.19743013617E+04  0.12699999809E+01 0.  1.
</event>
<event>
 5   0  0.3700096E-08  0.3500120E+04  0.7818609E-02  0.8113762E-01
        2   -1    0    0  501    0  0.00000000000E+00  0.00000000000E+00  0.26582927204E+04  0.26582927204E+04  0.25500000920E-02 0.  1.
       -2   -1    0    0    0  501  0.00000000000E+00  0.00000000000E+00 -0.11521341979E+04  0.11521341979E+04  0.25500000920E-02 0. -1.
    10030    2    1    2    0    0  0.00000000000E+00  0.00000000000E+00  0.15061585226E+04  0.38104269183E+04  0.35001199700E+04 0.  0.
        4    1    3    3  502    0  0.12802616080E+04 -0.22286904704E+03  0.20291625045E+04  0.24096145915E+04  0.12699999809E+01 0.  1.
       -4    1    3    3    0  502 -0.12802616080E+04  0.22286904704E+03 -0.52300398190E+03  0.14008123268E+04  0.12699999809E+01 0. -1.
</event>
<event>
 5   0  0.3628017E-08  0.3499124E+04  0.7818609E-02  0.8113998E-01
       -2   -1    0    0    0  501  0.00000000000E+00  0.00000000000E+00  0.14451287770E+04  0.14451287770E+04  0.25500000920E-02 0. -1.
        2   -1    0    0  501    0  0.00000000000E+00  0.00000000000E+00 -0.21181271073E+04  0.21181271073E+04  0.25500000920E-02 0.  1.
    10030    2    1    2    0    0  0.00000000000E+00  0.00000000000E+00 -0.67299833027E+03  0.35632558842E+04  0.34991235680E+04 0.  0.
        1    1    3    3  502    0  0.13509570321E+04  0.24800101277E+03 -0.14400478711E+04  0.19900571037E+04  0.50400001928E-02 0.  1.
       -1    1    3    3    0  502 -0.13509570321E+04 -0.24800101277E+03  0.76704954085E+03  0.15731987805E+04  0.50400001928E-02 0. -1.
</event>
<event>
 5   0  0.1121462E-08  0.3499180E+04  0.7818609E-02  0.8113984E-01
        1   -1    0    0  501    0  0.00000000000E+00  0.00000000000E+00  0.20470454247E+04  0.20470454247E+04  0.50400001928E-02 0.  1.
       -1   -1    0    0    0  501  0.00000000000E+00  0.00000000000E+00 -0.14953575049E+04  0.14953575049E+04  0.50400001928E-02 0. -1.
    10030    2    1    2    0    0  0.00000000000E+00  0.00000000000E+00  0.55168791974E+03  0.35424029296E+04  0.34991797546E+04 0.  0.
        2    1    3    3  502    0  0.75447715896E+03  0.11636594111E+04 -0.80397387291E+03  0.16030324378E+04  0.25500000920E-02 0. -1.
       -2    1    3    3    0  502 -0.75447715896E+03 -0.11636594111E+04  0.13556617927E+04  0.19393704918E+04  0.25500000920E-02 0.  1.
</event>
<event>
 5   0  0.3553585E-08  0.3499835E+04  0.7818609E-02  0.8113829E-01
        2   -1    0    0  501    0  0.00000000000E+00  0.00000000000E+00  0.21497444330E+04  0.21497444331E+04  0.25500000920E-02 0.  1.
       -2   -1    0    0    0  501  0.00000000000E+00  0.00000000000E+00 -0.14244536155E+04  0.14244536155E+04  0.25500000920E-02 0. -1.
    10030    2    1    2    0    0  0.00000000000E+00  0.00000000000E+00  0.72529081754E+03  0.35741980486E+04  0.34998349847E+04 0.  0.
        2    1    3    3  502    0  0.15587673916E+04 -0.44346805353E+03 -0.31152617013E+03  0.16502933831E+04  0.25500000920E-02 0. -1.
       -2    1    3    3    0  502 -0.15587673916E+04  0.44346805353E+03  0.10368169877E+04  0.19239046654E+04  0.25500000920E-02 0.  1.
</event>
<event>
 5   0  0.3628017E-08  0.3499794E+04  0.7818609E-02  0.8113839E-01
        2   -1    0    0  501    0  0.00000000000E+00  0.00000000000E+00  0.17757151124E+04  0.17757151124E+04  0.25500000920E-02 0. -1.
       -2   -1    0    0    0  501  0.00000000000E+00  0.00000000000E+00 -0.17244542525E+04  0.17244542525E+04  0.25500000920E-02 0.  1.
    10030    2    1    2    0    0  0.00000000000E+00  0.00000000000E+00  0.51260859939E+02  0.35001693649E+04  0.34997939806E+04 0.  0.
        1    1    3    3  502    0  0.79661873929E+03  0.10898809589E+04  0.11391669170E+04  0.17663927041E+04  0.50400001928E-02 0. -1.
       -1    1    3    3    0  502 -0.79661873929E+03 -0.10898809589E+04 -0.10879060570E+04  0.17337766607E+04  0.50400001928E-02 0.  1.
</event>
<event>
 5   0  0.3467834E-08  0.3501966E+04  0.7818609E-02  0.8113324E-01
       -2   -1    0    0    0  501  0.00000000000E+00  0.00000000000E+00  0.15538563143E+04  0.15538563143E+04  0.25500000920E-02 0.  1.
        2   -1    0    0  501    0  0.00000000000E+00  0.00000000000E+00 -0.19731175527E+04  0.19731175527E+04  0.25500000920E-02 0. -1.
    10030    2    1    2    0    0  0.00000000000E+00  0.00000000000E+00 -0.41926123839E+03  0.35269738671E+04  0.35019658298E+04 0.  0.
        3    1    3    3  502    0 -0.69693146242E+03  0.56073557964E+03 -0.17256384358E+04  0.19436990186E+04  0.10100000352E+00 0. -1.
       -3    1    3    3    0  502  0.69693146242E+03 -0.56073557964E+03  0.13063771974E+04  0.15832748484E+04  0.10100000352E+00 0.  1.
</event>
<event>
 5   0  0.3553585E-08  0.3510200E+04  0.7818609E-02  0.8111377E-01
       -2   -1    0    0    0  501  0.00000000000E+00  0.00000000000E+00  0.27056419143E+04  0.27056419143E+04  0.25500000920E-02 0. -1.
        2   -1    0    0  501    0  0.00000000000E+00  0.00000000000E+00 -0.11385011514E+04  0.11385011514E+04  0.25500000920E-02 0.  1.
    10030    2    1    2    0    0  0.00000000000E+00  0.00000000000E+00  0.15671407629E+04  0.38441430657E+04  0.35102002419E+04 0.  0.
        2    1    3    3  502    0 -0.59424374375E+02  0.15274153717E+04 -0.16094621355E+03  0.15370207082E+04  0.25500000920E-02 0.  1.
       -2    1    3    3    0  502  0.59424374375E+02 -0.15274153717E+04  0.17280869764E+04  0.23071223574E+04  0.25500000920E-02 0. -1.
</event>
<event>
 5   0  0.1129219E-08  0.3492038E+04  0.7818609E-02  0.8115679E-01
       -1   -1    0    0    0  501  0.00000000000E+00  0.00000000000E+00  0.11456034622E+04  0.11456034622E+04  0.50400001928E-02 0. -1.
        1   -1    0    0  501    0  0.00000000000E+00  0.00000000000E+00 -0.26611153248E+04  0.26611153248E+04  0.50400001928E-02 0.  1.
    10030    2    1    2    0    0  0.00000000000E+00  0.00000000000E+00 -0.15155118626E+04  0.38067187869E+04  0.34920383327E+04 0.  0.
        5    1    3    3  502    0  0.60926478000E+03  0.52168347664E+03  0.93287074430E+03  0.12302955488E+04  0.46999998093E+01 0. -1.
       -5    1    3    3    0  502 -0.60926478000E+03 -0.52168347664E+03 -0.24483826069E+04  0.25764232381E+04  0.46999998093E+01 0.  1.
</event>
<event>
 5   0  0.3700096E-08  0.3498648E+04  0.7818609E-02  0.8114110E-01
        2   -1    0    0  501    0  0.00000000000E+00  0.00000000000E+00  0.26903694467E+04  0.26903694467E+04  0.25500000920E-02 0. -1.
       -2   -1    0    0    0  501  0.00000000000E+00  0.00000000000E+00 -0.11374403388E+04  0.11374403388E+04  0.25500000920E-02 0.  1.
    10030    2    1    2    0    0  0.00000000000E+00  0.00000000000E+00  0.15529291079E+04  0.38278097854E+04  0.34986481588E+04 0.  0.
        4    1    3    3  502    0  0.36668900889E+03 -0.16654791567E+04  0.12028079896E+04  0.20868709408E+04  0.12699999809E+01 0.  1.
       -4    1    3    3    0  502 -0.36668900889E+03  0.16654791567E+04  0.35012111830E+03  0.17409388447E+04  0.12699999809E+01 0. -1.
</event>
<event>
 5   0  0.1140808E-08  0.3509964E+04  0.7818609E-02  0.8111433E-01
       -1   -1    0    0    0  501  0.00000000000E+00  0.00000000000E+00  0.30144728941E+04  0.30144728941E+04  0.50400001928E-02 0. -1.
        1   -1    0    0  501    0  0.00000000000E+00  0.00000000000E+00 -0.10217249467E+04  0.10217249468E+04  0.50400001928E-02 0.  1.
    10030    2    1    2    0    0  0.00000000000E+00  0.00000000000E+00  0.19927479474E+04  0.40361978409E+04  0.35099641920E+04 0.  0.
        3    1    3    3  502    0 -0.34892282946E+03  0.13585844730E+04 -0.21649138924E+03  0.14192841305E+04  0.10100000352E+00 0.  1.
       -3    1    3    3    0  502  0.34892282946E+03 -0.13585844730E+04  0.22092393366E+04  0.26169137104E+04  0.10100000352E+00 0. -1.
</event>
<event>
 5   0  0.1140808E-08  0.3501376E+04  0.7818609E-02  0.8113464E-01
       -1   -1    0    0    0  501  0.00000000000E+00  0.00000000000E+00  0.10911588218E+04  0.10911588218E+04  0.50400001928E-02 0.  1.
        1   -1    0    0  501    0  0.00000000000E+00  0.00000000000E+00 -0.28088557386E+04  0.28088557386E+04  0.50400001928E-02 0. -1.
    10030    2    1    2    0    0  0.00000000000E+00  0.00000000000E+00 -0.17176969168E+04  0.39000145604E+04  0.35013755687E+04 0.  0.
        3    1    3    3  502    0 -0.53289488096E+03 -0.11978046148E+04  0.43350555289E+03  0.13808113282E+04  0.10100000352E+00 0.  1.
       -3    1    3    3    0  502  0.53289488096E+03  0.11978046148E+04 -0.21512024697E+04  0.25192032322E+04  0.10100000352E+00 0. -1.
</event>
<event>
 5   0  0.3467834E-08  0.3495037E+04  0.7818609E-02  0.8114967E-01
        2   -1    0    0  501    0  0.00000000000E+00  0.00000000000E+00  0.25953176361E+04  0.25953176361E+04  0.25500000920E-02 0. -1.
       -2   -1    0    0    0  501  0.00000000000E+00  0.00000000000E+00 -0.11766654158E+04  0.11766654158E+04  0.25500000920E-02 0.  1.
    10030    2    1    2    0    0  0.00000000000E+00  0.00000000000E+00  0.14186522203E+04  0.37719830519E+04  0.34950367697E+04 0.  0.
        3    1    3    3  502    0 -0.21907414109E+02 -0.10580230941E+04  0.22101789100E+04  0.24504660020E+04  0.10100000352E+00 0.  1.
       -3    1    3    3    0  502  0.21907414109E+02  0.10580230941E+04 -0.79152668968E+03  0.13215170499E+04  0.10100000352E+00 0. -1.
</event>
<event>
 5   0  0.1140808E-08  0.3507554E+04  0.7818609E-02  0.8112002E-01
       -1   -1    0    0    0  501  0.00000000000E+00  0.00000000000E+00  0.21587786233E+04  0.21587786233E+04  0.50400001928E-02 0.  1.
        1   -1    0    0  501    0  0.00000000000E+00  0.00000000000E+00 -0.14247565743E+04  0.14247565743E+04  0.50400001928E-02 0. -1.
    10030    2    1    2    0    0  0.00000000000E+00  0.00000000000E+00  0.73402204898E+03  0.35835351977E+04  0.35075541542E+04 0.  0.
        3    1    3    3  502    0 -0.96740098160E+03 -0.11001773104E+04  0.13519904060E+04  0.19935227216E+04  0.10100000352E+00 0.  1.
       -3    1    3    3    0  502  0.96740098160E+03  0.11001773104E+04 -0.61796835706E+03  0.15900124760E+04  0.10100000352E+00 0. -1.
</event>
<event>
 5   0  0.1121462E-08  0.3498440E+04  0.7818609E-02  0.8114160E-01
        1   -1    0    0  501    0  0.00000000000E+00  0.00000000000E+00  0.26400090759E+04  0.26400090759E+04  0.50400001928E-02 0. -1.
       -1   -1    0    0    0  501  0.00000000000E+00  0.00000000000E+00 -0.11590001005E+04  0.11590001006E+04  0.50400001928E-02 0.  1.
    10030    2    1    2    0    0  0.00000000000E+00  0.00000000000E+00  0.14810089753E+04  0.37990091764E+04  0.34984401006E+04 0.  0.
        4    1    3    3  502    0 -0.25411884400E+03 -0.67270376936E+03  0.24720752838E+04  0.25745416232E+04  0.12699999809E+01 0. -1.
       -4    1    3    3    0  502  0.25411884400E+03  0.67270376936E+03 -0.99106630845E+03  0.12244675532E+04  0.12699999809E+01 0.  1.
</event>
<event>
 5   0  0.1129219E-08  0.3500724E+04  0.7818609E-02  0.8113618E-01
       -1   -1    0    0    0  501  0.00000000000E+00  0.00000000000E+00  0.20467448985E+04  0.20467448985E+04  0.50400001928E-02 0.  1.
        1   -1    0    0  501    0  0.00000000000E+00  0.00000000000E+00 -0.14968974453E+04  0.14968974453E+04  0.50400001928E-02 0. -1.
    10030    2    1    2    0    0  0.00000000000E+00  0.00000000000E+00  0.54984745319E+03  0.35436423438E+04  0.35007240450E+04 0.  0.
        5    1    3    3  502    0  0.13229216877E+03 -0.69133684286E+03 -0.13473145718E+04  0.15201073954E+04  0.46999998093E+01 0. -1.
       -5    1    3    3    0  502 -0.13229216877E+03  0.69133684286E+03  0.18971620250E+04  0.20235349484E+04  0.46999998093E+01 0.  1.
</event>
<event>
 5   0  0.1121462E-08  0.3500298E+04  0.7818609E-02  0.8113719E-01
       -1   -1    0    0    0  501  0.00000000000E+00  0.00000000000E+00  0.16604053640E+04  0.16604053640E+04  0.50400001928E-02 0.  1.
        1   -1    0    0  501    0  0.00000000000E+00  0.00000000000E+00 -0.18447433954E+04  0.18447433954E+04  0.50400001928E-02 0. -1.
    10030    2    1    2    0    0  0.00000000000E+00  0.00000000000E+00 -0.18433803141E+03  0.35051487595E+04  0.35002981753E+04 0.  0.
        4    1    3    3  502    0 -0.14691847560E+04 -0.37922383693E+03 -0.96556206967E+03  0.17985066831E+04  0.12699999809E+01 0. -1.
       -4    1    3    3    0  502  0.14691847560E+04  0.37922383693E+03  0.78122403826E+03  0.17066420763E+04  0.12699999809E+01 0.  1.
</event>
<event>
 5   0  0.3467834E-08  0.3500073E+04  0.7818609E-02  0.8113773E-01
        2   -1    0    0  501    0  0.00000000000E+00  0.00000000000E+00  0.21206525280E+04  0.21206525280E+04  0.25500000920E-02 0.  1.
       -2   -1    0    0    0  501  0.00000000000E+00  0.00000000000E+00 -0.14441910385E+04  0.14441910385E+04  0.25500000920E-02 0. -1.
    10030    2    1    2    0    0  0.00000000000E+00  0.00000000000E+00  0.67646148942E+03  0.35648435665E+04  0.35000727859E+04 0.  0.
        3    1    3    3  502    0  0.76859285217E+03 -0.14593129689E+04 -0.25765859401E+03  0.16693463615E+04  0.10100000352E+00 0. -1.
       -3    1    3    3    0  502 -0.76859285217E+03  0.14593129689E+04  0.93412008343E+03  0.18954972050E+04  0.10100000352E+00 0.  1.
</event>
<event>
 5   0  0.1121462E-08  0.3499681E+04  0.7818609E-02  0.8113866E-01
       -1   -1    0    0    0  501  0.00000000000E+00  0.00000000000E+00  0.15467797865E+04  0.15467797865E+04  0.50400001928E-02 0. -1.
        1   -1    0    0  501    0  0.00000000000E+00  0.00000000000E+00 -0.19795588001E+04  0.19795588002E+04  0.50400001928E-02 0.  1.
    10030    2    1    2    0    0  0.00000000000E+00  0.00000000000E+00 -0.43277901362E+03  0.35263385867E+04  0.34996808645E+04 0.  0.
        1    1    3    3  502    0  0.85781848025E+03  0.51589878792E+03 -0.16625702736E+04  0.19406555643E+04  0.50400001928E-02 0.  1.
       -1    1    3    3    0  502 -0.85781848025E+03 -0.51589878792E+03  0.12297912600E+04  0.15856830224E+04  0.50400001928E-02 0. -1.
</event>
<event>
 5   0  0.3467834E-08  0.3501225E+04  0.7818609E-02  0.8113500E-01
        2   -1    0    0  501    0  0.00000000000E+00  0.00000000000E+00  0.21345047545E+04  0.21345047545E+04  0.25500000920E-02 0. -1.
       -2   -1    0    0    0  501  0.00000000000E+00  0.00000000000E+00 -0.14357634672E+04  0.14357634672E+04  0.25500000920E-02 0.  1.
    10030    2    1    2    0    0  0.00000000000E+00  0.00000000000E+00  0.69874128732E+03  0.35702682217E+04  0.35012248983E+04 0.  0.
        3    1    3    3  502    0 -0.46590712938E+03  0.50052377888E+03  0.19926864314E+04  0.21067493279E+04  0.10100000352E+00 0. -1.
       -3    1    3    3    0  502  0.46590712938E+03 -0.50052377888E+03 -0.12939451441E+04  0.14635188938E+04  0.10100000352E+00 0.  1.
</event>
<event>
 5   0  0.3700096E-08  0.3501906E+04  0.7818609E-02  0.8113338E-01
       -2   -1    0    0    0  501  0.00000000000E+00  0.00000000000E+00  0.17793515349E+04  0.17793515349E+04  0.25500000920E-02 0. -1.
        2   -1    0    0  501    0  0.00000000000E+00  0.00000000000E+00 -0.17230076365E+04  0.17230076365E+04  0.25500000920E-02 0.  1.
    10030    2    1    2    0    0  0.00000000000E+00  0.00000000000E+00  0.56343898313E+02  0.35023591714E+04  0.35019059283E+04 0.  0.
        4    1    3    3  502    0  0.11109783404E+04  0.12237524450E+04  0.60616694162E+03  0.17604780298E+04  0.12699999809E+01 0. -1.
       -4    1    3    3    0  502 -0.11109783404E+04 -0.12237524450E+04 -0.54982304331E+03  0.17418811416E+04  0.12699999809E+01 0.  1.
</event>
<event>
 5   0  0.1121462E-08  0.3500004E+04  0.7818609E-02  0.8113789E-01
        1   -1    0    0  501    0  0.00000000000E+00  0.00000000000E+00  0.26033140933E+04  0.26033140933E+04  0.50400001928E-02 0.  1.
       -1   -1    0    0    0  501  0.00000000000E+00  0.00000000000E+00 -0.11763876480E+04  0.11763876480E+04  0.50400001928E-02 0. -1.
    10030    2    1    2    0    0  0.00000000000E+00  0.00000000000E+00  0.14269264453E+04  0.37797017413E+04  0.35000037390E+04 0.  0.
        1    1    3    3  502    0  0.15100385688E+04 -0.33551996357E+03 -0.17029709124E+03  0.15562105335E+04  0.50400001928E-02 0. -1.
       -1    1    3    3    0  502 -0.15100385688E+04  0.33551996357E+03  0.15972235365E+04  0.22234912078E+04  0.50400001928E-02 0.  1.
</event>
<event>
 5   0  0.1121462E-08  0.3499347E+04  0.7818609E-02  0.8113945E-01
       -1   -1    0    0    0  501  0.00000000000E+00  0.00000000000E+00  0.11649349353E+04  0.11649349353E+04  0.50400001928E-02 0. -1.
        1   -1    0    0  501    0  0.00000000000E+00  0.00000000000E+00 -0.26279211744E+04  0.26279211744E+04  0.50400001928E-02 0.  1.
    10030    2    1    2    0    0  0.00000000000E+00  0.00000000000E+00 -0.14629862391E+04  0.37928561097E+04  0.34993469009E+04 0.  0.
        1    1    3    3  502    0 -0.42388820709E+03  0.12651187881E+04 -0.19583091205E+04  0.23696373925E+04  0.50400001928E-02 0.  1.
       -1    1    3    3    0  502  0.42388820709E+03 -0.12651187881E+04  0.49532288142E+03  0.14232187172E+04  0.50400001928E-02 0. -1.
</event>
<event>
 5   0  0.3553585E-08  0.3503597E+04  0.7818609E-02  0.8112938E-01
        2   -1    0    0  501    0  0.00000000000E+00  0.00000000000E+00  0.18568610420E+04  0.18568610420E+04  0.25500000920E-02 0. -1.
       -2   -1    0    0    0  501  0.00000000000E+00  0.00000000000E+00 -0.16526801131E+04  0.16526801131E+04  0.25500000920E-02 0.  1.
    10030    2    1    2    0    0  0.00000000000E+00  0.00000000000E+00  0.20418092882E+03  0.35095411551E+04  0.35035966188E+04 0.  0.
        2    1    3    3  502    0 -0.12207320727E+04 -0.48709010468E+03  0.12622237983E+04  0.18222657546E+04  0.25500000920E-02 0. -1.
       -2    1    3    3    0  502  0.12207320727E+04  0.48709010468E+03 -0.10580428695E+04  0.16872754005E+04  0.25500000920E-02 0.  1.
</event>
<event>
 5   0  0.3467834E-08  0.3498740E+04  0.7818609E-02  0.8114089E-01
        2   -1    0    0  501    0  0.00000000000E+00  0.00000000000E+00  0.24482967381E+04  0.24482967381E+04  0.25500000920E-02 0.  1.
       -2   -1    0    0    0  501  0.00000000000E+00  0.00000000000E+00 -0.12499688812E+04  0.12499688812E+04  0.25500000920E-02 0. -1.
    10030    2    1    2    0    0  0.00000000000E+00  0.00000000000E+00  0.11983278569E+04  0.36982656193E+04  0.34987396214E+04 0.  0.
        3    1    3    3  502    0 -0.31340113721E+03 -0.17686016112E+03 -0.12104219276E+04  0.12627830544E+04  0.10100000352E+00 0. -1.
       -3    1    3    3    0  502  0.31340113721E+03  0.17686016112E+03  0.24087497845E+04  0.24354825649E+04  0.10100000352E+00 0.  1.
</event>
<event>
 5   0  0.1121462E-08  0.3500481E+04  0.7818609E-02  0.8113676E-01
       -1   -1    0    0    0  501  0.00000000000E+00  0.00000000000E+00  0.14178125196E+04  0.14178125196E+04  0.50400001928E-02 0.  1.
        1   -1    0    0  501    0  0.00000000000E+00  0.00000000000E+00 -0.21606110211E+04  0.21606110211E+04  0.50400001928E-02 0. -1.
    10030    2    1    2    0    0  0.00000000000E+00  0.00000000000E+00 -0.74279850147E+03  0.35784235407E+04  0.35004807416E+04 0.  0.
        4    1    3    3  502    0  0.17035223090E+04  0.40112889611E+03 -0.39301466528E+03  0.17936986337E+04  0.12699999809E+01 0.  1.
       -4    1    3    3    0  502 -0.17035223090E+04 -0.40112889611E+03 -0.34978383620E+03  0.17847249070E+04  0.12699999809E+01 0. -1.
</event>
<event>
 5   0  0.1121462E-08  0.3499419E+04  0.7818609E-02  0.8113928E-01
        1   -1    0    0  501    0  0.00000000000E+00  0.00000000000E+00  0.17820078876E+04  0.17820078876E+04  0.50400001928E-02 0.  1.
       -1   -1    0    0    0  501  0.00000000000E+00  0.00000000000E+00 -0.17179965549E+04  0.17179965549E+04  0.50400001928E-02 0. -1.
    10030    2    1    2    0    0  0.00000000000E+00  0.00000000000E+00  0.64011332713E+02  0.35000044425E+04  0.34994190441E+04 0.  0.
        2    1    3    3  502    0  0.46766901158E+03 -0.16469723979E+04 -0.32895777954E+03  0.17434005864E+04  0.25500000920E-02 0. -1.
       -2    1    3    3    0  502 -0.46766901158E+03  0.16469723979E+04  0.39296911225E+03  0.17566038561E+04  0.25500000920E-02 0.  1.
</event>
<event>
 5   0  0.1121462E-08  0.3486790E+04  0.7818609E-02  0.8116928E-01
        1   -1    0    0  501    0  0.00000000000E+00  0.00000000000E+00  0.17950370941E+04  0.17950370941E+04  0.50400001928E-02 0.  1.
       -1   -1    0    0    0  501  0.00000000000E+00  0.00000000000E+00 -0.16932389900E+04  0.16932389900E+04  0.50400001928E-02 0. -1.
    10030    2    1    2    0    0  0.00000000000E+00  0.00000000000E+00  0.10179810410E+03  0.34882760842E+04  0.34867903845E+04 0.  0.
        1    1    3    3  502    0  0.96608574607E+03 -0.13922875923E+04 -0.35871452109E+03  0.17321843193E+04  0.50400001928E-02 0. -1.
       -1    1    3    3    0  502 -0.96608574607E+03  0.13922875923E+04  0.46051262519E+03  0.17560917648E+04  0.50400001928E-02 0.  1.
</event>
<event>
 5   0  0.3553585E-08  0.3504554E+04  0.7818609E-02  0.8112711E-01
        2   -1    0    0  501    0  0.00000000000E+00  0.00000000000E+00  0.19637188685E+04  0.19637188685E+04  0.25500000920E-02 0. -1.
       -2   -1    0    0    0  501  0.00000000000E+00  0.00000000000E+00 -0.15636021813E+04  0.15636021813E+04  0.25500000920E-02 0.  1.
    10030    2    1    2    0    0  0.00000000000E+00  0.00000000000E+00  0.40011668725E+03  0.35273210498E+04  0.35045542406E+04 0.  0.
        2    1    3    3  502    0  0.98606425779E+03 -0.79530101051E+03 -0.10184461803E+04  0.16254411832E+04  0.25500000920E-02 0.  1.
       -2    1    3    3    0  502 -0.98606425779E+03  0.79530101051E+03  0.14185628676E+04  0.19018798666E+04  0.25500000920E-02 0. -1.
</event>
<event>
 5   0  0.1129219E-08  0.3501793E+04  0.7818609E-02  0.8113365E-01
        1   -1    0    0  501    0  0.00000000000E+00  0.00000000000E+00  0.21985453304E+04  0.21985453304E+04  0.50400001928E-02 0. -1.
       -1   -1    0    0    0  501  0.00000000000E+00  0.00000000000E+00 -0.13943943551E+04  0.13943943551E+04  0.50400001928E-02 0.  1.
    10030    2    1    2    0    0  0.00000000000E+00  0.00000000000E+00  0.80415097523E+03  0.35929396855E+04  0.35017933681E+04 0.  0.
        5    1    3    3  502    0  0.69270214777E+03 -0.10146565302E+04  0.16820446522E+04  0.20829451365E+04  0.46999998093E+01 0. -1.
       -5    1    3    3    0  502 -0.69270214777E+03  0.10146565302E+04 -0.87789367695E+03  0.15099945490E+04  0.46999998093E+01 0.  1.
</event>
<event>
 5   0  0.1140808E-08  0.3508301E+04  0.7818609E-02  0.8111826E-01
        1   -1    0    0  501    0  0.00000000000E+00  0.00000000000E+00  0.19893044199E+04  0.19893044199E+04  0.50400001928E-02 0.  1.
       -1   -1    0    0    0  501  0.00000000000E+00  0.00000000000E+00 -0.15467937854E+04  0.15467937854E+04  0.50400001928E-02 0. -1.
    10030    2    1    2    0    0  0.00000000000E+00  0.00000000000E+00  0.44251063444E+03  0.35360982053E+04  0.35083008502E+04 0.  0.
        3    1    3    3  502    0  0.96106324515E+03 -0.51780805677E+03  0.16051879622E+04  0.19412357273E+04  0.10100000352E+00 0.  1.
       -3    1    3    3    0  502 -0.96106324515E+03  0.51780805677E+03 -0.11626773278E+04  0.15948624779E+04  0.10100000352E+00 0. -1.
</event>
<event>
 5   0  0.3467834E-08  0.3500306E+04  0.7818609E-02  0.8113717E-01
        2   -1    0    0  501    0  0.00000000000E+00  0.00000000000E+00  0.16256600577E+04  0.16256600577E+04  0.25500000920E-02 0. -1.
       -2   -1    0    0    0  501  0.00000000000E+00  0.00000000000E+00 -0.18841796463E+04  0.18841796463E+04  0.25500000920E-02 0.  1.
    10030    2    1    2    0    0  0.00000000000E+00  0.00000000000E+00 -0.25851958855E+03  0.35098397040E+04  0.35003060395E+04 0.  0.
        3    1    3    3  502    0  0.10970806312E+04 -0.13519739954E+04  0.49033346284E+02  0.17417875516E+04  0.10100000352E+00 0.  1.
       -3    1    3    3    0  502 -0.10970806312E+04  0.13519739954E+04 -0.30755293483E+03  0.17680521524E+04  0.10100000352E+00 0. -1.
</event>
<event>
 5   0  0.3467834E-08  0.3499090E+04  0.7818609E-02  0.8114006E-01
       -2   -1    0    0    0  501  0.00000000000E+00  0.00000000000E+00  0.30905664736E+04  0.30905664736E+04  0.25500000920E-02 0.  1.
        2   -1    0    0  501    0  0.00000000000E+00  0.00000000000E+00 -0.99040320210E+03  0.99040320211E+03  0.25500000920E-02 0. -1.
    10030    2    1    2    0    0  0.00000000000E+00  0.00000000000E+00  0.21001632715E+04  0.40809696757E+04  0.34990895569E+04 0.  0.
        3    1    3    3  502    0  0.10285206092E+04  0.13076754465E+04  0.41873235340E+03  0.17155776027E+04  0.10100000352E+00 0. -1.
       -3    1    3    3    0  502 -0.10285206092E+04 -0.13076754465E+04  0.16814309181E+04  0.23653920731E+04  0.10100000352E+00 0.  1.
</event>
<event>
 5   0  0.1121462E-08  0.3500398E+04  0.7818609E-02  0.8113696E-01
       -1   -1    0    0    0  501  0.00000000000E+00  0.00000000000E+00  0.15322860203E+04  0.15322860203E+04  0.50400001928E-02 0. -1.
        1   -1    0    0  501    0  0.00000000000E+00  0.00000000000E+00 -0.19991019047E+04  0.19991019047E+04  0.50400001928E-02 0.  1.
    10030    2    1    2    0    0  0.00000000000E+00  0.00000000000E+00 -0.46681588441E+03  0.35313879251E+04  0.35003976356E+04 0.  0.
        1    1    3    3  502    0 -0.79032009365E+03 -0.10603758020E+04  0.92312406212E+03  0.16128114354E+04  0.50400001928E-02 0. -1.
       -1    1    3    3    0  502  0.79032009365E+03  0.10603758020E+04 -0.13899399465E+04  0.19185764897E+04  0.50400001928E-02 0.  1.
</event>
<event>
 5   0  0.3628017E-08  0.3499984E+04  0.7818609E-02  0.8113794E-01
        2   -1    0    0  501    0  0.00000000000E+00  0.00000000000E+00  0.18020239288E+04  0.18020239288E+04  0.25500000920E-02 0. -1.
       -2   -1    0    0    0  501  0.00000000000E+00  0.00000000000E+00 -0.16994625282E+04  0.16994625282E+04  0.25500000920E-02 0.  1.
    10030    2    1    2    0    0  0.00000000000E+00  0.00000000000E+00  0.10256140064E+03  0.35014864570E+04  0.34999840810E+04 0.  0.
        1    1    3    3  502    0  0.33564588481E+03 -0.15223636415E+04  0.84674648055E+03  0.17740430715E+04  0.50400001928E-02 0. -1.
       -1    1    3    3    0  502 -0.33564588481E+03  0.15223636415E+04 -0.74418507991E+03  0.17274433855E+04  0.50400001928E-02 0.  1.
</event>
<event>
 5   0  0.1121462E-08  0.3500868E+04  0.7818609E-02  0.8113584E-01
       -1   -1    0    0    0  501  0.00000000000E+00  0.00000000000E+00  0.15515650826E+04  0.15515650826E+04  0.50400001928E-02 0. -1.
        1   -1    0    0  501    0  0.00000000000E+00  0.00000000000E+00 -0.19747923923E+04  0.19747923923E+04  0.50400001928E-02 0.  1.
    10030    2    1    2    0    0  0.00000000000E+00  0.00000000000E+00 -0.42322730973E+03  0.35263574750E+04  0.35008678475E+04 0.  0.
        4    1    3    3  502    0  0.10740205466E+04  0.17452326171E+03 -0.15927419580E+04  0.19289393617E+04  0.12699999809E+01 0.  1.
       -4    1    3    3    0  502 -0.10740205466E+04 -0.17452326171E+03  0.11695146482E+04  0.15974181133E+04  0.12699999809E+01 0. -1.
</event>
<event>
 5   0  0.1121462E-08  0.3501046E+04  0.7818609E-02  0.8113542E-01
        1   -1    0    0  501    0  0.00000000000E+00  0.00000000000E+00  0.16241181788E+04  0.16241181788E+04  0.50400001928E-02 0. -1.
       -1   -1    0    0    0  501  0.00000000000E+00  0.00000000000E+00 -0.18867657240E+04  0.18867657240E+04  0.50400001928E-02 0.  1.
    10030    2    1    2    0    0  0.00000000000E+00  0.00000000000E+00 -0.26264754520E+03  0.35108839028E+04  0.35010458503E+04 0.  0.
        1    1    3    3  502    0  0.12200233512E+04  0.65749702465E+03  0.94106010031E+03  0.16752174269E+04  0.50400001928E-02 0. -1.
       -1    1    3    3    0  502 -0.12200233512E+04 -0.65749702465E+03 -0.12037076455E+04  0.18356664759E+04  0.50400001928E-02 0.  1.
</event>
<event>
 5   0  0.1121462E-08  0.3500020E+04  0.7818609E-02  0.8113785E-01
        1   -1    0    0  501    0  0.00000000000E+00  0.00000000000E+00  0.23730395532E+04  0.23730395532E+04  0.50400001928E-02 0. -1.
       -1   -1    0    0    0  501  0.00000000000E+00  0.00000000000E+00 -0.12905538622E+04  0.12905538622E+04  0.50400001928E-02 0.  1.
    10030    2    1    2    0    0  0.00000000000E+00  0.00000000000E+00  0.10824856911E+04  0.36635934154E+04  0.35000202060E+04 0.  0.
        2    1    3    3  502    0 -0.11631745433E+04  0.59697174245E+03 -0.67638709560E+03  0.14720223444E+04  0.25500000920E-02 0.  1.
       -2    1    3    3    0  502  0.11631745433E+04 -0.59697174245E+03  0.17588727867E+04  0.21915710710E+04  0.25500000920E-02 0. -1.
</event>
<event>
 5   0  0.3467834E-08  0.3507941E+04  0.7818609E-02  0.8111911E-01
       -2   -1    0    0    0  501  0.00000000000E+00  0.00000000000E+00  0.12769019512E+04  0.12769019512E+04  0.25500000920E-02 0.  1.
        2   -1    0    0  501    0  0.00000000000E+00  0.00000000000E+00 -0.24092791922E+04  0.24092791922E+04  0.25500000920E-02 0. -1.
    10030    2    1    2    0    0  0.00000000000E+00  0.00000000000E+00 -0.11323772409E+04  0.36861811434E+04  0.35079414485E+04 0.  0.
        3    1    3    3  502    0  0.47839794207E+02 -0.17428953181E+04 -0.76678210994E+03  0.19047119336E+04  0.10100000352E+00 0.  1.
       -3    1    3    3    0  502 -0.47839794207E+02  0.17428953181E+04 -0.36559513099E+03  0.17814692098E+04  0.10100000352E+00 0. -1.
</event>
<event>
 5   0  0.1121462E-08  0.3496636E+04  0.7818609E-02  0.8114588E-01
        1   -1    0    0  501    0  0.00000000000E+00  0.00000000000E+00  0.26895463387E+04  0.26895463387E+04  0.50400001928E-02 0.  1.
       -1   -1    0    0    0  501  0.00000000000E+00  0.00000000000E+00 -0.11364799962E+04  0.11364799962E+04  0.50400001928E-02 0. -1.
    10030    2    1    2    0    0  0.00000000000E+00  0.00000000000E+00  0.15530663424E+04  0.38260263349E+04  0.34966358763E+04 0.  0.
        4    1    3    3  502    0 -0.38985854738E+03  0.12105833581E+04 -0.53610454930E+03  0.13801852972E+04  0.12699999809E+01 0. -1.
       -4    1    3    3    0  502  0.38985854738E+03 -0.12105833581E+04  0.20891708917E+04  0.24458410377E+04  0.12699999809E+01 0.  1.
</event>
<event>
 5   0  0.1121462E-08  0.3499936E+04  0.7818609E-02  0.8113805E-01
        1   -1    0    0  501    0  0.00000000000E+00  0.00000000000E+00  0.17232279027E+04  0.17232279027E+04  0.50400001928E-02 0. -1.
       -1   -1    0    0    0  501  0.00000000000E+00  0.00000000000E+00 -0.17771232902E+04  0.17771232903E+04  0.50400001928E-02 0.  1.
    10030    2    1    2    0    0  0.00000000000E+00  0.00000000000E+00 -0.53895387585E+02  0.35003511929E+04  0.34999362510E+04 0.  0.
        2    1    3    3  502    0  0.10526927427E+04 -0.12946857219E+04  0.50038639037E+03  0.17420561612E+04  0.25500000920E-02 0. -1.
       -2    1    3    3    0  502 -0.10526927427E+04  0.12946857219E+04 -0.55428177796E+03  0.17582950317E+04  0.25500000920E-02 0.  1.
</event>
<event>
 5   0  0.3553585E-08  0.3501992E+04  0.7818609E-02  0.8113318E-01
        2   -1    0    0  501    0  0.00000000000E+00  0.00000000000E+00  0.15915346750E+04  0.15915346750E+04  0.25500000920E-02 0.  1.
       -2   -1    0    0    0  501  0.00000000000E+00  0.00000000000E+00 -0.19264338637E+04  0.19264338637E+04  0.25500000920E-02 0. -1.
    10030    2    1    2    0    0  0.00000000000E+00  0.00000000000E+00 -0.33489918876E+03  0.35179685387E+04  0.35019916009E+04 0.  0.
        2    1    3    3  502    0 -0.94702237939E+03 -0.10419825424E+04 -0.12130668154E+04  0.18585236357E+04  0.25500000920E-02 0.  1.
       -2    1    3    3    0  502  0.94702237939E+03  0.10419825424E+04  0.87816762667E+03  0.16594449030E+04  0.25500000920E-02 0. -1.
</event>
<event>
 5   0  0.1140808E-08  0.3499904E+04  0.7818609E-02  0.8113813E-01
        1   -1    0    0  501    0  0.00000000000E+00  0.00000000000E+00  0.17934785726E+04  0.17934785726E+04  0.50400001928E-02 0. -1.
       -1   -1    0    0    0  501  0.00000000000E+00  0.00000000000E+00 -0.17074817983E+04  0.17074817983E+04  0.50400001928E-02 0.  1.
    10030    2    1    2    0    0  0.00000000000E+00  0.00000000000E+00  0.85996774315E+02  0.35009603709E+04  0.34999040092E+04 0.  0.
        3    1    3    3  502    0  0.10552172145E+03 -0.24938173438E+03  0.17723943847E+04  0.17929606655E+04  0.10100000352E+00 0. -1.
       -3    1    3    3    0  502 -0.10552172145E+03  0.24938173438E+03 -0.16863976104E+04  0.17079997054E+04  0.10100000352E+00 0.  1.
</event>
<event>
 5   0  0.3554451E-08  0.3501958E+04  0.7818609E-02  0.8113326E-01
        2   -1    0    0  501    0  0.00000000000E+00  0.00000000000E+00  0.17749367415E+04  0.17749367415E+04  0.25500000920E-02 0.  1.
       -2   -1    0    0    0  501  0.00000000000E+00  0.00000000000E+00 -0.17273443584E+04  0.17273443584E+04  0.25500000920E-02 0. -1.
    10030    2    1    2    0    0  0.00000000000E+00  0.00000000000E+00  0.47592383076E+02  0.35022810999E+04  0.35019577193E+04 0.  0.
        5    1    3    3  502    0  0.15596931177E+04 -0.22040465684E+03 -0.74092076945E+03  0.17407488362E+04  0.46999998093E+01 0.  1.
       -5    1    3    3    0  502 -0.15596931177E+04  0.22040465684E+03  0.78851315252E+03  0.17615322637E+04  0.46999998093E+01 0. -1.
</event>
<event>
 5   0  0.1140808E-08  0.3498713E+04  0.7818609E-02  0.8114095E-01
       -1   -1    0    0    0  501  0.00000000000E+00  0.00000000000E+00  0.17668097428E+04  0.17668097428E+04  0.50400001928E-02 0.  1.
        1   -1    0    0  501    0  0.00000000000E+00  0.00000000000E+00 -0.17320752677E+04  0.17320752677E+04  0.50400001928E-02 0. -1.
    10030    2    1    2    0    0  0.00000000000E+00  0.00000000000E+00  0.34734475186E+02  0.34988850105E+04  0.34987125965E+04 0.  0.
        3    1    3    3  502    0 -0.14644998573E+04  0.88278735073E+03  0.38640318562E+03  0.17531060352E+04  0.10100000352E+00 0.  1.
       -3    1    3    3    0  502  0.14644998573E+04 -0.88278735073E+03 -0.35166871043E+03  0.17457789753E+04  0.10100000352E+00 0. -1.
</event>
<event>
 5   0  0.3553585E-08  0.3500144E+04  0.7818609E-02  0.8113756E-01
        2   -1    0    0  501    0  0.00000000000E+00  0.00000000000E+00  0.28257112552E+04  0.28257112552E+04  0.25500000920E-02 0.  1.
       -2   -1    0    0    0  501  0.00000000000E+00  0.00000000000E+00 -0.10838869086E+04  0.10838869086E+04  0.25500000920E-02 0. -1.
    10030    2    1    2    0    0  0.00000000000E+00  0.00000000000E+00  0.17418243467E+04  0.39095981638E+04  0.35001436753E+04 0.  0.
        2    1    3    3  502    0 -0.41611375746E+03 -0.99657086682E+03  0.24091257417E+04  0.26401119278E+04  0.25500000920E-02 0.  1.
       -2    1    3    3    0  502  0.41611375746E+03  0.99657086682E+03 -0.66730139503E+03  0.12694862361E+04  0.25500000920E-02 0. -1.
</event>
<event>
 5   0  0.3553585E-08  0.3500328E+04  0.7818609E-02  0.8113712E-01
        2   -1    0    0  501    0  0.00000000000E+00  0.00000000000E+00  0.17837190631E+04  0.17837190631E+04  0.25500000920E-02 0. -1.
       -2   -1    0    0    0  501  0.00000000000E+00  0.00000000000E+00 -0.17172397644E+04  0.17172397644E+04  0.25500000920E-02 0.  1.
    10030    2    1    2    0    0  0.00000000000E+00  0.00000000000E+00  0.66479298677E+02  0.35009588275E+04  0.35003275868E+04 0.  0.
        2    1    3    3  502    0 -0.44782452469E+03  0.25033725863E+03 -0.16403396545E+04  0.17187000116E+04  0.25500000920E-02 0.  1.
       -2    1    3    3    0  502  0.44782452469E+03 -0.25033725863E+03  0.17068189531E+04  0.17822588159E+04  0.25500000920E-02 0. -1.
</event>
<event>
 5   0  0.1121462E-08  0.3499898E+04  0.7818609E-02  0.8113814E-01
        1   -1    0    0  501    0  0.00000000000E+00  0.00000000000E+00  0.14184198947E+04  0.14184198948E+04  0.50400001928E-02 0. -1.
       -1   -1    0    0    0  501  0.00000000000E+00  0.00000000000E+00 -0.21589668173E+04  0.21589668173E+04  0.50400001928E-02 0.  1.
    10030    2    1    2    0    0  0.00000000000E+00  0.00000000000E+00 -0.74054692252E+03  0.35773867120E+04  0.34998979904E+04 0.  0.
        1    1    3    3  502    0  0.67226013208E+03 -0.61152766931E+03  0.11583036523E+04  0.14722659836E+04  0.50400001928E-02 0. -1.
       -1    1    3    3    0  502 -0.67226013208E+03  0.61152766931E+03 -0.18988505749E+04  0.21051207284E+04  0.50400001928E-02 0.  1.
</event>
<event>
 5   0  0.3467834E-08  0.3499554E+04  0.7818609E-02  0.8113896E-01
       -2   -1    0    0    0  501  0.00000000000E+00  0.00000000000E+00  0.13218753046E+04  0.13218753046E+04  0.25500000920E-02 0.  1.
        2   -1    0    0  501    0  0.00000000000E+00  0.00000000000E+00 -0.23161938920E+04  0.23161938920E+04  0.25500000920E-02 0. -1.
    10030    2    1    2    0    0  0.00000000000E+00  0.00000000000E+00 -0.99431858742E+03  0.36380691967E+04  0.34995539754E+04 0.  0.
        3    1    3    3  502    0  0.11259139592E+04 -0.43695634794E+03 -0.18134124732E+04  0.21787789933E+04  0.10100000352E+00 0. -1.
       -3    1    3    3    0  502 -0.11259139592E+04  0.43695634794E+03  0.81909388580E+03  0.14592902033E+04  0.10100000352E+00 0.  1.
</event>
<event>
 5   0  0.3553585E-08  0.3499938E+04  0.7818609E-02  0.8113805E-01
        2   -1    0    0  501    0  0.00000000000E+00  0.00000000000E+00  0.28354953705E+04  0.28354953705E+04  0.25500000920E-02 0.  1.
       -2   -1    0    0    0  501  0.00000000000E+00  0.00000000000E+00 -0.10800202059E+04  0.10800202059E+04  0.25500000920E-02 0. -1.
    10030    2    1    2    0    0  0.00000000000E+00  0.00000000000E+00  0.17554751645E+04  0.39155155764E+04  0.34999384531E+04 0.  0.
        2    1    3    3  502    0 -0.24466930218E+03  0.17315736139E+04  0.80539017866E+03  0.19253216842E+04  0.25500000920E-02 0.  1.
       -2    1    3    3    0  502  0.24466930218E+03 -0.17315736139E+04  0.95008498588E+03  0.19901938921E+04  0.25500000920E-02 0. -1.
</event>
<event>
 5   0  0.1140808E-08  0.3501594E+04  0.7818609E-02  0.8113412E-01
       -1   -1    0    0    0  501  0.00000000000E+00  0.00000000000E+00  0.16655152334E+04  0.16655152334E+04  0.50400001928E-02 0.  1.
        1   -1    0    0  501    0  0.00000000000E+00  0.00000000000E+00 -0.18404458990E+04  0.18404458990E+04  0.50400001928E-02 0. -1.
    10030    2    1    2    0    0  0.00000000000E+00  0.00000000000E+00 -0.17493066561E+03  0.35059611323E+04  0.35015943117E+04 0.  0.
        3    1    3    3  502    0 -0.37163852095E+02  0.17493170795E+04 -0.14918045382E+03  0.17560598551E+04  0.10100000352E+00 0. -1.
       -3    1    3    3    0  502  0.37163852095E+02 -0.17493170795E+04 -0.25750211789E+02  0.17499012773E+04  0.10100000352E+00 0.  1.
</event>
<event>
 5   0  0.1129219E-08  0.3502556E+04  0.7818609E-02  0.8113185E-01
        1   -1    0    0  501    0  0.00000000000E+00  0.00000000000E+00  0.21541729829E+04  0.21541729829E+04  0.50400001928E-02 0.  1.
       -1   -1    0    0    0  501  0.00000000000E+00  0.00000000000E+00 -0.14237363175E+04  0.14237363175E+04  0.50400001928E-02 0. -1.
    10030    2    1    2    0    0  0.00000000000E+00  0.00000000000E+00  0.73043666545E+03  0.35779093004E+04  0.35025558153E+04 0.  0.
        5    1    3    3  502    0  0.22601055875E+02 -0.17200434067E+04  0.70075429001E+03  0.18574549237E+04  0.46999998093E+01 0.  1.
       -5    1    3    3    0  502 -0.22601055875E+02  0.17200434067E+04  0.29682375438E+02  0.17204543767E+04  0.46999998093E+01 0. -1.
</event>
<event>
 5   0  0.1121462E-08  0.3499255E+04  0.7818609E-02  0.8113967E-01
       -1   -1    0    0    0  501  0.00000000000E+00  0.00000000000E+00  0.13271672995E+04  0.13271672995E+04  0.50400001928E-02 0. -1.
        1   -1    0    0  501    0  0.00000000000E+00  0.00000000000E+00 -0.23065640643E+04  0.23065640643E+04  0.50400001928E-02 0.  1.
    10030    2    1    2    0    0  0.00000000000E+00  0.00000000000E+00 -0.97939676484E+03  0.36337313638E+04  0.34992550066E+04 0.  0.
        4    1    3    3  502    0 -0.11822153496E+03  0.15749918670E+03  0.13156211893E+04  0.13302793135E+04  0.12699999809E+01 0. -1.
       -4    1    3    3    0  502  0.11822153496E+03 -0.15749918670E+03 -0.22950179542E+04  0.23034520503E+04  0.12699999809E+01 0.  1.
</event>
<event>
 5   0  0.3467834E-08  0.3502947E+04  0.7818609E-02  0.8113092E-01
       -2   -1    0    0    0  501  0.00000000000E+00  0.00000000000E+00  0.18099903988E+04  0.18099903988E+04  0.25500000920E-02 0.  1.
        2   -1    0    0  501    0  0.00000000000E+00  0.00000000000E+00 -0.16948483683E+04  0.16948483683E+04  0.25500000920E-02 0. -1.
    10030    2    1    2    0    0  0.00000000000E+00  0.00000000000E+00  0.11514203048E+03  0.35048387671E+04  0.35029469159E+04 0.  0.
        3    1    3    3  502    0  0.12758103043E+04  0.11890837018E+04 -0.10390785006E+03  0.17471144307E+04  0.10100000352E+00 0. -1.
       -3    1    3    3    0  502 -0.12758103043E+04 -0.11890837018E+04  0.21904988054E+03  0.17577243364E+04  0.10100000352E+00 0.  1.
</event>
<event>
 5   0  0.3553585E-08  0.3500396E+04  0.7818609E-02  0.8113696E-01
        2   -1    0    0  501    0  0.00000000000E+00  0.00000000000E+00  0.19530764063E+04  0.19530764063E+04  0.25500000920E-02 0.  1.
       -2   -1    0    0    0  501  0.00000000000E+00  0.00000000000E+00 -0.15683939932E+04  0.15683939932E+04  0.25500000920E-02 0. -1.
    10030    2    1    2    0    0  0.00000000000E+00  0.00000000000E+00  0.38468241306E+03  0.35214703995E+04  0.35003961512E+04 0.  0.
        2    1    3    3  502    0  0.10245338213E+04 -0.22378024830E+02 -0.12350111965E+04  0.16048124446E+04  0.25500000920E-02 0. -1.
       -2    1    3    3    0  502 -0.10245338213E+04  0.22378024830E+02  0.16196936096E+04  0.19166579549E+04  0.25500000920E-02 0.  1.
</event>
<event>
 5   0  0.3700096E-08  0.3483952E+04  0.7818609E-02  0.8117604E-01
        2   -1    0    0  501    0  0.00000000000E+00  0.00000000000E+00  0.13218308979E+04  0.13218308979E+04  0.25500000920E-02 0. -1.
       -2   -1    0    0    0  501  0.00000000000E+00  0.00000000000E+00 -0.22956649508E+04  0.22956649508E+04  0.25500000920E-02 0.  1.
    10030    2    1    2    0    0  0.00000000000E+00  0.00000000000E+00 -0.97383405288E+03  0.36174958488E+04  0.34839522748E+04 0.  0.
        4    1    3    3  502    0 -0.14802472372E+04 -0.84216375290E+03 -0.10667290562E+03  0.17063857687E+04  0.12699999809E+01 0. -1.
       -4    1    3    3    0  502  0.14802472372E+04  0.84216375290E+03 -0.86716114726E+03  0.19111100801E+04  0.12699999809E+01 0.  1.
</event>
<event>
 5   0  0.1121462E-08  0.3500053E+04  0.7818609E-02  0.8113777E-01
        1   -1    0    0  501    0  0.00000000000E+00  0.00000000000E+00  0.14497859039E+04  0.14497859039E+04  0.50400001928E-02 0. -1.
       -1   -1    0    0    0  501  0.00000000000E+00  0.00000000000E+00 -0.21124443406E+04  0.21124443406E+04  0.50400001928E-02 0.  1.
    10030    2    1    2    0    0  0.00000000000E+00  0.00000000000E+00 -0.66265843663E+03  0.35622302445E+04  0.35000525869E+04 0.  0.
        2    1    3    3  502    0  0.14597466918E+04  0.54228524973E+03 -0.11440501335E+04  0.19323002883E+04  0.25500000920E-02 0.  1.
       -2    1    3    3    0  502 -0.14597466918E+04 -0.54228524973E+03  0.48139169683E+03  0.16299299562E+04  0.25500000920E-02 0. -1.
</event>
<event>
 5   0  0.3467834E-08  0.3499315E+04  0.7818609E-02  0.8113952E-01
        2   -1    0    0  501    0  0.00000000000E+00  0.00000000000E+00  0.17420647152E+04  0.17420647152E+04  0.25500000920E-02 0.  1.
       -2   -1    0    0    0  501  0.00000000000E+00  0.00000000000E+00 -0.17572831274E+04  0.17572831274E+04  0.25500000920E-02 0. -1.
    10030    2    1    2    0    0  0.00000000000E+00  0.00000000000E+00 -0.15218412241E+02  0.34993478426E+04  0.34993147506E+04 0.  0.
        3    1    3    3  502    0 -0.89392246993E+02 -0.73398725560E+03 -0.15933646144E+04  0.17565702576E+04  0.10100000352E+00 0. -1.
       -3    1    3    3    0  502  0.89392246993E+02  0.73398725560E+03  0.15781462022E+04  0.17427775850E+04  0.10100000352E+00 0.  1.
</event>
<event>
 5   0  0.3553585E-08  0.3504863E+04  0.7818609E-02  0.8112638E-01
       -2   -1    0    0    0  501  0.00000000000E+00  0.00000000000E+00  0.14738817902E+04  0.14738817902E+04  0.25500000920E-02 0. -1.
        2   -1    0    0  501    0  0.00000000000E+00  0.00000000000E+00 -0.20836246375E+04  0.20836246375E+04  0.25500000920E-02 0.  1.
    10030    2    1    2    0    0  0.00000000000E+00  0.00000000000E+00 -0.60974284728E+03  0.35575064277E+04  0.35048631419E+04 0.  0.
        2    1    3    3  502    0  0.11614915423E+04 -0.13120392660E+04 -0.32772116158E+03  0.17826695706E+04  0.25500000920E-02 0.  1.
       -2    1    3    3    0  502 -0.11614915423E+04  0.13120392660E+04 -0.28202168569E+03  0.17748368571E+04  0.25500000920E-02 0. -1.
</event>
<event>
 5   0  0.1121462E-08  0.3501056E+04  0.7818609E-02  0.8113540E-01
       -1   -1    0    0    0  501  0.00000000000E+00  0.00000000000E+00  0.18952527729E+04  0.18952527729E+04  0.50400001928E-02 0. -1.
        1   -1    0    0  501    0  0.00000000000E+00  0.00000000000E+00 -0.16168550368E+04  0.16168550368E+04  0.50400001928E-02 0.  1.
    10030    2    1    2    0    0  0.00000000000E+00  0.00000000000E+00  0.27839773611E+03  0.35121078098E+04  0.35010564074E+04 0.  0.
        1    1    3    3  502    0 -0.12934431624E+04  0.91043024364E+03 -0.61314887892E+03  0.16964168092E+04  0.50400001928E-02 0.  1.
       -1    1    3    3    0  502  0.12934431624E+04 -0.91043024364E+03  0.89154661503E+03  0.18156910006E+04  0.50400001928E-02 0. -1.
</event>
<event>
 5   0  0.1129219E-08  0.3502130E+04  0.7818609E-02  0.8113285E-01
       -1   -1    0    0    0  501  0.00000000000E+00  0.00000000000E+00  0.20021332885E+04  0.20021332885E+04  0.50400001928E-02 0. -1.
        1   -1    0    0  501    0  0.00000000000E+00  0.00000000000E+00 -0.15314806378E+04  0.15314806378E+04  0.50400001928E-02 0.  1.
    10030    2    1    2    0    0  0.00000000000E+00  0.00000000000E+00  0.47065265070E+03  0.35336139264E+04  0.35021298467E+04 0.  0.
        5    1    3    3  502    0 -0.73578143410E+03 -0.10152078280E+04  0.14686840073E+04  0.19310815768E+04  0.46999998093E+01 0. -1.
       -5    1    3    3    0  502  0.73578143410E+03  0.10152078280E+04 -0.99803135657E+03  0.16025323496E+04  0.46999998093E+01 0.  1.
</event>
<event>
 5   0  0.1121462E-08  0.3503731E+04  0.7818609E-02  0.8112906E-01
       -1   -1    0    0    0  501  0.00000000000E+00  0.00000000000E+00  0.18406033026E+04  0.18406033026E+04  0.50400001928E-02 0.  1.
        1   -1    0    0  501    0  0.00000000000E+00  0.00000000000E+00 -0.16674060388E+04  0.16674060388E+04  0.50400001928E-02 0. -1.
    10030    2    1    2    0    0  0.00000000000E+00  0.00000000000E+00  0.17319726385E+03  0.35080093414E+04  0.35037311893E+04 0.  0.
        4    1    3    3  502    0  0.55798953545E+03 -0.15445961997E+04 -0.52398343939E+03  0.17238590428E+04  0.12699999809E+01 0. -1.
       -4    1    3    3    0  502 -0.55798953545E+03  0.15445961997E+04  0.69718070324E+03  0.17841502985E+04  0.12699999809E+01 0.  1.
</event>
<event>
 5   0  0.1140808E-08  0.3499294E+04  0.7818609E-02  0.8113957E-01
       -1   -1    0    0    0  501  0.00000000000E+00  0.00000000000E+00  0.93998962265E+03  0.93998962266E+03  0.50400001928E-02 0.  1.
        1   -1    0    0  501    0  0.00000000000E+00  0.00000000000E+00 -0.32567009671E+04  0.32567009671E+04  0.50400001928E-02 0. -1.
    10030    2    1    2    0    0  0.00000000000E+00  0.00000000000E+00 -0.23167113444E+04  0.41966905897E+04  0.34992942792E+04 0.  0.
        3    1    3    3  502    0 -0.10561062728E+04  0.22492875738E+03 -0.28094306886E+04  0.30097930509E+04  0.10100000352E+00 0. -1.
       -3    1    3    3    0  502  0.10561062728E+04 -0.22492875738E+03  0.49271934412E+03  0.11868975388E+04  0.10100000352E+00 0.  1.
</event>
<event>
 5   0  0.3467834E-08  0.3490976E+04  0.7818609E-02  0.8115932E-01
        2   -1    0    0  501    0  0.00000000000E+00  0.00000000000E+00  0.18038372860E+04  0.18038372860E+04  0.25500000920E-02 0.  1.
       -2   -1    0    0    0  501  0.00000000000E+00  0.00000000000E+00 -0.16890264968E+04  0.16890264968E+04  0.25500000920E-02 0. -1.
    10030    2    1    2    0    0  0.00000000000E+00  0.00000000000E+00  0.11481078917E+03  0.34928637828E+04  0.34909763516E+04 0.  0.
        3    1    3    3  502    0  0.16063310178E+03 -0.96988544035E+03 -0.13856809586E+04  0.16989974956E+04  0.10100000352E+00 0. -1.
       -3    1    3    3    0  502 -0.16063310178E+03  0.96988544035E+03  0.15004917478E+04  0.17938662871E+04  0.10100000352E+00 0.  1.
</event>
<event>
 5   0  0.1121462E-08  0.3502906E+04  0.7818609E-02  0.8113102E-01
        1   -1    0    0  501    0  0.00000000000E+00  0.00000000000E+00  0.17839451986E+04  0.17839451986E+04  0.50400001928E-02 0.  1.
       -1   -1    0    0    0  501  0.00000000000E+00  0.00000000000E+00 -0.17195524651E+04  0.17195524651E+04  0.50400001928E-02 0. -1.
    10030    2    1    2    0    0  0.00000000000E+00  0.00000000000E+00  0.64392733485E+02  0.35034976638E+04  0.35029058588E+04 0.  0.
        4    1    3    3  502    0 -0.11501318078E+03 -0.11291535092E+02 -0.17157344994E+04  0.17196226377E+04  0.12699999809E+01 0. -1.
       -4    1    3    3    0  502  0.11501318078E+03  0.11291535092E+02  0.17801272329E+04  0.17838750261E+04  0.12699999809E+01 0.  1.
</event>
<event>
 5   0  0.3628017E-08  0.3501094E+04  0.7818609E-02  0.8113531E-01
        2   -1    0    0  501    0  0.00000000000E+00  0.00000000000E+00  0.18013008088E+04  0.18013008088E+04  0.25500000920E-02 0. -1.
       -2   -1    0    0    0  501  0.00000000000E+00  0.00000000000E+00 -0.17012234673E+04  0.17012234673E+04  0.25500000920E-02 0.  1.
    10030    2    1    2    0    0  0.00000000000E+00  0.00000000000E+00  0.10007734156E+03  0.35025242761E+04  0.35010942333E+04 0.  0.
        1    1    3    3  502    0 -0.47158109719E+03  0.13045292864E+03 -0.16314240151E+04  0.17032178413E+04  0.50400001928E-02 0.  1.
       -1    1    3    3    0  502  0.47158109719E+03 -0.13045292864E+03  0.17315013567E+04  0.17993064347E+04  0.50400001928E-02 0. -1.
</event>
<event>
 5   0  0.1121462E-08  0.3500021E+04  0.7818609E-02  0.8113785E-01
       -1   -1    0    0    0  501  0.00000000000E+00  0.00000000000E+00  0.14022309121E+04  0.14022309121E+04  0.50400001928E-02 0.  1.
        1   -1    0    0  501    0  0.00000000000E+00  0.00000000000E+00 -0.21840459946E+04  0.21840459947E+04  0.50400001928E-02 0. -1.
    10030    2    1    2    0    0  0.00000000000E+00  0.00000000000E+00 -0.78181508251E+03  0.35862769068E+04  0.35000210326E+04 0.  0.
        2    1    3    3  502    0  0.10211259513E+04 -0.11971601083E+04 -0.11757117507E+04  0.19642272409E+04  0.25500000920E-02 0. -1.
       -2    1    3    3    0  502 -0.10211259513E+04  0.11971601083E+04  0.39389666819E+03  0.16220496659E+04  0.25500000920E-02 0.  1.
</event>
<event>
 5   0  0.1140808E-08  0.3501909E+04  0.7818609E-02  0.8113338E-01
       -1   -1    0    0    0  501  0.00000000000E+00  0.00000000000E+00  0.16462006914E+04  0.16462006914E+04  0.50400001928E-02 0.  1.
        1   -1    0    0  501    0  0.00000000000E+00  0.00000000000E+00 -0.18623744441E+04  0.18623744441E+04  0.50400001928E-02 0. -1.
    10030    2    1    2    0    0  0.00000000000E+00  0.00000000000E+00 -0.21617375272E+03  0.35085751355E+04  0.35019092493E+04 0.  0.
        3    1    3    3  502    0 -0.12498034073E+04 -0.61594913794E+03 -0.11705015832E+04  0.18197460987E+04  0.10100000352E+00 0. -1.
       -3    1    3    3    0  502  0.12498034073E+04  0.61594913794E+03  0.95432783046E+03  0.16888290368E+04  0.10100000352E+00 0.  1.
</event>
<event>
 5   0  0.3628017E-08  0.3501957E+04  0.7818609E-02  0.8113326E-01
       -2   -1    0    0    0  501  0.00000000000E+00  0.00000000000E+00  0.11801414257E+04  0.11801414257E+04  0.25500000920E-02 0. -1.
        2   -1    0    0  501    0  0.00000000000E+00  0.00000000000E+00 -0.25979311600E+04  0.25979311600E+04  0.25500000920E-02 0.  1.
    10030    2    1    2    0    0  0.00000000000E+00  0.00000000000E+00 -0.14177897342E+04  0.37780725857E+04  0.35019572717E+04 0.  0.
        1    1    3    3  502    0  0.17126021248E+04 -0.34650826280E+03 -0.83120084040E+03  0.19349338106E+04  0.50400001928E-02 0.  1.
       -1    1    3    3    0  502 -0.17126021248E+04  0.34650826280E+03 -0.58658889384E+03  0.18431387752E+04  0.50400001928E-02 0. -1.
</event>
<event>
 5   0  0.1121462E-08  0.3499514E+04  0.7818609E-02  0.8113905E-01
       -1   -1    0    0    0  501  0.00000000000E+00  0.00000000000E+00  0.18239168519E+04  0.18239168519E+04  0.50400001928E-02 0. -1.
        1   -1    0    0  501    0  0.00000000000E+00  0.00000000000E+00 -0.16786124105E+04  0.16786124105E+04  0.50400001928E-02 0.  1.
    10030    2    1    2    0    0  0.00000000000E+00  0.00000000000E+00  0.14530444137E+03  0.35025292624E+04  0.34995139453E+04 0.  0.
        4    1    3    3  502    0 -0.95608469801E+03  0.14625866259E+04 -0.19025079569E+02  0.17474613457E+04  0.12699999809E+01 0. -1.
       -4    1    3    3    0  502  0.95608469801E+03 -0.14625866259E+04  0.16432952094E+03  0.17550679167E+04  0.12699999809E+01 0.  1.
</event>
<event>
 5   0  0.3553585E-08  0.3502309E+04  0.7818609E-02  0.8113243E-01
       -2   -1    0    0    0  501  0.00000000000E+00  0.00000000000E+00  0.16343239201E+04  0.16343239201E+04  0.25500000920E-02 0.  1.
        2   -1    0    0  501    0  0.00000000000E+00  0.00000000000E+00 -0.18763367388E+04  0.18763367388E+04  0.25500000920E-02 0. -1.
    10030    2    1    2    0    0  0.00000000000E+00  0.00000000000E+00 -0.24201281874E+03  0.35106606589E+04  0.35023089609E+04 0.  0.
        2    1    3    3  502    0  0.91574205161E+03  0.14912229760E+04 -0.55947513805E+02  0.17508453939E+04  0.25500000920E-02 0.  1.
       -2    1    3    3    0  502 -0.91574205161E+03 -0.14912229760E+04 -0.18606530494E+03  0.17598152650E+04  0.25500000920E-02 0. -1.
</event>
<event>
 5   0  0.1129219E-08  0.3499836E+04  0.7818609E-02  0.8113829E-01
        1   -1    0    0  501    0  0.00000000000E+00  0.00000000000E+00  0.24642099846E+04  0.24642099846E+04  0.50400001928E-02 0. -1.
       -1   -1    0    0    0  501  0.00000000000E+00  0.00000000000E+00 -0.12426756824E+04  0.12426756824E+04  0.50400001928E-02 0.  1.
    10030    2    1    2    0    0  0.00000000000E+00  0.00000000000E+00  0.12215343022E+04  0.37068856670E+04  0.34998364671E+04 0.  0.
        5    1    3    3  502    0 -0.13500175661E+04 -0.32806001003E+03  0.17376756866E+04  0.22247943008E+04  0.46999998093E+01 0. -1.
       -5    1    3    3    0  502  0.13500175661E+04  0.32806001003E+03 -0.51614138443E+03  0.14820913662E+04  0.46999998093E+01 0.  1.
</event>
<event>
 5   0  0.3467834E-08  0.3496401E+04  0.7818609E-02  0.8114643E-01
       -2   -1    0    0    0  501  0.00000000000E+00  0.00000000000E+00  0.17895910230E+04  0.17895910230E+04  0.25500000920E-02 0.  1.
        2   -1    0    0  501    0  0.00000000000E+00  0.00000000000E+00 -0.17077673660E+04  0.17077673660E+04  0.25500000920E-02 0. -1.
    10030    2    1    2    0    0  0.00000000000E+00  0.00000000000E+00  0.81823656979E+02  0.34973583891E+04  0.34964010912E+04 0.  0.
        3    1    3    3  502    0  0.11318299733E+04 -0.12735606210E+04  0.43243871277E+03  0.17578392971E+04  0.10100000352E+00 0. -1.
       -3    1    3    3    0  502 -0.11318299733E+04  0.12735606210E+04 -0.35061505579E+03  0.17395190920E+04  0.10100000352E+00 0.  1.
</event>
<event>
 5   0  0.1121462E-08  0.3501391E+04  0.7818609E-02  0.8113460E-01
        1   -1    0    0  501    0  0.00000000000E+00  0.00000000000E+00  0.29868063707E+04  0.29868063707E+04  0.50400001928E-02 0.  1.
       -1   -1    0    0    0  501  0.00000000000E+00  0.00000000000E+00 -0.10261575825E+04  0.10261575825E+04  0.50400001928E-02 0. -1.
    10030    2    1    2    0    0  0.00000000000E+00  0.00000000000E+00  0.19606487882E+04  0.40129639532E+04  0.35013905836E+04 0.  0.
        2    1    3    3  502    0 -0.64133076565E+03 -0.13623817337E+04  0.20038583639E+04  0.25065588926E+04  0.25500000920E-02 0.  1.
       -2    1    3    3    0  502  0.64133076565E+03  0.13623817337E+04 -0.43209575760E+02  0.15064050606E+04  0.25500000920E-02 0. -1.
</event>
<event>
 5   0  0.3553585E-08  0.3500276E+04  0.7818609E-02  0.8113725E-01
       -2   -1    0    0    0  501  0.00000000000E+00  0.00000000000E+00  0.12171802855E+04  0.12171802855E+04  0.25500000920E-02 0. -1.
        2   -1    0    0  501    0  0.00000000000E+00  0.00000000000E+00 -0.25164577982E+04  0.25164577982E+04  0.25500000920E-02 0.  1.
    10030    2    1    2    0    0  0.00000000000E+00  0.00000000000E+00 -0.12992775127E+04  0.37336380837E+04  0.35002758870E+04 0.  0.
        2    1    3    3  502    0 -0.44961301866E+03  0.15129781104E+04  0.15689907960E+03  0.15861500403E+04  0.25500000920E-02 0. -1.
       -2    1    3    3    0  502  0.44961301866E+03 -0.15129781104E+04 -0.14561765923E+04  0.21474880435E+04  0.25500000920E-02 0.  1.
</event>
<event>
 5   0  0.3628017E-08  0.3521044E+04  0.7818609E-02  0.8108821E-01
        2   -1    0    0  501    0  0.00000000000E+00  0.00000000000E+00  0.22124240919E+04  0.22124240919E+04  0.25500000920E-02 0. -1.
       -2   -1    0    0    0  501  0.00000000000E+00  0.00000000000E+00 -0.14009240142E+04  0.14009240142E+04  0.25500000920E-02 0.  1.
    10030    2    1    2    0    0  0.00000000000E+00  0.00000000000E+00  0.81150007769E+03  0.36133481061E+04  0.35210441860E+04 0.  0.
        1    1    3    3  502    0 -0.17092466218E+04  0.64153372901E+02  0.83357013196E+03  0.19027555898E+04  0.50400001928E-02 0.  1.
       -1    1    3    3    0  502  0.17092466218E+04 -0.64153372901E+02 -0.22070054271E+02  0.17105925163E+04  0.50400001928E-02 0. -1.
</event>
<event>
 5   0  0.1140808E-08  0.3499812E+04  0.7818609E-02  0.8113834E-01
        1   -1    0    0  501    0  0.00000000000E+00  0.00000000000E+00  0.24298372988E+04  0.24298372989E+04  0.50400001928E-02 0.  1.
       -1   -1    0    0    0  501  0.00000000000E+00  0.00000000000E+00 -0.12602372010E+04  0.12602372010E+04  0.50400001928E-02 0. -1.
    10030    2    1    2    0    0  0.00000000000E+00  0.00000000000E+00  0.11696000979E+04  0.36900744998E+04  0.34998121986E+04 0.  0.
        3    1    3    3  502    0 -0.17297273109E+04  0.35805056353E+00  0.30541429661E+03  0.17564835898E+04  0.10100000352E+00 0. -1.
       -3    1    3    3    0  502  0.17297273109E+04 -0.35805056353E+00  0.86418580124E+03  0.19335909101E+04  0.10100000352E+00 0.  1.
</event>
<event>
 5   0  0.1121462E-08  0.3499813E+04  0.7818609E-02  0.8113834E-01
        1   -1    0    0  501    0  0.00000000000E+00  0.00000000000E+00  0.14800124677E+04  0.14800124677E+04  0.50400001928E-02 0.  1.
       -1   -1    0    0    0  501  0.00000000000E+00  0.00000000000E+00 -0.20690185948E+04  0.20690185948E+04  0.50400001928E-02 0. -1.
    10030    2    1    2    0    0  0.00000000000E+00  0.00000000000E+00 -0.58900612712E+03  0.35490310625E+04  0.34998133186E+04 0.  0.
        4    1    3    3  502    0 -0.81219299957E+03 -0.63170003671E+03 -0.17298479511E+04  0.20127289812E+04  0.12699999809E+01 0. -1.
       -4    1    3    3    0  502  0.81219299957E+03  0.63170003671E+03  0.11408418240E+04  0.15363020813E+04  0.12699999809E+01 0.  1.
</event>
<event>
 5   0  0.3553585E-08  0.3498396E+04  0.7818609E-02  0.8114170E-01
       -2   -1    0    0    0  501  0.00000000000E+00  0.00000000000E+00  0.13129701265E+04  0.13129701265E+04  0.25500000920E-02 0.  1.
        2   -1    0    0  501    0  0.00000000000E+00  0.00000000000E+00 -0.23303599213E+04  0.23303599213E+04  0.25500000920E-02 0. -1.
    10030    2    1    2    0    0  0.00000000000E+00  0.00000000000E+00 -0.10173897947E+04  0.36433300478E+04  0.34983956098E+04 0.  0.
        2    1    3    3  502    0  0.53660070706E+03 -0.41585521088E+03  0.11701765878E+04  0.13528448255E+04  0.25500000920E-02 0.  1.
       -2    1    3    3    0  502 -0.53660070706E+03  0.41585521088E+03 -0.21875663826E+04  0.22904852223E+04  0.25500000920E-02 0. -1.
</event>
<event>
 5   0  0.3700096E-08  0.3499324E+04  0.7818609E-02  0.8113950E-01
       -2   -1    0    0    0  501  0.00000000000E+00  0.00000000000E+00  0.14335450879E+04  0.14335450879E+04  0.25500000920E-02 0. -1.
        2   -1    0    0  501    0  0.00000000000E+00  0.00000000000E+00 -0.21354866763E+04  0.21354866763E+04  0.25500000920E-02 0.  1.
    10030    2    1    2    0    0  0.00000000000E+00  0.00000000000E+00 -0.70194158836E+03  0.35690317642E+04  0.34993236118E+04 0.  0.
        4    1    3    3  502    0 -0.14497106695E+04 -0.63053430213E+03  0.41368412103E+03  0.16341268911E+04  0.12699999809E+01 0.  1.
       -4    1    3    3    0  502  0.14497106695E+04  0.63053430213E+03 -0.11156257094E+04  0.19349048731E+04  0.12699999809E+01 0. -1.
</event>
<event>
 5   0  0.3467834E-08  0.3499807E+04  0.7818609E-02  0.8113836E-01
       -2   -1    0    0    0  501  0.00000000000E+00  0.00000000000E+00  0.14792136222E+04  0.14792136222E+04  0.25500000920E-02 0. -1.
        2   -1    0    0  501    0  0.00000000000E+00  0.00000000000E+00 -0.20701290181E+04  0.20701290181E+04  0.25500000920E-02 0.  1.
    10030    2    1    2    0    0  0.00000000000E+00  0.00000000000E+00 -0.59091539589E+03  0.35493426404E+04  0.34998074481E+04 0.  0.
        3    1    3    3  502    0 -0.11926371478E+04 -0.10993572949E+03  0.99841077395E+03  0.15592605025E+04  0.10100000352E+00 0. -1.
       -3    1    3    3    0  502  0.11926371478E+04  0.10993572949E+03 -0.15893261698E+04  0.19900821378E+04  0.10100000352E+00 0.  1.
</event>
<event>
 5   0  0.3554451E-08  0.3500303E+04  0.7818609E-02  0.8113718E-01
        2   -1    0    0  501    0  0.00000000000E+00  0.00000000000E+00  0.16198613191E+04  0.16198613191E+04  0.25500000920E-02 0.  1.
       -2   -1    0    0    0  501  0.00000000000E+00  0.00000000000E+00 -0.18909207804E+04  0.18909207804E+04  0.25500000920E-02 0. -1.
    10030    2    1    2    0    0  0.00000000000E+00  0.00000000000E+00 -0.27105946122E+03  0.35107820995E+04  0.35003025182E+04 0.  0.
        5    1    3    3  502    0 -0.14399964513E+04 -0.51831726712E+03  0.71599069603E+03  0.16896471039E+04  0.46999998093E+01 0.  1.
       -5    1    3    3    0  502  0.14399964513E+04  0.51831726712E+03 -0.98705015725E+03  0.18211349955E+04  0.46999998093E+01 0. -1.
</event>
<event>
 5   0  0.1121462E-08  0.3499901E+04  0.7818609E-02  0.8113813E-01
        1   -1    0    0  501    0  0.00000000000E+00  0.00000000000E+00  0.28106469104E+04  0.28106469104E+04  0.50400001928E-02 0. -1.
       -1   -1    0    0    0  501  0.00000000000E+00  0.00000000000E+00 -0.10895452737E+04  0.10895452737E+04  0.50400001928E-02 0.  1.
    10030    2    1    2    0    0  0.00000000000E+00  0.00000000000E+00  0.17211016367E+04  0.39001921842E+04  0.34999011743E+04 0.  0.
        4    1    3    3  502    0  0.14330367428E+04  0.98464432094E+03  0.10812040887E+04  0.20474673720E+04  0.12699999809E+01 0. -1.
       -4    1    3    3    0  502 -0.14330367428E+04 -0.98464432094E+03  0.63989754793E+03  0.18527248122E+04  0.12699999809E+01 0.  1.
</event>
<event>
 5   0  0.1129219E-08  0.3497261E+04  0.7818609E-02  0.8114439E-01
        1   -1    0    0  501    0  0.00000000000E+00  0.00000000000E+00  0.14548548163E+04  0.14548548163E+04  0.50400001928E-02 0. -1.
       -1   -1    0    0    0  501  0.00000000000E+00  0.00000000000E+00 -0.21017281602E+04  0.21017281602E+04  0.50400001928E-02 0.  1.
    10030    2    1    2    0    0  0.00000000000E+00  0.00000000000E+00 -0.64687334395E+03  0.35565829765E+04  0.34972614066E+04 0.  0.
        5    1    3    3  502    0  0.16015806553E+04  0.26774360008E+03 -0.98324069077E+03  0.18982970202E+04  0.46999998093E+01 0.  1.
       -5    1    3    3    0  502 -0.16015806553E+04 -0.26774360008E+03  0.33636734682E+03  0.16582859563E+04  0.46999998093E+01 0. -1.
</event>
<event>
 5   0  0.1121462E-08  0.3495944E+04  0.7818609E-02  0.8114752E-01
        1   -1    0    0  501    0  0.00000000000E+00  0.00000000000E+00  0.18031273033E+04  0.18031273033E+04  0.50400001928E-02 0. -1.
       -1   -1    0    0    0  501  0.00000000000E+00  0.00000000000E+00 -0.16945041203E+04  0.16945041203E+04  0.50400001928E-02 0.  1.
    10030    2    1    2    0    0  0.00000000000E+00  0.00000000000E+00  0.10862318300E+03  0.34976314236E+04  0.34959443044E+04 0.  0.
        1    1    3    3  502    0 -0.23499391104E+02 -0.13625847921E+04 -0.10408477074E+04  0.17148042125E+04  0.50400001928E-02 0.  1.
       -1    1    3    3    0  502  0.23499391104E+02  0.13625847921E+04  0.11494708904E+04  0.17828272112E+04  0.50400001928E-02 0. -1.
</event>
<event>
 5   0  0.3700096E-08  0.3501045E+04  0.7818609E-02  0.8113542E-01
       -2   -1    0    0    0  501  0.00000000000E+00  0.00000000000E+00  0.13862318177E+04  0.13862318177E+04  0.25500000920E-02 0. -1.
        2   -1    0    0  501    0  0.00000000000E+00  0.00000000000E+00 -0.22105456257E+04  0.22105456257E+04  0.25500000920E-02 0.  1.
    10030    2    1    2    0    0  0.00000000000E+00  0.00000000000E+00 -0.82431380804E+03  0.35967774434E+04  0.35010448045E+04 0.  0.
        4    1    3    3  502    0 -0.10805050312E+03 -0.59803255168E+03  0.12743806857E+04  0.14118659955E+04  0.12699999809E+01 0. -1.
       -4    1    3    3    0  502  0.10805050312E+03  0.59803255168E+03 -0.20986944938E+04  0.21849114479E+04  0.12699999809E+01 0.  1.
</event>
<event>
 5   0  0.3700096E-08  0.3499497E+04  0.7818609E-02  0.8113909E-01
        2   -1    0    0  501    0  0.00000000000E+00  0.00000000000E+00  0.18542213537E+04  0.18542213537E+04  0.25500000920E-02 0.  1.
       -2   -1    0    0    0  501  0.00000000000E+00  0.00000000000E+00 -0.16511617124E+04  0.16511617124E+04  0.25500000920E-02 0. -1.
    10030    2    1    2    0    0  0.00000000000E+00  0.00000000000E+00  0.20305964130E+03  0.35053830661E+04  0.34994967098E+04 0.  0.
        4    1    3    3  502    0  0.14431838949E+04 -0.97051161147E+03  0.29406434331E+03  0.17638446625E+04  0.12699999809E+01 0. -1.
       -4    1    3    3    0  502 -0.14431838949E+04  0.97051161147E+03 -0.91004702009E+02  0.17415384036E+04  0.12699999809E+01 0.  1.
</event>
<event>
 5   0  0.1121462E-08  0.3501331E+04  0.7818609E-02  0.8113475E-01
       -3   -1    0    0    0  501  0.00000000000E+00  0.00000000000E+00  0.18091897436E+04  0.18091897465E+04  0.10100000352E+00 0. -1.
        3   -1    0    0  501    0  0.00000000000E+00  0.00000000000E+00 -0.16940343172E+04  0.16940343202E+04  0.10100000352E+00 0.  1.
    10030    2    1    2    0    0  0.00000000000E+00  0.00000000000E+00  0.11515542648E+03  0.35032240666E+04  0.35013309025E+04 0.  0.
        5    1    3    3  502    0  0.14463586976E+03  0.79562453082E+03  0.16111147469E+04  0.18026787696E+04  0.46999998093E+01 0.  1.
       -5    1    3    3    0  502 -0.14463586976E+03 -0.79562453082E+03 -0.14959593204E+04  0.17005452970E+04  0.46999998093E+01 0. -1.
</event>
<event>
 5   0  0.3553585E-08  0.3501722E+04  0.7818609E-02  0.8113382E-01
        2   -1    0    0  501    0  0.00000000000E+00  0.00000000000E+00  0.16650896799E+04  0.16650896799E+04  0.25500000920E-02 0. -1.
       -2   -1    0    0    0  501  0.00000000000E+00  0.00000000000E+00 -0.18410500979E+04  0.18410500979E+04  0.25500000920E-02 0.  1.
    10030    2    1    2    0    0  0.00000000000E+00  0.00000000000E+00 -0.17596041801E+03  0.35061397778E+04  0.35017215870E+04 0.  0.
        2    1    3    3  502    0 -0.20229129519E+03  0.15490274691E+04  0.70365358350E+03  0.17133406648E+04  0.25500000920E-02 0. -1.
       -2    1    3    3    0  502  0.20229129519E+03 -0.15490274691E+04 -0.87961400151E+03  0.17927991130E+04  0.25500000920E-02 0.  1.
</event>
<event>
 5   0  0.1121462E-08  0.3500291E+04  0.7818609E-02  0.8113721E-01
        1   -1    0    0  501    0  0.00000000000E+00  0.00000000000E+00  0.23581789289E+04  0.23581789289E+04  0.50400001928E-02 0.  1.
       -1   -1    0    0    0  501  0.00000000000E+00  0.00000000000E+00 -0.12988874287E+04  0.12988874288E+04  0.50400001928E-02 0. -1.
    10030    2    1    2    0    0  0.00000000000E+00  0.00000000000E+00  0.10592915002E+04  0.36570663577E+04  0.35002908254E+04 0.  0.
        2    1    3    3  502    0 -0.13994423893E+04 -0.53760362515E+03  0.14731733775E+04  0.21018316914E+04  0.25500000920E-02 0.  1.
       -2    1    3    3    0  502  0.13994423893E+04  0.53760362515E+03 -0.41388187738E+03  0.15552346663E+04  0.25500000920E-02 0. -1.
</event>
<event>
 5   0  0.1140808E-08  0.3501303E+04  0.7818609E-02  0.8113481E-01
       -1   -1    0    0    0  501  0.00000000000E+00  0.00000000000E+00  0.14391743609E+04  0.14391743609E+04  0.50400001928E-02 0.  1.
        1   -1    0    0  501    0  0.00000000000E+00  0.00000000000E+00 -0.21295405116E+04  0.21295405116E+04  0.50400001928E-02 0. -1.
    10030    2    1    2    0    0  0.00000000000E+00  0.00000000000E+00 -0.69036615074E+03  0.35687148725E+04  0.35013026746E+04 0.  0.
        3    1    3    3  502    0 -0.14844397789E+04  0.34876158788E+03 -0.12217315665E+04  0.19539253142E+04  0.10100000352E+00 0. -1.
       -3    1    3    3    0  502  0.14844397789E+04 -0.34876158788E+03  0.53136541580E+03  0.16147895584E+04  0.10100000352E+00 0.  1.
</event>
<event>
 5   0  0.3554451E-08  0.3500245E+04  0.7818609E-02  0.8113732E-01
        2   -1    0    0  501    0  0.00000000000E+00  0.00000000000E+00  0.19082363222E+04  0.19082363222E+04  0.25500000920E-02 0.  1.
       -2   -1    0    0    0  501  0.00000000000E+00  0.00000000000E+00 -0.16051097915E+04  0.16051097915E+04  0.25500000920E-02 0. -1.
    10030    2    1    2    0    0  0.00000000000E+00  0.00000000000E+00  0.30312653070E+03  0.35133461138E+04  0.35002450231E+04 0.  0.
        5    1    3    3  502    0  0.74579497429E+03 -0.47698666603E+03  0.16669093448E+04  0.18874149722E+04  0.46999998093E+01 0.  1.
       -5    1    3    3    0  502 -0.74579497429E+03  0.47698666603E+03 -0.13637828141E+04  0.16259311416E+04  0.46999998093E+01 0. -1.
</event>
<event>
 5   0  0.3628017E-08  0.3474408E+04  0.7818609E-02  0.8119882E-01
       -2   -1    0    0    0  501  0.00000000000E+00  0.00000000000E+00  0.12377036957E+04  0.12377036957E+04  0.25500000920E-02 0. -1.
        2   -1    0    0  501    0  0.00000000000E+00  0.00000000000E+00 -0.24382872068E+04  0.24382872068E+04  0.25500000920E-02 0.  1.
    10030    2    1    2    0    0  0.00000000000E+00  0.00000000000E+00 -0.12005835112E+04  0.36759909025E+04  0.34744076255E+04 0.  0.
        1    1    3    3  502    0 -0.11561811167E+04  0.71390435137E+03  0.54484650694E+03  0.14639917738E+04  0.50400001928E-02 0. -1.
       -1    1    3    3    0  502  0.11561811167E+04 -0.71390435137E+03 -0.17454300181E+04  0.22119991287E+04  0.50400001928E-02 0.  1.
</event>
<event>
 5   0  0.1121462E-08  0.3499279E+04  0.7818609E-02  0.8113961E-01
        1   -1    0    0  501    0  0.00000000000E+00  0.00000000000E+00  0.24260157377E+04  0.24260157377E+04  0.50400001928E-02 0. -1.
       -1   -1    0    0    0  501  0.00000000000E+00  0.00000000000E+00 -0.12618378933E+04  0.12618378933E+04  0.50400001928E-02 0.  1.
    10030    2    1    2    0    0  0.00000000000E+00  0.00000000000E+00  0.11641778444E+04  0.36878536311E+04  0.34992791187E+04 0.  0.
        4    1    3    3  502    0 -0.44953275066E+03 -0.16302100683E+04  0.10892607208E+03  0.16945592532E+04  0.12699999809E+01 0.  1.
       -4    1    3    3    0  502  0.44953275066E+03  0.16302100683E+04  0.10552517723E+04  0.19932943778E+04  0.12699999809E+01 0. -1.
</event>
<event>
 5   0  0.1121462E-08  0.3499721E+04  0.7818609E-02  0.8113856E-01
        1   -1    0    0  501    0  0.00000000000E+00  0.00000000000E+00  0.19542711195E+04  0.19542711195E+04  0.50400001928E-02 0. -1.
       -1   -1    0    0    0  501  0.00000000000E+00  0.00000000000E+00 -0.15668303183E+04  0.15668303183E+04  0.50400001928E-02 0.  1.
    10030    2    1    2    0    0  0.00000000000E+00  0.00000000000E+00  0.38744080119E+03  0.35211014378E+04  0.34997206976E+04 0.  0.
        4    1    3    3  502    0 -0.69084809983E+03  0.93740918449E+03 -0.11203994899E+04  0.16159528787E+04  0.12699999809E+01 0.  1.
       -4    1    3    3    0  502  0.69084809983E+03 -0.93740918449E+03  0.15078402911E+04  0.19051485592E+04  0.12699999809E+01 0. -1.
</event>
<event>
 5   0  0.1129219E-08  0.3500503E+04  0.7818609E-02  0.8113671E-01
        1   -1    0    0  501    0  0.00000000000E+00  0.00000000000E+00  0.19014935712E+04  0.19014935712E+04  0.50400001928E-02 0.  1.
       -1   -1    0    0    0  501  0.00000000000E+00  0.00000000000E+00 -0.16110386643E+04  0.16110386643E+04  0.50400001928E-02 0. -1.
    10030    2    1    2    0    0  0.00000000000E+00  0.00000000000E+00  0.29045490688E+03  0.35125322356E+04  0.35005026286E+04 0.  0.
        5    1    3    3  502    0  0.10415402730E+04  0.46641384266E+03  0.14768181963E+04  0.18663767273E+04  0.46999998093E+01 0.  1.
       -5    1    3    3    0  502 -0.10415402730E+04 -0.46641384266E+03 -0.11863632895E+04  0.16461555083E+04  0.46999998093E+01 0. -1.
</event>
<event>
 5   0  0.3700096E-08  0.3509379E+04  0.7818609E-02  0.8111571E-01
       -2   -1    0    0    0  501  0.00000000000E+00  0.00000000000E+00  0.16071711402E+04  0.16071711402E+04  0.25500000920E-02 0.  1.
        2   -1    0    0  501    0  0.00000000000E+00  0.00000000000E+00 -0.19157484547E+04  0.19157484547E+04  0.25500000920E-02 0. -1.
    10030    2    1    2    0    0  0.00000000000E+00  0.00000000000E+00 -0.30857731455E+03  0.35229195949E+04  0.35093792205E+04 0.  0.
        4    1    3    3  502    0  0.23423990098E+03  0.10237526630E+04 -0.15654136380E+04  0.18850621521E+04  0.12699999809E+01 0. -1.
       -4    1    3    3    0  502 -0.23423990098E+03 -0.10237526630E+04  0.12568363235E+04  0.16378574428E+04  0.12699999809E+01 0.  1.
</event>
<event>
 5   0  0.1129219E-08  0.3501876E+04  0.7818609E-02  0.8113345E-01
       -1   -1    0    0    0  501  0.00000000000E+00  0.00000000000E+00  0.21995437704E+04  0.21995437704E+04  0.50400001928E-02 0. -1.
        1   -1    0    0  501    0  0.00000000000E+00  0.00000000000E+00 -0.13938274789E+04  0.13938274789E+04  0.50400001928E-02 0.  1.
    10030    2    1    2    0    0  0.00000000000E+00  0.00000000000E+00  0.80571629145E+03  0.35933712493E+04  0.35018763818E+04 0.  0.
        5    1    3    3  502    0  0.10409681713E+04 -0.14021716127E+04  0.53290736737E+03  0.18258456444E+04  0.46999998093E+01 0.  1.
       -5    1    3    3    0  502 -0.10409681713E+04  0.14021716127E+04  0.27280892408E+03  0.17675256049E+04  0.46999998093E+01 0. -1.
</event>
<event>
 5   0  0.3467834E-08  0.3500806E+04  0.7818609E-02  0.8113599E-01
        2   -1    0    0  501    0  0.00000000000E+00  0.00000000000E+00  0.15729854465E+04  0.15729854465E+04  0.25500000920E-02 0.  1.
       -2   -1    0    0    0  501  0.00000000000E+00  0.00000000000E+00 -0.19478314280E+04  0.19478314280E+04  0.25500000920E-02 0. -1.
    10030    2    1    2    0    0  0.00000000000E+00  0.00000000000E+00 -0.37484598149E+03  0.35208168744E+04  0.35008059006E+04 0.  0.
        3    1    3    3  502    0  0.33844714020E+03 -0.16141336454E+04 -0.77723633334E+03  0.18232032855E+04  0.10100000352E+00 0. -1.
       -3    1    3    3    0  502 -0.33844714020E+03  0.16141336454E+04  0.40239035185E+03  0.16976135890E+04  0.10100000352E+00 0.  1.
</event>
<event>
 5   0  0.3467834E-08  0.3498824E+04  0.7818609E-02  0.8114069E-01
       -2   -1    0    0    0  501  0.00000000000E+00  0.00000000000E+00  0.20168104890E+04  0.20168104890E+04  0.25500000920E-02 0.  1.
        2   -1    0    0  501    0  0.00000000000E+00  0.00000000000E+00 -0.15174665426E+04  0.15174665426E+04  0.25500000920E-02 0. -1.
    10030    2    1    2    0    0  0.00000000000E+00  0.00000000000E+00  0.49934394633E+03  0.35342770316E+04  0.34988240538E+04 0.  0.
        3    1    3    3  502    0 -0.28895256990E+03  0.15489716364E+04  0.10173966536E+04  0.18756072827E+04  0.10100000352E+00 0.  1.
       -3    1    3    3    0  502  0.28895256990E+03 -0.15489716364E+04 -0.51805270729E+03  0.16586697489E+04  0.10100000352E+00 0. -1.
</event>
<event>
 5   0  0.1129219E-08  0.3500664E+04  0.7818609E-02  0.8113633E-01
       -1   -1    0    0    0  501  0.00000000000E+00  0.00000000000E+00  0.16507437028E+04  0.16507437028E+04  0.50400001928E-02 0. -1.
        1   -1    0    0  501    0  0.00000000000E+00  0.00000000000E+00 -0.18559281625E+04  0.18559281625E+04  0.50400001928E-02 0.  1.
    10030    2    1    2    0    0  0.00000000000E+00  0.00000000000E+00 -0.20518445973E+03  0.35066718653E+04  0.35006637812E+04 0.  0.
        5    1    3    3  502    0 -0.82805866867E+03  0.14863459672E+04  0.30888538551E+03  0.17292593109E+04  0.46999998093E+01 0. -1.
       -5    1    3    3    0  502  0.82805866867E+03 -0.14863459672E+04 -0.51406984524E+03  0.17774125545E+04  0.46999998093E+01 0.  1.
</event>
<event>
 5   0  0.3467834E-08  0.3498806E+04  0.7818609E-02  0.8114073E-01
       -2   -1    0    0    0  501  0.00000000000E+00  0.00000000000E+00  0.14475445231E+04  0.14475445231E+04  0.25500000920E-02 0. -1.
        2   -1    0    0  501    0  0.00000000000E+00  0.00000000000E+00 -0.21142081469E+04  0.21142081469E+04  0.25500000920E-02 0.  1.
    10030    2    1    2    0    0  0.00000000000E+00  0.00000000000E+00 -0.66666362386E+03  0.35617526700E+04  0.34988057526E+04 0.  0.
        3    1    3    3  502    0 -0.14599420943E+04 -0.52640967100E+03 -0.11552435972E+04  0.19347159583E+04  0.10100000352E+00 0.  1.
       -3    1    3    3    0  502  0.14599420943E+04  0.52640967100E+03  0.48857997337E+03  0.16270367116E+04  0.10100000352E+00 0. -1.
</event>
<event>
 5   0  0.3553585E-08  0.3500437E+04  0.7818609E-02  0.8113686E-01
        2   -1    0    0  501    0  0.00000000000E+00  0.00000000000E+00  0.16297396386E+04  0.16297396386E+04  0.25500000920E-02 0.  1.
       -2   -1    0    0    0  501  0.00000000000E+00  0.00000000000E+00 -0.18796034448E+04  0.18796034448E+04  0.25500000920E-02 0. -1.
    10030    2    1    2    0    0  0.00000000000E+00  0.00000000000E+00 -0.24986380624E+03  0.35093430835E+04  0.35004366807E+04 0.  0.
        2    1    3    3  502    0  0.68426278811E+03  0.16108060175E+04 -0.14375864996E+03  0.17560119985E+04  0.25500000920E-02 0. -1.
       -2    1    3    3    0  502 -0.68426278811E+03 -0.16108060175E+04 -0.10610515628E+03  0.17533310850E+04  0.25500000920E-02 0.  1.
</event>
<event>
 5   0  0.3628017E-08  0.3498049E+04  0.7818609E-02  0.8114252E-01
       -2   -1    0    0    0  501  0.00000000000E+00  0.00000000000E+00  0.11013146504E+04  0.11013146504E+04  0.25500000920E-02 0. -1.
        2   -1    0    0  501    0  0.00000000000E+00  0.00000000000E+00 -0.27776684785E+04  0.27776684785E+04  0.25500000920E-02 0.  1.
    10030    2    1    2    0    0  0.00000000000E+00  0.00000000000E+00 -0.16763538281E+04  0.38789831290E+04  0.34980491646E+04 0.  0.
        1    1    3    3  502    0  0.45126704475E+02  0.11500991078E+04  0.62217298449E+03  0.13083820543E+04  0.50400001928E-02 0. -1.
       -1    1    3    3    0  502 -0.45126704475E+02 -0.11500991078E+04 -0.22985268126E+04  0.25706010747E+04  0.50400001928E-02 0.  1.
</event>
<event>
 5   0  0.1140808E-08  0.3499741E+04  0.7818609E-02  0.8113851E-01
        1   -1    0    0  501    0  0.00000000000E+00  0.00000000000E+00  0.21734305330E+04  0.21734305330E+04  0.50400001928E-02 0. -1.
       -1   -1    0    0    0  501  0.00000000000E+00  0.00000000000E+00 -0.14088542031E+04  0.14088542032E+04  0.50400001928E-02 0.  1.
    10030    2    1    2    0    0  0.00000000000E+00  0.00000000000E+00  0.76457632988E+03  0.35822847362E+04  0.34997409857E+04 0.  0.
        3    1    3    3  502    0  0.13992428025E+03  0.13682686608E+04 -0.72503512446E+03  0.15548034841E+04  0.10100000352E+00 0.  1.
       -3    1    3    3    0  502 -0.13992428025E+03 -0.13682686608E+04  0.14896114543E+04  0.20274812521E+04  0.10100000352E+00 0. -1.
</event>
<event>
 5   0  0.3700096E-08  0.3498838E+04  0.7818609E-02  0.8114065E-01
        2   -1    0    0  501    0  0.00000000000E+00  0.00000000000E+00  0.24042722488E+04  0.24042722488E+04  0.25500000920E-02 0.  1.
       -2   -1    0    0    0  501  0.00000000000E+00  0.00000000000E+00 -0.12729285481E+04  0.12729285481E+04  0.25500000920E-02 0. -1.
    10030    2    1    2    0    0  0.00000000000E+00  0.00000000000E+00  0.11313437007E+04  0.36772007969E+04  0.34988379687E+04 0.  0.
        4    1    3    3  502    0 -0.11663810631E+04  0.93098386110E+03  0.15250536005E+04  0.21337679891E+04  0.12699999809E+01 0.  1.
       -4    1    3    3    0  502  0.11663810631E+04 -0.93098386110E+03 -0.39370989978E+03  0.15434328078E+04  0.12699999809E+01 0. -1.
</event>
<event>
 5   0  0.3700096E-08  0.3501739E+04  0.7818609E-02  0.8113378E-01
       -2   -1    0    0    0  501  0.00000000000E+00  0.00000000000E+00  0.19846261322E+04  0.19846261322E+04  0.25500000920E-02 0. -1.
        2   -1    0    0  501    0  0.00000000000E+00  0.00000000000E+00 -0.15446456974E+04  0.15446456974E+04  0.25500000920E-02 0.  1.
    10030    2    1    2    0    0  0.00000000000E+00  0.00000000000E+00  0.43998043473E+03  0.35292718296E+04  0.35017391200E+04 0.  0.
        4    1    3    3  502    0 -0.12318495467E+04 -0.12223286784E+04  0.45420043610E+03  0.17938339814E+04  0.12699999809E+01 0. -1.
       -4    1    3    3    0  502  0.12318495467E+04  0.12223286784E+04 -0.14220001373E+02  0.17354378482E+04  0.12699999809E+01 0.  1.
</event>
<event>
 5   0  0.3554451E-08  0.3500436E+04  0.7818609E-02  0.8113687E-01
       -2   -1    0    0    0  501  0.00000000000E+00  0.00000000000E+00  0.10497480961E+04  0.10497480961E+04  0.25500000920E-02 0. -1.
        2   -1    0    0  501    0  0.00000000000E+00  0.00000000000E+00 -0.29180930690E+04  0.29180930690E+04  0.25500000920E-02 0.  1.
    10030    2    1    2    0    0  0.00000000000E+00  0.00000000000E+00 -0.18683449730E+04  0.39678411651E+04  0.35004357691E+04 0.  0.
        5    1    3    3  502    0 -0.17206646189E+04  0.18350907812E+03 -0.12316630468E+04  0.21240005328E+04  0.46999998093E+01 0. -1.
       -5    1    3    3    0  502  0.17206646189E+04 -0.18350907812E+03 -0.63668192621E+03  0.18438406324E+04  0.46999998093E+01 0.  1.
</event>
<event>
 5   0  0.1121462E-08  0.3499076E+04  0.7818609E-02  0.8114009E-01
       -1   -1    0    0    0  501  0.00000000000E+00  0.00000000000E+00  0.13239572893E+04  0.13239572893E+04  0.50400001928E-02 0.  1.
        1   -1    0    0  501    0  0.00000000000E+00  0.00000000000E+00 -0.23119205066E+04  0.23119205066E+04  0.50400001928E-02 0. -1.
    10030    2    1    2    0    0  0.00000000000E+00  0.00000000000E+00 -0.98796321732E+03  0.36358777959E+04  0.34990764535E+04 0.  0.
        4    1    3    3  502    0  0.37493951654E+03  0.15833758145E+04 -0.11619386015E+04  0.19994403060E+04  0.12699999809E+01 0. -1.
       -4    1    3    3    0  502 -0.37493951654E+03 -0.15833758145E+04  0.17397538413E+03  0.16364374898E+04  0.12699999809E+01 0.  1.
</event>
<event>
 5   0  0.1121462E-08  0.3498951E+04  0.7818609E-02  0.8114039E-01
       -1   -1    0    0    0  501  0.00000000000E+00  0.00000000000E+00  0.21801154998E+04  0.21801154998E+04  0.50400001928E-02 0. -1.
        1   -1    0    0  501    0  0.00000000000E+00  0.00000000000E+00 -0.14039001583E+04  0.14039001583E+04  0.50400001928E-02 0.  1.
    10030    2    1    2    0    0  0.00000000000E+00  0.00000000000E+00  0.77621534148E+03  0.35840156582E+04  0.34989509830E+04 0.  0.
        2    1    3    3  502    0  0.70578952951E+03 -0.13576071561E+03 -0.12456915079E+04  0.14381645124E+04  0.25500000920E-02 0.  1.
       -2    1    3    3    0  502 -0.70578952951E+03  0.13576071561E+03  0.20219068494E+04  0.21458511457E+04  0.25500000920E-02 0. -1.
</event>
<event>
 5   0  0.3467834E-08  0.3500002E+04  0.7818609E-02  0.8113789E-01
        2   -1    0    0  501    0  0.00000000000E+00  0.00000000000E+00  0.22909594435E+04  0.22909594435E+04  0.25500000920E-02 0.  1.
       -2   -1    0    0    0  501  0.00000000000E+00  0.00000000000E+00 -0.13367779267E+04  0.13367779267E+04  0.25500000920E-02 0. -1.
    10030    2    1    2    0    0  0.00000000000E+00  0.00000000000E+00  0.95418151685E+03  0.36277373702E+04  0.35000022943E+04 0.  0.
        3    1    3    3  502    0  0.98155814167E+03  0.88195684842E+03  0.16684747192E+04  0.21272311033E+04  0.10100000352E+00 0.  1.
       -3    1    3    3    0  502 -0.98155814167E+03 -0.88195684842E+03 -0.71429320236E+03  0.15005062669E+04  0.10100000352E+00 0. -1.
</event>
<event>
 5   0  0.3628017E-08  0.3499723E+04  0.7818609E-02  0.8113856E-01
        2   -1    0    0  501    0  0.00000000000E+00  0.00000000000E+00  0.16342392868E+04  0.16342392868E+04  0.25500000920E-02 0. -1.
       -2   -1    0    0    0  501  0.00000000000E+00  0.00000000000E+00 -0.18736637343E+04  0.18736637343E+04  0.25500000920E-02 0.  1.
    10030    2    1    2    0    0  0.00000000000E+00  0.00000000000E+00 -0.23942444750E+03  0.35079030211E+04  0.34997227804E+04 0.  0.
        1    1    3    3  502    0  0.13659010659E+04  0.52955607079E+03  0.83955112704E+03  0.16884790342E+04  0.50400001928E-02 0. -1.
       -1    1    3    3    0  502 -0.13659010659E+04 -0.52955607079E+03 -0.10789755745E+04  0.18194239870E+04  0.50400001928E-02 0.  1.
</event>
<event>
 5   0  0.3700096E-08  0.3509321E+04  0.7818609E-02  0.8111585E-01
       -2   -1    0    0    0  501  0.00000000000E+00  0.00000000000E+00  0.16650234245E+04  0.16650234245E+04  0.25500000920E-02 0. -1.
        2   -1    0    0  501    0  0.00000000000E+00  0.00000000000E+00 -0.18491229863E+04  0.18491229863E+04  0.25500000920E-02 0.  1.
    10030    2    1    2    0    0  0.00000000000E+00  0.00000000000E+00 -0.18409956180E+03  0.35141464108E+04  0.35093207815E+04 0.  0.
        4    1    3    3  502    0  0.25590527826E+03  0.98896171732E+03 -0.15206504835E+04  0.18319149258E+04  0.12699999809E+01 0.  1.
       -4    1    3    3    0  502 -0.25590527826E+03 -0.98896171732E+03  0.13365509217E+04  0.16822314849E+04  0.12699999809E+01 0. -1.
</event>
<event>
 5   0  0.1140808E-08  0.3499278E+04  0.7818609E-02  0.8113961E-01
       -1   -1    0    0    0  501  0.00000000000E+00  0.00000000000E+00  0.19496097486E+04  0.19496097486E+04  0.50400001928E-02 0.  1.
        1   -1    0    0  501    0  0.00000000000E+00  0.00000000000E+00 -0.15701792240E+04  0.15701792240E+04  0.50400001928E-02 0. -1.
    10030    2    1    2    0    0  0.00000000000E+00  0.00000000000E+00  0.37943052466E+03  0.35197889726E+04  0.34992780525E+04 0.  0.
        3    1    3    3  502    0 -0.77065486378E+03 -0.67238284571E+03  0.16176237875E+04  0.19138219192E+04  0.10100000352E+00 0.  1.
       -3    1    3    3    0  502  0.77065486378E+03  0.67238284571E+03 -0.12381932628E+04  0.16059670534E+04  0.10100000352E+00 0. -1.
</event>
<event>
 5   0  0.1121462E-08  0.3498959E+04  0.7818609E-02  0.8114037E-01
        1   -1    0    0  501    0  0.00000000000E+00  0.00000000000E+00  0.20548786975E+04  0.20548786975E+04  0.50400001928E-02 0.  1.
       -1   -1    0    0    0  501  0.00000000000E+00  0.00000000000E+00 -0.14894693978E+04  0.14894693978E+04  0.50400001928E-02 0. -1.
    10030    2    1    2    0    0  0.00000000000E+00  0.00000000000E+00  0.56540929972E+03  0.35443480953E+04  0.34989592373E+04 0.  0.
        1    1    3    3  502    0  0.15272201412E+04 -0.32287433322E+03  0.10829075651E+04  0.18998257787E+04  0.50400001928E-02 0.  1.
       -1    1    3    3    0  502 -0.15272201412E+04  0.32287433322E+03 -0.51749826540E+03  0.16445223165E+04  0.50400001928E-02 0. -1.
</event>
<event>
 5   0  0.1121462E-08  0.3494960E+04  0.7818609E-02  0.8114985E-01
       -1   -1    0    0    0  501  0.00000000000E+00  0.00000000000E+00  0.15313265963E+04  0.15313265964E+04  0.50400001928E-02 0. -1.
        1   -1    0    0  501    0  0.00000000000E+00  0.00000000000E+00 -0.19941439072E+04  0.19941439072E+04  0.50400001928E-02 0.  1.
    10030    2    1    2    0    0  0.00000000000E+00  0.00000000000E+00 -0.46281731088E+03  0.35254705036E+04  0.34949595718E+04 0.  0.
        4    1    3    3  502    0  0.66351827708E+03 -0.19020392690E+03  0.13879878550E+04  0.15501438438E+04  0.12699999809E+01 0. -1.
       -4    1    3    3    0  502 -0.66351827708E+03  0.19020392690E+03 -0.18508051659E+04  0.19753266598E+04  0.12699999809E+01 0.  1.
</event>
<event>
 5   0  0.3628017E-08  0.3498951E+04  0.7818609E-02  0.8114039E-01
        2   -1    0    0  501    0  0.00000000000E+00  0.00000000000E+00  0.23219377487E+04  0.23219377487E+04  0.25500000920E-02 0. -1.
       -2   -1    0    0    0  501  0.00000000000E+00  0.00000000000E+00 -0.13181507014E+04  0.13181507014E+04  0.25500000920E-02 0.  1.
    10030    2    1    2    0    0  0.00000000000E+00  0.00000000000E+00  0.10037870473E+04  0.36400884501E+04  0.34989506267E+04 0.  0.
        1    1    3    3  502    0 -0.94815782340E+03  0.34487875976E+03  0.19887822332E+04  0.22300671264E+04  0.50400001928E-02 0. -1.
       -1    1    3    3    0  502  0.94815782340E+03 -0.34487875976E+03 -0.98499518594E+03  0.14100213237E+04  0.50400001928E-02 0.  1.
</event>
<event>
 5   0  0.3700096E-08  0.3500547E+04  0.7818609E-02  0.8113660E-01
       -2   -1    0    0    0  501  0.00000000000E+00  0.00000000000E+00  0.31713070142E+04  0.31713070142E+04  0.25500000920E-02 0. -1.
        2   -1    0    0  501    0  0.00000000000E+00  0.00000000000E+00 -0.96599190202E+03  0.96599190203E+03  0.25500000920E-02 0.  1.
    10030    2    1    2    0    0  0.00000000000E+00  0.00000000000E+00  0.22053151122E+04  0.41372989162E+04  0.35005467542E+04 0.  0.
        4    1    3    3  502    0 -0.36349420656E+03 -0.55894217173E+03  0.30153334212E+04  0.30881680076E+04  0.12699999809E+01 0. -1.
       -4    1    3    3    0  502  0.36349420656E+03  0.55894217173E+03 -0.81001830901E+03  0.10491309086E+04  0.12699999809E+01 0.  1.
</event>
<event>
 5   0  0.1129219E-08  0.3488104E+04  0.7818609E-02  0.8116615E-01
        1   -1    0    0  501    0  0.00000000000E+00  0.00000000000E+00  0.94798148562E+03  0.94798148564E+03  0.50400001928E-02 0.  1.
       -1   -1    0    0    0  501  0.00000000000E+00  0.00000000000E+00 -0.32086244553E+04  0.32086244553E+04  0.50400001928E-02 0. -1.
    10030    2    1    2    0    0  0.00000000000E+00  0.00000000000E+00 -0.22606429697E+04  0.41566059410E+04  0.34881035409E+04 0.  0.
        5    1    3    3  502    0 -0.33689758774E+02 -0.16132229073E+04 -0.19190397646E+04  0.25072612262E+04  0.46999998093E+01 0. -1.
       -5    1    3    3    0  502  0.33689758774E+02  0.16132229073E+04 -0.34160320511E+03  0.16493447148E+04  0.46999998093E+01 0.  1.
</event>
<event>
 5   0  0.3628017E-08  0.3507995E+04  0.7818609E-02  0.8111898E-01
        2   -1    0    0  501    0  0.00000000000E+00  0.00000000000E+00  0.21982943399E+04  0.21982943399E+04  0.25500000920E-02 0. -1.
       -2   -1    0    0    0  501  0.00000000000E+00  0.00000000000E+00 -0.13994970163E+04  0.13994970163E+04  0.25500000920E-02 0.  1.
    10030    2    1    2    0    0  0.00000000000E+00  0.00000000000E+00  0.79879732361E+03  0.35977913562E+04  0.35079945094E+04 0.  0.
        1    1    3    3  502    0  0.16917939400E+04 -0.18555547669E+03 -0.35615375633E+02  0.17023119648E+04  0.50400001928E-02 0.  1.
       -1    1    3    3    0  502 -0.16917939400E+04  0.18555547669E+03  0.83441269924E+03  0.18954793914E+04  0.50400001928E-02 0. -1.
</event>
<event>
 5   0  0.1140808E-08  0.3501128E+04  0.7818609E-02  0.8113523E-01
        1   -1    0    0  501    0  0.00000000000E+00  0.00000000000E+00  0.12907393699E+04  0.12907393699E+04  0.50400001928E-02 0. -1.
       -1   -1    0    0    0  501  0.00000000000E+00  0.00000000000E+00 -0.23742002123E+04  0.23742002123E+04  0.50400001928E-02 0.  1.
    10030    2    1    2    0    0  0.00000000000E+00  0.00000000000E+00 -0.10834608424E+04  0.36649395822E+04  0.35011276389E+04 0.  0.
        3    1    3    3  502    0 -0.15970618545E+03 -0.10527957933E+04 -0.19961970037E+04  0.22624516648E+04  0.10100000352E+00 0.  1.
       -3    1    3    3    0  502  0.15970618545E+03  0.10527957933E+04  0.91273616129E+03  0.14024879174E+04  0.10100000352E+00 0. -1.
</event>
<event>
 5   0  0.1121462E-08  0.3499971E+04  0.7818609E-02  0.8113797E-01
       -3   -1    0    0    0  501  0.00000000000E+00  0.00000000000E+00  0.20061825808E+04  0.20061825834E+04  0.10100000352E+00 0.  1.
        3   -1    0    0  501    0  0.00000000000E+00  0.00000000000E+00 -0.15265053670E+04  0.15265053704E+04  0.10100000352E+00 0. -1.
    10030    2    1    2    0    0  0.00000000000E+00  0.00000000000E+00  0.47967721382E+03  0.35326879537E+04  0.34999705640E+04 0.  0.
        1    1    3    3  502    0 -0.90437972929E+03 -0.88674077586E+03 -0.97902435768E+03  0.16008437123E+04  0.50400001928E-02 0. -1.
       -1    1    3    3    0  502  0.90437972929E+03  0.88674077586E+03  0.14587015715E+04  0.19318442414E+04  0.50400001928E-02 0.  1.
</event>
<event>
 5   0  0.1129219E-08  0.3499276E+04  0.7818609E-02  0.8113962E-01
       -1   -1    0    0    0  501  0.00000000000E+00  0.00000000000E+00  0.13588445253E+04  0.13588445254E+04  0.50400001928E-02 0.  1.
        1   -1    0    0  501    0  0.00000000000E+00  0.00000000000E+00 -0.22528206589E+04  0.22528206589E+04  0.50400001928E-02 0. -1.
    10030    2    1    2    0    0  0.00000000000E+00  0.00000000000E+00 -0.89397613352E+03  0.36116651842E+04  0.34992759359E+04 0.  0.
        5    1    3    3  502    0  0.81555274877E+03  0.15068007309E+04 -0.81282427670E+03  0.18963860692E+04  0.46999998093E+01 0. -1.
       -5    1    3    3    0  502 -0.81555274877E+03 -0.15068007309E+04 -0.81151856820E+02  0.17152791150E+04  0.46999998093E+01 0.  1.
</event>
<event>
 5   0  0.1121462E-08  0.3499581E+04  0.7818609E-02  0.8113889E-01
        1   -1    0    0  501    0  0.00000000000E+00  0.00000000000E+00  0.23759268261E+04  0.23759268261E+04  0.50400001928E-02 0.  1.
       -1   -1    0    0    0  501  0.00000000000E+00  0.00000000000E+00 -0.12886621394E+04  0.12886621394E+04  0.50400001928E-02 0. -1.
    10030    2    1    2    0    0  0.00000000000E+00  0.00000000000E+00  0.10872646867E+04  0.36645889654E+04  0.34995810873E+04 0.  0.
        2    1    3    3  502    0 -0.28759781573E+03 -0.63740445401E+03  0.22232471350E+04  0.23306275475E+04  0.25500000920E-02 0.  1.
       -2    1    3    3    0  502  0.28759781573E+03  0.63740445401E+03 -0.11359824483E+04  0.13339614179E+04  0.25500000920E-02 0. -1.
</event>
<event>
 5   0  0.3554451E-08  0.3495488E+04  0.7818609E-02  0.8114860E-01
       -2   -1    0    0    0  501  0.00000000000E+00  0.00000000000E+00  0.11841441579E+04  0.11841441579E+04  0.25500000920E-02 0. -1.
        2   -1    0    0  501    0  0.00000000000E+00  0.00000000000E+00 -0.25795928928E+04  0.25795928928E+04  0.25500000920E-02 0.  1.
    10030    2    1    2    0    0  0.00000000000E+00  0.00000000000E+00 -0.13954487349E+04  0.37637370507E+04  0.34954884373E+04 0.  0.
        5    1    3    3  502    0  0.83667336904E+03 -0.26920615413E+03  0.92886571461E+03  0.12787915724E+04  0.46999998093E+01 0. -1.
       -5    1    3    3    0  502 -0.83667336904E+03  0.26920615413E+03 -0.23243144495E+04  0.24849454783E+04  0.46999998093E+01 0.  1.
</event>
<event>
 5   0  0.3700096E-08  0.3497363E+04  0.7818609E-02  0.8114415E-01
       -2   -1    0    0    0  501  0.00000000000E+00  0.00000000000E+00  0.18465654345E+04  0.18465654345E+04  0.25500000920E-02 0.  1.
        2   -1    0    0  501    0  0.00000000000E+00  0.00000000000E+00 -0.16559858211E+04  0.16559858211E+04  0.25500000920E-02 0. -1.
    10030    2    1    2    0    0  0.00000000000E+00  0.00000000000E+00  0.19057961338E+03  0.35025512556E+04  0.34973625362E+04 0.  0.
        4    1    3    3  502    0  0.54647987733E+03 -0.53255131106E+03  0.16710387092E+04  0.18370147347E+04  0.12699999809E+01 0.  1.
       -4    1    3    3    0  502 -0.54647987733E+03  0.53255131106E+03 -0.14804590958E+04  0.16655365209E+04  0.12699999809E+01 0. -1.
</event>
<event>
 5   0  0.1121462E-08  0.3500244E+04  0.7818609E-02  0.8113732E-01
       -1   -1    0    0    0  501  0.00000000000E+00  0.00000000000E+00  0.17674166384E+04  0.17674166384E+04  0.50400001928E-02 0. -1.
        1   -1    0    0  501    0  0.00000000000E+00  0.00000000000E+00 -0.17329967537E+04  0.17329967537E+04  0.50400001928E-02 0.  1.
    10030    2    1    2    0    0  0.00000000000E+00  0.00000000000E+00  0.34419884707E+02  0.35004133921E+04  0.35002441611E+04 0.  0.
        1    1    3    3  502    0  0.66072618332E+03  0.26738672091E+03  0.16156840906E+04  0.17659246384E+04  0.50400001928E-02 0. -1.
       -1    1    3    3    0  502 -0.66072618332E+03 -0.26738672091E+03 -0.15812642059E+04  0.17344887537E+04  0.50400001928E-02 0.  1.
</event>
<event>
 5   0  0.3554451E-08  0.3488995E+04  0.7818609E-02  0.8116403E-01
        2   -1    0    0  501    0  0.00000000000E+00  0.00000000000E+00  0.13930554129E+04  0.13930554129E+04  0.25500000920E-02 0. -1.
       -2   -1    0    0    0  501  0.00000000000E+00  0.00000000000E+00 -0.21846013353E+04  0.21846013353E+04  0.25500000920E-02 0.  1.
    10030    2    1    2    0    0  0.00000000000E+00  0.00000000000E+00 -0.79154592232E+03  0.35776567482E+04  0.34889945344E+04 0.  0.
        5    1    3    3  502    0 -0.33953816947E+03  0.89076361301E+03 -0.18938934027E+04  0.21202830692E+04  0.46999998093E+01 0.  1.
       -5    1    3    3    0  502  0.33953816947E+03 -0.89076361301E+03  0.11023474804E+04  0.14573736790E+04  0.46999998093E+01 0. -1.
</event>
<event>
 5   0  0.1129219E-08  0.3499549E+04  0.7818609E-02  0.8113897E-01
        1   -1    0    0  501    0  0.00000000000E+00  0.00000000000E+00  0.15961316571E+04  0.15961316571E+04  0.50400001928E-02 0. -1.
       -1   -1    0    0    0  501  0.00000000000E+00  0.00000000000E+00 -0.19182068425E+04  0.19182068425E+04  0.50400001928E-02 0.  1.
    10030    2    1    2    0    0  0.00000000000E+00  0.00000000000E+00 -0.32207518541E+03  0.35143384995E+04  0.34995489230E+04 0.  0.
        5    1    3    3  502    0 -0.48636339053E+03 -0.35173697492E+03 -0.18115834803E+04  0.19084352342E+04  0.46999998093E+01 0.  1.
       -5    1    3    3    0  502  0.48636339053E+03  0.35173697492E+03  0.14895082949E+04  0.16059032653E+04  0.46999998093E+01 0. -1.
</event>
<event>
 5   0  0.3467834E-08  0.3498357E+04  0.7818609E-02  0.8114179E-01
        2   -1    0    0  501    0  0.00000000000E+00  0.00000000000E+00  0.12702975384E+04  0.12702975384E+04  0.25500000920E-02 0.  1.
       -2   -1    0    0    0  501  0.00000000000E+00  0.00000000000E+00 -0.24085893001E+04  0.24085893001E+04  0.25500000920E-02 0. -1.
    10030    2    1    2    0    0  0.00000000000E+00  0.00000000000E+00 -0.11382917617E+04  0.36788868385E+04  0.34983567909E+04 0.  0.
        3    1    3    3  502    0 -0.86073212210E+03 -0.23235494375E+03 -0.21517234231E+04  0.23291119135E+04  0.10100000352E+00 0. -1.
       -3    1    3    3    0  502  0.86073212210E+03  0.23235494375E+03  0.10134316614E+04  0.13497749251E+04  0.10100000352E+00 0.  1.
</event>
<event>
 5   0  0.3554451E-08  0.3499913E+04  0.7818609E-02  0.8113811E-01
       -2   -1    0    0    0  501  0.00000000000E+00  0.00000000000E+00  0.11716534987E+04  0.11716534987E+04  0.25500000920E-02 0.  1.
        2   -1    0    0  501    0  0.00000000000E+00  0.00000000000E+00 -0.26136977468E+04  0.26136977468E+04  0.25500000920E-02 0. -1.
    10030    2    1    2    0    0  0.00000000000E+00  0.00000000000E+00 -0.14420442481E+04  0.37853512455E+04  0.34999132044E+04 0.  0.
        5    1    3    3  502    0  0.10397965874E+03 -0.12210766254E+04  0.63005103344E+03  0.13779790598E+04  0.46999998093E+01 0.  1.
       -5    1    3    3    0  502 -0.10397965874E+03  0.12210766254E+04 -0.20720952816E+04  0.24073721857E+04  0.46999998093E+01 0. -1.
</event>
<event>
 5   0  0.1121462E-08  0.3521044E+04  0.7818609E-02  0.8108821E-01
       -1   -1    0    0    0  501  0.00000000000E+00  0.00000000000E+00  0.13293734331E+04  0.13293734331E+04  0.50400001928E-02 0.  1.
        1   -1    0    0  501    0  0.00000000000E+00  0.00000000000E+00 -0.23315021811E+04  0.23315021811E+04  0.50400001928E-02 0. -1.
    10030    2    1    2    0    0  0.00000000000E+00  0.00000000000E+00 -0.10021287480E+04  0.36608756142E+04  0.35210436286E+04 0.  0.
        4    1    3    3  502    0  0.20535960972E+03  0.45712552870E+03 -0.22557784710E+04  0.23107735591E+04  0.12699999809E+01 0. -1.
       -4    1    3    3    0  502 -0.20535960972E+03 -0.45712552870E+03  0.12536497230E+04  0.13501020551E+04  0.12699999809E+01 0.  1.
</event>
<event>
 5   0  0.3467834E-08  0.3499943E+04  0.7818609E-02  0.8113803E-01
       -2   -1    0    0    0  501  0.00000000000E+00  0.00000000000E+00  0.13717654744E+04  0.13717654744E+04  0.25500000920E-02 0.  1.
        2   -1    0    0  501    0  0.00000000000E+00  0.00000000000E+00 -0.22324517845E+04  0.22324517845E+04  0.25500000920E-02 0. -1.
    10030    2    1    2    0    0  0.00000000000E+00  0.00000000000E+00 -0.86068631015E+03  0.36042172589E+04  0.34999430173E+04 0.  0.
        3    1    3    3  502    0  0.61857024828E+03 -0.13358326802E+04  0.54406218980E+03  0.15694208416E+04  0.10100000352E+00 0.  1.
       -3    1    3    3    0  502 -0.61857024828E+03  0.13358326802E+04 -0.14047485000E+04  0.20347964173E+04  0.10100000352E+00 0. -1.
</event>
<event>
 5   0  0.3553585E-08  0.3500842E+04  0.7818609E-02  0.8113590E-01
       -2   -1    0    0    0  501  0.00000000000E+00  0.00000000000E+00  0.13662910370E+04  0.13662910370E+04  0.25500000920E-02 0. -1.
        2   -1    0    0  501    0  0.00000000000E+00  0.00000000000E+00 -0.22425487459E+04  0.22425487459E+04  0.25500000920E-02 0.  1.
    10030    2    1    2    0    0  0.00000000000E+00  0.00000000000E+00 -0.87625770892E+03  0.36088397829E+04  0.35008423281E+04 0.  0.
        2    1    3    3  502    0  0.10614877719E+04  0.29027767642E+03  0.96509739821E+03  0.14637043443E+04  0.25500000920E-02 0. -1.
       -2    1    3    3    0  502 -0.10614877719E+04 -0.29027767642E+03 -0.18413551071E+04  0.21451354386E+04  0.25500000920E-02 0.  1.
</event>
<event>
 5   0  0.3700096E-08  0.3499844E+04  0.7818609E-02  0.8113827E-01
       -2   -1    0    0    0  501  0.00000000000E+00  0.00000000000E+00  0.14705565992E+04  0.14705565992E+04  0.25500000920E-02 0.  1.
        2   -1    0    0  501    0  0.00000000000E+00  0.00000000000E+00 -0.20823596092E+04  0.20823596092E+04  0.25500000920E-02 0. -1.
    10030    2    1    2    0    0  0.00000000000E+00  0.00000000000E+00 -0.61180300997E+03  0.35529162085E+04  0.34998443767E+04 0.  0.
        4    1    3    3  502    0 -0.10312261820E+04  0.10944858105E+04 -0.12144021136E+04  0.19328995665E+04  0.12699999809E+01 0. -1.
       -4    1    3    3    0  502  0.10312261820E+04 -0.10944858105E+04  0.60259910361E+03  0.16200166420E+04  0.12699999809E+01 0.  1.
</event>
<event>
 5   0  0.3554451E-08  0.3479410E+04  0.7818609E-02  0.8118687E-01
        2   -1    0    0  501    0  0.00000000000E+00  0.00000000000E+00  0.23691315374E+04  0.23691315374E+04  0.25500000920E-02 0.  1.
       -2   -1    0    0    0  501  0.00000000000E+00  0.00000000000E+00 -0.12775034217E+04  0.12775034217E+04  0.25500000920E-02 0. -1.
    10030    2    1    2    0    0  0.00000000000E+00  0.00000000000E+00  0.10916281157E+04  0.36466349591E+04  0.34794100911E+04 0.  0.
        5    1    3    3  502    0 -0.36138281551E+03 -0.48663913132E+03 -0.11632446350E+04  0.13117070383E+04  0.46999998093E+01 0. -1.
       -5    1    3    3    0  502  0.36138281551E+03  0.48663913132E+03  0.22548727507E+04  0.23349279208E+04  0.46999998093E+01 0.  1.
</event>
<event>
 5   0  0.3628017E-08  0.3500033E+04  0.7818609E-02  0.8113782E-01
        2   -1    0    0  501    0  0.00000000000E+00  0.00000000000E+00  0.27413188661E+04  0.27413188661E+04  0.25500000920E-02 0.  1.
       -2   -1    0    0    0  501  0.00000000000E+00  0.00000000000E+00 -0.11171840988E+04  0.11171840988E+04  0.25500000920E-02 0. -1.
    10030    2    1    2    0    0  0.00000000000E+00  0.00000000000E+00  0.16241347673E+04  0.38585029649E+04  0.35000330553E+04 0.  0.
        1    1    3    3  502    0  0.44650535275E+03 -0.16633143709E+04  0.11546628176E+04  0.20734579689E+04  0.50400001928E-02 0.  1.
       -1    1    3    3    0  502 -0.44650535275E+03  0.16633143709E+04  0.46947194971E+03  0.17850449961E+04  0.50400001928E-02 0. -1.
</event>
<event>
 5   0  0.3628017E-08  0.3501741E+04  0.7818609E-02  0.8113378E-01
        2   -1    0    0  501    0  0.00000000000E+00  0.00000000000E+00  0.16244217949E+04  0.16244217949E+04  0.25500000920E-02 0.  1.
       -2   -1    0    0    0  501  0.00000000000E+00  0.00000000000E+00 -0.18871620031E+04  0.18871620031E+04  0.25500000920E-02 0. -1.
    10030    2    1    2    0    0  0.00000000000E+00  0.00000000000E+00 -0.26274020820E+03  0.35115837979E+04  0.35017407604E+04 0.  0.
        1    1    3    3  502    0  0.89724201910E+03 -0.16482126199E+03  0.13672662148E+04  0.16436624323E+04  0.50400001928E-02 0.  1.
       -1    1    3    3    0  502 -0.89724201910E+03  0.16482126199E+03 -0.16300064230E+04  0.18679213656E+04  0.50400001928E-02 0. -1.
</event>
<event>
 5   0  0.1121462E-08  0.3500276E+04  0.7818609E-02  0.8113725E-01
       -1   -1    0    0    0  501  0.00000000000E+00  0.00000000000E+00  0.17164112662E+04  0.17164112663E+04  0.50400001928E-02 0.  1.
        1   -1    0    0  501    0  0.00000000000E+00  0.00000000000E+00 -0.17845275421E+04  0.17845275421E+04  0.50400001928E-02 0. -1.
    10030    2    1    2    0    0  0.00000000000E+00  0.00000000000E+00 -0.68116275847E+02  0.35009388084E+04  0.35002760909E+04 0.  0.
        1    1    3    3  502    0  0.11007801124E+04  0.80512774472E+03 -0.11310956161E+04  0.17718139953E+04  0.50400001928E-02 0. -1.
       -1    1    3    3    0  502 -0.11007801124E+04 -0.80512774472E+03  0.10629793402E+04  0.17291248130E+04  0.50400001928E-02 0.  1.
</event>
<event>
 5   0  0.1121462E-08  0.3499721E+04  0.7818609E-02  0.8113856E-01
       -1   -1    0    0    0  501  0.00000000000E+00  0.00000000000E+00  0.20057644200E+04  0.20057644200E+04  0.50400001928E-02 0. -1.
        1   -1    0    0  501    0  0.00000000000E+00  0.00000000000E+00 -0.15266055260E+04  0.15266055260E+04  0.50400001928E-02 0.  1.
    10030    2    1    2    0    0  0.00000000000E+00  0.00000000000E+00  0.47915889399E+03  0.35323699460E+04  0.34997205874E+04 0.  0.
        2    1    3    3  502    0  0.19394331387E+03 -0.92853953742E+02  0.19923791469E+04  0.20039487346E+04  0.25500000920E-02 0. -1.
       -2    1    3    3    0  502 -0.19394331387E+03  0.92853953742E+02 -0.15132202529E+04  0.15284212115E+04  0.25500000920E-02 0.  1.
</event>
<event>
 5   0  0.3628017E-08  0.3498128E+04  0.7818609E-02  0.8114234E-01
        2   -1    0    0  501    0  0.00000000000E+00  0.00000000000E+00  0.30170623345E+04  0.30170623346E+04  0.25500000920E-02 0.  1.
       -2   -1    0    0    0  501  0.00000000000E+00  0.00000000000E+00 -0.10139746094E+04  0.10139746094E+04  0.25500000920E-02 0. -1.
    10030    2    1    2    0    0  0.00000000000E+00  0.00000000000E+00  0.20030877251E+04  0.40310369440E+04  0.34981278434E+04 0.  0.
        1    1    3    3  502    0 -0.68784229358E+03 -0.12022677539E+04  0.22322582314E+04  0.26270804298E+04  0.50400001928E-02 0.  1.
       -1    1    3    3    0  502  0.68784229358E+03  0.12022677539E+04 -0.22917050626E+03  0.14039565142E+04  0.50400001928E-02 0. -1.
</event>
<event>
 5   0  0.1129219E-08  0.3498490E+04  0.7818609E-02  0.8114148E-01
       -1   -1    0    0    0  501  0.00000000000E+00  0.00000000000E+00  0.38334787945E+04  0.38334787945E+04  0.50400001928E-02 0.  1.
        1   -1    0    0  501    0  0.00000000000E+00  0.00000000000E+00 -0.79819370950E+03  0.79819370952E+03  0.50400001928E-02 0. -1.
    10030    2    1    2    0    0  0.00000000000E+00  0.00000000000E+00  0.30352850850E+04  0.46316725041E+04  0.34984903369E+04 0.  0.
        5    1    3    3  502    0 -0.75051497768E+03 -0.26801834591E+03  0.35791687409E+04  0.36668211753E+04  0.46999998093E+01 0.  1.
       -5    1    3    3    0  502  0.75051497768E+03  0.26801834591E+03 -0.54388365590E+03  0.96485132876E+03  0.46999998093E+01 0. -1.
</event>
<event>
 5   0  0.3554451E-08  0.3498222E+04  0.7818609E-02  0.8114211E-01
       -2   -1    0    0    0  501  0.00000000000E+00  0.00000000000E+00  0.20659134658E+04  0.20659134658E+04  0.25500000920E-02 0.  1.
        2   -1    0    0  501    0  0.00000000000E+00  0.00000000000E+00 -0.14808894420E+04  0.14808894420E+04  0.25500000920E-02 0. -1.
    10030    2    1    2    0    0  0.00000000000E+00  0.00000000000E+00  0.58502402382E+03  0.35468029078E+04  0.34982220854E+04 0.  0.
        5    1    3    3  502    0  0.58714855412E+03  0.35924805299E+03 -0.13377874629E+04  0.15044932615E+04  0.46999998093E+01 0. -1.
       -5    1    3    3    0  502 -0.58714855412E+03 -0.35924805299E+03  0.19228114867E+04  0.20423096463E+04  0.46999998093E+01 0.  1.
</event>
<event>
 5   0  0.1140808E-08  0.3502279E+04  0.7818609E-02  0.8113250E-01
        1   -1    0    0  501    0  0.00000000000E+00  0.00000000000E+00  0.18069499218E+04  0.18069499218E+04  0.50400001928E-02 0. -1.
       -1   -1    0    0    0  501  0.00000000000E+00  0.00000000000E+00 -0.16970528321E+04  0.16970528321E+04  0.50400001928E-02 0.  1.
    10030    2    1    2    0    0  0.00000000000E+00  0.00000000000E+00  0.10989708975E+03  0.35040027539E+04  0.35022789622E+04 0.  0.
        3    1    3    3  502    0  0.10631277593E+04  0.12689857422E+04 -0.51623000732E+03  0.17340873326E+04  0.10100000352E+00 0. -1.
       -3    1    3    3    0  502 -0.10631277593E+04 -0.12689857422E+04  0.62612709707E+03  0.17699154213E+04  0.10100000352E+00 0.  1.
</event>
<event>
 5   0  0.3553585E-08  0.3500550E+04  0.7818609E-02  0.8113660E-01
        2   -1    0    0  501    0  0.00000000000E+00  0.00000000000E+00  0.12639947081E+04  0.12639947081E+04  0.25500000920E-02 0.  1.
       -2   -1    0    0    0  501  0.00000000000E+00  0.00000000000E+00 -0.24236351626E+04  0.24236351626E+04  0.25500000920E-02 0. -1.
    10030    2    1    2    0    0  0.00000000000E+00  0.00000000000E+00 -0.11596404545E+04  0.36876298708E+04  0.35005496825E+04 0.  0.
        2    1    3    3  502    0  0.10364096219E+04 -0.11595520307E+04 -0.14257003956E+04  0.21098169197E+04  0.25500000920E-02 0.  1.
       -2    1    3    3    0  502 -0.10364096219E+04  0.11595520307E+04  0.26605994111E+03  0.15778129511E+04  0.25500000920E-02 0. -1.
</event>
<event>
 5   0  0.1121462E-08  0.3490428E+04  0.7818609E-02  0.8116062E-01
       -1   -1    0    0    0  501  0.00000000000E+00  0.00000000000E+00  0.13711628849E+04  0.13711628849E+04  0.50400001928E-02 0. -1.
        1   -1    0    0  501    0  0.00000000000E+00  0.00000000000E+00 -0.22213056427E+04  0.22213056427E+04  0.50400001928E-02 0.  1.
    10030    2    1    2    0    0  0.00000000000E+00  0.00000000000E+00 -0.85014275779E+03  0.35924685276E+04  0.34904279699E+04 0.  0.
        4    1    3    3  502    0  0.64780879084E+03  0.13464337056E+04  0.50308480890E+03  0.15765899565E+04  0.12699999809E+01 0. -1.
       -4    1    3    3    0  502 -0.64780879084E+03 -0.13464337056E+04 -0.13532275667E+04  0.20158785711E+04  0.12699999809E+01 0.  1.
</event>
<event>
 5   0  0.1129219E-08  0.3500712E+04  0.7818609E-02  0.8113621E-01
        1   -1    0    0  501    0  0.00000000000E+00  0.00000000000E+00  0.22492150818E+04  0.22492150818E+04  0.50400001928E-02 0. -1.
       -1   -1    0    0    0  501  0.00000000000E+00  0.00000000000E+00 -0.13621401563E+04  0.13621401563E+04  0.50400001928E-02 0.  1.
    10030    2    1    2    0    0  0.00000000000E+00  0.00000000000E+00  0.88707492550E+03  0.36113552380E+04  0.35007120321E+04 0.  0.
        5    1    3    3  502    0 -0.17390050319E+04  0.19673780148E+02  0.64778119465E+03  0.18558470101E+04  0.46999998093E+01 0. -1.
       -5    1    3    3    0  502  0.17390050319E+04 -0.19673780148E+02  0.23929373085E+03  0.17555082279E+04  0.46999998093E+01 0.  1.
</event>
<event>
 5   0  0.1140808E-08  0.3501961E+04  0.7818609E-02  0.8113325E-01
       -1   -1    0    0    0  501  0.00000000000E+00  0.00000000000E+00  0.13810976485E+04  0.13810976485E+04  0.50400001928E-02 0.  1.
        1   -1    0    0  501    0  0.00000000000E+00  0.00000000000E+00 -0.22199249605E+04  0.22199249605E+04  0.50400001928E-02 0. -1.
    10030    2    1    2    0    0  0.00000000000E+00  0.00000000000E+00 -0.83882731195E+03  0.36010226090E+04  0.35019612464E+04 0.  0.
        3    1    3    3  502    0  0.57739493996E+02  0.14605388117E+04  0.57192454587E+03  0.15695875783E+04  0.10100000352E+00 0.  1.
       -3    1    3    3    0  502 -0.57739493996E+02 -0.14605388117E+04 -0.14107518578E+04  0.20314350307E+04  0.10100000352E+00 0. -1.
</event>
<event>
 5   0  0.1121462E-08  0.3498987E+04  0.7818609E-02  0.8114030E-01
       -1   -1    0    0    0  501  0.00000000000E+00  0.00000000000E+00  0.14247986000E+04  0.14247986001E+04  0.50400001928E-02 0.  1.
        1   -1    0    0  501    0  0.00000000000E+00  0.00000000000E+00 -0.21481823670E+04  0.21481823670E+04  0.50400001928E-02 0. -1.
    10030    2    1    2    0    0  0.00000000000E+00  0.00000000000E+00 -0.72338376699E+03  0.35729809671E+04  0.34989868415E+04 0.  0.
        2    1    3    3  502    0 -0.17410184081E+02  0.78682567422E+02 -0.21462861284E+04  0.21477984556E+04  0.25500000920E-02 0. -1.
       -2    1    3    3    0  502  0.17410184081E+02 -0.78682567422E+02  0.14229023614E+04  0.14251825115E+04  0.25500000920E-02 0.  1.
</event>
<event>
 5   0  0.3467834E-08  0.3511896E+04  0.7818609E-02  0.8110977E-01
        2   -1    0    0  501    0  0.00000000000E+00  0.00000000000E+00  0.96678389275E+03  0.96678389275E+03  0.25500000920E-02 0. -1.
       -2   -1    0    0    0  501  0.00000000000E+00  0.00000000000E+00 -0.31892882696E+04  0.31892882696E+04  0.25500000920E-02 0.  1.
    10030    2    1    2    0    0  0.00000000000E+00  0.00000000000E+00 -0.22225043768E+04  0.41560721623E+04  0.35118955157E+04 0.  0.
        3    1    3    3  502    0  0.65251027465E+03 -0.16000062283E+03  0.80866724716E+03  0.10513384729E+04  0.10100000352E+00 0. -1.
       -3    1    3    3    0  502 -0.65251027465E+03  0.16000062283E+03 -0.30311716240E+04  0.31047336894E+04  0.10100000352E+00 0.  1.
</event>
<event>
 5   0  0.3628017E-08  0.3496836E+04  0.7818609E-02  0.8114540E-01
       -2   -1    0    0    0  501  0.00000000000E+00  0.00000000000E+00  0.10095399665E+04  0.10095399665E+04  0.25500000920E-02 0. -1.
        2   -1    0    0  501    0  0.00000000000E+00  0.00000000000E+00 -0.30280772677E+04  0.30280772677E+04  0.25500000920E-02 0.  1.
    10030    2    1    2    0    0  0.00000000000E+00  0.00000000000E+00 -0.20185373012E+04  0.40376172341E+04  0.34968357258E+04 0.  0.
        1    1    3    3  502    0 -0.16806911319E+04  0.46993732376E+03 -0.88597911118E+03  0.19571721320E+04  0.50400001928E-02 0. -1.
       -1    1    3    3    0  502  0.16806911319E+04 -0.46993732376E+03 -0.11325581900E+04  0.20804451021E+04  0.50400001928E-02 0.  1.
</event>
<event>
 5   0  0.1121462E-08  0.3502000E+04  0.7818609E-02  0.8113316E-01
       -1   -1    0    0    0  501  0.00000000000E+00  0.00000000000E+00  0.12586429815E+04  0.12586429815E+04  0.50400001928E-02 0. -1.
        1   -1    0    0  501    0  0.00000000000E+00  0.00000000000E+00 -0.24359581463E+04  0.24359581463E+04  0.50400001928E-02 0.  1.
    10030    2    1    2    0    0  0.00000000000E+00  0.00000000000E+00 -0.11773151648E+04  0.36946011278E+04  0.35020003564E+04 0.  0.
        2    1    3    3  502    0 -0.91848432056E+03  0.21129655327E+03 -0.21455355776E+04  0.23434125960E+04  0.25500000920E-02 0.  1.
       -2    1    3    3    0  502  0.91848432056E+03 -0.21129655327E+03  0.96822041279E+03  0.13511885317E+04  0.25500000920E-02 0. -1.
</event>
<event>
 5   0  0.1121462E-08  0.3498000E+04  0.7818609E-02  0.8114264E-01
       -1   -1    0    0    0  501  0.00000000000E+00  0.00000000000E+00  0.24360064252E+04  0.24360064252E+04  0.50400001928E-02 0. -1.
        1   -1    0    0  501    0  0.00000000000E+00  0.00000000000E+00 -0.12557445762E+04  0.12557445762E+04  0.50400001928E-02 0.  1.
    10030    2    1    2    0    0  0.00000000000E+00  0.00000000000E+00  0.11802618490E+04  0.36917510014E+04  0.34980004894E+04 0.  0.
        4    1    3    3  502    0 -0.98772381556E+03  0.14430718478E+04  0.55767793782E+03  0.18355002013E+04  0.12699999809E+01 0.  1.
       -4    1    3    3    0  502  0.98772381556E+03 -0.14430718478E+04  0.62258391115E+03  0.18562508001E+04  0.12699999809E+01 0. -1.
</event>
<event>
 5   0  0.1140808E-08  0.3500377E+04  0.7818609E-02  0.8113701E-01
        1   -1    0    0  501    0  0.00000000000E+00  0.00000000000E+00  0.19582263975E+04  0.19582263975E+04  0.50400001928E-02 0. -1.
       -1   -1    0    0    0  501  0.00000000000E+00  0.00000000000E+00 -0.15642521044E+04  0.15642521044E+04  0.50400001928E-02 0.  1.
    10030    2    1    2    0    0  0.00000000000E+00  0.00000000000E+00  0.39397429306E+03  0.35224785020E+04  0.35003769873E+04 0.  0.
        3    1    3    3  502    0  0.19474537937E+02 -0.10757200134E+04  0.15861405110E+04  0.19166101679E+04  0.10100000352E+00 0. -1.
       -3    1    3    3    0  502 -0.19474537937E+02  0.10757200134E+04 -0.11921662180E+04  0.16058683340E+04  0.10100000352E+00 0.  1.
</event>
<event>
 5   0  0.1121462E-08  0.3502288E+04  0.7818609E-02  0.8113248E-01
       -1   -1    0    0    0  501  0.00000000000E+00  0.00000000000E+00  0.12284428364E+04  0.12284428364E+04  0.50400001928E-02 0.  1.
        1   -1    0    0  501    0  0.00000000000E+00  0.00000000000E+00 -0.24962535429E+04  0.24962535429E+04  0.50400001928E-02 0. -1.
    10030    2    1    2    0    0  0.00000000000E+00  0.00000000000E+00 -0.12678107065E+04  0.37246963793E+04  0.35022876996E+04 0.  0.
        4    1    3    3  502    0  0.50298265046E+03  0.89198376992E+03  0.87682292154E+03  0.13481270864E+04  0.12699999809E+01 0.  1.
       -4    1    3    3    0  502 -0.50298265046E+03 -0.89198376992E+03 -0.21446336281E+04  0.23765692929E+04  0.12699999809E+01 0. -1.
</event>
<event>
 5   0  0.3553585E-08  0.3499749E+04  0.7818609E-02  0.8113850E-01
       -2   -1    0    0    0  501  0.00000000000E+00  0.00000000000E+00  0.20569358098E+04  0.20569358098E+04  0.25500000920E-02 0.  1.
        2   -1    0    0  501    0  0.00000000000E+00  0.00000000000E+00 -0.14886512222E+04  0.14886512222E+04  0.25500000920E-02 0. -1.
    10030    2    1    2    0    0  0.00000000000E+00  0.00000000000E+00  0.56828458765E+03  0.35455870320E+04  0.34997485666E+04 0.  0.
        2    1    3    3  502    0  0.12067244461E+04 -0.66129151800E+03 -0.81102031250E+03  0.15972615027E+04  0.25500000920E-02 0. -1.
       -2    1    3    3    0  502 -0.12067244461E+04  0.66129151800E+03  0.13793049002E+04  0.19483255293E+04  0.25500000920E-02 0.  1.
</event>
<event>
 5   0  0.3628017E-08  0.3498671E+04  0.7818609E-02  0.8114105E-01
        2   -1    0    0  501    0  0.00000000000E+00  0.00000000000E+00  0.18492322449E+04  0.18492322449E+04  0.25500000920E-02 0.  1.
       -2   -1    0    0    0  501  0.00000000000E+00  0.00000000000E+00 -0.16548351294E+04  0.16548351294E+04  0.25500000920E-02 0. -1.
    10030    2    1    2    0    0  0.00000000000E+00  0.00000000000E+00  0.19439711555E+03  0.35040673743E+04  0.34986708797E+04 0.  0.
        1    1    3    3  502    0 -0.69046825871E+03  0.16004247132E+04  0.24598341703E+03  0.17602879084E+04  0.50400001928E-02 0.  1.
       -1    1    3    3    0  502  0.69046825871E+03 -0.16004247132E+04 -0.51586301483E+02  0.17437794659E+04  0.50400001928E-02 0. -1.
</event>
<event>
 5   0  0.1121462E-08  0.3494972E+04  0.7818609E-02  0.8114983E-01
        1   -1    0    0  501    0  0.00000000000E+00  0.00000000000E+00  0.11190753146E+04  0.11190753147E+04  0.50400001928E-02 0.  1.
       -1   -1    0    0    0  501  0.00000000000E+00  0.00000000000E+00 -0.27287770540E+04  0.27287770540E+04  0.50400001928E-02 0. -1.
    10030    2    1    2    0    0  0.00000000000E+00  0.00000000000E+00 -0.16097017394E+04  0.38478523687E+04  0.34949718399E+04 0.  0.
        1    1    3    3  502    0  0.69139995175E+03 -0.15598264934E+04 -0.38907766460E+03  0.17499925748E+04  0.50400001928E-02 0.  1.
       -1    1    3    3    0  502 -0.69139995175E+03  0.15598264934E+04 -0.12206240748E+04  0.20978597939E+04  0.50400001928E-02 0. -1.
</event>
<event>
 5   0  0.3553585E-08  0.3503477E+04  0.7818609E-02  0.8112966E-01
        2   -1    0    0  501    0  0.00000000000E+00  0.00000000000E+00  0.17480363413E+04  0.17480363413E+04  0.25500000920E-02 0. -1.
       -2   -1    0    0    0  501  0.00000000000E+00  0.00000000000E+00 -0.17554488273E+04  0.17554488273E+04  0.25500000920E-02 0.  1.
    10030    2    1    2    0    0  0.00000000000E+00  0.00000000000E+00 -0.74124860608E+01  0.35034851686E+04  0.35034773271E+04 0.  0.
        2    1    3    3  502    0  0.13652072352E+04 -0.39891547877E+03 -0.10262856639E+04  0.17539061030E+04  0.25500000920E-02 0.  1.
       -2    1    3    3    0  502 -0.13652072352E+04  0.39891547877E+03  0.10188731778E+04  0.17495790656E+04  0.25500000920E-02 0. -1.
</event>
<event>
 5   0  0.1140808E-08  0.3499951E+04  0.7818609E-02  0.8113801E-01
        1   -1    0    0  501    0  0.00000000000E+00  0.00000000000E+00  0.25362779451E+04  0.25362779451E+04  0.50400001928E-02 0.  1.
       -1   -1    0    0    0  501  0.00000000000E+00  0.00000000000E+00 -0.12074445756E+04  0.12074445756E+04  0.50400001928E-02 0. -1.
    10030    2    1    2    0    0  0.00000000000E+00  0.00000000000E+00  0.13288333695E+04  0.37437225207E+04  0.34999514551E+04 0.  0.
        3    1    3    3  502    0  0.14467519665E+04 -0.28721936392E+03 -0.34288957027E+03  0.15143181579E+04  0.10100000352E+00 0. -1.
       -3    1    3    3    0  502 -0.14467519665E+04  0.28721936392E+03  0.16717229398E+04  0.22294043629E+04  0.10100000352E+00 0.  1.
</event>
<event>
 5   0  0.3628017E-08  0.3500247E+04  0.7818609E-02  0.8113731E-01
       -2   -1    0    0    0  501  0.00000000000E+00  0.00000000000E+00  0.18094184134E+04  0.18094184134E+04  0.25500000920E-02 0. -1.
        2   -1    0    0  501    0  0.00000000000E+00  0.00000000000E+00 -0.16927716486E+04  0.16927716486E+04  0.25500000920E-02 0.  1.
    10030    2    1    2    0    0  0.00000000000E+00  0.00000000000E+00  0.11664676476E+03  0.35021900619E+04  0.35002469573E+04 0.  0.
        1    1    3    3  502    0 -0.29994572565E+03 -0.91047524595E+03  0.15233765049E+04  0.17998912710E+04  0.50400001928E-02 0. -1.
       -1    1    3    3    0  502  0.29994572565E+03  0.91047524595E+03 -0.14067297401E+04  0.17022987909E+04  0.50400001928E-02 0.  1.
</event>
<event>
 5   0  0.1140808E-08  0.3500849E+04  0.7818609E-02  0.8113589E-01
       -1   -1    0    0    0  501  0.00000000000E+00  0.00000000000E+00  0.12773454741E+04  0.12773454741E+04  0.50400001928E-02 0. -1.
        1   -1    0    0  501    0  0.00000000000E+00  0.00000000000E+00 -0.23987131963E+04  0.23987131963E+04  0.50400001928E-02 0.  1.
    10030    2    1    2    0    0  0.00000000000E+00  0.00000000000E+00 -0.11213677222E+04  0.36760586704E+04  0.35008487227E+04 0.  0.
        3    1    3    3  502    0  0.17478595899E+04  0.53754209232E+02 -0.47878838305E+03  0.18130474309E+04  0.10100000352E+00 0. -1.
       -3    1    3    3    0  502 -0.17478595899E+04 -0.53754209232E+02 -0.64257933918E+03  0.18630112394E+04  0.10100000352E+00 0.  1.
</event>
<event>
 5   0  0.3554451E-08  0.3499717E+04  0.7818609E-02  0.8113857E-01
        2   -1    0    0  501    0  0.00000000000E+00  0.00000000000E+00  0.23551429140E+04  0.23551429140E+04  0.25500000920E-02 0. -1.
       -2   -1    0    0    0  501  0.00000000000E+00  0.00000000000E+00 -0.13001353856E+04  0.13001353856E+04  0.25500000920E-02 0.  1.
    10030    2    1    2    0    0  0.00000000000E+00  0.00000000000E+00  0.10550075283E+04  0.36552782996E+04  0.34997169261E+04 0.  0.
        5    1    3    3  502    0 -0.20613353335E+03 -0.11220532311E+04 -0.85830745402E+03  0.14276583144E+04  0.46999998093E+01 0.  1.
       -5    1    3    3    0  502  0.20613353335E+03  0.11220532311E+04  0.19133149824E+04  0.22276199853E+04  0.46999998093E+01 0. -1.
</event>
<event>
 5   0  0.3628017E-08  0.3500259E+04  0.7818609E-02  0.8113728E-01
        2   -1    0    0  501    0  0.00000000000E+00  0.00000000000E+00  0.20980624290E+04  0.20980624290E+04  0.25500000920E-02 0.  1.
       -2   -1    0    0    0  501  0.00000000000E+00  0.00000000000E+00 -0.14598964242E+04  0.14598964242E+04  0.25500000920E-02 0. -1.
    10030    2    1    2    0    0  0.00000000000E+00  0.00000000000E+00  0.63816600482E+03  0.35579588532E+04  0.35002593263E+04 0.  0.
        1    1    3    3  502    0 -0.15683727094E+04 -0.71752901532E+03  0.62115676467E+03  0.18331602685E+04  0.50400001928E-02 0.  1.
       -1    1    3    3    0  502  0.15683727094E+04  0.71752901532E+03  0.17009240154E+02  0.17247985847E+04  0.50400001928E-02 0. -1.
</event>
<event>
 5   0  0.1121462E-08  0.3495168E+04  0.7818609E-02  0.8114936E-01
        1   -1    0    0  501    0  0.00000000000E+00  0.00000000000E+00  0.19803412359E+04  0.19803412359E+04  0.50400001928E-02 0.  1.
       -1   -1    0    0    0  501  0.00000000000E+00  0.00000000000E+00 -0.15421838998E+04  0.15421838999E+04  0.50400001928E-02 0. -1.
    10030    2    1    2    0    0  0.00000000000E+00  0.00000000000E+00  0.43815733602E+03  0.35225251357E+04  0.34951683051E+04 0.  0.
        2    1    3    3  502    0 -0.60953386726E+03  0.14415326276E+04 -0.56450443901E+03  0.16637947930E+04  0.25500000920E-02 0. -1.
       -2    1    3    3    0  502  0.60953386726E+03 -0.14415326276E+04  0.10026617750E+04  0.18587303427E+04  0.25500000920E-02 0.  1.
</event>
<event>
 5   0  0.3553585E-08  0.3499246E+04  0.7818609E-02  0.8113969E-01
       -2   -1    0    0    0  501  0.00000000000E+00  0.00000000000E+00  0.11453016289E+04  0.11453016289E+04  0.25500000920E-02 0.  1.
        2   -1    0    0  501    0  0.00000000000E+00  0.00000000000E+00 -0.26728161487E+04  0.26728161487E+04  0.25500000920E-02 0. -1.
    10030    2    1    2    0    0  0.00000000000E+00  0.00000000000E+00 -0.15275145199E+04  0.38181177776E+04  0.34992460267E+04 0.  0.
        2    1    3    3  502    0 -0.12997567999E+04  0.53581120066E+03 -0.19001632860E+04  0.23637008895E+04  0.25500000920E-02 0. -1.
       -2    1    3    3    0  502  0.12997567999E+04 -0.53581120066E+03  0.37264876610E+03  0.14544168881E+04  0.25500000920E-02 0.  1.
</event>
<event>
 5   0  0.3628017E-08  0.3499758E+04  0.7818609E-02  0.8113847E-01
        2   -1    0    0  501    0  0.00000000000E+00  0.00000000000E+00  0.28152692993E+04  0.28152692993E+04  0.25500000920E-02 0. -1.
       -2   -1    0    0    0  501  0.00000000000E+00  0.00000000000E+00 -0.10876673048E+04  0.10876673048E+04  0.25500000920E-02 0.  1.
    10030    2    1    2    0    0  0.00000000000E+00  0.00000000000E+00  0.17276019946E+04  0.39029366041E+04  0.34997579180E+04 0.  0.
        1    1    3    3  502    0 -0.11080074635E+04 -0.39303910922E+03 -0.58162974464E+03  0.13116605660E+04  0.50400001928E-02 0.  1.
       -1    1    3    3    0  502  0.11080074635E+04  0.39303910922E+03  0.23092317392E+04  0.25912760381E+04  0.50400001928E-02 0. -1.
</event>
<event>
 5   0  0.1121462E-08  0.3506132E+04  0.7818609E-02  0.8112338E-01
        1   -1    0    0  501    0  0.00000000000E+00  0.00000000000E+00  0.21443657371E+04  0.21443657371E+04  0.50400001928E-02 0. -1.
       -1   -1    0    0    0  501  0.00000000000E+00  0.00000000000E+00 -0.14331696018E+04  0.14331696018E+04  0.50400001928E-02 0.  1.
    10030    2    1    2    0    0  0.00000000000E+00  0.00000000000E+00  0.71119613530E+03  0.35775353390E+04  0.35061316517E+04 0.  0.
        2    1    3    3  502    0  0.80526765624E+03  0.12372653875E+04  0.13203470023E+04  0.19805549333E+04  0.25500000920E-02 0. -1.
       -2    1    3    3    0  502 -0.80526765624E+03 -0.12372653875E+04 -0.60915086701E+03  0.15969804057E+04  0.25500000920E-02 0.  1.
</event>
<event>
 5   0  0.1121462E-08  0.3499797E+04  0.7818609E-02  0.8113838E-01
        1   -1    0    0  501    0  0.00000000000E+00  0.00000000000E+00  0.28238391369E+04  0.28238391369E+04  0.50400001928E-02 0. -1.
       -1   -1    0    0    0  501  0.00000000000E+00  0.00000000000E+00 -0.10843908088E+04  0.10843908088E+04  0.50400001928E-02 0.  1.
    10030    2    1    2    0    0  0.00000000000E+00  0.00000000000E+00  0.17394483281E+04  0.39082299457E+04  0.34997972544E+04 0.  0.
        4    1    3    3  502    0 -0.22190392560E+03 -0.17161966454E+04  0.57944330025E+03  0.18249187458E+04  0.12699999809E+01 0.  1.
       -4    1    3    3    0  502  0.22190392560E+03  0.17161966454E+04  0.11600050279E+04  0.20833111998E+04  0.12699999809E+01 0. -1.
</event>
<event>
 5   0  0.3554451E-08  0.3497446E+04  0.7818609E-02  0.8114395E-01
        2   -1    0    0  501    0  0.00000000000E+00  0.00000000000E+00  0.20844992207E+04  0.20844992207E+04  0.25500000920E-02 0.  1.
       -2   -1    0    0    0  501  0.00000000000E+00  0.00000000000E+00 -0.14670346189E+04  0.14670346189E+04  0.25500000920E-02 0. -1.
    10030    2    1    2    0    0  0.00000000000E+00  0.00000000000E+00  0.61746460186E+03  0.35515338396E+04  0.34974462225E+04 0.  0.
        5    1    3    3  502    0 -0.10367823565E+04  0.11987736530E+04  0.10591014241E+04  0.19062250241E+04  0.46999998093E+01 0.  1.
       -5    1    3    3    0  502  0.10367823565E+04 -0.11987736530E+04 -0.44163682225E+03  0.16453088156E+04  0.46999998093E+01 0. -1.
</event>
<event>
 5   0  0.1129219E-08  0.3500620E+04  0.7818609E-02  0.8113643E-01
        1   -1    0    0  501    0  0.00000000000E+00  0.00000000000E+00  0.17065390499E+04  0.17065390499E+04  0.50400001928E-02 0. -1.
       -1   -1    0    0    0  501  0.00000000000E+00  0.00000000000E+00 -0.17952040232E+04  0.17952040232E+04  0.50400001928E-02 0.  1.
    10030    2    1    2    0    0  0.00000000000E+00  0.00000000000E+00 -0.88664973251E+02  0.35017430731E+04  0.35006203840E+04 0.  0.
        5    1    3    3  502    0  0.48927146951E+03 -0.14970260948E+04  0.71951569595E+03  0.17315307176E+04  0.46999998093E+01 0. -1.
       -5    1    3    3    0  502 -0.48927146951E+03  0.14970260948E+04 -0.80818066920E+03  0.17702123555E+04  0.46999998093E+01 0.  1.
</event>
<event>
 5   0  0.1140808E-08  0.3501398E+04  0.7818609E-02  0.8113459E-01
        1   -1    0    0  501    0  0.00000000000E+00  0.00000000000E+00  0.17578294639E+04  0.17578294639E+04  0.50400001928E-02 0.  1.
       -1   -1    0    0    0  501  0.00000000000E+00  0.00000000000E+00 -0.17435976891E+04  0.17435976891E+04  0.50400001928E-02 0. -1.
    10030    2    1    2    0    0  0.00000000000E+00  0.00000000000E+00  0.14231774841E+02  0.35014271530E+04  0.35013982299E+04 0.  0.
        3    1    3    3  502    0 -0.72368024733E+03 -0.23958257308E+03 -0.15689156816E+04  0.17443076953E+04  0.10100000352E+00 0. -1.
       -3    1    3    3    0  502  0.72368024733E+03  0.23958257308E+03  0.15831474564E+04  0.17571194577E+04  0.10100000352E+00 0.  1.
</event>
<event>
 5   0  0.3467834E-08  0.3501563E+04  0.7818609E-02  0.8113420E-01
       -2   -1    0    0    0  501  0.00000000000E+00  0.00000000000E+00  0.14747936744E+04  0.14747936744E+04  0.25500000920E-02 0.  1.
        2   -1    0    0  501    0  0.00000000000E+00  0.00000000000E+00 -0.20784164312E+04  0.20784164312E+04  0.25500000920E-02 0. -1.
    10030    2    1    2    0    0  0.00000000000E+00  0.00000000000E+00 -0.60362275682E+03  0.35532101056E+04  0.35015627400E+04 0.  0.
        3    1    3    3  502    0  0.47996874538E+02 -0.14279676609E+04  0.72496302687E+03  0.16021756274E+04  0.10100000352E+00 0.  1.
       -3    1    3    3    0  502 -0.47996874538E+02  0.14279676609E+04 -0.13285857837E+04  0.19510344782E+04  0.10100000352E+00 0. -1.
</event>
<event>
 5   0  0.3554451E-08  0.3499830E+04  0.7818609E-02  0.8113830E-01
        2   -1    0    0  501    0  0.00000000000E+00  0.00000000000E+00  0.21976821173E+04  0.21976821173E+04  0.25500000920E-02 0.  1.
       -2   -1    0    0    0  501  0.00000000000E+00  0.00000000000E+00 -0.13933780340E+04  0.13933780340E+04  0.25500000920E-02 0. -1.
    10030    2    1    2    0    0  0.00000000000E+00  0.00000000000E+00  0.80430408334E+03  0.35910601513E+04  0.34998297032E+04 0.  0.
        5    1    3    3  502    0 -0.31822457391E+03  0.12281209333E+04 -0.83451722881E+03  0.15185483204E+04  0.46999998093E+01 0. -1.
       -5    1    3    3    0  502  0.31822457391E+03 -0.12281209333E+04  0.16388213121E+04  0.20725118309E+04  0.46999998093E+01 0.  1.
</event>
<event>
 5   0  0.1129219E-08  0.3500507E+04  0.7818609E-02  0.8113670E-01
       -1   -1    0    0    0  501  0.00000000000E+00  0.00000000000E+00  0.11997282602E+04  0.11997282602E+04  0.50400001928E-02 0.  1.
        1   -1    0    0  501    0  0.00000000000E+00  0.00000000000E+00 -0.25534007467E+04  0.25534007467E+04  0.50400001928E-02 0. -1.
    10030    2    1    2    0    0  0.00000000000E+00  0.00000000000E+00 -0.13536724865E+04  0.37531290069E+04  0.35005068407E+04 0.  0.
        5    1    3    3  502    0 -0.29685331003E+03  0.14048616758E+04 -0.17498645502E+04  0.22635826138E+04  0.46999998093E+01 0. -1.
       -5    1    3    3    0  502  0.29685331003E+03 -0.14048616758E+04  0.39619206371E+03  0.14895463931E+04  0.46999998093E+01 0.  1.
</event>
<event>
 5   0  0.1121462E-08  0.3498057E+04  0.7818609E-02  0.8114250E-01
       -1   -1    0    0    0  501  0.00000000000E+00  0.00000000000E+00  0.14007773526E+04  0.14007773526E+04  0.50400001928E-02 0.  1.
        1   -1    0    0  501    0  0.00000000000E+00  0.00000000000E+00 -0.21838598670E+04  0.21838598670E+04  0.50400001928E-02 0. -1.
    10030    2    1    2    0    0  0.00000000000E+00  0.00000000000E+00 -0.78308251441E+03  0.35846372196E+04  0.34980574283E+04 0.  0.
        2    1    3    3  502    0  0.30222998430E+03  0.65764989616E+03  0.12401166377E+04  0.14358745155E+04  0.25500000920E-02 0.  1.
       -2    1    3    3    0  502 -0.30222998430E+03 -0.65764989616E+03 -0.20231991521E+04  0.21487627040E+04  0.25500000920E-02 0. -1.
</event>
<event>
 5   0  0.3700096E-08  0.3497873E+04  0.7818609E-02  0.8114294E-01
        2   -1    0    0  501    0  0.00000000000E+00  0.00000000000E+00  0.21295583626E+04  0.21295583626E+04  0.25500000920E-02 0.  1.
       -2   -1    0    0    0  501  0.00000000000E+00  0.00000000000E+00 -0.14363438588E+04  0.14363438588E+04  0.25500000920E-02 0. -1.
    10030    2    1    2    0    0  0.00000000000E+00  0.00000000000E+00  0.69321450385E+03  0.35659022214E+04  0.34978725397E+04 0.  0.
        4    1    3    3  502    0  0.15016970389E+04  0.38558913988E+03 -0.47845602001E+03  0.16225580906E+04  0.12699999809E+01 0. -1.
       -4    1    3    3    0  502 -0.15016970389E+04 -0.38558913988E+03  0.11716705239E+04  0.19433441308E+04  0.12699999809E+01 0.  1.
</event>
<event>
 5   0  0.3554451E-08  0.3502789E+04  0.7818609E-02  0.8113129E-01
        2   -1    0    0  501    0  0.00000000000E+00  0.00000000000E+00  0.18223802574E+04  0.18223802574E+04  0.25500000920E-02 0. -1.
       -2   -1    0    0    0  501  0.00000000000E+00  0.00000000000E+00 -0.16831737967E+04  0.16831737967E+04  0.25500000920E-02 0.  1.
    10030    2    1    2    0    0  0.00000000000E+00  0.00000000000E+00  0.13920646065E+03  0.35055540541E+04  0.35027890013E+04 0.  0.
        5    1    3    3  502    0 -0.11818315860E+04 -0.61825026645E+03 -0.10663704543E+04  0.17076672174E+04  0.46999998093E+01 0.  1.
       -5    1    3    3    0  502  0.11818315860E+04  0.61825026645E+03  0.12055769150E+04  0.17978868367E+04  0.46999998093E+01 0. -1.
</event>
<event>
 5   0  0.1121462E-08  0.3499415E+04  0.7818609E-02  0.8113929E-01
        1   -1    0    0  501    0  0.00000000000E+00  0.00000000000E+00  0.20192060899E+04  0.20192060899E+04  0.50400001928E-02 0. -1.
       -1   -1    0    0    0  501  0.00000000000E+00  0.00000000000E+00 -0.15161783741E+04  0.15161783741E+04  0.50400001928E-02 0.  1.
    10030    2    1    2    0    0  0.00000000000E+00  0.00000000000E+00  0.50302771582E+03  0.35353844640E+04  0.34994151547E+04 0.  0.
        1    1    3    3  502    0 -0.96015068448E+03  0.85096888414E+03 -0.95043722920E+03  0.15966741387E+04  0.50400001928E-02 0.  1.
       -1    1    3    3    0  502  0.96015068448E+03 -0.85096888414E+03  0.14534649450E+04  0.19387103252E+04  0.50400001928E-02 0. -1.
</event>
<event>
 5   0  0.3553585E-08  0.3497688E+04  0.7818609E-02  0.8114338E-01
        2   -1    0    0  501    0  0.00000000000E+00  0.00000000000E+00  0.29265572163E+04  0.29265572163E+04  0.25500000920E-02 0.  1.
       -2   -1    0    0    0  501  0.00000000000E+00  0.00000000000E+00 -0.10450694891E+04  0.10450694891E+04  0.25500000920E-02 0. -1.
    10030    2    1    2    0    0  0.00000000000E+00  0.00000000000E+00  0.18814877273E+04  0.39716267054E+04  0.34976881821E+04 0.  0.
        2    1    3    3  502    0  0.13330627954E+04  0.10374075203E+04  0.14550953566E+04  0.22294782521E+04  0.25500000920E-02 0. -1.
       -2    1    3    3    0  502 -0.13330627954E+04 -0.10374075203E+04  0.42639237066E+03  0.17421484533E+04  0.25500000920E-02 0.  1.
</event>
<event>
 5   0  0.1121462E-08  0.3494922E+04  0.7818609E-02  0.8114994E-01
       -1   -1    0    0    0  501  0.00000000000E+00  0.00000000000E+00  0.13597209014E+04  0.13597209014E+04  0.50400001928E-02 0.  1.
        1   -1    0    0  501    0  0.00000000000E+00  0.00000000000E+00 -0.22457702498E+04  0.22457702498E+04  0.50400001928E-02 0. -1.
    10030    2    1    2    0    0  0.00000000000E+00  0.00000000000E+00 -0.88604934845E+03  0.36054911512E+04  0.34949224589E+04 0.  0.
        2    1    3    3  502    0 -0.94420099931E+02  0.75414902492E+03 -0.20663259357E+04  0.22016718147E+04  0.25500000920E-02 0. -1.
       -2    1    3    3    0  502  0.94420099931E+02 -0.75414902492E+03  0.11802765873E+04  0.14038193365E+04  0.25500000920E-02 0.  1.
</event>
<event>
 5   0  0.3628017E-08  0.3495281E+04  0.7818609E-02  0.8114909E-01
       -2   -1    0    0    0  501  0.00000000000E+00  0.00000000000E+00  0.14740614373E+04  0.14740614373E+04  0.25500000920E-02 0. -1.
        2   -1    0    0  501    0  0.00000000000E+00  0.00000000000E+00 -0.20719945728E+04  0.20719945728E+04  0.25500000920E-02 0.  1.
    10030    2    1    2    0    0  0.00000000000E+00  0.00000000000E+00 -0.59793313553E+03  0.35460560101E+04  0.34952809890E+04 0.  0.
        1    1    3    3  502    0 -0.22475002128E+01 -0.48599865986E+03 -0.20020567860E+04  0.20602017190E+04  0.50400001928E-02 0.  1.
       -1    1    3    3    0  502  0.22475002128E+01  0.48599865986E+03  0.14041236504E+04  0.14858542911E+04  0.50400001928E-02 0. -1.
</event>
<event>
 5   0  0.1140808E-08  0.3500745E+04  0.7818609E-02  0.8113614E-01
        1   -1    0    0  501    0  0.00000000000E+00  0.00000000000E+00  0.14031088440E+04  0.14031088440E+04  0.50400001928E-02 0.  1.
       -1   -1    0    0    0  501  0.00000000000E+00  0.00000000000E+00 -0.21835819844E+04  0.21835819844E+04  0.50400001928E-02 0. -1.
    10030    2    1    2    0    0  0.00000000000E+00  0.00000000000E+00 -0.78047314045E+03  0.35866908284E+04  0.35007446030E+04 0.  0.
        3    1    3    3  502    0 -0.12838877510E+04 -0.80298808037E+03 -0.12896530841E+04  0.19890607587E+04  0.10100000352E+00 0. -1.
       -3    1    3    3    0  502  0.12838877510E+04  0.80298808037E+03  0.50917994363E+03  0.15976300697E+04  0.10100000352E+00 0.  1.
</event>
<event>
 5   0  0.1140808E-08  0.3499465E+04  0.7818609E-02  0.8113917E-01
        1   -1    0    0  501    0  0.00000000000E+00  0.00000000000E+00  0.22490841704E+04  0.22490841704E+04  0.50400001928E-02 0. -1.
       -1   -1    0    0    0  501  0.00000000000E+00  0.00000000000E+00 -0.13612494116E+04  0.13612494117E+04  0.50400001928E-02 0.  1.
    10030    2    1    2    0    0  0.00000000000E+00  0.00000000000E+00  0.88783475874E+03  0.36103335820E+04  0.34994653898E+04 0.  0.
        3    1    3    3  502    0 -0.11825213345E+04  0.12590281043E+04  0.73215378156E+03  0.18760484120E+04  0.10100000352E+00 0.  1.
       -3    1    3    3    0  502  0.11825213345E+04 -0.12590281043E+04  0.15568097717E+03  0.17342851700E+04  0.10100000352E+00 0. -1.
</event>
<event>
 5   0  0.3700096E-08  0.3503163E+04  0.7818609E-02  0.8113041E-01
        2   -1    0    0  501    0  0.00000000000E+00  0.00000000000E+00  0.16401684663E+04  0.16401684663E+04  0.25500000920E-02 0. -1.
       -2   -1    0    0    0  501  0.00000000000E+00  0.00000000000E+00 -0.18705630416E+04  0.18705630416E+04  0.25500000920E-02 0.  1.
    10030    2    1    2    0    0  0.00000000000E+00  0.00000000000E+00 -0.23039457531E+03  0.35107315078E+04  0.35031634361E+04 0.  0.
        4    1    3    3  502    0 -0.12471476006E+04  0.88025954635E+03  0.74561289422E+03  0.16988743943E+04  0.12699999809E+01 0.  1.
       -4    1    3    3    0  502  0.12471476006E+04 -0.88025954635E+03 -0.97600746953E+03  0.18118571136E+04  0.12699999809E+01 0. -1.
</event>
<event>
 5   0  0.3628017E-08  0.3499860E+04  0.7818609E-02  0.8113823E-01
        2   -1    0    0  501    0  0.00000000000E+00  0.00000000000E+00  0.27389614944E+04  0.27389614944E+04  0.25500000920E-02 0. -1.
       -2   -1    0    0    0  501  0.00000000000E+00  0.00000000000E+00 -0.11180350141E+04  0.11180350141E+04  0.25500000920E-02 0.  1.
    10030    2    1    2    0    0  0.00000000000E+00  0.00000000000E+00  0.16209264804E+04  0.38569965085E+04  0.34998599132E+04 0.  0.
        1    1    3    3  502    0 -0.12336698320E+04 -0.40106996346E+03 -0.48388931846E+03  0.13845386389E+04  0.50400001928E-02 0.  1.
       -1    1    3    3    0  502  0.12336698320E+04  0.40106996346E+03  0.21048157988E+04  0.24724578696E+04  0.50400001928E-02 0. -1.
</event>
<event>
 5   0  0.1121462E-08  0.3497391E+04  0.7818609E-02  0.8114409E-01
       -1   -1    0    0    0  501  0.00000000000E+00  0.00000000000E+00  0.14615004698E+04  0.14615004698E+04  0.50400001928E-02 0. -1.
        1   -1    0    0  501    0  0.00000000000E+00  0.00000000000E+00 -0.20923263877E+04  0.20923263877E+04  0.50400001928E-02 0.  1.
    10030    2    1    2    0    0  0.00000000000E+00  0.00000000000E+00 -0.63082591789E+03  0.35538268575E+04  0.34973910268E+04 0.  0.
        2    1    3    3  502    0  0.90810140711E+03  0.69344971608E+03  0.10297366659E+04  0.15381411754E+04  0.25500000920E-02 0. -1.
       -2    1    3    3    0  502 -0.90810140711E+03 -0.69344971608E+03 -0.16605625838E+04  0.20156856821E+04  0.25500000920E-02 0.  1.
</event>
<event>
 5   0  0.1121462E-08  0.3498367E+04  0.7818609E-02  0.8114177E-01
       -1   -1    0    0    0  501  0.00000000000E+00  0.00000000000E+00  0.29438919102E+04  0.29438919102E+04  0.50400001928E-02 0.  1.
        1   -1    0    0  501    0  0.00000000000E+00  0.00000000000E+00 -0.10393192075E+04  0.10393192076E+04  0.50400001928E-02 0. -1.
    10030    2    1    2    0    0  0.00000000000E+00  0.00000000000E+00  0.19045727026E+04  0.39832111177E+04  0.34983672804E+04 0.  0.
        4    1    3    3  502    0  0.11528196483E+04  0.13091146095E+04  0.80441145071E+03  0.19208991638E+04  0.12699999809E+01 0.  1.
       -4    1    3    3    0  502 -0.11528196483E+04 -0.13091146095E+04  0.11001612519E+04  0.20623119540E+04  0.12699999809E+01 0. -1.
</event>
<event>
 5   0  0.1129219E-08  0.3498690E+04  0.7818609E-02  0.8114100E-01
       -1   -1    0    0    0  501  0.00000000000E+00  0.00000000000E+00  0.20176687726E+04  0.20176687726E+04  0.50400001928E-02 0. -1.
        1   -1    0    0  501    0  0.00000000000E+00  0.00000000000E+00 -0.15167047682E+04  0.15167047682E+04  0.50400001928E-02 0.  1.
    10030    2    1    2    0    0  0.00000000000E+00  0.00000000000E+00  0.50096400443E+03  0.35343735409E+04  0.34986899538E+04 0.  0.
        5    1    3    3  502    0  0.41870760730E+03 -0.11207162140E+04  0.15397687456E+04  0.19499309661E+04  0.46999998093E+01 0. -1.
       -5    1    3    3    0  502 -0.41870760730E+03  0.11207162140E+04 -0.10388047411E+04  0.15844425748E+04  0.46999998093E+01 0.  1.
</event>
<event>
 5   0  0.3553585E-08  0.3499964E+04  0.7818609E-02  0.8113799E-01
        2   -1    0    0  501    0  0.00000000000E+00  0.00000000000E+00  0.16460070466E+04  0.16460070466E+04  0.25500000920E-02 0.  1.
       -2   -1    0    0    0  501  0.00000000000E+00  0.00000000000E+00 -0.18605245465E+04  0.18605245465E+04  0.25500000920E-02 0. -1.
    10030    2    1    2    0    0  0.00000000000E+00  0.00000000000E+00 -0.21451749993E+03  0.35065315930E+04  0.34999637220E+04 0.  0.
        2    1    3    3  502    0  0.55739116040E+03  0.16221385937E+04 -0.45492289346E+03  0.17745346888E+04  0.25500000920E-02 0.  1.
       -2    1    3    3    0  502 -0.55739116040E+03 -0.16221385937E+04  0.24040539353E+03  0.17319969042E+04  0.25500000920E-02 0. -1.
</event>
<event>
 5   0  0.1121462E-08  0.3499853E+04  0.7818609E-02  0.8113825E-01
       -1   -1    0    0    0  501  0.00000000000E+00  0.00000000000E+00  0.18485573095E+04  0.18485573095E+04  0.50400001928E-02 0. -1.
        1   -1    0    0  501    0  0.00000000000E+00  0.00000000000E+00 -0.16565585566E+04  0.16565585566E+04  0.50400001928E-02 0.  1.
    10030    2    1    2    0    0  0.00000000000E+00  0.00000000000E+00  0.19199875293E+03  0.35051158661E+04  0.34998533846E+04 0.  0.
        4    1    3    3  502    0 -0.15938821914E+04  0.71146786798E+02 -0.62391352625E+03  0.17131234650E+04  0.12699999809E+01 0.  1.
       -4    1    3    3    0  502  0.15938821914E+04 -0.71146786798E+02  0.81591227917E+03  0.17919924011E+04  0.12699999809E+01 0. -1.
</event>
<event>
 5   0  0.3554451E-08  0.3499814E+04  0.7818609E-02  0.8113834E-01
       -2   -1    0    0    0  501  0.00000000000E+00  0.00000000000E+00  0.19642435196E+04  0.19642435196E+04  0.25500000920E-02 0. -1.
        2   -1    0    0  501    0  0.00000000000E+00  0.00000000000E+00 -0.15589588052E+04  0.15589588052E+04  0.25500000920E-02 0.  1.
    10030    2    1    2    0    0  0.00000000000E+00  0.00000000000E+00  0.40528471444E+03  0.35232023248E+04  0.34998141267E+04 0.  0.
        5    1    3    3  502    0 -0.10338344652E+04 -0.90847621158E+03 -0.88532500746E+03  0.16364489565E+04  0.46999998093E+01 0.  1.
       -5    1    3    3    0  502  0.10338344652E+04  0.90847621158E+03  0.12906097219E+04  0.18867533683E+04  0.46999998093E+01 0. -1.
</event>
<event>
 5   0  0.1129219E-08  0.3500092E+04  0.7818609E-02  0.8113768E-01
        1   -1    0    0  501    0  0.00000000000E+00  0.00000000000E+00  0.11067704899E+04  0.11067704899E+04  0.50400001928E-02 0. -1.
       -1   -1    0    0    0  501  0.00000000000E+00  0.00000000000E+00 -0.27672048550E+04  0.27672048550E+04  0.50400001928E-02 0.  1.
    10030    2    1    2    0    0  0.00000000000E+00  0.00000000000E+00 -0.16604343651E+04  0.38739753449E+04  0.35000918119E+04 0.  0.
        5    1    3    3  502    0 -0.14405990255E+04 -0.19377145871E+03 -0.19088798440E+04  0.23993160024E+04  0.46999998093E+01 0.  1.
       -5    1    3    3    0  502  0.14405990255E+04  0.19377145871E+03  0.24844547892E+03  0.14746593425E+04  0.46999998093E+01 0. -1.
</event>
<event>
 5   0  0.1121462E-08  0.3500012E+04  0.7818609E-02  0.8113787E-01
       -1   -1    0    0    0  501  0.00000000000E+00  0.00000000000E+00  0.22076825248E+04  0.22076825248E+04  0.50400001928E-02 0. -1.
        1   -1    0    0  501    0  0.00000000000E+00  0.00000000000E+00 -0.13872110690E+04  0.13872110690E+04  0.50400001928E-02 0.  1.
    10030    2    1    2    0    0  0.00000000000E+00  0.00000000000E+00  0.82047145581E+03  0.35948935938E+04  0.35000123629E+04 0.  0.
        1    1    3    3  502    0 -0.66704412138E+03 -0.40347574249E+03  0.20194832430E+04  0.21647293373E+04  0.50400001928E-02 0. -1.
       -1    1    3    3    0  502  0.66704412138E+03  0.40347574249E+03 -0.11990117872E+04  0.14301642565E+04  0.50400001928E-02 0.  1.
</event>
<event>
 5   0  0.3553585E-08  0.3504007E+04  0.7818609E-02  0.8112841E-01
        2   -1    0    0  501    0  0.00000000000E+00  0.00000000000E+00  0.11336796989E+04  0.11336796989E+04  0.25500000920E-02 0.  1.
       -2   -1    0    0    0  501  0.00000000000E+00  0.00000000000E+00 -0.27075691854E+04  0.27075691854E+04  0.25500000920E-02 0. -1.
    10030    2    1    2    0    0  0.00000000000E+00  0.00000000000E+00 -0.15738894865E+04  0.38412488843E+04  0.35040069742E+04 0.  0.
        2    1    3    3  502    0 -0.11574251277E+04  0.11732621763E+04 -0.13531129233E+03  0.16536281947E+04  0.25500000920E-02 0. -1.
       -2    1    3    3    0  502  0.11574251277E+04 -0.11732621763E+04 -0.14385781942E+04  0.21876206896E+04  0.25500000920E-02 0.  1.
</event>
<event>
 5   0  0.1129219E-08  0.3515949E+04  0.7818609E-02  0.8110021E-01
       -1   -1    0    0    0  501  0.00000000000E+00  0.00000000000E+00  0.11977322524E+04  0.11977322524E+04  0.50400001928E-02 0. -1.
        1   -1    0    0  501    0  0.00000000000E+00  0.00000000000E+00 -0.25802717231E+04  0.25802717231E+04  0.50400001928E-02 0.  1.
    10030    2    1    2    0    0  0.00000000000E+00  0.00000000000E+00 -0.13825394708E+04  0.37780039755E+04  0.35159491820E+04 0.  0.
        5    1    3    3  502    0  0.59108777413E+03 -0.15206661746E+03 -0.24627651733E+04  0.25372708570E+04  0.46999998093E+01 0.  1.
       -5    1    3    3    0  502 -0.59108777413E+03  0.15206661746E+03  0.10802257025E+04  0.12407331185E+04  0.46999998093E+01 0. -1.
</event>
<event>
 5   0  0.3628017E-08  0.3501193E+04  0.7818609E-02  0.8113507E-01
        2   -1    0    0  501    0  0.00000000000E+00  0.00000000000E+00  0.27206884947E+04  0.27206884947E+04  0.25500000920E-02 0.  1.
       -2   -1    0    0    0  501  0.00000000000E+00  0.00000000000E+00 -0.11264014449E+04  0.11264014449E+04  0.25500000920E-02 0. -1.
    10030    2    1    2    0    0  0.00000000000E+00  0.00000000000E+00  0.15942870499E+04  0.38470899396E+04  0.35011926262E+04 0.  0.
        1    1    3    3  502    0  0.46633365878E+01  0.15941524169E+04  0.23242872984E+01  0.15941609321E+04  0.50400001928E-02 0. -1.
       -1    1    3    3    0  502 -0.46633365878E+01 -0.15941524169E+04  0.15919627626E+04  0.22529290074E+04  0.50400001928E-02 0.  1.
</event>
<event>
 5   0  0.1121462E-08  0.3500963E+04  0.7818609E-02  0.8113562E-01
        1   -1    0    0  501    0  0.00000000000E+00  0.00000000000E+00  0.20767091754E+04  0.20767091754E+04  0.50400001928E-02 0. -1.
       -1   -1    0    0    0  501  0.00000000000E+00  0.00000000000E+00 -0.14755001567E+04  0.14755001567E+04  0.50400001928E-02 0.  1.
    10030    2    1    2    0    0  0.00000000000E+00  0.00000000000E+00  0.60120901866E+03  0.35522093321E+04  0.35009625612E+04 0.  0.
        1    1    3    3  502    0  0.22398088613E+03  0.13422883318E+04  0.14177569304E+04  0.19651819551E+04  0.50400001928E-02 0. -1.
       -1    1    3    3    0  502 -0.22398088613E+03 -0.13422883318E+04 -0.81654791173E+03  0.15870273769E+04  0.50400001928E-02 0.  1.
</event>
<event>
 5   0  0.1121462E-08  0.3499329E+04  0.7818609E-02  0.8113949E-01
       -1   -1    0    0    0  501  0.00000000000E+00  0.00000000000E+00  0.24507730705E+04  0.24507730705E+04  0.50400001928E-02 0.  1.
        1   -1    0    0  501    0  0.00000000000E+00  0.00000000000E+00 -0.12491266404E+04  0.12491266404E+04  0.50400001928E-02 0. -1.
    10030    2    1    2    0    0  0.00000000000E+00  0.00000000000E+00  0.12016464301E+04  0.36998997110E+04  0.34993290397E+04 0.  0.
        2    1    3    3  502    0 -0.17174460505E+03  0.14607896629E+04 -0.40107773410E+03  0.15245543602E+04  0.25500000920E-02 0. -1.
       -2    1    3    3    0  502  0.17174460505E+03 -0.14607896629E+04  0.16027241642E+04  0.21753453507E+04  0.25500000920E-02 0.  1.
</event>
<event>
 5   0  0.3700096E-08  0.3500245E+04  0.7818609E-02  0.8113732E-01
       -2   -1    0    0    0  501  0.00000000000E+00  0.00000000000E+00  0.18477048977E+04  0.18477048977E+04  0.25500000920E-02 0. -1.
        2   -1    0    0  501    0  0.00000000000E+00  0.00000000000E+00 -0.16576935040E+04  0.16576935040E+04  0.25500000920E-02 0.  1.
    10030    2    1    2    0    0  0.00000000000E+00  0.00000000000E+00  0.19001139372E+03  0.35053984017E+04  0.35002447950E+04 0.  0.
        4    1    3    3  502    0 -0.13452543635E+04 -0.10278034477E+04 -0.34931133014E+03  0.17286148350E+04  0.12699999809E+01 0.  1.
       -4    1    3    3    0  502  0.13452543635E+04  0.10278034477E+04  0.53932272386E+03  0.17767835667E+04  0.12699999809E+01 0. -1.
</event>
<event>
 5   0  0.3553585E-08  0.3487828E+04  0.7818609E-02  0.8116681E-01
        2   -1    0    0  501    0  0.00000000000E+00  0.00000000000E+00  0.13010828403E+04  0.13010828403E+04  0.25500000920E-02 0. -1.
       -2   -1    0    0    0  501  0.00000000000E+00  0.00000000000E+00 -0.23374659421E+04  0.23374659421E+04  0.25500000920E-02 0.  1.
    10030    2    1    2    0    0  0.00000000000E+00  0.00000000000E+00 -0.10363831018E+04  0.36385487825E+04  0.34878284517E+04 0.  0.
        2    1    3    3  502    0  0.16892174104E+04 -0.38847281501E+03 -0.71850544162E+03  0.18763306364E+04  0.25500000920E-02 0.  1.
       -2    1    3    3    0  502 -0.16892174104E+04  0.38847281501E+03 -0.31787766019E+03  0.17622181461E+04  0.25500000920E-02 0. -1.
</event>
<event>
 5   0  0.3700096E-08  0.3498369E+04  0.7818609E-02  0.8114177E-01
       -2   -1    0    0    0  501  0.00000000000E+00  0.00000000000E+00  0.13059862121E+04  0.13059862121E+04  0.25500000920E-02 0.  1.
        2   -1    0    0  501    0  0.00000000000E+00  0.00000000000E+00 -0.23427859134E+04  0.23427859134E+04  0.25500000920E-02 0. -1.
    10030    2    1    2    0    0  0.00000000000E+00  0.00000000000E+00 -0.10367997013E+04  0.36487721255E+04  0.34983688204E+04 0.  0.
        4    1    3    3  502    0 -0.71801425618E+03  0.35279404236E+03 -0.21407933616E+04  0.22853896688E+04  0.12699999809E+01 0. -1.
       -4    1    3    3    0  502  0.71801425618E+03 -0.35279404236E+03  0.11039936603E+04  0.13633824567E+04  0.12699999809E+01 0.  1.
</event>
<event>
 5   0  0.1121462E-08  0.3496426E+04  0.7818609E-02  0.8114637E-01
        1   -1    0    0  501    0  0.00000000000E+00  0.00000000000E+00  0.18953849775E+04  0.18953849775E+04  0.50400001928E-02 0.  1.
       -1   -1    0    0    0  501  0.00000000000E+00  0.00000000000E+00 -0.16124685741E+04  0.16124685741E+04  0.50400001928E-02 0. -1.
    10030    2    1    2    0    0  0.00000000000E+00  0.00000000000E+00  0.28291640342E+03  0.35078535517E+04  0.34964260107E+04 0.  0.
        2    1    3    3  502    0 -0.15388140182E+04  0.78328858071E+03  0.41577299425E+03  0.17760508906E+04  0.25500000920E-02 0. -1.
       -2    1    3    3    0  502  0.15388140182E+04 -0.78328858071E+03 -0.13285659083E+03  0.17318026611E+04  0.25500000920E-02 0.  1.
</event>
<event>
 5   0  0.3628017E-08  0.3501600E+04  0.7818609E-02  0.8113411E-01
       -2   -1    0    0    0  501  0.00000000000E+00  0.00000000000E+00  0.17482185491E+04  0.17482185491E+04  0.25500000920E-02 0.  1.
        2   -1    0    0  501    0  0.00000000000E+00  0.00000000000E+00 -0.17533855723E+04  0.17533855723E+04  0.25500000920E-02 0. -1.
    10030    2    1    2    0    0  0.00000000000E+00  0.00000000000E+00 -0.51670232715E+01  0.35016041214E+04  0.35016003091E+04 0.  0.
        1    1    3    3  502    0 -0.17090480903E+04 -0.34177850345E+03  0.16367929597E+03  0.17505567206E+04  0.50400001928E-02 0. -1.
       -1    1    3    3    0  502  0.17090480903E+04  0.34177850345E+03 -0.16884631924E+03  0.17510474008E+04  0.50400001928E-02 0.  1.
</event>
<event>
 5   0  0.1121462E-08  0.3499815E+04  0.7818609E-02  0.8113834E-01
        1   -1    0    0  501    0  0.00000000000E+00  0.00000000000E+00  0.13908870765E+04  0.13908870765E+04  0.50400001928E-02 0. -1.
       -1   -1    0    0    0  501  0.00000000000E+00  0.00000000000E+00 -0.22015988955E+04  0.22015988955E+04  0.50400001928E-02 0.  1.
    10030    2    1    2    0    0  0.00000000000E+00  0.00000000000E+00 -0.81071181898E+03  0.35924859719E+04  0.34998145387E+04 0.  0.
        4    1    3    3  502    0 -0.30463204925E+03  0.17034082958E+04 -0.13812944554E+03  0.17359383239E+04  0.12699999809E+01 0.  1.
       -4    1    3    3    0  502  0.30463204925E+03 -0.17034082958E+04 -0.67258237344E+03  0.18565476481E+04  0.12699999809E+01 0. -1.
</event>
<event>
 5   0  0.1121462E-08  0.3499074E+04  0.7818609E-02  0.8114009E-01
       -1   -1    0    0    0  501  0.00000000000E+00  0.00000000000E+00  0.17792457944E+04  0.17792457944E+04  0.50400001928E-02 0.  1.
        1   -1    0    0  501    0  0.00000000000E+00  0.00000000000E+00 -0.17203246823E+04  0.17203246823E+04  0.50400001928E-02 0. -1.
    10030    2    1    2    0    0  0.00000000000E+00  0.00000000000E+00  0.58921112071E+02  0.34995704767E+04  0.34990744239E+04 0.  0.
        2    1    3    3  502    0 -0.87123147588E+02 -0.59285914936E+02  0.17760686886E+04  0.17791923025E+04  0.25500000920E-02 0.  1.
       -2    1    3    3    0  502  0.87123147588E+02  0.59285914936E+02 -0.17171475766E+04  0.17203781742E+04  0.25500000920E-02 0. -1.
</event>
<event>
 5   0  0.1121462E-08  0.3500692E+04  0.7818609E-02  0.8113626E-01
        1   -1    0    0  501    0  0.00000000000E+00  0.00000000000E+00  0.20791069237E+04  0.20791069237E+04  0.50400001928E-02 0. -1.
       -1   -1    0    0    0  501  0.00000000000E+00  0.00000000000E+00 -0.14735709282E+04  0.14735709282E+04  0.50400001928E-02 0.  1.
    10030    2    1    2    0    0  0.00000000000E+00  0.00000000000E+00  0.60553599548E+03  0.35526778519E+04  0.35006922284E+04 0.  0.
        1    1    3    3  502    0  0.94745018289E+02  0.98713906494E+03 -0.11609721387E+04  0.15268518130E+04  0.50400001928E-02 0.  1.
       -1    1    3    3    0  502 -0.94745018289E+02 -0.98713906494E+03  0.17665081341E+04  0.20258260389E+04  0.50400001928E-02 0. -1.
</event>
<event>
 5   0  0.3628017E-08  0.3499876E+04  0.7818609E-02  0.8113819E-01
        2   -1    0    0  501    0  0.00000000000E+00  0.00000000000E+00  0.13273780014E+04  0.13273780014E+04  0.25500000920E-02 0.  1.
       -2   -1    0    0    0  501  0.00000000000E+00  0.00000000000E+00 -0.23070166040E+04  0.23070166040E+04  0.25500000920E-02 0. -1.
    10030    2    1    2    0    0  0.00000000000E+00  0.00000000000E+00 -0.97963860264E+03  0.36343946054E+04  0.34998760487E+04 0.  0.
        1    1    3    3  502    0  0.15363104173E+04 -0.65585746537E+02  0.37758926184E+03  0.15833902991E+04  0.50400001928E-02 0.  1.
       -1    1    3    3    0  502 -0.15363104173E+04  0.65585746537E+02 -0.13572278645E+04  0.20510043064E+04  0.50400001928E-02 0. -1.
</event>
<event>
 5   0  0.1140808E-08  0.3500249E+04  0.7818609E-02  0.8113731E-01
        1   -1    0    0  501    0  0.00000000000E+00  0.00000000000E+00  0.20934340573E+04  0.20934340573E+04  0.50400001928E-02 0.  1.
       -1   -1    0    0    0  501  0.00000000000E+00  0.00000000000E+00 -0.14631151933E+04  0.14631151933E+04  0.50400001928E-02 0. -1.
    10030    2    1    2    0    0  0.00000000000E+00  0.00000000000E+00  0.63031886393E+03  0.35565492506E+04  0.35002486629E+04 0.  0.
        3    1    3    3  502    0 -0.19110064475E+03  0.14914718653E+04  0.12250673633E+04  0.19395354692E+04  0.10100000352E+00 0.  1.
       -3    1    3    3    0  502  0.19110064475E+03 -0.14914718653E+04 -0.59474849940E+03  0.16170137814E+04  0.10100000352E+00 0. -1.
</event>
<event>
 5   0  0.1129219E-08  0.3500298E+04  0.7818609E-02  0.8113719E-01
        1   -1    0    0  501    0  0.00000000000E+00  0.00000000000E+00  0.22834507697E+04  0.22834507697E+04  0.50400001928E-02 0. -1.
       -1   -1    0    0    0  501  0.00000000000E+00  0.00000000000E+00 -0.13414000700E+04  0.13414000700E+04  0.50400001928E-02 0.  1.
    10030    2    1    2    0    0  0.00000000000E+00  0.00000000000E+00  0.94205069974E+03  0.36248508397E+04  0.35002977144E+04 0.  0.
        5    1    3    3  502    0 -0.12822322605E+03  0.89618946784E+03  0.20221215152E+04  0.22155347594E+04  0.46999998093E+01 0. -1.
       -5    1    3    3    0  502  0.12822322605E+03 -0.89618946784E+03 -0.10800708154E+04  0.14093160803E+04  0.46999998093E+01 0.  1.
</event>
<event>
 5   0  0.1140808E-08  0.3501868E+04  0.7818609E-02  0.8113347E-01
       -1   -1    0    0    0  501  0.00000000000E+00  0.00000000000E+00  0.15344320792E+04  0.15344320792E+04  0.50400001928E-02 0. -1.
        1   -1    0    0  501    0  0.00000000000E+00  0.00000000000E+00 -0.19979829605E+04  0.19979829606E+04  0.50400001928E-02 0.  1.
    10030    2    1    2    0    0  0.00000000000E+00  0.00000000000E+00 -0.46355088133E+03  0.35324150398E+04  0.35018675865E+04 0.  0.
        3    1    3    3  502    0  0.11729413233E+04 -0.12999473500E+04 -0.22097327046E+03  0.17647899754E+04  0.10100000352E+00 0.  1.
       -3    1    3    3    0  502 -0.11729413233E+04  0.12999473500E+04 -0.24257761088E+03  0.17676250644E+04  0.10100000352E+00 0. -1.
</event>
<event>
 5   0  0.3553585E-08  0.3499169E+04  0.7818609E-02  0.8113987E-01
        2   -1    0    0  501    0  0.00000000000E+00  0.00000000000E+00  0.14264554796E+04  0.14264554797E+04  0.25500000920E-02 0.  1.
       -2   -1    0    0    0  501  0.00000000000E+00  0.00000000000E+00 -0.21459107135E+04  0.21459107135E+04  0.25500000920E-02 0. -1.
    10030    2    1    2    0    0  0.00000000000E+00  0.00000000000E+00 -0.71945523390E+03  0.35723661932E+04  0.34991690992E+04 0.  0.
        2    1    3    3  502    0  0.16755732030E+04  0.43174516713E+02 -0.87185483405E+03  0.18893227488E+04  0.25500000920E-02 0.  1.
       -2    1    3    3    0  502 -0.16755732030E+04 -0.43174516713E+02  0.15239960015E+03  0.16830434444E+04  0.25500000920E-02 0. -1.
</event>
<event>
 5   0  0.3553585E-08  0.3500759E+04  0.7818609E-02  0.8113610E-01
       -2   -1    0    0    0  501  0.00000000000E+00  0.00000000000E+00  0.14857059741E+04  0.14857059741E+04  0.25500000920E-02 0.  1.
        2   -1    0    0  501    0  0.00000000000E+00  0.00000000000E+00 -0.20622034602E+04  0.20622034602E+04  0.25500000920E-02 0. -1.
    10030    2    1    2    0    0  0.00000000000E+00  0.00000000000E+00 -0.57649748615E+03  0.35479094343E+04  0.35007587752E+04 0.  0.
        2    1    3    3  502    0 -0.41389715098E+03 -0.27701509450E+03  0.14123806564E+04  0.14976205570E+04  0.25500000920E-02 0.  1.
       -2    1    3    3    0  502  0.41389715098E+03  0.27701509450E+03 -0.19888781426E+04  0.20502888773E+04  0.25500000920E-02 0. -1.
</event>
<event>
 5   0  0.3700096E-08  0.3500811E+04  0.7818609E-02  0.8113598E-01
       -2   -1    0    0    0  501  0.00000000000E+00  0.00000000000E+00  0.13441281231E+04  0.13441281231E+04  0.25500000920E-02 0. -1.
        2   -1    0    0  501    0  0.00000000000E+00  0.00000000000E+00 -0.22794852416E+04  0.22794852416E+04  0.25500000920E-02 0.  1.
    10030    2    1    2    0    0  0.00000000000E+00  0.00000000000E+00 -0.93535711851E+03  0.36236133646E+04  0.35008114598E+04 0.  0.
        4    1    3    3  502    0 -0.15371783204E+04 -0.69519881521E+03 -0.95062878152E+03  0.19364697970E+04  0.12699999809E+01 0. -1.
       -4    1    3    3    0  502  0.15371783204E+04  0.69519881521E+03  0.15271663008E+02  0.16871435677E+04  0.12699999809E+01 0.  1.
</event>
<event>
 5   0  0.1140808E-08  0.3500167E+04  0.7818609E-02  0.8113750E-01
       -1   -1    0    0    0  501  0.00000000000E+00  0.00000000000E+00  0.18603630840E+04  0.18603630840E+04  0.50400001928E-02 0.  1.
        1   -1    0    0  501    0  0.00000000000E+00  0.00000000000E+00 -0.16463408011E+04  0.16463408012E+04  0.50400001928E-02 0. -1.
    10030    2    1    2    0    0  0.00000000000E+00  0.00000000000E+00  0.21402228281E+03  0.35067038851E+04  0.35001666532E+04 0.  0.
        3    1    3    3  502    0 -0.50683059009E+03  0.33602326501E+03  0.17511131910E+04  0.18536953092E+04  0.10100000352E+00 0.  1.
       -3    1    3    3    0  502  0.50683059009E+03 -0.33602326501E+03 -0.15370909082E+04  0.16530085759E+04  0.10100000352E+00 0. -1.
</event>
<event>
 5   0  0.1121462E-08  0.3497855E+04  0.7818609E-02  0.8114298E-01
       -1   -1    0    0    0  501  0.00000000000E+00  0.00000000000E+00  0.29390997438E+04  0.29390997438E+04  0.50400001928E-02 0. -1.
        1   -1    0    0  501    0  0.00000000000E+00  0.00000000000E+00 -0.10407089465E+04  0.10407089465E+04  0.50400001928E-02 0.  1.
    10030    2    1    2    0    0  0.00000000000E+00  0.00000000000E+00  0.18983907973E+04  0.39798086903E+04  0.34978549987E+04 0.  0.
        4    1    3    3  502    0  0.30474783990E+03 -0.16383976775E+04  0.15528949801E+04  0.22778723906E+04  0.12699999809E+01 0. -1.
       -4    1    3    3    0  502 -0.30474783990E+03  0.16383976775E+04  0.34549581721E+03  0.17019362997E+04  0.12699999809E+01 0.  1.
</event>
<event>
 5   0  0.3554451E-08  0.3500562E+04  0.7818609E-02  0.8113657E-01
        2   -1    0    0  501    0  0.00000000000E+00  0.00000000000E+00  0.22406896952E+04  0.22406896952E+04  0.25500000920E-02 0. -1.
       -2   -1    0    0    0  501  0.00000000000E+00  0.00000000000E+00 -0.13672055410E+04  0.13672055410E+04  0.25500000920E-02 0.  1.
    10030    2    1    2    0    0  0.00000000000E+00  0.00000000000E+00  0.87348415420E+03  0.36078952361E+04  0.35005618788E+04 0.  0.
        5    1    3    3  502    0 -0.59566503739E+03  0.13028078764E+04  0.14732291963E+04  0.20548848032E+04  0.46999998093E+01 0. -1.
       -5    1    3    3    0  502  0.59566503739E+03 -0.13028078764E+04 -0.59974504205E+03  0.15530104330E+04  0.46999998093E+01 0.  1.
</event>
<event>
 5   0  0.1129219E-08  0.3499462E+04  0.7818609E-02  0.8113918E-01
        1   -1    0    0  501    0  0.00000000000E+00  0.00000000000E+00  0.20753604015E+04  0.20753604016E+04  0.50400001928E-02 0. -1.
       -1   -1    0    0    0  501  0.00000000000E+00  0.00000000000E+00 -0.14751932951E+04  0.14751932951E+04  0.50400001928E-02 0.  1.
    10030    2    1    2    0    0  0.00000000000E+00  0.00000000000E+00  0.60016710647E+03  0.35505536966E+04  0.34994615296E+04 0.  0.
        5    1    3    3  502    0 -0.23204907129E+03 -0.16927304912E+04 -0.82721106405E+02  0.17105695422E+04  0.46999998093E+01 0.  1.
       -5    1    3    3    0  502  0.23204907129E+03  0.16927304912E+04  0.68288821288E+03  0.18399841544E+04  0.46999998093E+01 0. -1.
</event>
<event>
 5   0  0.1121462E-08  0.3503657E+04  0.7818609E-02  0.8112924E-01
       -1   -1    0    0    0  501  0.00000000000E+00  0.00000000000E+00  0.14606960462E+04  0.14606960462E+04  0.50400001928E-02 0. -1.
        1   -1    0    0  501    0  0.00000000000E+00  0.00000000000E+00 -0.21009863204E+04  0.21009863204E+04  0.50400001928E-02 0.  1.
    10030    2    1    2    0    0  0.00000000000E+00  0.00000000000E+00 -0.64029027428E+03  0.35616823666E+04  0.35036566106E+04 0.  0.
        2    1    3    3  502    0  0.73255799152E+02 -0.67853633326E+03  0.13199956032E+04  0.14859900269E+04  0.25500000920E-02 0. -1.
       -2    1    3    3    0  502 -0.73255799152E+02  0.67853633326E+03 -0.19602858775E+04  0.20756923397E+04  0.25500000920E-02 0.  1.
</event>
<event>
 5   0  0.3554451E-08  0.3498318E+04  0.7818609E-02  0.8114189E-01
        2   -1    0    0  501    0  0.00000000000E+00  0.00000000000E+00  0.22249079522E+04  0.22249079522E+04  0.25500000920E-02 0.  1.
       -2   -1    0    0    0  501  0.00000000000E+00  0.00000000000E+00 -0.13751390287E+04  0.13751390287E+04  0.25500000920E-02 0. -1.
    10030    2    1    2    0    0  0.00000000000E+00  0.00000000000E+00  0.84976892345E+03  0.36000469809E+04  0.34983183162E+04 0.  0.
        5    1    3    3  502    0  0.15912822387E+04  0.33514969789E+03  0.10878473392E+04  0.19565117956E+04  0.46999998093E+01 0.  1.
       -5    1    3    3    0  502 -0.15912822387E+04 -0.33514969789E+03 -0.23807841572E+03  0.16435351853E+04  0.46999998093E+01 0. -1.
</event>
<event>
 5   0  0.1140808E-08  0.3499524E+04  0.7818609E-02  0.8113903E-01
        1   -1    0    0  501    0  0.00000000000E+00  0.00000000000E+00  0.17381476788E+04  0.17381476788E+04  0.50400001928E-02 0.  1.
       -1   -1    0    0    0  501  0.00000000000E+00  0.00000000000E+00 -0.17614538982E+04  0.17614538982E+04  0.50400001928E-02 0. -1.
    10030    2    1    2    0    0  0.00000000000E+00  0.00000000000E+00 -0.23306219425E+02  0.34996015769E+04  0.34995239701E+04 0.  0.
        3    1    3    3  502    0  0.85051878928E+03 -0.63928812902E+03 -0.14007827132E+04  0.17590519442E+04  0.10100000352E+00 0. -1.
       -3    1    3    3    0  502 -0.85051878928E+03  0.63928812902E+03  0.13774764938E+04  0.17405496327E+04  0.10100000352E+00 0.  1.
</event>
<event>
 5   0  0.1140808E-08  0.3499838E+04  0.7818609E-02  0.8113828E-01
       -1   -1    0    0    0  501  0.00000000000E+00  0.00000000000E+00  0.13871487305E+04  0.13871487305E+04  0.50400001928E-02 0.  1.
        1   -1    0    0  501    0  0.00000000000E+00  0.00000000000E+00 -0.22075620651E+04  0.22075620651E+04  0.50400001928E-02 0. -1.
    10030    2    1    2    0    0  0.00000000000E+00  0.00000000000E+00 -0.82041333466E+03  0.35947107956E+04  0.34998382340E+04 0.  0.
        3    1    3    3  502    0  0.11784597265E+04 -0.11721291868E+04  0.15195326455E+03  0.16690548110E+04  0.10100000352E+00 0.  1.
       -3    1    3    3    0  502 -0.11784597265E+04  0.11721291868E+04 -0.97236659921E+03  0.19256559846E+04  0.10100000352E+00 0. -1.
</event>
<event>
 5   0  0.1140808E-08  0.3499574E+04  0.7818609E-02  0.8113891E-01
        1   -1    0    0  501    0  0.00000000000E+00  0.00000000000E+00  0.29814772866E+04  0.29814772866E+04  0.50400001928E-02 0.  1.
       -1   -1    0    0    0  501  0.00000000000E+00  0.00000000000E+00 -0.10269255754E+04  0.10269255754E+04  0.50400001928E-02 0. -1.
    10030    2    1    2    0    0  0.00000000000E+00  0.00000000000E+00  0.19545517112E+04  0.40084028620E+04  0.34995744187E+04 0.  0.
        3    1    3    3  502    0  0.11604240173E+04  0.62779149952E+03 -0.33920826991E+03  0.13622658799E+04  0.10100000352E+00 0. -1.
       -3    1    3    3    0  502 -0.11604240173E+04 -0.62779149952E+03  0.22937599811E+04  0.26461369821E+04  0.10100000352E+00 0.  1.
</event>
<event>
 5   0  0.1121462E-08  0.3500087E+04  0.7818609E-02  0.8113769E-01
       -1   -1    0    0    0  501  0.00000000000E+00  0.00000000000E+00  0.13905387978E+04  0.13905387979E+04  0.50400001928E-02 0.  1.
        1   -1    0    0  501    0  0.00000000000E+00  0.00000000000E+00 -0.22024932021E+04  0.22024932021E+04  0.50400001928E-02 0. -1.
    10030    2    1    2    0    0  0.00000000000E+00  0.00000000000E+00 -0.81195440421E+03  0.35930319999E+04  0.35000869986E+04 0.  0.
        2    1    3    3  502    0 -0.64286026585E+03  0.38809498256E+03 -0.20287023675E+04  0.21632198993E+04  0.25500000920E-02 0. -1.
       -2    1    3    3    0  502  0.64286026585E+03 -0.38809498256E+03  0.12167479633E+04  0.14298121006E+04  0.25500000920E-02 0.  1.
</event>
<event>
 5   0  0.1121462E-08  0.3500459E+04  0.7818609E-02  0.8113681E-01
        1   -1    0    0  501    0  0.00000000000E+00  0.00000000000E+00  0.23915668784E+04  0.23915668784E+04  0.50400001928E-02 0. -1.
       -1   -1    0    0    0  501  0.00000000000E+00  0.00000000000E+00 -0.12808772698E+04  0.12808772698E+04  0.50400001928E-02 0.  1.
    10030    2    1    2    0    0  0.00000000000E+00  0.00000000000E+00  0.11106896086E+04  0.36724441482E+04  0.35004592006E+04 0.  0.
        4    1    3    3  502    0 -0.13078564309E+04  0.69176369856E+02 -0.66274602234E+03  0.14678241438E+04  0.12699999809E+01 0.  1.
       -4    1    3    3    0  502  0.13078564309E+04 -0.69176369856E+02  0.17734356309E+04  0.22046200044E+04  0.12699999809E+01 0. -1.
</event>
<event>
 5   0  0.1121462E-08  0.3499909E+04  0.7818609E-02  0.8113811E-01
       -1   -1    0    0    0  501  0.00000000000E+00  0.00000000000E+00  0.15695463937E+04  0.15695463937E+04  0.50400001928E-02 0. -1.
        1   -1    0    0  501    0  0.00000000000E+00  0.00000000000E+00 -0.19510993618E+04  0.19510993618E+04  0.50400001928E-02 0.  1.
    10030    2    1    2    0    0  0.00000000000E+00  0.00000000000E+00 -0.38155296812E+03  0.35206457555E+04  0.34999091228E+04 0.  0.
        4    1    3    3  502    0  0.30211196795E+03 -0.11490636887E+04  0.11016394807E+04  0.16202562020E+04  0.12699999809E+01 0. -1.
       -4    1    3    3    0  502 -0.30211196795E+03  0.11490636887E+04 -0.14831924488E+04  0.19003895535E+04  0.12699999809E+01 0.  1.
</event>
<event>
 5   0  0.3467834E-08  0.3499607E+04  0.7818609E-02  0.8113883E-01
        2   -1    0    0  501    0  0.00000000000E+00  0.00000000000E+00  0.25130928743E+04  0.25130928743E+04  0.25500000920E-02 0. -1.
       -2   -1    0    0    0  501  0.00000000000E+00  0.00000000000E+00 -0.12183445967E+04  0.12183445967E+04  0.25500000920E-02 0.  1.
    10030    2    1    2    0    0  0.00000000000E+00  0.00000000000E+00  0.12947482775E+04  0.37314374710E+04  0.34996074777E+04 0.  0.
        3    1    3    3  502    0 -0.12345805587E+04 -0.59461351034E+03 -0.51285416258E+03  0.14631383341E+04  0.10100000352E+00 0.  1.
       -3    1    3    3    0  502  0.12345805587E+04  0.59461351034E+03  0.18076024401E+04  0.22682991368E+04  0.10100000352E+00 0. -1.
</event>
<event>
 5   0  0.3700096E-08  0.3497769E+04  0.7818609E-02  0.8114319E-01
       -2   -1    0    0    0  501  0.00000000000E+00  0.00000000000E+00  0.11375514705E+04  0.11375514705E+04  0.25500000920E-02 0. -1.
        2   -1    0    0  501    0  0.00000000000E+00  0.00000000000E+00 -0.26887548212E+04  0.26887548212E+04  0.25500000920E-02 0.  1.
    10030    2    1    2    0    0  0.00000000000E+00  0.00000000000E+00 -0.15512033506E+04  0.38263062917E+04  0.34977690037E+04 0.  0.
        4    1    3    3  502    0 -0.15564344921E+04  0.18222424776E+03 -0.16250006789E+04  0.22575036709E+04  0.12699999809E+01 0. -1.
       -4    1    3    3    0  502  0.15564344921E+04 -0.18222424776E+03  0.73797328295E+02  0.15688026208E+04  0.12699999809E+01 0.  1.
</event>
<event>
 5   0  0.3700096E-08  0.3477294E+04  0.7818609E-02  0.8119192E-01
       -2   -1    0    0    0  501  0.00000000000E+00  0.00000000000E+00  0.11925955032E+04  0.11925955032E+04  0.25500000920E-02 0.  1.
        2   -1    0    0  501    0  0.00000000000E+00  0.00000000000E+00 -0.25347184942E+04  0.25347184942E+04  0.25500000920E-02 0. -1.
    10030    2    1    2    0    0  0.00000000000E+00  0.00000000000E+00 -0.13421229910E+04  0.37273139974E+04  0.34772942804E+04 0.  0.
        4    1    3    3  502    0 -0.68320341459E+02 -0.34194401891E+03  0.11547282752E+04  0.12062306510E+04  0.12699999809E+01 0.  1.
       -4    1    3    3    0  502  0.68320341459E+02  0.34194401891E+03 -0.24968512662E+04  0.25210833464E+04  0.12699999809E+01 0. -1.
</event>
<event>
 5   0  0.1129219E-08  0.3500288E+04  0.7818609E-02  0.8113722E-01
        1   -1    0    0  501    0  0.00000000000E+00  0.00000000000E+00  0.13200986527E+04  0.13200986527E+04  0.50400001928E-02 0.  1.
       -1   -1    0    0    0  501  0.00000000000E+00  0.00000000000E+00 -0.23202838442E+04  0.23202838442E+04  0.50400001928E-02 0. -1.
    10030    2    1    2    0    0  0.00000000000E+00  0.00000000000E+00 -0.10001851914E+04  0.36403824969E+04  0.35002877463E+04 0.  0.
        5    1    3    3  502    0  0.56879499520E+03  0.56269800073E+03 -0.21189338607E+04  0.22649634838E+04  0.46999998093E+01 0. -1.
       -5    1    3    3    0  502 -0.56879499520E+03 -0.56269800073E+03  0.11187486693E+04  0.13754190131E+04  0.46999998093E+01 0.  1.
</event>
<event>
 5   0  0.1140808E-08  0.3497182E+04  0.7818609E-02  0.8114458E-01
        1   -1    0    0  501    0  0.00000000000E+00  0.00000000000E+00  0.21213500430E+04  0.21213500430E+04  0.50400001928E-02 0.  1.
       -1   -1    0    0    0  501  0.00000000000E+00  0.00000000000E+00 -0.14413325650E+04  0.14413325650E+04  0.50400001928E-02 0. -1.
    10030    2    1    2    0    0  0.00000000000E+00  0.00000000000E+00  0.68001747799E+03  0.35626826080E+04  0.34971822365E+04 0.  0.
        3    1    3    3  502    0 -0.86248911465E+03  0.11684492301E+04  0.13321120276E+04  0.19707063557E+04  0.10100000352E+00 0.  1.
       -3    1    3    3    0  502  0.86248911465E+03 -0.11684492301E+04 -0.65209454960E+03  0.15919762523E+04  0.10100000352E+00 0. -1.
</event>
<event>
 5   0  0.3700096E-08  0.3494962E+04  0.7818609E-02  0.8114985E-01
       -2   -1    0    0    0  501  0.00000000000E+00  0.00000000000E+00  0.15743929666E+04  0.15743929666E+04  0.25500000920E-02 0.  1.
        2   -1    0    0  501    0  0.00000000000E+00  0.00000000000E+00 -0.19395977841E+04  0.19395977841E+04  0.25500000920E-02 0. -1.
    10030    2    1    2    0    0  0.00000000000E+00  0.00000000000E+00 -0.36520481746E+03  0.35139907507E+04  0.34949615788E+04 0.  0.
        4    1    3    3  502    0  0.10498838420E+04  0.10166641795E+04 -0.11458506731E+04  0.18571046049E+04  0.12699999809E+01 0. -1.
       -4    1    3    3    0  502 -0.10498838420E+04 -0.10166641795E+04  0.78064585566E+03  0.16568861459E+04  0.12699999809E+01 0.  1.
</event>
<event>
 5   0  0.3554451E-08  0.3498159E+04  0.7818609E-02  0.8114226E-01
        2   -1    0    0  501    0  0.00000000000E+00  0.00000000000E+00  0.20015127447E+04  0.20015127447E+04  0.25500000920E-02 0.  1.
       -2   -1    0    0    0  501  0.00000000000E+00  0.00000000000E+00 -0.15284833229E+04  0.15284833229E+04  0.25500000920E-02 0. -1.
    10030    2    1    2    0    0  0.00000000000E+00  0.00000000000E+00  0.47302942183E+03  0.35299960676E+04  0.34981588591E+04 0.  0.
        5    1    3    3  502    0  0.76793512695E+03 -0.49973883286E+03 -0.12669421852E+04  0.15635305725E+04  0.46999998093E+01 0. -1.
       -5    1    3    3    0  502 -0.76793512695E+03  0.49973883286E+03  0.17399716071E+04  0.19664654952E+04  0.46999998093E+01 0.  1.
</event>
<event>
 5   0  0.1129219E-08  0.3500560E+04  0.7818609E-02  0.8113657E-01
        1   -1    0    0  501    0  0.00000000000E+00  0.00000000000E+00  0.20033912780E+04  0.20033912780E+04  0.50400001928E-02 0.  1.
       -1   -1    0    0    0  501  0.00000000000E+00  0.00000000000E+00 -0.15291469147E+04  0.15291469148E+04  0.50400001928E-02 0. -1.
    10030    2    1    2    0    0  0.00000000000E+00  0.00000000000E+00  0.47424436326E+03  0.35325381928E+04  0.35005597220E+04 0.  0.
        5    1    3    3  502    0  0.70214329710E+03  0.32324245751E+03 -0.13475629025E+04  0.15535246255E+04  0.46999998093E+01 0. -1.
       -5    1    3    3    0  502 -0.70214329710E+03 -0.32324245751E+03  0.18218072657E+04  0.19790135673E+04  0.46999998093E+01 0.  1.
</event>
<event>
 5   0  0.1140808E-08  0.3497935E+04  0.7818609E-02  0.8114279E-01
       -1   -1    0    0    0  501  0.00000000000E+00  0.00000000000E+00  0.10613913783E+04  0.10613913783E+04  0.50400001928E-02 0.  1.
        1   -1    0    0  501    0  0.00000000000E+00  0.00000000000E+00 -0.28819598518E+04  0.28819598518E+04  0.50400001928E-02 0. -1.
    10030    2    1    2    0    0  0.00000000000E+00  0.00000000000E+00 -0.18205684735E+04  0.39433512301E+04  0.34979350133E+04 0.  0.
        3    1    3    3  502    0 -0.19463624968E+03  0.16355091782E+04 -0.24705574614E+03  0.16654759361E+04  0.10100000352E+00 0.  1.
       -3    1    3    3    0  502  0.19463624968E+03 -0.16355091782E+04 -0.15735127274E+04  0.22778752940E+04  0.10100000352E+00 0. -1.
</event>
<event>
 5   0  0.3553585E-08  0.3498839E+04  0.7818609E-02  0.8114065E-01
        2   -1    0    0  501    0  0.00000000000E+00  0.00000000000E+00  0.18961877644E+04  0.18961877644E+04  0.25500000920E-02 0. -1.
       -2   -1    0    0    0  501  0.00000000000E+00  0.00000000000E+00 -0.16140110219E+04  0.16140110219E+04  0.25500000920E-02 0.  1.
    10030    2    1    2    0    0  0.00000000000E+00  0.00000000000E+00  0.28217674249E+03  0.35101987863E+04  0.34988386367E+04 0.  0.
        2    1    3    3  502    0  0.57212484299E+03  0.83016849700E+03  0.15754020530E+04  0.18704005448E+04  0.25500000920E-02 0. -1.
       -2    1    3    3    0  502 -0.57212484299E+03 -0.83016849700E+03 -0.12932253105E+04  0.16397982416E+04  0.25500000920E-02 0.  1.
</event>
<event>
 5   0  0.3554451E-08  0.3500512E+04  0.7818609E-02  0.8113669E-01
        2   -1    0    0  501    0  0.00000000000E+00  0.00000000000E+00  0.21754070583E+04  0.21754070583E+04  0.25500000920E-02 0.  1.
       -2   -1    0    0    0  501  0.00000000000E+00  0.00000000000E+00 -0.14081947527E+04  0.14081947528E+04  0.25500000920E-02 0. -1.
    10030    2    1    2    0    0  0.00000000000E+00  0.00000000000E+00  0.76721230554E+03  0.35836018110E+04  0.35005124223E+04 0.  0.
        5    1    3    3  502    0  0.35986758242E+03  0.18485751762E+03 -0.13596631750E+04  0.14185848646E+04  0.46999998093E+01 0. -1.
       -5    1    3    3    0  502 -0.35986758242E+03 -0.18485751762E+03  0.21268754805E+04  0.21650169464E+04  0.46999998093E+01 0.  1.
</event>
<event>
 5   0  0.3628017E-08  0.3519259E+04  0.7818609E-02  0.8109241E-01
        2   -1    0    0  501    0  0.00000000000E+00  0.00000000000E+00  0.15371638054E+04  0.15371638054E+04  0.25500000920E-02 0.  1.
       -2   -1    0    0    0  501  0.00000000000E+00  0.00000000000E+00 -0.20142913885E+04  0.20142913885E+04  0.25500000920E-02 0. -1.
    10030    2    1    2    0    0  0.00000000000E+00  0.00000000000E+00 -0.47712758313E+03  0.35514551939E+04  0.35192589083E+04 0.  0.
        1    1    3    3  502    0  0.11308495433E+04  0.31147185507E+03 -0.15622268940E+04  0.19535578503E+04  0.50400001928E-02 0. -1.
       -1    1    3    3    0  502 -0.11308495433E+04 -0.31147185507E+03  0.10850993109E+04  0.15978973436E+04  0.50400001928E-02 0.  1.
</event>
<event>
 5   0  0.3700096E-08  0.3502041E+04  0.7818609E-02  0.8113306E-01
        2   -1    0    0  501    0  0.00000000000E+00  0.00000000000E+00  0.17830429485E+04  0.17830429485E+04  0.25500000920E-02 0.  1.
       -2   -1    0    0    0  501  0.00000000000E+00  0.00000000000E+00 -0.17195731396E+04  0.17195731396E+04  0.25500000920E-02 0. -1.
    10030    2    1    2    0    0  0.00000000000E+00  0.00000000000E+00  0.63469808889E+02  0.35026160880E+04  0.35020409826E+04 0.  0.
        4    1    3    3  502    0  0.12270260139E+04  0.10816272363E+04 -0.59331638723E+03  0.17399816854E+04  0.12699999809E+01 0. -1.
       -4    1    3    3    0  502 -0.12270260139E+04 -0.10816272363E+04  0.65678619612E+03  0.17626344027E+04  0.12699999809E+01 0.  1.
</event>
<event>
 5   0  0.3554451E-08  0.3503375E+04  0.7818609E-02  0.8112991E-01
        2   -1    0    0  501    0  0.00000000000E+00  0.00000000000E+00  0.29103352745E+04  0.29103352745E+04  0.25500000920E-02 0.  1.
       -2   -1    0    0    0  501  0.00000000000E+00  0.00000000000E+00 -0.10543146243E+04  0.10543146243E+04  0.25500000920E-02 0. -1.
    10030    2    1    2    0    0  0.00000000000E+00  0.00000000000E+00  0.18560206501E+04  0.39646498988E+04  0.35033749680E+04 0.  0.
        5    1    3    3  502    0 -0.88779691185E+03  0.61560527847E+03 -0.63238979864E+03  0.12518355175E+04  0.46999998093E+01 0. -1.
       -5    1    3    3    0  502  0.88779691185E+03 -0.61560527847E+03  0.24884104488E+04  0.27128143813E+04  0.46999998093E+01 0.  1.
</event>
<event>
 5   0  0.3467834E-08  0.3500479E+04  0.7818609E-02  0.8113676E-01
        2   -1    0    0  501    0  0.00000000000E+00  0.00000000000E+00  0.17674988860E+04  0.17674988860E+04  0.25500000920E-02 0. -1.
       -2   -1    0    0    0  501  0.00000000000E+00  0.00000000000E+00 -0.17331486835E+04  0.17331486835E+04  0.25500000920E-02 0.  1.
    10030    2    1    2    0    0  0.00000000000E+00  0.00000000000E+00  0.34350202499E+02  0.35006475695E+04  0.35004790343E+04 0.  0.
        3    1    3    3  502    0 -0.69850424754E+03  0.60520651173E+03 -0.14692191876E+04  0.17357384991E+04  0.10100000352E+00 0.  1.
       -3    1    3    3    0  502  0.69850424754E+03 -0.60520651173E+03  0.15035693901E+04  0.17649090704E+04  0.10100000352E+00 0. -1.
</event>
<event>
 5   0  0.1121462E-08  0.3501040E+04  0.7818609E-02  0.8113543E-01
        1   -1    0    0  501    0  0.00000000000E+00  0.00000000000E+00  0.19690573104E+04  0.19690573104E+04  0.50400001928E-02 0. -1.
       -1   -1    0    0    0  501  0.00000000000E+00  0.00000000000E+00 -0.15562374380E+04  0.15562374380E+04  0.50400001928E-02 0.  1.
    10030    2    1    2    0    0  0.00000000000E+00  0.00000000000E+00  0.41281987233E+03  0.35252947484E+04  0.35010402477E+04 0.  0.
        4    1    3    3  502    0 -0.86900248763E+03 -0.11809878975E+04  0.11692884820E+04  0.18754025980E+04  0.12699999809E+01 0. -1.
       -4    1    3    3    0  502  0.86900248763E+03  0.11809878975E+04 -0.75646860972E+03  0.16498921504E+04  0.12699999809E+01 0.  1.
</event>
<event>
 5   0  0.3554451E-08  0.3502727E+04  0.7818609E-02  0.8113144E-01
       -2   -1    0    0    0  501  0.00000000000E+00  0.00000000000E+00  0.15878635358E+04  0.15878635358E+04  0.25500000920E-02 0. -1.
        2   -1    0    0  501    0  0.00000000000E+00  0.00000000000E+00 -0.19316984575E+04  0.19316984575E+04  0.25500000920E-02 0.  1.
    10030    2    1    2    0    0  0.00000000000E+00  0.00000000000E+00 -0.34383492177E+03  0.35195619933E+04  0.35027266767E+04 0.  0.
        5    1    3    3  502    0 -0.39004644324E+03  0.17019012287E+04 -0.30912939787E+03  0.17731855782E+04  0.46999998093E+01 0. -1.
       -5    1    3    3    0  502  0.39004644324E+03 -0.17019012287E+04 -0.34705523898E+02  0.17463764152E+04  0.46999998093E+01 0.  1.
</event>
<event>
 5   0  0.1129219E-08  0.3502488E+04  0.7818609E-02  0.8113201E-01
        1   -1    0    0  501    0  0.00000000000E+00  0.00000000000E+00  0.15598464627E+04  0.15598464627E+04  0.50400001928E-02 0.  1.
       -1   -1    0    0    0  501  0.00000000000E+00  0.00000000000E+00 -0.19661264469E+04  0.19661264469E+04  0.50400001928E-02 0. -1.
    10030    2    1    2    0    0  0.00000000000E+00  0.00000000000E+00 -0.40627998415E+03  0.35259729096E+04  0.35024879063E+04 0.  0.
        5    1    3    3  502    0 -0.91214925676E+03 -0.47426407448E+03  0.12240721701E+04  0.15985360323E+04  0.46999998093E+01 0.  1.
       -5    1    3    3    0  502  0.91214925676E+03  0.47426407448E+03 -0.16303521543E+04  0.19274368773E+04  0.46999998093E+01 0. -1.
</event>
<event>
 5   0  0.1129219E-08  0.3500473E+04  0.7818609E-02  0.8113678E-01
        1   -1    0    0  501    0  0.00000000000E+00  0.00000000000E+00  0.10830334714E+04  0.10830334714E+04  0.50400001928E-02 0. -1.
       -1   -1    0    0    0  501  0.00000000000E+00  0.00000000000E+00 -0.28284705493E+04  0.28284705493E+04  0.50400001928E-02 0.  1.
    10030    2    1    2    0    0  0.00000000000E+00  0.00000000000E+00 -0.17454370778E+04  0.39115040207E+04  0.35004732696E+04 0.  0.
        5    1    3    3  502    0  0.50082076668E+03 -0.72565293062E+02  0.99949406521E+03  0.11203114025E+04  0.46999998093E+01 0. -1.
       -5    1    3    3    0  502 -0.50082076668E+03  0.72565293062E+02 -0.27449311430E+04  0.27911926182E+04  0.46999998093E+01 0.  1.
</event>
<event>
 5   0  0.1129219E-08  0.3500714E+04  0.7818609E-02  0.8113621E-01
       -1   -1    0    0    0  501  0.00000000000E+00  0.00000000000E+00  0.12870596551E+04  0.12870596551E+04  0.50400001928E-02 0. -1.
        1   -1    0    0  501    0  0.00000000000E+00  0.00000000000E+00 -0.23804258579E+04  0.23804258579E+04  0.50400001928E-02 0.  1.
    10030    2    1    2    0    0  0.00000000000E+00  0.00000000000E+00 -0.10933662029E+04  0.36674855131E+04  0.35007142607E+04 0.  0.
        5    1    3    3  502    0  0.13060260409E+03 -0.57928655229E+03 -0.22716642573E+04  0.23480013922E+04  0.46999998093E+01 0.  1.
       -5    1    3    3    0  502 -0.13060260409E+03  0.57928655229E+03  0.11782980545E+04  0.13194841208E+04  0.46999998093E+01 0. -1.
</event>
<event>
 5   0  0.1121462E-08  0.3516006E+04  0.7818609E-02  0.8110007E-01
        1   -1    0    0  501    0  0.00000000000E+00  0.00000000000E+00  0.28350275455E+04  0.28350275455E+04  0.50400001928E-02 0.  1.
       -1   -1    0    0    0  501  0.00000000000E+00  0.00000000000E+00 -0.10901394500E+04  0.10901394500E+04  0.50400001928E-02 0. -1.
    10030    2    1    2    0    0  0.00000000000E+00  0.00000000000E+00  0.17448880955E+04  0.39251669955E+04  0.35160064671E+04 0.  0.
        1    1    3    3  502    0 -0.87732134940E+03  0.11084543631E+04  0.20391511845E+04  0.24812298117E+04  0.50400001928E-02 0.  1.
       -1    1    3    3    0  502  0.87732134940E+03 -0.11084543631E+04 -0.29426308905E+03  0.14439371838E+04  0.50400001928E-02 0. -1.
</event>
<event>
 5   0  0.3467834E-08  0.3499242E+04  0.7818609E-02  0.8113970E-01
        2   -1    0    0  501    0  0.00000000000E+00  0.00000000000E+00  0.19194129813E+04  0.19194129813E+04  0.25500000920E-02 0.  1.
       -2   -1    0    0    0  501  0.00000000000E+00  0.00000000000E+00 -0.15948484933E+04  0.15948484933E+04  0.25500000920E-02 0. -1.
    10030    2    1    2    0    0  0.00000000000E+00  0.00000000000E+00  0.32456448795E+03  0.35142614746E+04  0.34992415757E+04 0.  0.
        3    1    3    3  502    0 -0.16270562702E+04 -0.62893207693E+03  0.29815979382E+03  0.17696798967E+04  0.10100000352E+00 0.  1.
       -3    1    3    3    0  502  0.16270562702E+04  0.62893207693E+03  0.26404694129E+02  0.17445815779E+04  0.10100000352E+00 0. -1.
</event>
<event>
 5   0  0.1121462E-08  0.3500181E+04  0.7818609E-02  0.8113747E-01
        1   -1    0    0  501    0  0.00000000000E+00  0.00000000000E+00  0.18817396040E+04  0.18817396040E+04  0.50400001928E-02 0.  1.
       -1   -1    0    0    0  501  0.00000000000E+00  0.00000000000E+00 -0.16276520651E+04  0.16276520651E+04  0.50400001928E-02 0. -1.
    10030    2    1    2    0    0  0.00000000000E+00  0.00000000000E+00  0.25408753894E+03  0.35093916691E+04  0.35001813396E+04 0.  0.
        2    1    3    3  502    0 -0.64332290797E+03 -0.14756946525E+04 -0.56125977911E+03  0.17048611706E+04  0.25500000920E-02 0. -1.
       -2    1    3    3    0  502  0.64332290797E+03  0.14756946525E+04  0.81534731805E+03  0.18045304986E+04  0.25500000920E-02 0.  1.
</event>
<event>
 5   0  0.1121462E-08  0.3496806E+04  0.7818609E-02  0.8114547E-01
       -1   -1    0    0    0  501  0.00000000000E+00  0.00000000000E+00  0.14795210061E+04  0.14795210061E+04  0.50400001928E-02 0. -1.
        1   -1    0    0  501    0  0.00000000000E+00  0.00000000000E+00 -0.20661504762E+04  0.20661504762E+04  0.50400001928E-02 0.  1.
    10030    2    1    2    0    0  0.00000000000E+00  0.00000000000E+00 -0.58662947008E+03  0.35456714823E+04  0.34968059890E+04 0.  0.
        4    1    3    3  502    0  0.10763944752E+04  0.10252313714E+04  0.63997522799E+03  0.16184234107E+04  0.12699999809E+01 0. -1.
       -4    1    3    3    0  502 -0.10763944752E+04 -0.10252313714E+04 -0.12266046981E+04  0.19272480715E+04  0.12699999809E+01 0.  1.
</event>
<event>
 5   0  0.3553585E-08  0.3501583E+04  0.7818609E-02  0.8113415E-01
        2   -1    0    0  501    0  0.00000000000E+00  0.00000000000E+00  0.18420518233E+04  0.18420518233E+04  0.25500000920E-02 0.  1.
       -2   -1    0    0    0  501  0.00000000000E+00  0.00000000000E+00 -0.16640521111E+04  0.16640521112E+04  0.25500000920E-02 0. -1.
    10030    2    1    2    0    0  0.00000000000E+00  0.00000000000E+00  0.17799971215E+03  0.35061039345E+04  0.35015826281E+04 0.  0.
        2    1    3    3  502    0  0.76634710130E+03 -0.10967510677E+04  0.12196697820E+04  0.18104544074E+04  0.25500000920E-02 0.  1.
       -2    1    3    3    0  502 -0.76634710130E+03  0.10967510677E+04 -0.10416700699E+04  0.16956495270E+04  0.25500000920E-02 0. -1.
</event>
<event>
 5   0  0.3553585E-08  0.3500453E+04  0.7818609E-02  0.8113683E-01
       -2   -1    0    0    0  501  0.00000000000E+00  0.00000000000E+00  0.13288201930E+04  0.13288201930E+04  0.25500000920E-02 0.  1.
        2   -1    0    0  501    0  0.00000000000E+00  0.00000000000E+00 -0.23052722005E+04  0.23052722005E+04  0.25500000920E-02 0. -1.
    10030    2    1    2    0    0  0.00000000000E+00  0.00000000000E+00 -0.97645200754E+03  0.36340923935E+04  0.35004526852E+04 0.  0.
        2    1    3    3  502    0 -0.32465847016E+03  0.14714201945E+04  0.43616729612E+03  0.15686689967E+04  0.25500000920E-02 0.  1.
       -2    1    3    3    0  502  0.32465847016E+03 -0.14714201945E+04 -0.14126193037E+04  0.20654233968E+04  0.25500000920E-02 0. -1.
</event>
<event>
 5   0  0.1121462E-08  0.3499568E+04  0.7818609E-02  0.8113892E-01
        1   -1    0    0  501    0  0.00000000000E+00  0.00000000000E+00  0.23666559079E+04  0.23666559079E+04  0.50400001928E-02 0. -1.
       -1   -1    0    0    0  501  0.00000000000E+00  0.00000000000E+00 -0.12937008118E+04  0.12937008118E+04  0.50400001928E-02 0.  1.
    10030    2    1    2    0    0  0.00000000000E+00  0.00000000000E+00  0.10729550961E+04  0.36603567198E+04  0.34995683559E+04 0.  0.
        1    1    3    3  502    0  0.45203543683E+03  0.13309070467E+03  0.22990412301E+04  0.23468361147E+04  0.50400001928E-02 0. -1.
       -1    1    3    3    0  502 -0.45203543683E+03 -0.13309070467E+03 -0.12260861340E+04  0.13135206050E+04  0.50400001928E-02 0.  1.
</event>
<event>
 5   0  0.3554451E-08  0.3501087E+04  0.7818609E-02  0.8113532E-01
       -2   -1    0    0    0  501  0.00000000000E+00  0.00000000000E+00  0.10185025294E+04  0.10185025294E+04  0.25500000920E-02 0. -1.
        2   -1    0    0  501    0  0.00000000000E+00  0.00000000000E+00 -0.30087327320E+04  0.30087327320E+04  0.25500000920E-02 0.  1.
    10030    2    1    2    0    0  0.00000000000E+00  0.00000000000E+00 -0.19902302027E+04  0.40272352614E+04  0.35010866300E+04 0.  0.
        5    1    3    3  502    0  0.12907799322E+03 -0.16634833946E+04 -0.38585486188E+03  0.17125256777E+04  0.46999998093E+01 0. -1.
       -5    1    3    3    0  502 -0.12907799322E+03  0.16634833946E+04 -0.16043753408E+04  0.23147095836E+04  0.46999998093E+01 0.  1.
</event>
<event>
 5   0  0.1140808E-08  0.3500005E+04  0.7818609E-02  0.8113789E-01
       -1   -1    0    0    0  501  0.00000000000E+00  0.00000000000E+00  0.16690930032E+04  0.16690930033E+04  0.50400001928E-02 0.  1.
        1   -1    0    0  501    0  0.00000000000E+00  0.00000000000E+00 -0.18348345431E+04  0.18348345431E+04  0.50400001928E-02 0. -1.
    10030    2    1    2    0    0  0.00000000000E+00  0.00000000000E+00 -0.16574153986E+03  0.35039275464E+04  0.35000054274E+04 0.  0.
        3    1    3    3  502    0  0.89629663078E+03  0.14993445012E+04  0.22736322986E+02  0.17469683839E+04  0.10100000352E+00 0.  1.
       -3    1    3    3    0  502 -0.89629663078E+03 -0.14993445012E+04 -0.18847786284E+03  0.17569591625E+04  0.10100000352E+00 0. -1.
</event>
<event>
 5   0  0.3700096E-08  0.3501000E+04  0.7818609E-02  0.8113553E-01
        2   -1    0    0  501    0  0.00000000000E+00  0.00000000000E+00  0.18194339513E+04  0.18194339513E+04  0.25500000920E-02 0.  1.
       -2   -1    0    0    0  501  0.00000000000E+00  0.00000000000E+00 -0.16841777190E+04  0.16841777190E+04  0.25500000920E-02 0. -1.
    10030    2    1    2    0    0  0.00000000000E+00  0.00000000000E+00  0.13525623227E+03  0.35036116702E+04  0.35009999268E+04 0.  0.
        4    1    3    3  502    0  0.10545043073E+04 -0.87720952416E+03 -0.10207367027E+04  0.17097897276E+04  0.12699999809E+01 0. -1.
       -4    1    3    3    0  502 -0.10545043073E+04  0.87720952416E+03  0.11559929350E+04  0.17938219427E+04  0.12699999809E+01 0.  1.
</event>
<event>
 5   0  0.1121462E-08  0.3500111E+04  0.7818609E-02  0.8113764E-01
        1   -1    0    0  501    0  0.00000000000E+00  0.00000000000E+00  0.96935721628E+03  0.96935721629E+03  0.50400001928E-02 0.  1.
       -1   -1    0    0    0  501  0.00000000000E+00  0.00000000000E+00 -0.31595098689E+04  0.31595098689E+04  0.50400001928E-02 0. -1.
    10030    2    1    2    0    0  0.00000000000E+00  0.00000000000E+00 -0.21901526526E+04  0.41288670852E+04  0.35001106790E+04 0.  0.
        2    1    3    3  502    0 -0.15676237520E+04 -0.62351718021E+03 -0.54622617156E+03  0.17732966284E+04  0.25500000920E-02 0. -1.
       -2    1    3    3    0  502  0.15676237520E+04  0.62351718021E+03 -0.16439264811E+04  0.23555704568E+04  0.25500000920E-02 0.  1.
</event>
<event>
 5   0  0.1140808E-08  0.3500794E+04  0.7818609E-02  0.8113602E-01
        1   -1    0    0  501    0  0.00000000000E+00  0.00000000000E+00  0.25289435841E+04  0.25289435841E+04  0.50400001928E-02 0. -1.
       -1   -1    0    0    0  501  0.00000000000E+00  0.00000000000E+00 -0.12115297889E+04  0.12115297890E+04  0.50400001928E-02 0.  1.
    10030    2    1    2    0    0  0.00000000000E+00  0.00000000000E+00  0.13174137951E+04  0.37404733730E+04  0.35007944736E+04 0.  0.
        3    1    3    3  502    0 -0.93126571831E+03  0.25574343450E+03 -0.90111533611E+03  0.13208593421E+04  0.10100000352E+00 0.  1.
       -3    1    3    3    0  502  0.93126571831E+03 -0.25574343450E+03  0.22185291312E+04  0.24196140309E+04  0.10100000352E+00 0. -1.
</event>
<event>
 5   0  0.1121462E-08  0.3499237E+04  0.7818609E-02  0.8113971E-01
       -1   -1    0    0    0  501  0.00000000000E+00  0.00000000000E+00  0.13121595499E+04  0.13121595499E+04  0.50400001928E-02 0. -1.
        1   -1    0    0  501    0  0.00000000000E+00  0.00000000000E+00 -0.23329218098E+04  0.23329218098E+04  0.50400001928E-02 0.  1.
    10030    2    1    2    0    0  0.00000000000E+00  0.00000000000E+00 -0.10207622599E+04  0.36450813597E+04  0.34992374209E+04 0.  0.
        1    1    3    3  502    0 -0.23663701426E+03 -0.17330771961E+04 -0.46855817717E+03  0.18108286527E+04  0.50400001928E-02 0. -1.
       -1    1    3    3    0  502  0.23663701426E+03  0.17330771961E+04 -0.55220408271E+03  0.18342527070E+04  0.50400001928E-02 0.  1.
</event>
<event>
 5   0  0.1140808E-08  0.3493865E+04  0.7818609E-02  0.8115245E-01
       -1   -1    0    0    0  501  0.00000000000E+00  0.00000000000E+00  0.13109433958E+04  0.13109433958E+04  0.50400001928E-02 0. -1.
        1   -1    0    0  501    0  0.00000000000E+00  0.00000000000E+00 -0.23279209324E+04  0.23279209324E+04  0.50400001928E-02 0.  1.
    10030    2    1    2    0    0  0.00000000000E+00  0.00000000000E+00 -0.10169775366E+04  0.36388643282E+04  0.34938646639E+04 0.  0.
        3    1    3    3  502    0 -0.36425089997E+03  0.15139976254E+04  0.31614414358E+03  0.15889665376E+04  0.10100000352E+00 0. -1.
       -3    1    3    3    0  502  0.36425089997E+03 -0.15139976254E+04 -0.13331216801E+04  0.20498977906E+04  0.10100000352E+00 0.  1.
</event>
<event>
 5   0  0.3700096E-08  0.3500915E+04  0.7818609E-02  0.8113573E-01
        2   -1    0    0  501    0  0.00000000000E+00  0.00000000000E+00  0.24686162540E+04  0.24686162540E+04  0.25500000920E-02 0.  1.
       -2   -1    0    0    0  501  0.00000000000E+00  0.00000000000E+00 -0.12412221274E+04  0.12412221274E+04  0.25500000920E-02 0. -1.
    10030    2    1    2    0    0  0.00000000000E+00  0.00000000000E+00  0.12273941266E+04  0.37098383814E+04  0.35009148054E+04 0.  0.
        4    1    3    3  502    0  0.78020626257E+03 -0.13568835127E+04  0.14442057922E+04  0.21296916824E+04  0.12699999809E+01 0.  1.
       -4    1    3    3    0  502 -0.78020626257E+03  0.13568835127E+04 -0.21681166554E+03  0.15801466990E+04  0.12699999809E+01 0. -1.
</event>
<event>
 5   0  0.3628017E-08  0.3499965E+04  0.7818609E-02  0.8113798E-01
        2   -1    0    0  501    0  0.00000000000E+00  0.00000000000E+00  0.22985471975E+04  0.22985471975E+04  0.25500000920E-02 0.  1.
       -2   -1    0    0    0  501  0.00000000000E+00  0.00000000000E+00 -0.13323365810E+04  0.13323365810E+04  0.25500000920E-02 0. -1.
    10030    2    1    2    0    0  0.00000000000E+00  0.00000000000E+00  0.96621061654E+03  0.36308837785E+04  0.34999648652E+04 0.  0.
        1    1    3    3  502    0 -0.13108595724E+04 -0.10204444639E+04  0.10539413539E+04  0.19673464616E+04  0.50400001928E-02 0.  1.
       -1    1    3    3    0  502  0.13108595724E+04  0.10204444639E+04 -0.87730737401E+02  0.16635373169E+04  0.50400001928E-02 0. -1.
</event>
<event>
 5   0  0.1121462E-08  0.3499336E+04  0.7818609E-02  0.8113947E-01
       -1   -1    0    0    0  501  0.00000000000E+00  0.00000000000E+00  0.18223207098E+04  0.18223207098E+04  0.50400001928E-02 0. -1.
        1   -1    0    0  501    0  0.00000000000E+00  0.00000000000E+00 -0.16799116748E+04  0.16799116748E+04  0.50400001928E-02 0.  1.
    10030    2    1    2    0    0  0.00000000000E+00  0.00000000000E+00  0.14240903502E+03  0.35022323846E+04  0.34993358430E+04 0.  0.
        2    1    3    3  502    0  0.24392531857E+02 -0.17478308855E+04 -0.52133540657E+01  0.17480088613E+04  0.25500000920E-02 0. -1.
       -2    1    3    3    0  502 -0.24392531857E+02  0.17478308855E+04  0.14762238908E+03  0.17542235233E+04  0.25500000920E-02 0.  1.
</event>
<event>
 5   0  0.1121462E-08  0.3500565E+04  0.7818609E-02  0.8113656E-01
       -1   -1    0    0    0  501  0.00000000000E+00  0.00000000000E+00  0.23244740040E+04  0.23244740040E+04  0.50400001928E-02 0.  1.
        1   -1    0    0  501    0  0.00000000000E+00  0.00000000000E+00 -0.13179274160E+04  0.13179274160E+04  0.50400001928E-02 0. -1.
    10030    2    1    2    0    0  0.00000000000E+00  0.00000000000E+00  0.10065465880E+04  0.36424014199E+04  0.35005645359E+04 0.  0.
        2    1    3    3  502    0  0.61581182249E+03 -0.56728937960E+03 -0.10960295742E+04  0.13792469933E+04  0.25500000920E-02 0. -1.
       -2    1    3    3    0  502 -0.61581182249E+03  0.56728937960E+03  0.21025761622E+04  0.22631544267E+04  0.25500000920E-02 0.  1.
</event>
<event>
 5   0  0.1121462E-08  0.3499767E+04  0.7818609E-02  0.8113845E-01
       -3   -1    0    0    0  501  0.00000000000E+00  0.00000000000E+00  0.27774913541E+04  0.27774913559E+04  0.10100000352E+00 0. -1.
        3   -1    0    0  501    0  0.00000000000E+00  0.00000000000E+00 -0.11024665961E+04  0.11024666008E+04  0.10100000352E+00 0.  1.
    10030    2    1    2    0    0  0.00000000000E+00  0.00000000000E+00  0.16750247580E+04  0.38799579567E+04  0.34997665359E+04 0.  0.
        3    1    3    3  502    0 -0.79645262249E+03 -0.96918407721E+03 -0.51503708746E+03  0.13560670216E+04  0.10100000352E+00 0.  1.
       -3    1    3    3    0  502  0.79645262249E+03  0.96918407721E+03  0.21900618454E+04  0.25238909351E+04  0.10100000352E+00 0. -1.
</event>
<event>
 5   0  0.3700096E-08  0.3499904E+04  0.7818609E-02  0.8113813E-01
       -2   -1    0    0    0  501  0.00000000000E+00  0.00000000000E+00  0.15775031780E+04  0.15775031780E+04  0.25500000920E-02 0. -1.
        2   -1    0    0  501    0  0.00000000000E+00  0.00000000000E+00 -0.19412522710E+04  0.19412522710E+04  0.25500000920E-02 0.  1.
    10030    2    1    2    0    0  0.00000000000E+00  0.00000000000E+00 -0.36374909301E+03  0.35187554490E+04  0.34999037854E+04 0.  0.
        4    1    3    3  502    0 -0.96135170342E+03  0.14472123842E+03  0.12810191239E+04  0.16081520274E+04  0.12699999809E+01 0. -1.
       -4    1    3    3    0  502  0.96135170342E+03 -0.14472123842E+03 -0.16447682169E+04  0.19106034216E+04  0.12699999809E+01 0.  1.
</event>
<event>
 5   0  0.1140808E-08  0.3500359E+04  0.7818609E-02  0.8113705E-01
       -1   -1    0    0    0  501  0.00000000000E+00  0.00000000000E+00  0.25673007326E+04  0.25673007326E+04  0.50400001928E-02 0. -1.
        1   -1    0    0  501    0  0.00000000000E+00  0.00000000000E+00 -0.11931316499E+04  0.11931316499E+04  0.50400001928E-02 0.  1.
    10030    2    1    2    0    0  0.00000000000E+00  0.00000000000E+00  0.13741690827E+04  0.37604323826E+04  0.35003587011E+04 0.  0.
        3    1    3    3  502    0 -0.85099788266E+03 -0.14563994944E+04  0.11884852473E+04  0.20634422882E+04  0.10100000352E+00 0.  1.
       -3    1    3    3    0  502  0.85099788266E+03  0.14563994944E+04  0.18568383544E+03  0.16969900944E+04  0.10100000352E+00 0. -1.
</event>
<event>
 5   0  0.3700096E-08  0.3499049E+04  0.7818609E-02  0.8114015E-01
        2   -1    0    0  501    0  0.00000000000E+00  0.00000000000E+00  0.18926723882E+04  0.18926723882E+04  0.25500000920E-02 0. -1.
       -2   -1    0    0    0  501  0.00000000000E+00  0.00000000000E+00 -0.16172034747E+04  0.16172034747E+04  0.25500000920E-02 0.  1.
    10030    2    1    2    0    0  0.00000000000E+00  0.00000000000E+00  0.27546891351E+03  0.35098758629E+04  0.34990492210E+04 0.  0.
        4    1    3    3  502    0  0.13755969045E+04 -0.76625331614E+03 -0.62713636384E+03  0.16949078500E+04  0.12699999809E+01 0.  1.
       -4    1    3    3    0  502 -0.13755969045E+04  0.76625331614E+03  0.90260527734E+03  0.18149680129E+04  0.12699999809E+01 0. -1.
</event>
<event>
 5   0  0.1140808E-08  0.3489689E+04  0.7818609E-02  0.8116238E-01
        1   -1    0    0  501    0  0.00000000000E+00  0.00000000000E+00  0.18804474450E+04  0.18804474450E+04  0.50400001928E-02 0.  1.
       -1   -1    0    0    0  501  0.00000000000E+00  0.00000000000E+00 -0.16190200504E+04  0.16190200504E+04  0.50400001928E-02 0. -1.
    10030    2    1    2    0    0  0.00000000000E+00  0.00000000000E+00  0.26142739457E+03  0.34994674954E+04  0.34896888785E+04 0.  0.
        3    1    3    3  502    0 -0.14021212623E+04  0.83150873173E+03  0.75465595296E+03  0.17963452960E+04  0.10100000352E+00 0.  1.
       -3    1    3    3    0  502  0.14021212623E+04 -0.83150873173E+03 -0.49322855839E+03  0.17031221994E+04  0.10100000352E+00 0. -1.
</event>
<event>
 5   0  0.1140808E-08  0.3499819E+04  0.7818609E-02  0.8113833E-01
       -1   -1    0    0    0  501  0.00000000000E+00  0.00000000000E+00  0.21003764468E+04  0.21003764468E+04  0.50400001928E-02 0.  1.
        1   -1    0    0  501    0  0.00000000000E+00  0.00000000000E+00 -0.14579214243E+04  0.14579214243E+04  0.50400001928E-02 0. -1.
    10030    2    1    2    0    0  0.00000000000E+00  0.00000000000E+00  0.64245502243E+03  0.35582978711E+04  0.34998193216E+04 0.  0.
        3    1    3    3  502    0 -0.57016379902E+03 -0.38268106914E+03  0.19576718452E+04  0.20746109568E+04  0.10100000352E+00 0.  1.
       -3    1    3    3    0  502  0.57016379902E+03  0.38268106914E+03 -0.13152168228E+04  0.14836869143E+04  0.10100000352E+00 0. -1.
</event>
<event>
 5   0  0.3628017E-08  0.3499340E+04  0.7818609E-02  0.8113946E-01
       -2   -1    0    0    0  501  0.00000000000E+00  0.00000000000E+00  0.14633675914E+04  0.14633675914E+04  0.25500000920E-02 0.  1.
        2   -1    0    0  501    0  0.00000000000E+00  0.00000000000E+00 -0.20919862636E+04  0.20919862636E+04  0.25500000920E-02 0. -1.
    10030    2    1    2    0    0  0.00000000000E+00  0.00000000000E+00 -0.62861867219E+03  0.35553538551E+04  0.34993398806E+04 0.  0.
        1    1    3    3  502    0 -0.99039979888E+03  0.14120506573E+04 -0.61324007762E+03  0.18305305825E+04  0.50400001928E-02 0. -1.
       -1    1    3    3    0  502  0.99039979888E+03 -0.14120506573E+04 -0.15378594571E+02  0.17248232726E+04  0.50400001928E-02 0.  1.
</event>
<event>
 5   0  0.3628017E-08  0.3500911E+04  0.7818609E-02  0.8113574E-01
       -2   -1    0    0    0  501  0.00000000000E+00  0.00000000000E+00  0.19845304794E+04  0.19845304794E+04  0.25500000920E-02 0.  1.
        2   -1    0    0  501    0  0.00000000000E+00  0.00000000000E+00 -0.15439894464E+04  0.15439894464E+04  0.25500000920E-02 0. -1.
    10030    2    1    2    0    0  0.00000000000E+00  0.00000000000E+00  0.44054103296E+03  0.35285199258E+04  0.35009108050E+04 0.  0.
        1    1    3    3  502    0 -0.66229918899E+03 -0.97617857457E+03 -0.10831915425E+04  0.16015207595E+04  0.50400001928E-02 0. -1.
       -1    1    3    3    0  502  0.66229918899E+03  0.97617857457E+03  0.15237325755E+04  0.19269991663E+04  0.50400001928E-02 0.  1.
</event>
<event>
 5   0  0.3553585E-08  0.3500588E+04  0.7818609E-02  0.8113651E-01
        2   -1    0    0  501    0  0.00000000000E+00  0.00000000000E+00  0.22384691227E+04  0.22384691227E+04  0.25500000920E-02 0. -1.
       -2   -1    0    0    0  501  0.00000000000E+00  0.00000000000E+00 -0.13685819531E+04  0.13685819531E+04  0.25500000920E-02 0.  1.
    10030    2    1    2    0    0  0.00000000000E+00  0.00000000000E+00  0.86988716960E+03  0.36070510757E+04  0.35005876328E+04 0.  0.
        2    1    3    3  502    0 -0.30275815326E+03 -0.62253551571E+03  0.20914155953E+04  0.22030052565E+04  0.25500000920E-02 0. -1.
       -2    1    3    3    0  502  0.30275815326E+03  0.62253551571E+03 -0.12215284257E+04  0.14040458193E+04  0.25500000920E-02 0.  1.
</event>
<event>
 5   0  0.3700096E-08  0.3497307E+04  0.7818609E-02  0.8114428E-01
       -2   -1    0    0    0  501  0.00000000000E+00  0.00000000000E+00  0.17575326369E+04  0.17575326369E+04  0.25500000920E-02 0.  1.
        2   -1    0    0  501    0  0.00000000000E+00  0.00000000000E+00 -0.17398195702E+04  0.17398195702E+04  0.25500000920E-02 0. -1.
    10030    2    1    2    0    0  0.00000000000E+00  0.00000000000E+00  0.17713066650E+02  0.34973522071E+04  0.34973073510E+04 0.  0.
        4    1    3    3  502    0  0.53374094401E+03  0.13524862433E+04 -0.96259281569E+03  0.17437559965E+04  0.12699999809E+01 0. -1.
       -4    1    3    3    0  502 -0.53374094401E+03 -0.13524862433E+04  0.98030588234E+03  0.17535962105E+04  0.12699999809E+01 0.  1.
</event>
<event>
 5   0  0.1121462E-08  0.3493208E+04  0.7818609E-02  0.8115401E-01
       -1   -1    0    0    0  501  0.00000000000E+00  0.00000000000E+00  0.20820424596E+04  0.20820424596E+04  0.50400001928E-02 0. -1.
        1   -1    0    0  501    0  0.00000000000E+00  0.00000000000E+00 -0.14652079807E+04  0.14652079807E+04  0.50400001928E-02 0.  1.
    10030    2    1    2    0    0  0.00000000000E+00  0.00000000000E+00  0.61683447886E+03  0.35472504403E+04  0.34932078255E+04 0.  0.
        1    1    3    3  502    0 -0.61507370022E+02  0.70737307485E+03  0.19288697838E+04  0.20554071292E+04  0.50400001928E-02 0. -1.
       -1    1    3    3    0  502  0.61507370022E+02 -0.70737307485E+03 -0.13120353050E+04  0.14918433112E+04  0.50400001928E-02 0.  1.
</event>
<event>
 5   0  0.1140808E-08  0.3503208E+04  0.7818609E-02  0.8113030E-01
       -1   -1    0    0    0  501  0.00000000000E+00  0.00000000000E+00  0.13248656403E+04  0.13248656403E+04  0.50400001928E-02 0. -1.
        1   -1    0    0  501    0  0.00000000000E+00  0.00000000000E+00 -0.23157940859E+04  0.23157940859E+04  0.50400001928E-02 0.  1.
    10030    2    1    2    0    0  0.00000000000E+00  0.00000000000E+00 -0.99092844560E+03  0.36406597262E+04  0.35032076812E+04 0.  0.
        3    1    3    3  502    0  0.77601343219E+03  0.79417161033E+03  0.91238829181E+03  0.14371352751E+04  0.10100000352E+00 0. -1.
       -3    1    3    3    0  502 -0.77601343219E+03 -0.79417161033E+03 -0.19033167374E+04  0.22035244511E+04  0.10100000352E+00 0.  1.
</event>
<event>
 5   0  0.3553585E-08  0.3500002E+04  0.7818609E-02  0.8113789E-01
        2   -1    0    0  501    0  0.00000000000E+00  0.00000000000E+00  0.18584408578E+04  0.18584408578E+04  0.25500000920E-02 0. -1.
       -2   -1    0    0    0  501  0.00000000000E+00  0.00000000000E+00 -0.16478888609E+04  0.16478888609E+04  0.25500000920E-02 0.  1.
    10030    2    1    2    0    0  0.00000000000E+00  0.00000000000E+00  0.21055199684E+03  0.35063297187E+04  0.35000022790E+04 0.  0.
        2    1    3    3  502    0 -0.58104503138E+03 -0.15194076042E+04 -0.54109674788E+03  0.17143507479E+04  0.25500000920E-02 0. -1.
       -2    1    3    3    0  502  0.58104503138E+03  0.15194076042E+04  0.75164874472E+03  0.17919789708E+04  0.25500000920E-02 0.  1.
</event>
<event>
 5   0  0.1121462E-08  0.3501423E+04  0.7818609E-02  0.8113453E-01
        1   -1    0    0  501    0  0.00000000000E+00  0.00000000000E+00  0.18706221468E+04  0.18706221469E+04  0.50400001928E-02 0.  1.
       -1   -1    0    0    0  501  0.00000000000E+00  0.00000000000E+00 -0.16384876642E+04  0.16384876642E+04  0.50400001928E-02 0. -1.
    10030    2    1    2    0    0  0.00000000000E+00  0.00000000000E+00  0.23213448261E+03  0.35091098111E+04  0.35014233175E+04 0.  0.
        2    1    3    3  502    0 -0.15598269390E+04 -0.79290304784E+03  0.59056606342E+02  0.17507835405E+04  0.25500000920E-02 0.  1.
       -2    1    3    3    0  502  0.15598269390E+04  0.79290304784E+03  0.17307787627E+03  0.17583262706E+04  0.25500000920E-02 0. -1.
</event>
<event>
 5   0  0.1121462E-08  0.3500556E+04  0.7818609E-02  0.8113658E-01
       -1   -1    0    0    0  501  0.00000000000E+00  0.00000000000E+00  0.14139107227E+04  0.14139107227E+04  0.50400001928E-02 0.  1.
        1   -1    0    0  501    0  0.00000000000E+00  0.00000000000E+00 -0.21666665310E+04  0.21666665310E+04  0.50400001928E-02 0. -1.
    10030    2    1    2    0    0  0.00000000000E+00  0.00000000000E+00 -0.75275580832E+03  0.35805772537E+04  0.35005559791E+04 0.  0.
        4    1    3    3  502    0  0.14693053659E+04  0.39539603836E+03  0.50842528738E+03  0.16042737208E+04  0.12699999809E+01 0. -1.
       -4    1    3    3    0  502 -0.14693053659E+04 -0.39539603836E+03 -0.12611810957E+04  0.19763035330E+04  0.12699999809E+01 0.  1.
</event>
<event>
 5   0  0.1121462E-08  0.3499536E+04  0.7818609E-02  0.8113900E-01
        1   -1    0    0  501    0  0.00000000000E+00  0.00000000000E+00  0.12368886776E+04  0.12368886776E+04  0.50400001928E-02 0. -1.
       -1   -1    0    0    0  501  0.00000000000E+00  0.00000000000E+00 -0.24753146141E+04  0.24753146141E+04  0.50400001928E-02 0.  1.
    10030    2    1    2    0    0  0.00000000000E+00  0.00000000000E+00 -0.12384259365E+04  0.37122032918E+04  0.34995363235E+04 0.  0.
        4    1    3    3  502    0 -0.54080961141E+03 -0.96733675534E+03  0.81713060747E+03  0.13769239182E+04  0.12699999809E+01 0. -1.
       -4    1    3    3    0  502  0.54080961141E+03  0.96733675534E+03 -0.20555565440E+04  0.23352793735E+04  0.12699999809E+01 0.  1.
</event>
<event>
 5   0  0.3553585E-08  0.3509681E+04  0.7818609E-02  0.8111500E-01
        2   -1    0    0  501    0  0.00000000000E+00  0.00000000000E+00  0.17753518500E+04  0.17753518500E+04  0.25500000920E-02 0. -1.
       -2   -1    0    0    0  501  0.00000000000E+00  0.00000000000E+00 -0.17345656558E+04  0.17345656558E+04  0.25500000920E-02 0.  1.
    10030    2    1    2    0    0  0.00000000000E+00  0.00000000000E+00  0.40786194195E+02  0.35099175058E+04  0.35096805245E+04 0.  0.
        2    1    3    3  502    0  0.47597787612E+03  0.16842135371E+04 -0.10742073151E+03  0.17534735215E+04  0.25500000920E-02 0.  1.
       -2    1    3    3    0  502 -0.47597787612E+03 -0.16842135371E+04  0.14820692570E+03  0.17564439843E+04  0.25500000920E-02 0. -1.
</event>
<event>
 5   0  0.1121462E-08  0.3500643E+04  0.7818609E-02  0.8113638E-01
       -1   -1    0    0    0  501  0.00000000000E+00  0.00000000000E+00  0.87625920033E+03  0.87625920034E+03  0.50400001928E-02 0.  1.
        1   -1    0    0  501    0  0.00000000000E+00  0.00000000000E+00 -0.34962546286E+04  0.34962546286E+04  0.50400001928E-02 0. -1.
    10030    2    1    2    0    0  0.00000000000E+00  0.00000000000E+00 -0.26199954283E+04  0.43725138289E+04  0.35006429610E+04 0.  0.
        1    1    3    3  502    0 -0.66858971125E+03 -0.47225748965E+03 -0.32424460265E+04  0.33441733767E+04  0.50400001928E-02 0. -1.
       -1    1    3    3    0  502  0.66858971125E+03  0.47225748965E+03  0.62245059823E+03  0.10283404523E+04  0.50400001928E-02 0.  1.
</event>
<event>
 5   0  0.3553585E-08  0.3514803E+04  0.7818609E-02  0.8110291E-01
       -2   -1    0    0    0  501  0.00000000000E+00  0.00000000000E+00  0.20103926316E+04  0.20103926316E+04  0.25500000920E-02 0.  1.
        2   -1    0    0  501    0  0.00000000000E+00  0.00000000000E+00 -0.15362470353E+04  0.15362470353E+04  0.25500000920E-02 0. -1.
    10030    2    1    2    0    0  0.00000000000E+00  0.00000000000E+00  0.47414559635E+03  0.35466396669E+04  0.35148028224E+04 0.  0.
        2    1    3    3  502    0  0.84773994630E+03 -0.13082618845E+04  0.10557462829E+04  0.18827672158E+04  0.25500000920E-02 0. -1.
       -2    1    3    3    0  502 -0.84773994630E+03  0.13082618845E+04 -0.58160068656E+03  0.16638724511E+04  0.25500000920E-02 0.  1.
</event>
<event>
 5   0  0.3553585E-08  0.3500021E+04  0.7818609E-02  0.8113785E-01
       -2   -1    0    0    0  501  0.00000000000E+00  0.00000000000E+00  0.13725984090E+04  0.13725984090E+04  0.25500000920E-02 0. -1.
        2   -1    0    0  501    0  0.00000000000E+00  0.00000000000E+00 -0.22311969158E+04  0.22311969158E+04  0.25500000920E-02 0.  1.
    10030    2    1    2    0    0  0.00000000000E+00  0.00000000000E+00 -0.85859850685E+03  0.36037953248E+04  0.35000213352E+04 0.  0.
        2    1    3    3  502    0  0.89303680188E+03  0.10281148048E+04 -0.15609785019E+04  0.20715184442E+04  0.25500000920E-02 0.  1.
       -2    1    3    3    0  502 -0.89303680188E+03 -0.10281148048E+04  0.70237999504E+03  0.15322768806E+04  0.25500000920E-02 0. -1.
</event>
<event>
 5   0  0.3553585E-08  0.3501059E+04  0.7818609E-02  0.8113539E-01
       -2   -1    0    0    0  501  0.00000000000E+00  0.00000000000E+00  0.22180750647E+04  0.22180750647E+04  0.25500000920E-02 0.  1.
        2   -1    0    0  501    0  0.00000000000E+00  0.00000000000E+00 -0.13815373854E+04  0.13815373854E+04  0.25500000920E-02 0. -1.
    10030    2    1    2    0    0  0.00000000000E+00  0.00000000000E+00  0.83653767936E+03  0.35996124501E+04  0.35010590543E+04 0.  0.
        2    1    3    3  502    0 -0.88604584786E+03  0.90905244068E+03 -0.82102467487E+03  0.15117986312E+04  0.25500000920E-02 0. -1.
       -2    1    3    3    0  502  0.88604584786E+03 -0.90905244068E+03  0.16575623542E+04  0.20878138189E+04  0.25500000920E-02 0.  1.
</event>
<event>
 5   0  0.3628017E-08  0.3499324E+04  0.7818609E-02  0.8113950E-01
        2   -1    0    0  501    0  0.00000000000E+00  0.00000000000E+00  0.26468916317E+04  0.26468916317E+04  0.25500000920E-02 0.  1.
       -2   -1    0    0    0  501  0.00000000000E+00  0.00000000000E+00 -0.11565707324E+04  0.11565707324E+04  0.25500000920E-02 0. -1.
    10030    2    1    2    0    0  0.00000000000E+00  0.00000000000E+00  0.14903208993E+04  0.38034623640E+04  0.34993241593E+04 0.  0.
        1    1    3    3  502    0  0.13843274966E+04  0.95958237103E+03  0.12597613792E+04  0.21033686499E+04  0.50400001928E-02 0.  1.
       -1    1    3    3    0  502 -0.13843274966E+04 -0.95958237103E+03  0.23055952010E+03  0.17000937142E+04  0.50400001928E-02 0. -1.
</event>
<event>
 5   0  0.1121462E-08  0.3501233E+04  0.7818609E-02  0.8113498E-01
       -1   -1    0    0    0  501  0.00000000000E+00  0.00000000000E+00  0.11681251015E+04  0.11681251015E+04  0.50400001928E-02 0.  1.
        1   -1    0    0  501    0  0.00000000000E+00  0.00000000000E+00 -0.26235707095E+04  0.26235707095E+04  0.50400001928E-02 0. -1.
    10030    2    1    2    0    0  0.00000000000E+00  0.00000000000E+00 -0.14554456080E+04  0.37916958111E+04  0.35012333835E+04 0.  0.
        2    1    3    3  502    0 -0.16033017767E+04 -0.69931776706E+03 -0.65086410847E+03  0.18663456310E+04  0.25500000920E-02 0.  1.
       -2    1    3    3    0  502  0.16033017767E+04  0.69931776706E+03 -0.80458149958E+03  0.19253501801E+04  0.25500000920E-02 0. -1.
</event>
<event>
 5   0  0.3700096E-08  0.3499868E+04  0.7818609E-02  0.8113821E-01
       -2   -1    0    0    0  501  0.00000000000E+00  0.00000000000E+00  0.19839201529E+04  0.19839201529E+04  0.25500000920E-02 0. -1.
        2   -1    0    0  501    0  0.00000000000E+00  0.00000000000E+00 -0.15435442009E+04  0.15435442009E+04  0.25500000920E-02 0.  1.
    10030    2    1    2    0    0  0.00000000000E+00  0.00000000000E+00  0.44037595200E+03  0.35274643538E+04  0.34998676816E+04 0.  0.
        4    1    3    3  502    0  0.77874756926E+03 -0.12100537706E+04  0.12238253910E+04  0.18890283494E+04  0.12699999809E+01 0. -1.
       -4    1    3    3    0  502 -0.77874756926E+03  0.12100537706E+04 -0.78344943898E+03  0.16384360044E+04  0.12699999809E+01 0.  1.
</event>
<event>
 5   0  0.3554451E-08  0.3494982E+04  0.7818609E-02  0.8114980E-01
       -2   -1    0    0    0  501  0.00000000000E+00  0.00000000000E+00  0.20154379896E+04  0.20154379896E+04  0.25500000920E-02 0. -1.
        2   -1    0    0  501    0  0.00000000000E+00  0.00000000000E+00 -0.15151670632E+04  0.15151670632E+04  0.25500000920E-02 0.  1.
    10030    2    1    2    0    0  0.00000000000E+00  0.00000000000E+00  0.50027092641E+03  0.35306050528E+04  0.34949822659E+04 0.  0.
        5    1    3    3  502    0  0.30327003349E+03  0.10848562049E+04  0.15997230227E+04  0.19565330403E+04  0.46999998093E+01 0. -1.
       -5    1    3    3    0  502 -0.30327003349E+03 -0.10848562049E+04 -0.10994520963E+04  0.15740720125E+04  0.46999998093E+01 0.  1.
</event>
<event>
 5   0  0.1129219E-08  0.3502272E+04  0.7818609E-02  0.8113252E-01
       -1   -1    0    0    0  501  0.00000000000E+00  0.00000000000E+00  0.14290438197E+04  0.14290438197E+04  0.50400001928E-02 0.  1.
        1   -1    0    0  501    0  0.00000000000E+00  0.00000000000E+00 -0.21458250837E+04  0.21458250837E+04  0.50400001928E-02 0. -1.
    10030    2    1    2    0    0  0.00000000000E+00  0.00000000000E+00 -0.71678126394E+03  0.35748689034E+04  0.35022724474E+04 0.  0.
        5    1    3    3  502    0  0.18365572174E+03 -0.17411638143E+04 -0.39185949763E+03  0.17941451470E+04  0.46999998093E+01 0.  1.
       -5    1    3    3    0  502 -0.18365572174E+03  0.17411638143E+04 -0.32492176632E+03  0.17807237564E+04  0.46999998093E+01 0. -1.
</event>
<event>
 5   0  0.3554451E-08  0.3499957E+04  0.7818609E-02  0.8113800E-01
        2   -1    0    0  501    0  0.00000000000E+00  0.00000000000E+00  0.23135467908E+04  0.23135467908E+04  0.25500000920E-02 0. -1.
       -2   -1    0    0    0  501  0.00000000000E+00  0.00000000000E+00 -0.13236928388E+04  0.13236928388E+04  0.25500000920E-02 0.  1.
    10030    2    1    2    0    0  0.00000000000E+00  0.00000000000E+00  0.98985395202E+03  0.36372396296E+04  0.34999573250E+04 0.  0.
        5    1    3    3  502    0 -0.27529360615E+03  0.91035568121E+03 -0.10316605969E+04  0.14031677423E+04  0.46999998093E+01 0.  1.
       -5    1    3    3    0  502  0.27529360615E+03 -0.91035568121E+03  0.20215145489E+04  0.22340718873E+04  0.46999998093E+01 0. -1.
</event>
<event>
 5   0  0.1129219E-08  0.3499831E+04  0.7818609E-02  0.8113830E-01
        1   -1    0    0  501    0  0.00000000000E+00  0.00000000000E+00  0.27824073853E+04  0.27824073853E+04  0.50400001928E-02 0.  1.
       -1   -1    0    0    0  501  0.00000000000E+00  0.00000000000E+00 -0.11005595260E+04  0.11005595260E+04  0.50400001928E-02 0. -1.
    10030    2    1    2    0    0  0.00000000000E+00  0.00000000000E+00  0.16818478593E+04  0.38829669113E+04  0.34998313977E+04 0.  0.
        5    1    3    3  502    0 -0.15772059767E+04 -0.80719612200E+02  0.16771516714E+04  0.23036827402E+04  0.46999998093E+01 0.  1.
       -5    1    3    3    0  502  0.15772059767E+04  0.80719612200E+02  0.46961879380E+01  0.15792841711E+04  0.46999998093E+01 0. -1.
</event>
<event>
 5   0  0.3554451E-08  0.3498089E+04  0.7818609E-02  0.8114243E-01
       -2   -1    0    0    0  501  0.00000000000E+00  0.00000000000E+00  0.19742602081E+04  0.19742602081E+04  0.25500000920E-02 0.  1.
        2   -1    0    0  501    0  0.00000000000E+00  0.00000000000E+00 -0.15495206789E+04  0.15495206789E+04  0.25500000920E-02 0. -1.
    10030    2    1    2    0    0  0.00000000000E+00  0.00000000000E+00  0.42473952919E+03  0.35237808869E+04  0.34980892029E+04 0.  0.
        5    1    3    3  502    0  0.47539202662E+03  0.47056753329E+03 -0.14155760853E+04  0.15656657133E+04  0.46999998093E+01 0. -1.
       -5    1    3    3    0  502 -0.47539202662E+03 -0.47056753329E+03  0.18403156145E+04  0.19581151737E+04  0.46999998093E+01 0.  1.
</event>
<event>
 5   0  0.3553585E-08  0.3500417E+04  0.7818609E-02  0.8113691E-01
       -2   -1    0    0    0  501  0.00000000000E+00  0.00000000000E+00  0.22917774943E+04  0.22917774943E+04  0.25500000920E-02 0. -1.
        2   -1    0    0  501    0  0.00000000000E+00  0.00000000000E+00 -0.13366178136E+04  0.13366178136E+04  0.25500000920E-02 0.  1.
    10030    2    1    2    0    0  0.00000000000E+00  0.00000000000E+00  0.95515968062E+03  0.36283953079E+04  0.35004174744E+04 0.  0.
        2    1    3    3  502    0 -0.12647594278E+04  0.41978653407E+03  0.16536965114E+04  0.21238053809E+04  0.25500000920E-02 0. -1.
       -2    1    3    3    0  502  0.12647594278E+04 -0.41978653407E+03 -0.69853683075E+03  0.15045899270E+04  0.25500000920E-02 0.  1.
</event>
<event>
 5   0  0.1121462E-08  0.3500876E+04  0.7818609E-02  0.8113582E-01
        1   -1    0    0  501    0  0.00000000000E+00  0.00000000000E+00  0.17118628249E+04  0.17118628249E+04  0.50400001928E-02 0.  1.
       -1   -1    0    0    0  501  0.00000000000E+00  0.00000000000E+00 -0.17898828850E+04  0.17898828850E+04  0.50400001928E-02 0. -1.
    10030    2    1    2    0    0  0.00000000000E+00  0.00000000000E+00 -0.78020060127E+02  0.35017457099E+04  0.35008764456E+04 0.  0.
        1    1    3    3  502    0 -0.12404086033E+04  0.75166038215E+03  0.94124715250E+03  0.17290323986E+04  0.50400001928E-02 0.  1.
       -1    1    3    3    0  502  0.12404086033E+04 -0.75166038215E+03 -0.10192672126E+04  0.17727133113E+04  0.50400001928E-02 0. -1.
</event>
<event>
 5   0  0.1140808E-08  0.3497619E+04  0.7818609E-02  0.8114355E-01
        1   -1    0    0  501    0  0.00000000000E+00  0.00000000000E+00  0.23343963402E+04  0.23343963402E+04  0.50400001928E-02 0.  1.
       -1   -1    0    0    0  501  0.00000000000E+00  0.00000000000E+00 -0.13101177292E+04  0.13101177293E+04  0.50400001928E-02 0. -1.
    10030    2    1    2    0    0  0.00000000000E+00  0.00000000000E+00  0.10242786109E+04  0.36445140694E+04  0.34976186369E+04 0.  0.
        3    1    3    3  502    0  0.11230072462E+04 -0.28450802740E+03 -0.85293623123E+03  0.14386070754E+04  0.10100000352E+00 0. -1.
       -3    1    3    3    0  502 -0.11230072462E+04  0.28450802740E+03  0.18772148421E+04  0.22059069940E+04  0.10100000352E+00 0.  1.
</event>
<event>
 5   0  0.3700096E-08  0.3499725E+04  0.7818609E-02  0.8113855E-01
       -2   -1    0    0    0  501  0.00000000000E+00  0.00000000000E+00  0.17362556191E+04  0.17362556191E+04  0.25500000920E-02 0. -1.
        2   -1    0    0  501    0  0.00000000000E+00  0.00000000000E+00 -0.17635760953E+04  0.17635760953E+04  0.25500000920E-02 0.  1.
    10030    2    1    2    0    0  0.00000000000E+00  0.00000000000E+00 -0.27320476204E+02  0.34998317145E+04  0.34997250779E+04 0.  0.
        4    1    3    3  502    0  0.25315036159E+03  0.16125374131E+04  0.61695811847E+03  0.17449931080E+04  0.12699999809E+01 0. -1.
       -4    1    3    3    0  502 -0.25315036159E+03 -0.16125374131E+04 -0.64427859468E+03  0.17548386064E+04  0.12699999809E+01 0.  1.
</event>
<event>
 5   0  0.3700096E-08  0.3491613E+04  0.7818609E-02  0.8115780E-01
        2   -1    0    0  501    0  0.00000000000E+00  0.00000000000E+00  0.25785979846E+04  0.25785979846E+04  0.25500000920E-02 0.  1.
       -2   -1    0    0    0  501  0.00000000000E+00  0.00000000000E+00 -0.11819756278E+04  0.11819756278E+04  0.25500000920E-02 0. -1.
    10030    2    1    2    0    0  0.00000000000E+00  0.00000000000E+00  0.13966223568E+04  0.37605736124E+04  0.34916127916E+04 0.  0.
        4    1    3    3  502    0  0.12193157623E+04  0.40445119396E+03  0.19715447158E+04  0.23531472278E+04  0.12699999809E+01 0.  1.
       -4    1    3    3    0  502 -0.12193157623E+04 -0.40445119396E+03 -0.57492235899E+03  0.14074263846E+04  0.12699999809E+01 0. -1.
</event>
<event>
 5   0  0.3628017E-08  0.3499130E+04  0.7818609E-02  0.8113996E-01
        2   -1    0    0  501    0  0.00000000000E+00  0.00000000000E+00  0.18291926398E+04  0.18291926398E+04  0.25500000920E-02 0. -1.
       -2   -1    0    0    0  501  0.00000000000E+00  0.00000000000E+00 -0.16734034565E+04  0.16734034565E+04  0.25500000920E-02 0.  1.
    10030    2    1    2    0    0  0.00000000000E+00  0.00000000000E+00  0.15578918330E+03  0.35025960963E+04  0.34991297696E+04 0.  0.
        1    1    3    3  502    0 -0.26683672635E+03  0.46445345574E+03  0.17450950183E+04  0.18254521287E+04  0.50400001928E-02 0. -1.
       -1    1    3    3    0  502  0.26683672635E+03 -0.46445345574E+03 -0.15893058350E+04  0.16771439677E+04  0.50400001928E-02 0.  1.
</event>
<event>
 5   0  0.1121462E-08  0.3498878E+04  0.7818609E-02  0.8114056E-01
        1   -1    0    0  501    0  0.00000000000E+00  0.00000000000E+00  0.16924053549E+04  0.16924053549E+04  0.50400001928E-02 0.  1.
       -1   -1    0    0    0  501  0.00000000000E+00  0.00000000000E+00 -0.18083943431E+04  0.18083943431E+04  0.50400001928E-02 0. -1.
    10030    2    1    2    0    0  0.00000000000E+00  0.00000000000E+00 -0.11598898811E+03  0.35007996980E+04  0.34988776887E+04 0.  0.
        2    1    3    3  502    0  0.97202312975E+03 -0.81573028225E+03 -0.12629364854E+04  0.17903221566E+04  0.25500000920E-02 0. -1.
       -2    1    3    3    0  502 -0.97202312975E+03  0.81573028225E+03  0.11469474973E+04  0.17104775414E+04  0.25500000920E-02 0.  1.
</event>
<event>
 5   0  0.1140808E-08  0.3496867E+04  0.7818609E-02  0.8114533E-01
       -1   -1    0    0    0  501  0.00000000000E+00  0.00000000000E+00  0.29147547087E+04  0.29147547087E+04  0.50400001928E-02 0. -1.
        1   -1    0    0  501    0  0.00000000000E+00  0.00000000000E+00 -0.10488084500E+04  0.10488084500E+04  0.50400001928E-02 0.  1.
    10030    2    1    2    0    0  0.00000000000E+00  0.00000000000E+00  0.18659462587E+04  0.39635631587E+04  0.34968668079E+04 0.  0.
        3    1    3    3  502    0  0.33200878649E+03  0.17016149114E+04  0.11896870154E+04  0.21026360469E+04  0.10100000352E+00 0. -1.
       -3    1    3    3    0  502 -0.33200878649E+03 -0.17016149114E+04  0.67625924336E+03  0.18609271118E+04  0.10100000352E+00 0.  1.
</event>
<event>
 5   0  0.1121462E-08  0.3504086E+04  0.7818609E-02  0.8112822E-01
        1   -1    0    0  501    0  0.00000000000E+00  0.00000000000E+00  0.20419566222E+04  0.20419566222E+04  0.50400001928E-02 0. -1.
       -1   -1    0    0    0  501  0.00000000000E+00  0.00000000000E+00 -0.15032912513E+04  0.15032912513E+04  0.50400001928E-02 0.  1.
    10030    2    1    2    0    0  0.00000000000E+00  0.00000000000E+00  0.53866537090E+03  0.35452478735E+04  0.35040864862E+04 0.  0.
        1    1    3    3  502    0  0.10668012608E+04 -0.73942892797E+03 -0.92128101493E+03  0.15917219538E+04  0.50400001928E-02 0.  1.
       -1    1    3    3    0  502 -0.10668012608E+04  0.73942892797E+03  0.14599463858E+04  0.19535259198E+04  0.50400001928E-02 0. -1.
</event>
<event>
 5   0  0.3553585E-08  0.3500797E+04  0.7818609E-02  0.8113601E-01
       -2   -1    0    0    0  501  0.00000000000E+00  0.00000000000E+00  0.12817096123E+04  0.12817096123E+04  0.25500000920E-02 0. -1.
        2   -1    0    0  501    0  0.00000000000E+00  0.00000000000E+00 -0.23904755564E+04  0.23904755564E+04  0.25500000920E-02 0.  1.
    10030    2    1    2    0    0  0.00000000000E+00  0.00000000000E+00 -0.11087659442E+04  0.36721851687E+04  0.35007973369E+04 0.  0.
        2    1    3    3  502    0 -0.17485478718E+04 -0.56561175840E+02 -0.49433835360E+03  0.18179629354E+04  0.25500000920E-02 0. -1.
       -2    1    3    3    0  502  0.17485478718E+04  0.56561175840E+02 -0.61442759056E+03  0.18542222333E+04  0.25500000920E-02 0.  1.
</event>
<event>
 5   0  0.1129219E-08  0.3501419E+04  0.7818609E-02  0.8113454E-01
        1   -1    0    0  501    0  0.00000000000E+00  0.00000000000E+00  0.10738499785E+04  0.10738499785E+04  0.50400001928E-02 0. -1.
       -1   -1    0    0    0  501  0.00000000000E+00  0.00000000000E+00 -0.28542007881E+04  0.28542007881E+04  0.50400001928E-02 0.  1.
    10030    2    1    2    0    0  0.00000000000E+00  0.00000000000E+00 -0.17803508096E+04  0.39280507667E+04  0.35014188296E+04 0.  0.
        5    1    3    3  502    0  0.49262099580E+03 -0.92719144877E+03 -0.24618011724E+04  0.26763494784E+04  0.46999998093E+01 0.  1.
       -5    1    3    3    0  502 -0.49262099580E+03  0.92719144877E+03  0.68145036277E+03  0.12517012883E+04  0.46999998093E+01 0. -1.
</event>
<event>
 5   0  0.1140808E-08  0.3497793E+04  0.7818609E-02  0.8114313E-01
       -1   -1    0    0    0  501  0.00000000000E+00  0.00000000000E+00  0.14299712213E+04  0.14299712213E+04  0.50400001928E-02 0. -1.
        1   -1    0    0  501    0  0.00000000000E+00  0.00000000000E+00 -0.21389512645E+04  0.21389512645E+04  0.50400001928E-02 0.  1.
    10030    2    1    2    0    0  0.00000000000E+00  0.00000000000E+00 -0.70898004315E+03  0.35689224858E+04  0.34977928766E+04 0.  0.
        3    1    3    3  502    0 -0.17331011508E+04 -0.44371938241E+00 -0.59377763047E+03  0.18319966377E+04  0.10100000352E+00 0.  1.
       -3    1    3    3    0  502  0.17331011508E+04  0.44371938241E+00 -0.11520241268E+03  0.17369258481E+04  0.10100000352E+00 0. -1.
</event>
<event>
 5   0  0.1121462E-08  0.3499515E+04  0.7818609E-02  0.8113905E-01
       -1   -1    0    0    0  501  0.00000000000E+00  0.00000000000E+00  0.15158007087E+04  0.15158007087E+04  0.50400001928E-02 0. -1.
        1   -1    0    0  501    0  0.00000000000E+00  0.00000000000E+00 -0.20198242318E+04  0.20198242318E+04  0.50400001928E-02 0.  1.
    10030    2    1    2    0    0  0.00000000000E+00  0.00000000000E+00 -0.50402352311E+03  0.35356249405E+04  0.34995148247E+04 0.  0.
        2    1    3    3  502    0  0.15419638595E+04  0.69376914038E+03 -0.70686033739E+03  0.18326537318E+04  0.25500000920E-02 0.  1.
       -2    1    3    3    0  502 -0.15419638595E+04 -0.69376914038E+03  0.20283681428E+03  0.17029712086E+04  0.25500000920E-02 0. -1.
</event>
<event>
 5   0  0.3553585E-08  0.3499676E+04  0.7818609E-02  0.8113867E-01
        2   -1    0    0  501    0  0.00000000000E+00  0.00000000000E+00  0.14691663872E+04  0.14691663872E+04  0.25500000920E-02 0.  1.
       -2   -1    0    0    0  501  0.00000000000E+00  0.00000000000E+00 -0.20841300153E+04  0.20841300153E+04  0.25500000920E-02 0. -1.
    10030    2    1    2    0    0  0.00000000000E+00  0.00000000000E+00 -0.61496362812E+03  0.35532964025E+04  0.34996764222E+04 0.  0.
        2    1    3    3  502    0 -0.17485280581E+03  0.14693789857E+04 -0.12557537776E+04  0.19407641942E+04  0.25500000920E-02 0. -1.
       -2    1    3    3    0  502  0.17485280581E+03 -0.14693789857E+04  0.64079014952E+03  0.16125322084E+04  0.25500000920E-02 0.  1.
</event>
<event>
 5   0  0.3467834E-08  0.3499403E+04  0.7818609E-02  0.8113932E-01
        2   -1    0    0  501    0  0.00000000000E+00  0.00000000000E+00  0.22439306395E+04  0.22439306395E+04  0.25500000920E-02 0.  1.
       -2   -1    0    0    0  501  0.00000000000E+00  0.00000000000E+00 -0.13643267331E+04  0.13643267331E+04  0.25500000920E-02 0. -1.
    10030    2    1    2    0    0  0.00000000000E+00  0.00000000000E+00  0.87960390637E+03  0.36082573726E+04  0.34994025540E+04 0.  0.
        3    1    3    3  502    0 -0.60126678948E+03 -0.16430481800E+04  0.42119984751E+03  0.17995939530E+04  0.10100000352E+00 0. -1.
       -3    1    3    3    0  502  0.60126678948E+03  0.16430481800E+04  0.45840405886E+03  0.18086634196E+04  0.10100000352E+00 0.  1.
</event>
<event>
 5   0  0.1129219E-08  0.3503039E+04  0.7818609E-02  0.8113070E-01
       -1   -1    0    0    0  501  0.00000000000E+00  0.00000000000E+00  0.13095778023E+04  0.13095778023E+04  0.50400001928E-02 0.  1.
        1   -1    0    0  501    0  0.00000000000E+00  0.00000000000E+00 -0.23426032053E+04  0.23426032053E+04  0.50400001928E-02 0. -1.
    10030    2    1    2    0    0  0.00000000000E+00  0.00000000000E+00 -0.10330254030E+04  0.36521810076E+04  0.35030393417E+04 0.  0.
        5    1    3    3  502    0 -0.62007646002E+03 -0.26891596332E+03  0.11681375639E+04  0.13495844063E+04  0.46999998093E+01 0.  1.
       -5    1    3    3    0  502  0.62007646002E+03  0.26891596332E+03 -0.22011629669E+04  0.23025966013E+04  0.46999998093E+01 0. -1.
</event>
<event>
 5   0  0.1121462E-08  0.3499884E+04  0.7818609E-02  0.8113817E-01
        1   -1    0    0  501    0  0.00000000000E+00  0.00000000000E+00  0.12316624976E+04  0.12316624976E+04  0.50400001928E-02 0.  1.
       -1   -1    0    0    0  501  0.00000000000E+00  0.00000000000E+00 -0.24863121794E+04  0.24863121794E+04  0.50400001928E-02 0. -1.
    10030    2    1    2    0    0  0.00000000000E+00  0.00000000000E+00 -0.12546496818E+04  0.37179746770E+04  0.34998842659E+04 0.  0.
        1    1    3    3  502    0  0.18903187655E+03 -0.11271628165E+03  0.12169015920E+04  0.12366436411E+04  0.50400001928E-02 0.  1.
       -1    1    3    3    0  502 -0.18903187655E+03  0.11271628165E+03 -0.24715512738E+04  0.24813310359E+04  0.50400001928E-02 0. -1.
</event>
<event>
 5   0  0.1129219E-08  0.3500288E+04  0.7818609E-02  0.8113722E-01
        1   -1    0    0  501    0  0.00000000000E+00  0.00000000000E+00  0.84946070238E+03  0.84946070240E+03  0.50400001928E-02 0.  1.
       -1   -1    0    0    0  501  0.00000000000E+00  0.00000000000E+00 -0.36058211656E+04  0.36058211656E+04  0.50400001928E-02 0. -1.
    10030    2    1    2    0    0  0.00000000000E+00  0.00000000000E+00 -0.27563604632E+04  0.44552818680E+04  0.35002876339E+04 0.  0.
        5    1    3    3  502    0  0.95913423099E+03 -0.11348185027E+04 -0.20108158628E+03  0.14994023481E+04  0.46999998093E+01 0. -1.
       -5    1    3    3    0  502 -0.95913423099E+03  0.11348185027E+04 -0.25552788769E+04  0.29558795199E+04  0.46999998093E+01 0.  1.
</event>
<event>
 5   0  0.3554451E-08  0.3499087E+04  0.7818609E-02  0.8114006E-01
       -2   -1    0    0    0  501  0.00000000000E+00  0.00000000000E+00  0.12956912919E+04  0.12956912919E+04  0.25500000920E-02 0. -1.
        2   -1    0    0  501    0  0.00000000000E+00  0.00000000000E+00 -0.23623706026E+04  0.23623706026E+04  0.25500000920E-02 0.  1.
    10030    2    1    2    0    0  0.00000000000E+00  0.00000000000E+00 -0.10666793107E+04  0.36580618945E+04  0.34990873199E+04 0.  0.
        5    1    3    3  502    0 -0.54559900085E+03 -0.69015287899E+03 -0.21142930395E+04  0.22900319677E+04  0.46999998093E+01 0.  1.
       -5    1    3    3    0  502  0.54559900085E+03  0.69015287899E+03  0.10476137288E+04  0.13680299269E+04  0.46999998093E+01 0. -1.
</event>
<event>
 5   0  0.3553585E-08  0.3500502E+04  0.7818609E-02  0.8113671E-01
        2   -1    0    0  501    0  0.00000000000E+00  0.00000000000E+00  0.13258415672E+04  0.13258415672E+04  0.25500000920E-02 0. -1.
       -2   -1    0    0    0  501  0.00000000000E+00  0.00000000000E+00 -0.23105159020E+04  0.23105159020E+04  0.25500000920E-02 0.  1.
    10030    2    1    2    0    0  0.00000000000E+00  0.00000000000E+00 -0.98467433481E+03  0.36363574691E+04  0.35005016923E+04 0.  0.
        2    1    3    3  502    0  0.18637371064E+03  0.88348664125E+03 -0.20498926723E+04  0.22399428058E+04  0.25500000920E-02 0.  1.
       -2    1    3    3    0  502 -0.18637371064E+03 -0.88348664125E+03  0.10652183375E+04  0.13964146633E+04  0.25500000920E-02 0. -1.
</event>
<event>
 5   0  0.3553585E-08  0.3501782E+04  0.7818609E-02  0.8113368E-01
       -2   -1    0    0    0  501  0.00000000000E+00  0.00000000000E+00  0.25314989598E+04  0.25314989598E+04  0.25500000920E-02 0. -1.
        2   -1    0    0  501    0  0.00000000000E+00  0.00000000000E+00 -0.12109896140E+04  0.12109896140E+04  0.25500000920E-02 0.  1.
    10030    2    1    2    0    0  0.00000000000E+00  0.00000000000E+00  0.13205093458E+04  0.37424885738E+04  0.35017818026E+04 0.  0.
        2    1    3    3  502    0  0.65716216452E+03  0.47776013997E+03  0.23178338047E+04  0.24561087940E+04  0.25500000920E-02 0. -1.
       -2    1    3    3    0  502 -0.65716216452E+03 -0.47776013997E+03 -0.99732445884E+03  0.12863797799E+04  0.25500000920E-02 0.  1.
</event>
<event>
 5   0  0.3554451E-08  0.3500373E+04  0.7818609E-02  0.8113702E-01
       -2   -1    0    0    0  501  0.00000000000E+00  0.00000000000E+00  0.18820415393E+04  0.18820415393E+04  0.25500000920E-02 0. -1.
        2   -1    0    0  501    0  0.00000000000E+00  0.00000000000E+00 -0.16275692707E+04  0.16275692707E+04  0.25500000920E-02 0.  1.
    10030    2    1    2    0    0  0.00000000000E+00  0.00000000000E+00  0.25447226857E+03  0.35096108100E+04  0.35003731090E+04 0.  0.
        5    1    3    3  502    0 -0.63117938146E+03  0.13505331751E+04  0.10466094743E+04  0.18214666481E+04  0.46999998093E+01 0. -1.
       -5    1    3    3    0  502  0.63117938146E+03 -0.13505331751E+04 -0.79213720574E+03  0.16881441619E+04  0.46999998093E+01 0.  1.
</event>
<event>
 5   0  0.3628017E-08  0.3498216E+04  0.7818609E-02  0.8114213E-01
       -2   -1    0    0    0  501  0.00000000000E+00  0.00000000000E+00  0.11695541189E+04  0.11695541190E+04  0.25500000920E-02 0. -1.
        2   -1    0    0  501    0  0.00000000000E+00  0.00000000000E+00 -0.26158502379E+04  0.26158502379E+04  0.25500000920E-02 0.  1.
    10030    2    1    2    0    0  0.00000000000E+00  0.00000000000E+00 -0.14462961190E+04  0.37854043569E+04  0.34982157854E+04 0.  0.
        1    1    3    3  502    0 -0.40805349359E+03  0.63107663031E+02 -0.25623569143E+04  0.25954119494E+04  0.50400001928E-02 0.  1.
       -1    1    3    3    0  502  0.40805349359E+03 -0.63107663031E+02  0.11160607954E+04  0.11899924074E+04  0.50400001928E-02 0. -1.
</event>
<event>
 5   0  0.3553585E-08  0.3501572E+04  0.7818609E-02  0.8113417E-01
        2   -1    0    0  501    0  0.00000000000E+00  0.00000000000E+00  0.21540473304E+04  0.21540473304E+04  0.25500000920E-02 0. -1.
       -2   -1    0    0    0  501  0.00000000000E+00  0.00000000000E+00 -0.14230197211E+04  0.14230197211E+04  0.25500000920E-02 0.  1.
    10030    2    1    2    0    0  0.00000000000E+00  0.00000000000E+00  0.73102760926E+03  0.35770670515E+04  0.35015721220E+04 0.  0.
        2    1    3    3  502    0 -0.26213656400E+03 -0.21038917637E+03 -0.13897493500E+04  0.14298190233E+04  0.25500000920E-02 0.  1.
       -2    1    3    3    0  502  0.26213656400E+03  0.21038917637E+03  0.21207769592E+04  0.21472480282E+04  0.25500000920E-02 0. -1.
</event>
<event>
 5   0  0.3628017E-08  0.3498321E+04  0.7818609E-02  0.8114188E-01
        2   -1    0    0  501    0  0.00000000000E+00  0.00000000000E+00  0.25706579953E+04  0.25706579953E+04  0.25500000920E-02 0. -1.
       -2   -1    0    0    0  501  0.00000000000E+00  0.00000000000E+00 -0.11901866773E+04  0.11901866773E+04  0.25500000920E-02 0.  1.
    10030    2    1    2    0    0  0.00000000000E+00  0.00000000000E+00  0.13804713181E+04  0.37608446726E+04  0.34983212534E+04 0.  0.
        1    1    3    3  502    0 -0.14079867610E+04 -0.68169817553E+03 -0.15106597003E+03  0.15716106544E+04  0.50400001928E-02 0.  1.
       -1    1    3    3    0  502  0.14079867610E+04  0.68169817553E+03  0.15315372881E+04  0.21892340182E+04  0.50400001928E-02 0. -1.
</event>
<event>
 5   0  0.1121462E-08  0.3500921E+04  0.7818609E-02  0.8113572E-01
       -1   -1    0    0    0  501  0.00000000000E+00  0.00000000000E+00  0.21310270447E+04  0.21310270447E+04  0.50400001928E-02 0.  1.
        1   -1    0    0  501    0  0.00000000000E+00  0.00000000000E+00 -0.14378569138E+04  0.14378569138E+04  0.50400001928E-02 0. -1.
    10030    2    1    2    0    0  0.00000000000E+00  0.00000000000E+00  0.69317013093E+03  0.35688839585E+04  0.35009210044E+04 0.  0.
        4    1    3    3  502    0 -0.28134562659E+03  0.15110637357E+04 -0.50731631066E+03  0.16185921126E+04  0.12699999809E+01 0. -1.
       -4    1    3    3    0  502  0.28134562659E+03 -0.15110637357E+04  0.12004864416E+04  0.19502918459E+04  0.12699999809E+01 0.  1.
</event>
<event>
 5   0  0.1121462E-08  0.3500361E+04  0.7818609E-02  0.8113704E-01
       -1   -1    0    0    0  501  0.00000000000E+00  0.00000000000E+00  0.10569454264E+04  0.10569454264E+04  0.50400001928E-02 0. -1.
        1   -1    0    0  501    0  0.00000000000E+00  0.00000000000E+00 -0.28980976335E+04  0.28980976335E+04  0.50400001928E-02 0.  1.
    10030    2    1    2    0    0  0.00000000000E+00  0.00000000000E+00 -0.18411522071E+04  0.39550430600E+04  0.35003605752E+04 0.  0.
        1    1    3    3  502    0 -0.93613961891E+03 -0.59477367710E+03 -0.24503307767E+04  0.26896531427E+04  0.50400001928E-02 0.  1.
       -1    1    3    3    0  502  0.93613961891E+03  0.59477367710E+03  0.60917856954E+03  0.12653899173E+04  0.50400001928E-02 0. -1.
</event>
<event>
 5   0  0.1121462E-08  0.3496117E+04  0.7818609E-02  0.8114711E-01
       -1   -1    0    0    0  501  0.00000000000E+00  0.00000000000E+00  0.14179768721E+04  0.14179768721E+04  0.50400001928E-02 0.  1.
        1   -1    0    0  501    0  0.00000000000E+00  0.00000000000E+00 -0.21549775067E+04  0.21549775068E+04  0.50400001928E-02 0. -1.
    10030    2    1    2    0    0  0.00000000000E+00  0.00000000000E+00 -0.73700063463E+03  0.35729543789E+04  0.34961168542E+04 0.  0.
        1    1    3    3  502    0  0.14844558248E+04  0.78829784925E+03 -0.85935375744E+03  0.18877265362E+04  0.50400001928E-02 0. -1.
       -1    1    3    3    0  502 -0.14844558248E+04 -0.78829784925E+03  0.12235312281E+03  0.16852278427E+04  0.50400001928E-02 0.  1.
</event>
<event>
 5   0  0.3700096E-08  0.3483861E+04  0.7818609E-02  0.8117625E-01
        2   -1    0    0  501    0  0.00000000000E+00  0.00000000000E+00  0.17073890205E+04  0.17073890205E+04  0.25500000920E-02 0.  1.
       -2   -1    0    0    0  501  0.00000000000E+00  0.00000000000E+00 -0.17771709002E+04  0.17771709002E+04  0.25500000920E-02 0. -1.
    10030    2    1    2    0    0  0.00000000000E+00  0.00000000000E+00 -0.69781879728E+02  0.34845599207E+04  0.34838611238E+04 0.  0.
        4    1    3    3  502    0 -0.48849569292E+03  0.30598894652E+03 -0.16790160162E+04  0.17752052482E+04  0.12699999809E+01 0. -1.
       -4    1    3    3    0  502  0.48849569292E+03 -0.30598894652E+03  0.16092341365E+04  0.17093546725E+04  0.12699999809E+01 0.  1.
</event>
<event>
 5   0  0.1129219E-08  0.3499740E+04  0.7818609E-02  0.8113851E-01
        1   -1    0    0  501    0  0.00000000000E+00  0.00000000000E+00  0.16010604287E+04  0.16010604288E+04  0.50400001928E-02 0. -1.
       -1   -1    0    0    0  501  0.00000000000E+00  0.00000000000E+00 -0.19125110285E+04  0.19125110285E+04  0.50400001928E-02 0.  1.
    10030    2    1    2    0    0  0.00000000000E+00  0.00000000000E+00 -0.31145059974E+03  0.35135714573E+04  0.34997404060E+04 0.  0.
        5    1    3    3  502    0 -0.12613805669E+04 -0.60228320826E+03  0.90114469746E+03  0.16631024783E+04  0.46999998093E+01 0. -1.
       -5    1    3    3    0  502  0.12613805669E+04  0.60228320826E+03 -0.12125952972E+04  0.18504689790E+04  0.46999998093E+01 0.  1.
</event>
<event>
 5   0  0.1121462E-08  0.3499301E+04  0.7818609E-02  0.8113956E-01
        1   -1    0    0  501    0  0.00000000000E+00  0.00000000000E+00  0.23444921542E+04  0.23444921542E+04  0.50400001928E-02 0. -1.
       -1   -1    0    0    0  501  0.00000000000E+00  0.00000000000E+00 -0.13057314300E+04  0.13057314301E+04  0.50400001928E-02 0.  1.
    10030    2    1    2    0    0  0.00000000000E+00  0.00000000000E+00  0.10387607242E+04  0.36502235843E+04  0.34993011264E+04 0.  0.
        2    1    3    3  502    0  0.17494603006E+04 -0.23440594999E+02  0.53062915772E+03  0.18283129131E+04  0.25500000920E-02 0. -1.
       -2    1    3    3    0  502 -0.17494603006E+04  0.23440594999E+02  0.50813156645E+03  0.18219106712E+04  0.25500000920E-02 0.  1.
</event>
<event>
 5   0  0.1121462E-08  0.3499550E+04  0.7818609E-02  0.8113897E-01
       -1   -1    0    0    0  501  0.00000000000E+00  0.00000000000E+00  0.15911618704E+04  0.15911618705E+04  0.50400001928E-02 0.  1.
        1   -1    0    0  501    0  0.00000000000E+00  0.00000000000E+00 -0.19241992877E+04  0.19241992877E+04  0.50400001928E-02 0. -1.
    10030    2    1    2    0    0  0.00000000000E+00  0.00000000000E+00 -0.33303741721E+03  0.35153611581E+04  0.34995499926E+04 0.  0.
        4    1    3    3  502    0 -0.13722429496E+04  0.10844152047E+04 -0.21875244732E+03  0.17626290861E+04  0.12699999809E+01 0. -1.
       -4    1    3    3    0  502  0.13722429496E+04 -0.10844152047E+04 -0.11428496989E+03  0.17527320720E+04  0.12699999809E+01 0.  1.
</event>
<event>
 5   0  0.1121462E-08  0.3500179E+04  0.7818609E-02  0.8113747E-01
       -1   -1    0    0    0  501  0.00000000000E+00  0.00000000000E+00  0.18196529918E+04  0.18196529918E+04  0.50400001928E-02 0. -1.
        1   -1    0    0  501    0  0.00000000000E+00  0.00000000000E+00 -0.16831856403E+04  0.16831856404E+04  0.50400001928E-02 0.  1.
    10030    2    1    2    0    0  0.00000000000E+00  0.00000000000E+00  0.13646735149E+03  0.35028386322E+04  0.35001793019E+04 0.  0.
        1    1    3    3  502    0  0.64415858177E+03 -0.87013085530E+03  0.14443223200E+04  0.18050304562E+04  0.50400001928E-02 0. -1.
       -1    1    3    3    0  502 -0.64415858177E+03  0.87013085530E+03 -0.13078549685E+04  0.16978081760E+04  0.50400001928E-02 0.  1.
</event>
<event>
 5   0  0.3467834E-08  0.3501621E+04  0.7818609E-02  0.8113406E-01
       -2   -1    0    0    0  501  0.00000000000E+00  0.00000000000E+00  0.20070605316E+04  0.20070605316E+04  0.25500000920E-02 0. -1.
        2   -1    0    0  501    0  0.00000000000E+00  0.00000000000E+00 -0.15272767090E+04  0.15272767090E+04  0.25500000920E-02 0.  1.
    10030    2    1    2    0    0  0.00000000000E+00  0.00000000000E+00  0.47978382258E+03  0.35343372407E+04  0.35016206554E+04 0.  0.
        3    1    3    3  502    0 -0.33937404533E+03  0.70909392993E+03  0.18189086798E+04  0.19815190486E+04  0.10100000352E+00 0. -1.
       -3    1    3    3    0  502  0.33937404533E+03 -0.70909392993E+03 -0.13391248573E+04  0.15528181921E+04  0.10100000352E+00 0.  1.
</event>
<event>
 5   0  0.1121462E-08  0.3500878E+04  0.7818609E-02  0.8113582E-01
        1   -1    0    0  501    0  0.00000000000E+00  0.00000000000E+00  0.18336178248E+04  0.18336178248E+04  0.50400001928E-02 0. -1.
       -1   -1    0    0    0  501  0.00000000000E+00  0.00000000000E+00 -0.16710336990E+04  0.16710336991E+04  0.50400001928E-02 0.  1.
    10030    2    1    2    0    0  0.00000000000E+00  0.00000000000E+00  0.16258412573E+03  0.35046515238E+04  0.35008782763E+04 0.  0.
        2    1    3    3  502    0  0.16826429093E+04 -0.30951812751E+03  0.45175651496E+03  0.17695119611E+04  0.25500000920E-02 0. -1.
       -2    1    3    3    0  502 -0.16826429093E+04  0.30951812751E+03 -0.28917238923E+03  0.17351395628E+04  0.25500000920E-02 0.  1.
</event>
<event>
 5   0  0.3467834E-08  0.3501262E+04  0.7818609E-02  0.8113491E-01
        2   -1    0    0  501    0  0.00000000000E+00  0.00000000000E+00  0.15597908683E+04  0.15597908683E+04  0.25500000920E-02 0. -1.
       -2   -1    0    0    0  501  0.00000000000E+00  0.00000000000E+00 -0.19648203230E+04  0.19648203230E+04  0.25500000920E-02 0.  1.
    10030    2    1    2    0    0  0.00000000000E+00  0.00000000000E+00 -0.40502945464E+03  0.35246111913E+04  0.35012619426E+04 0.  0.
        3    1    3    3  502    0 -0.48543600339E+03 -0.13778214483E+04  0.76863048589E+03  0.16507067853E+04  0.10100000352E+00 0. -1.
       -3    1    3    3    0  502  0.48543600339E+03  0.13778214483E+04 -0.11736599405E+04  0.18739044061E+04  0.10100000352E+00 0.  1.
</event>
<event>
 5   0  0.1129219E-08  0.3499682E+04  0.7818609E-02  0.8113865E-01
       -1   -1    0    0    0  501  0.00000000000E+00  0.00000000000E+00  0.11144659650E+04  0.11144659650E+04  0.50400001928E-02 0. -1.
        1   -1    0    0  501    0  0.00000000000E+00  0.00000000000E+00 -0.27474532902E+04  0.27474532902E+04  0.50400001928E-02 0.  1.
    10030    2    1    2    0    0  0.00000000000E+00  0.00000000000E+00 -0.16329873252E+04  0.38619192552E+04  0.34996818040E+04 0.  0.
        5    1    3    3  502    0 -0.19963229239E+03  0.12881847790E+04  0.47165644415E+03  0.13862737711E+04  0.46999998093E+01 0. -1.
       -5    1    3    3    0  502  0.19963229239E+03 -0.12881847790E+04 -0.21046437694E+04  0.24756454841E+04  0.46999998093E+01 0.  1.
</event>
<event>
 5   0  0.3467834E-08  0.3501814E+04  0.7818609E-02  0.8113360E-01
       -2   -1    0    0    0  501  0.00000000000E+00  0.00000000000E+00  0.12085247103E+04  0.12085247103E+04  0.25500000920E-02 0. -1.
        2   -1    0    0  501    0  0.00000000000E+00  0.00000000000E+00 -0.25367090071E+04  0.25367090071E+04  0.25500000920E-02 0.  1.
    10030    2    1    2    0    0  0.00000000000E+00  0.00000000000E+00 -0.13281842968E+04  0.37452337174E+04  0.35018141115E+04 0.  0.
        3    1    3    3  502    0 -0.57948890899E+02 -0.10287302778E+04 -0.21781347745E+04  0.24095466720E+04  0.10100000352E+00 0.  1.
       -3    1    3    3    0  502  0.57948890899E+02  0.10287302778E+04  0.84995047767E+03  0.13356870454E+04  0.10100000352E+00 0. -1.
</event>
<event>
 5   0  0.1140808E-08  0.3499829E+04  0.7818609E-02  0.8113831E-01
       -1   -1    0    0    0  501  0.00000000000E+00  0.00000000000E+00  0.20720472570E+04  0.20720472570E+04  0.50400001928E-02 0. -1.
        1   -1    0    0  501    0  0.00000000000E+00  0.00000000000E+00 -0.14778620272E+04  0.14778620272E+04  0.50400001928E-02 0.  1.
    10030    2    1    2    0    0  0.00000000000E+00  0.00000000000E+00  0.59418522979E+03  0.35499092843E+04  0.34998285442E+04 0.  0.
        3    1    3    3  502    0 -0.14974974836E+04  0.88221376143E+03  0.50347435091E+03  0.18094988993E+04  0.10100000352E+00 0.  1.
       -3    1    3    3    0  502  0.14974974836E+04 -0.88221376143E+03  0.90710878881E+02  0.17404103850E+04  0.10100000352E+00 0. -1.
</event>
<event>
 5   0  0.1129219E-08  0.3497937E+04  0.7818609E-02  0.8114279E-01
       -1   -1    0    0    0  501  0.00000000000E+00  0.00000000000E+00  0.11847272381E+04  0.11847272381E+04  0.50400001928E-02 0.  1.
        1   -1    0    0  501    0  0.00000000000E+00  0.00000000000E+00 -0.25819374730E+04  0.25819374730E+04  0.50400001928E-02 0. -1.
    10030    2    1    2    0    0  0.00000000000E+00  0.00000000000E+00 -0.13972102349E+04  0.37666647111E+04  0.34979374787E+04 0.  0.
        5    1    3    3  502    0  0.35637142737E+03 -0.72724170361E+03 -0.23678527316E+04  0.25025246729E+04  0.46999998093E+01 0. -1.
       -5    1    3    3    0  502 -0.35637142737E+03  0.72724170361E+03  0.97064249671E+03  0.12641400382E+04  0.46999998093E+01 0.  1.
</event>
<event>
 5   0  0.3554451E-08  0.3499534E+04  0.7818609E-02  0.8113900E-01
        2   -1    0    0  501    0  0.00000000000E+00  0.00000000000E+00  0.31376657498E+04  0.31376657498E+04  0.25500000920E-02 0.  1.
       -2   -1    0    0    0  501  0.00000000000E+00  0.00000000000E+00 -0.97578409736E+03  0.97578409737E+03  0.25500000920E-02 0. -1.
    10030    2    1    2    0    0  0.00000000000E+00  0.00000000000E+00  0.21618816524E+04  0.41134498471E+04  0.34995338784E+04 0.  0.
        5    1    3    3  502    0 -0.33758203183E+02 -0.96787515822E+03 -0.63201715504E+03  0.11564556682E+04  0.46999998093E+01 0. -1.
       -5    1    3    3    0  502  0.33758203183E+02  0.96787515822E+03  0.27938988074E+04  0.29569941790E+04  0.46999998093E+01 0.  1.
</event>
<event>
 5   0  0.1140808E-08  0.3501455E+04  0.7818609E-02  0.8113445E-01
        1   -1    0    0  501    0  0.00000000000E+00  0.00000000000E+00  0.11850623385E+04  0.11850623385E+04  0.50400001928E-02 0. -1.
       -1   -1    0    0    0  501  0.00000000000E+00  0.00000000000E+00 -0.25864018471E+04  0.25864018471E+04  0.50400001928E-02 0.  1.
    10030    2    1    2    0    0  0.00000000000E+00  0.00000000000E+00 -0.14013395085E+04  0.37714641856E+04  0.35014553667E+04 0.  0.
        3    1    3    3  502    0  0.10142808265E+04  0.13365134593E+04 -0.16209846173E+03  0.16856185047E+04  0.10100000352E+00 0. -1.
       -3    1    3    3    0  502 -0.10142808265E+04 -0.13365134593E+04 -0.12392410468E+04  0.20858456809E+04  0.10100000352E+00 0.  1.
</event>
<event>
 5   0  0.1121462E-08  0.3504861E+04  0.7818609E-02  0.8112639E-01
        1   -1    0    0  501    0  0.00000000000E+00  0.00000000000E+00  0.16146051279E+04  0.16146051280E+04  0.50400001928E-02 0.  1.
       -1   -1    0    0    0  501  0.00000000000E+00  0.00000000000E+00 -0.19020203726E+04  0.19020203726E+04  0.50400001928E-02 0. -1.
    10030    2    1    2    0    0  0.00000000000E+00  0.00000000000E+00 -0.28741524461E+03  0.35166255005E+04  0.35048605376E+04 0.  0.
        2    1    3    3  502    0  0.34416569813E+03 -0.15966941560E+04 -0.78076378118E+03  0.18103796114E+04  0.25500000920E-02 0. -1.
       -2    1    3    3    0  502 -0.34416569813E+03  0.15966941560E+04  0.49334853657E+03  0.17062458891E+04  0.25500000920E-02 0.  1.
</event>
<event>
 5   0  0.3553585E-08  0.3501932E+04  0.7818609E-02  0.8113332E-01
        2   -1    0    0  501    0  0.00000000000E+00  0.00000000000E+00  0.21888467874E+04  0.21888467874E+04  0.25500000920E-02 0.  1.
       -2   -1    0    0    0  501  0.00000000000E+00  0.00000000000E+00 -0.14006840338E+04  0.14006840338E+04  0.25500000920E-02 0. -1.
    10030    2    1    2    0    0  0.00000000000E+00  0.00000000000E+00  0.78816275361E+03  0.35895308212E+04  0.35019324651E+04 0.  0.
        2    1    3    3  502    0  0.11006517293E+04 -0.38081474701E+03  0.17342375435E+04  0.20890270362E+04  0.25500000920E-02 0.  1.
       -2    1    3    3    0  502 -0.11006517293E+04  0.38081474701E+03 -0.94607478988E+03  0.15005037850E+04  0.25500000920E-02 0. -1.
</event>
<event>
 5   0  0.3553585E-08  0.3499674E+04  0.7818609E-02  0.8113867E-01
        2   -1    0    0  501    0  0.00000000000E+00  0.00000000000E+00  0.15786209549E+04  0.15786209549E+04  0.25500000920E-02 0.  1.
       -2   -1    0    0    0  501  0.00000000000E+00  0.00000000000E+00 -0.19396225449E+04  0.19396225449E+04  0.25500000920E-02 0. -1.
    10030    2    1    2    0    0  0.00000000000E+00  0.00000000000E+00 -0.36100158995E+03  0.35182434998E+04  0.34996735813E+04 0.  0.
        2    1    3    3  502    0  0.27046803839E+03  0.63379801475E+03  0.14364728481E+04  0.15932065550E+04  0.25500000920E-02 0.  1.
       -2    1    3    3    0  502 -0.27046803839E+03 -0.63379801475E+03 -0.17974744381E+04  0.19250369448E+04  0.25500000920E-02 0. -1.
</event>
<event>
 5   0  0.3700096E-08  0.3497168E+04  0.7818609E-02  0.8114461E-01
        2   -1    0    0  501    0  0.00000000000E+00  0.00000000000E+00  0.21757598017E+04  0.21757598017E+04  0.25500000920E-02 0.  1.
       -2   -1    0    0    0  501  0.00000000000E+00  0.00000000000E+00 -0.14052777307E+04  0.14052777307E+04  0.25500000920E-02 0. -1.
    10030    2    1    2    0    0  0.00000000000E+00  0.00000000000E+00  0.77048207103E+03  0.35810375324E+04  0.34971684528E+04 0.  0.
        4    1    3    3  502    0  0.12884041655E+04 -0.82697551295E+03  0.12502915416E+04  0.19766396598E+04  0.12699999809E+01 0.  1.
       -4    1    3    3    0  502 -0.12884041655E+04  0.82697551295E+03 -0.47980947060E+03  0.16043978726E+04  0.12699999809E+01 0. -1.
</event>
<event>
 5   0  0.3628017E-08  0.3497719E+04  0.7818609E-02  0.8114331E-01
        2   -1    0    0  501    0  0.00000000000E+00  0.00000000000E+00  0.14684379246E+04  0.14684379246E+04  0.25500000920E-02 0. -1.
       -2   -1    0    0    0  501  0.00000000000E+00  0.00000000000E+00 -0.20828317929E+04  0.20828317929E+04  0.25500000920E-02 0.  1.
    10030    2    1    2    0    0  0.00000000000E+00  0.00000000000E+00 -0.61439386839E+03  0.35512697175E+04  0.34977187967E+04 0.  0.
        1    1    3    3  502    0  0.48170290737E+03  0.95323112269E+03 -0.17132538713E+04  0.20188922933E+04  0.50400001928E-02 0.  1.
       -1    1    3    3    0  502 -0.48170290737E+03 -0.95323112269E+03  0.10988600029E+04  0.15323774242E+04  0.50400001928E-02 0. -1.
</event>
<event>
 5   0  0.1121462E-08  0.3498355E+04  0.7818609E-02  0.8114180E-01
       -1   -1    0    0    0  501  0.00000000000E+00  0.00000000000E+00  0.13621506477E+04  0.13621506477E+04  0.50400001928E-02 0. -1.
        1   -1    0    0  501    0  0.00000000000E+00  0.00000000000E+00 -0.22461693677E+04  0.22461693677E+04  0.50400001928E-02 0.  1.
    10030    2    1    2    0    0  0.00000000000E+00  0.00000000000E+00 -0.88401871996E+03  0.36083200154E+04  0.34983545041E+04 0.  0.
        2    1    3    3  502    0 -0.27235882230E+03 -0.13724785647E+04 -0.15246433081E+04  0.20693994191E+04  0.25500000920E-02 0.  1.
       -2    1    3    3    0  502  0.27235882230E+03  0.13724785647E+04  0.64062458818E+03  0.15389205963E+04  0.25500000920E-02 0. -1.
</event>
<event>
 5   0  0.3700096E-08  0.3506724E+04  0.7818609E-02  0.8112198E-01
        2   -1    0    0  501    0  0.00000000000E+00  0.00000000000E+00  0.28612224980E+04  0.28612224980E+04  0.25500000920E-02 0. -1.
       -2   -1    0    0    0  501  0.00000000000E+00  0.00000000000E+00 -0.10744633795E+04  0.10744633795E+04  0.25500000920E-02 0.  1.
    10030    2    1    2    0    0  0.00000000000E+00  0.00000000000E+00  0.17867591185E+04  0.39356858776E+04  0.35067242805E+04 0.  0.
        4    1    3    3  502    0 -0.42209930689E+03 -0.48388578427E+03 -0.93775343975E+03  0.11365282239E+04  0.12699999809E+01 0.  1.
       -4    1    3    3    0  502  0.42209930689E+03  0.48388578427E+03  0.27245125583E+04  0.27991576537E+04  0.12699999809E+01 0. -1.
</event>
<event>
 5   0  0.3467834E-08  0.3497641E+04  0.7818609E-02  0.8114349E-01
       -2   -1    0    0    0  501  0.00000000000E+00  0.00000000000E+00  0.13241034062E+04  0.13241034062E+04  0.25500000920E-02 0.  1.
        2   -1    0    0  501    0  0.00000000000E+00  0.00000000000E+00 -0.23097684636E+04  0.23097684636E+04  0.25500000920E-02 0. -1.
    10030    2    1    2    0    0  0.00000000000E+00  0.00000000000E+00 -0.98566505740E+03  0.36338718697E+04  0.34976405133E+04 0.  0.
        3    1    3    3  502    0 -0.33571607932E+03 -0.96118394652E+02 -0.22731773923E+04  0.22998433639E+04  0.10100000352E+00 0. -1.
       -3    1    3    3    0  502  0.33571607932E+03  0.96118394652E+02  0.12875123349E+04  0.13340285058E+04  0.10100000352E+00 0.  1.
</event>
<event>
 5   0  0.1140808E-08  0.3499529E+04  0.7818609E-02  0.8113902E-01
       -1   -1    0    0    0  501  0.00000000000E+00  0.00000000000E+00  0.13385761239E+04  0.13385761239E+04  0.50400001928E-02 0. -1.
        1   -1    0    0  501    0  0.00000000000E+00  0.00000000000E+00 -0.22872630831E+04  0.22872630831E+04  0.50400001928E-02 0.  1.
    10030    2    1    2    0    0  0.00000000000E+00  0.00000000000E+00 -0.94868695916E+03  0.36258392070E+04  0.34995289695E+04 0.  0.
        3    1    3    3  502    0  0.34468110434E+02 -0.12275917838E+04  0.81704060506E+03  0.14750338975E+04  0.10100000352E+00 0. -1.
       -3    1    3    3    0  502 -0.34468110434E+02  0.12275917838E+04 -0.17657275642E+04  0.21508053095E+04  0.10100000352E+00 0.  1.
</event>
<event>
 5   0  0.3554451E-08  0.3499310E+04  0.7818609E-02  0.8113953E-01
        2   -1    0    0  501    0  0.00000000000E+00  0.00000000000E+00  0.14520011085E+04  0.14520011085E+04  0.25500000920E-02 0. -1.
       -2   -1    0    0    0  501  0.00000000000E+00  0.00000000000E+00 -0.21083265711E+04  0.21083265711E+04  0.25500000920E-02 0.  1.
    10030    2    1    2    0    0  0.00000000000E+00  0.00000000000E+00 -0.65632546257E+03  0.35603276796E+04  0.34993099424E+04 0.  0.
        5    1    3    3  502    0 -0.11932043435E+04  0.86487924616E+03 -0.12877508458E+04  0.19570582635E+04  0.46999998093E+01 0.  1.
       -5    1    3    3    0  502  0.11932043435E+04 -0.86487924616E+03  0.63142538325E+03  0.16032694161E+04  0.46999998093E+01 0. -1.
</event>
<event>
 5   0  0.1121462E-08  0.3502261E+04  0.7818609E-02  0.8113254E-01
        1   -1    0    0  501    0  0.00000000000E+00  0.00000000000E+00  0.20775911837E+04  0.20775911837E+04  0.50400001928E-02 0.  1.
       -1   -1    0    0    0  501  0.00000000000E+00  0.00000000000E+00 -0.14759681579E+04  0.14759681579E+04  0.50400001928E-02 0. -1.
    10030    2    1    2    0    0  0.00000000000E+00  0.00000000000E+00  0.60162302584E+03  0.35535593416E+04  0.35022612309E+04 0.  0.
        4    1    3    3  502    0  0.56664669128E+03 -0.75476477347E+03  0.17974413188E+04  0.20301613836E+04  0.12699999809E+01 0.  1.
       -4    1    3    3    0  502 -0.56664669128E+03  0.75476477347E+03 -0.11958182929E+04  0.15233979581E+04  0.12699999809E+01 0. -1.
</event>
<event>
 5   0  0.3628017E-08  0.3500207E+04  0.7818609E-02  0.8113741E-01
       -2   -1    0    0    0  501  0.00000000000E+00  0.00000000000E+00  0.14254363244E+04  0.14254363244E+04  0.25500000920E-02 0.  1.
        2   -1    0    0  501    0  0.00000000000E+00  0.00000000000E+00 -0.21487187732E+04  0.21487187732E+04  0.25500000920E-02 0. -1.
    10030    2    1    2    0    0  0.00000000000E+00  0.00000000000E+00 -0.72328244885E+03  0.35741550976E+04  0.35002067312E+04 0.  0.
        1    1    3    3  502    0  0.48669822454E+03  0.11633380191E+04 -0.16007992945E+04  0.20378392698E+04  0.50400001928E-02 0. -1.
       -1    1    3    3    0  502 -0.48669822454E+03 -0.11633380191E+04  0.87751684563E+03  0.15363158278E+04  0.50400001928E-02 0.  1.
</event>
<event>
 5   0  0.3553585E-08  0.3496339E+04  0.7818609E-02  0.8114658E-01
        2   -1    0    0  501    0  0.00000000000E+00  0.00000000000E+00  0.13202849608E+04  0.13202849608E+04  0.25500000920E-02 0. -1.
       -2   -1    0    0    0  501  0.00000000000E+00  0.00000000000E+00 -0.23147249356E+04  0.23147249356E+04  0.25500000920E-02 0.  1.
    10030    2    1    2    0    0  0.00000000000E+00  0.00000000000E+00 -0.99443997481E+03  0.36350098963E+04  0.34963389543E+04 0.  0.
        2    1    3    3  502    0  0.47970673066E+03 -0.10605911434E+04 -0.18532212866E+04  0.21884700724E+04  0.25500000920E-02 0.  1.
       -2    1    3    3    0  502 -0.47970673066E+03  0.10605911434E+04  0.85878131175E+03  0.14465398239E+04  0.25500000920E-02 0. -1.
</event>
<event>
 5   0  0.1129219E-08  0.3501685E+04  0.7818609E-02  0.8113391E-01
       -1   -1    0    0    0  501  0.00000000000E+00  0.00000000000E+00  0.12897297296E+04  0.12897297296E+04  0.50400001928E-02 0. -1.
        1   -1    0    0  501    0  0.00000000000E+00  0.00000000000E+00 -0.23768155306E+04  0.23768155306E+04  0.50400001928E-02 0.  1.
    10030    2    1    2    0    0  0.00000000000E+00  0.00000000000E+00 -0.10870858011E+04  0.36665452602E+04  0.35016851095E+04 0.  0.
        5    1    3    3  502    0  0.24248758689E+03 -0.62777361780E+03  0.11488858950E+04  0.13314882030E+04  0.46999998093E+01 0. -1.
       -5    1    3    3    0  502 -0.24248758689E+03  0.62777361780E+03 -0.22359716960E+04  0.23350570572E+04  0.46999998093E+01 0.  1.
</event>
<event>
 5   0  0.3700096E-08  0.3500369E+04  0.7818609E-02  0.8113703E-01
       -2   -1    0    0    0  501  0.00000000000E+00  0.00000000000E+00  0.15176540691E+04  0.15176540691E+04  0.25500000920E-02 0. -1.
        2   -1    0    0  501    0  0.00000000000E+00  0.00000000000E+00 -0.20183424932E+04  0.20183424932E+04  0.25500000920E-02 0.  1.
    10030    2    1    2    0    0  0.00000000000E+00  0.00000000000E+00 -0.50068842416E+03  0.35359965623E+04  0.35003689506E+04 0.  0.
        4    1    3    3  502    0  0.15328082006E+04  0.59392395760E+03 -0.85720616529E+03  0.18539284425E+04  0.12699999809E+01 0.  1.
       -4    1    3    3    0  502 -0.15328082006E+04 -0.59392395760E+03  0.35651774113E+03  0.16820681198E+04  0.12699999809E+01 0. -1.
</event>
<event>
 5   0  0.3554451E-08  0.3494903E+04  0.7818609E-02  0.8114999E-01
        2   -1    0    0  501    0  0.00000000000E+00  0.00000000000E+00  0.19310728227E+04  0.19310728227E+04  0.25500000920E-02 0. -1.
       -2   -1    0    0    0  501  0.00000000000E+00  0.00000000000E+00 -0.15812900863E+04  0.15812900863E+04  0.25500000920E-02 0.  1.
    10030    2    1    2    0    0  0.00000000000E+00  0.00000000000E+00  0.34978273640E+03  0.35123629091E+04  0.34949027515E+04 0.  0.
        5    1    3    3  502    0  0.24085441164E+03 -0.16173431830E+04 -0.44442947261E+03  0.16945056699E+04  0.46999998093E+01 0.  1.
       -5    1    3    3    0  502 -0.24085441164E+03  0.16173431830E+04  0.79421220901E+03  0.18178572392E+04  0.46999998093E+01 0. -1.
</event>
<event>
 5   0  0.1121462E-08  0.3501319E+04  0.7818609E-02  0.8113478E-01
       -1   -1    0    0    0  501  0.00000000000E+00  0.00000000000E+00  0.16630101590E+04  0.16630101590E+04  0.50400001928E-02 0. -1.
        1   -1    0    0  501    0  0.00000000000E+00  0.00000000000E+00 -0.18429280096E+04  0.18429280096E+04  0.50400001928E-02 0.  1.
    10030    2    1    2    0    0  0.00000000000E+00  0.00000000000E+00 -0.17991785060E+03  0.35059381686E+04  0.35013186101E+04 0.  0.
        4    1    3    3  502    0 -0.74136165477E+03 -0.15801970090E+04 -0.22492065307E+03  0.17598950547E+04  0.12699999809E+01 0.  1.
       -4    1    3    3    0  502  0.74136165477E+03  0.15801970090E+04  0.45002802477E+02  0.17460431139E+04  0.12699999809E+01 0. -1.
</event>
<event>
 5   0  0.3467834E-08  0.3500164E+04  0.7818609E-02  0.8113751E-01
       -2   -1    0    0    0  501  0.00000000000E+00  0.00000000000E+00  0.17350489977E+04  0.17350489977E+04  0.25500000920E-02 0. -1.
        2   -1    0    0  501    0  0.00000000000E+00  0.00000000000E+00 -0.17652451815E+04  0.17652451815E+04  0.25500000920E-02 0.  1.
    10030    2    1    2    0    0  0.00000000000E+00  0.00000000000E+00 -0.30196183777E+02  0.35002941792E+04  0.35001639292E+04 0.  0.
        3    1    3    3  502    0 -0.47805883922E+03  0.14921864652E+04 -0.79463089774E+03  0.17568719289E+04  0.10100000352E+00 0.  1.
       -3    1    3    3    0  502  0.47805883922E+03 -0.14921864652E+04  0.76443471396E+03  0.17434222503E+04  0.10100000352E+00 0. -1.
</event>
<event>
 5   0  0.1121462E-08  0.3484655E+04  0.7818609E-02  0.8117436E-01
        3   -1    0    0  501    0  0.00000000000E+00  0.00000000000E+00  0.24122928258E+04  0.24122928279E+04  0.10100000352E+00 0. -1.
       -3   -1    0    0    0  501  0.00000000000E+00  0.00000000000E+00 -0.12584311655E+04  0.12584311696E+04  0.10100000352E+00 0.  1.
    10030    2    1    2    0    0  0.00000000000E+00  0.00000000000E+00  0.11538616603E+04  0.36707239975E+04  0.34846546364E+04 0.  0.
        1    1    3    3  502    0 -0.10247696176E+04 -0.10498174435E+04 -0.41316972090E+03  0.15241320979E+04  0.50400001928E-02 0.  1.
       -1    1    3    3    0  502  0.10247696176E+04  0.10498174435E+04  0.15670313812E+04  0.21465918996E+04  0.50400001928E-02 0. -1.
</event>
<event>
 5   0  0.1140808E-08  0.3500344E+04  0.7818609E-02  0.8113709E-01
       -1   -1    0    0    0  501  0.00000000000E+00  0.00000000000E+00  0.97743973108E+03  0.97743973109E+03  0.50400001928E-02 0.  1.
        1   -1    0    0  501    0  0.00000000000E+00  0.00000000000E+00 -0.31338006458E+04  0.31338006458E+04  0.50400001928E-02 0. -1.
    10030    2    1    2    0    0  0.00000000000E+00  0.00000000000E+00 -0.21563609147E+04  0.41112403769E+04  0.35003435606E+04 0.  0.
        3    1    3    3  502    0 -0.33422341583E+03  0.16570563846E+04 -0.16106951611E+04  0.23349261371E+04  0.10100000352E+00 0.  1.
       -3    1    3    3    0  502  0.33422341583E+03 -0.16570563846E+04 -0.54566575359E+03  0.17763142398E+04  0.10100000352E+00 0. -1.
</event>
<event>
 5   0  0.1140808E-08  0.3500954E+04  0.7818609E-02  0.8113564E-01
       -1   -1    0    0    0  501  0.00000000000E+00  0.00000000000E+00  0.22322535358E+04  0.22322535358E+04  0.50400001928E-02 0. -1.
        1   -1    0    0  501    0  0.00000000000E+00  0.00000000000E+00 -0.13726795867E+04  0.13726795867E+04  0.50400001928E-02 0.  1.
    10030    2    1    2    0    0  0.00000000000E+00  0.00000000000E+00  0.85957394907E+03  0.36049331225E+04  0.35009535050E+04 0.  0.
        3    1    3    3  502    0 -0.44451242047E+03  0.16694353327E+04  0.72023409060E+03  0.18717218750E+04  0.10100000352E+00 0. -1.
       -3    1    3    3    0  502  0.44451242047E+03 -0.16694353327E+04  0.13933985847E+03  0.17332112475E+04  0.10100000352E+00 0.  1.
</event>
<event>
 5   0  0.1121462E-08  0.3500734E+04  0.7818609E-02  0.8113616E-01
       -1   -1    0    0    0  501  0.00000000000E+00  0.00000000000E+00  0.11228397395E+04  0.11228397395E+04  0.50400001928E-02 0.  1.
        1   -1    0    0  501    0  0.00000000000E+00  0.00000000000E+00 -0.27286031984E+04  0.27286031984E+04  0.50400001928E-02 0. -1.
    10030    2    1    2    0    0  0.00000000000E+00  0.00000000000E+00 -0.16057634589E+04  0.38514429379E+04  0.35007336971E+04 0.  0.
        1    1    3    3  502    0 -0.36029307338E+02  0.96327951323E+03  0.80450532264E+03  0.12555613668E+04  0.50400001928E-02 0.  1.
       -1    1    3    3    0  502  0.36029307338E+02 -0.96327951323E+03 -0.24102687816E+04  0.25958815711E+04  0.50400001928E-02 0. -1.
</event>
<event>
 5   0  0.3467834E-08  0.3505907E+04  0.7818609E-02  0.8112392E-01
       -2   -1    0    0    0  501  0.00000000000E+00  0.00000000000E+00  0.16170828808E+04  0.16170828808E+04  0.25500000920E-02 0.  1.
        2   -1    0    0  501    0  0.00000000000E+00  0.00000000000E+00 -0.19002399095E+04  0.19002399095E+04  0.25500000920E-02 0. -1.
    10030    2    1    2    0    0  0.00000000000E+00  0.00000000000E+00 -0.28315702875E+03  0.35173227903E+04  0.35059066885E+04 0.  0.
        3    1    3    3  502    0  0.64301301003E+03 -0.69279121673E+03  0.13395145242E+04  0.16394281234E+04  0.10100000352E+00 0.  1.
       -3    1    3    3    0  502 -0.64301301003E+03  0.69279121673E+03 -0.16226715530E+04  0.18778946669E+04  0.10100000352E+00 0. -1.
</event>
<event>
 5   0  0.3467834E-08  0.3477500E+04  0.7818609E-02  0.8119143E-01
       -2   -1    0    0    0  501  0.00000000000E+00  0.00000000000E+00  0.13628578363E+04  0.13628578363E+04  0.25500000920E-02 0. -1.
        2   -1    0    0  501    0  0.00000000000E+00  0.00000000000E+00 -0.22183171670E+04  0.22183171670E+04  0.25500000920E-02 0.  1.
    10030    2    1    2    0    0  0.00000000000E+00  0.00000000000E+00 -0.85545933070E+03  0.35811750033E+04  0.34774996388E+04 0.  0.
        3    1    3    3  502    0 -0.10591095479E+04  0.62910303462E+03  0.83595110305E+03  0.14887235873E+04  0.10100000352E+00 0. -1.
       -3    1    3    3    0  502  0.10591095479E+04 -0.62910303462E+03 -0.16914104338E+04  0.20924514160E+04  0.10100000352E+00 0.  1.
</event>
<event>
 5   0  0.3554451E-08  0.3497501E+04  0.7818609E-02  0.8114382E-01
       -2   -1    0    0    0  501  0.00000000000E+00  0.00000000000E+00  0.20214847158E+04  0.20214847158E+04  0.25500000920E-02 0.  1.
        2   -1    0    0  501    0  0.00000000000E+00  0.00000000000E+00 -0.15128130018E+04  0.15128130018E+04  0.25500000920E-02 0. -1.
    10030    2    1    2    0    0  0.00000000000E+00  0.00000000000E+00  0.50867171394E+03  0.35342977176E+04  0.34975010285E+04 0.  0.
        5    1    3    3  502    0 -0.21194969055E+03 -0.55519713521E+03 -0.14076375739E+04  0.15279503133E+04  0.46999998093E+01 0. -1.
       -5    1    3    3    0  502  0.21194969055E+03  0.55519713521E+03  0.19163092879E+04  0.20063474044E+04  0.46999998093E+01 0.  1.
</event>
<event>
 5   0  0.1121462E-08  0.3499562E+04  0.7818609E-02  0.8113894E-01
        1   -1    0    0  501    0  0.00000000000E+00  0.00000000000E+00  0.27783083231E+04  0.27783083231E+04  0.50400001928E-02 0.  1.
       -1   -1    0    0    0  501  0.00000000000E+00  0.00000000000E+00 -0.11020136493E+04  0.11020136493E+04  0.50400001928E-02 0. -1.
    10030    2    1    2    0    0  0.00000000000E+00  0.00000000000E+00  0.16762946738E+04  0.38803219725E+04  0.34995620835E+04 0.  0.
        4    1    3    3  502    0  0.20765341286E+03  0.13102052591E+04 -0.42704126216E+03  0.13936009520E+04  0.12699999809E+01 0. -1.
       -4    1    3    3    0  502 -0.20765341286E+03 -0.13102052591E+04  0.21033359360E+04  0.24867210204E+04  0.12699999809E+01 0.  1.
</event>
<event>
 5   0  0.1121462E-08  0.3500186E+04  0.7818609E-02  0.8113746E-01
       -1   -1    0    0    0  501  0.00000000000E+00  0.00000000000E+00  0.10352049387E+04  0.10352049388E+04  0.50400001928E-02 0.  1.
        1   -1    0    0  501    0  0.00000000000E+00  0.00000000000E+00 -0.29586667027E+04  0.29586667027E+04  0.50400001928E-02 0. -1.
    10030    2    1    2    0    0  0.00000000000E+00  0.00000000000E+00 -0.19234617639E+04  0.39938716414E+04  0.35001864995E+04 0.  0.
        1    1    3    3  502    0 -0.15332444366E+04 -0.12813524049E+03 -0.19133717880E+04  0.24552492219E+04  0.50400001928E-02 0. -1.
       -1    1    3    3    0  502  0.15332444366E+04  0.12813524049E+03 -0.10089975898E+02  0.15386224195E+04  0.50400001928E-02 0.  1.
</event>
<event>
 5   0  0.3553585E-08  0.3501531E+04  0.7818609E-02  0.8113427E-01
       -2   -1    0    0    0  501  0.00000000000E+00  0.00000000000E+00  0.16642667316E+04  0.16642667316E+04  0.25500000920E-02 0. -1.
        2   -1    0    0  501    0  0.00000000000E+00  0.00000000000E+00 -0.18417604365E+04  0.18417604365E+04  0.25500000920E-02 0.  1.
    10030    2    1    2    0    0  0.00000000000E+00  0.00000000000E+00 -0.17749370498E+03  0.35060271681E+04  0.35015314490E+04 0.  0.
        2    1    3    3  502    0 -0.60370677736E+03  0.12346174871E+04 -0.11747769057E+04  0.18079941899E+04  0.25500000920E-02 0.  1.
       -2    1    3    3    0  502  0.60370677736E+03 -0.12346174871E+04  0.99728320076E+03  0.16980329782E+04  0.25500000920E-02 0. -1.
</event>
<event>
 5   0  0.3467834E-08  0.3496886E+04  0.7818609E-02  0.8114528E-01
        2   -1    0    0  501    0  0.00000000000E+00  0.00000000000E+00  0.18698688703E+04  0.18698688703E+04  0.25500000920E-02 0.  1.
       -2   -1    0    0    0  501  0.00000000000E+00  0.00000000000E+00 -0.16349023664E+04  0.16349023664E+04  0.25500000920E-02 0. -1.
    10030    2    1    2    0    0  0.00000000000E+00  0.00000000000E+00  0.23496650394E+03  0.35047712367E+04  0.34968860667E+04 0.  0.
        3    1    3    3  502    0  0.96721355718E+03  0.11610641442E+04  0.99894409322E+03  0.18114804232E+04  0.10100000352E+00 0. -1.
       -3    1    3    3    0  502 -0.96721355718E+03 -0.11610641442E+04 -0.76397758928E+03  0.16932908135E+04  0.10100000352E+00 0.  1.
</event>
<event>
 5   0  0.1121462E-08  0.3527701E+04  0.7818609E-02  0.8107256E-01
        1   -1    0    0  501    0  0.00000000000E+00  0.00000000000E+00  0.26325167989E+04  0.26325167989E+04  0.50400001928E-02 0. -1.
       -1   -1    0    0    0  501  0.00000000000E+00  0.00000000000E+00 -0.11818227079E+04  0.11818227079E+04  0.50400001928E-02 0.  1.
    10030    2    1    2    0    0  0.00000000000E+00  0.00000000000E+00  0.14506940909E+04  0.38143395068E+04  0.35277007423E+04 0.  0.
        1    1    3    3  502    0 -0.62790134015E+03 -0.10388932155E+04 -0.65832353800E+03  0.13809232733E+04  0.50400001928E-02 0.  1.
       -1    1    3    3    0  502  0.62790134015E+03  0.10388932155E+04  0.21090176289E+04  0.24334162335E+04  0.50400001928E-02 0. -1.
</event>
<event>
 5   0  0.3554451E-08  0.3500037E+04  0.7818609E-02  0.8113781E-01
        2   -1    0    0  501    0  0.00000000000E+00  0.00000000000E+00  0.11540327669E+04  0.11540327669E+04  0.25500000920E-02 0. -1.
       -2   -1    0    0    0  501  0.00000000000E+00  0.00000000000E+00 -0.26537929119E+04  0.26537929119E+04  0.25500000920E-02 0.  1.
    10030    2    1    2    0    0  0.00000000000E+00  0.00000000000E+00 -0.14997601450E+04  0.38078256788E+04  0.35000365580E+04 0.  0.
        5    1    3    3  502    0  0.16594386899E+04  0.37808651035E+03 -0.11929473681E+04  0.20784204791E+04  0.46999998093E+01 0.  1.
       -5    1    3    3    0  502 -0.16594386899E+04 -0.37808651035E+03 -0.30681277684E+03  0.17294051997E+04  0.46999998093E+01 0. -1.
</event>
<event>
 5   0  0.1121462E-08  0.3502157E+04  0.7818609E-02  0.8113279E-01
       -1   -1    0    0    0  501  0.00000000000E+00  0.00000000000E+00  0.11832167050E+04  0.11832167050E+04  0.50400001928E-02 0. -1.
        1   -1    0    0  501    0  0.00000000000E+00  0.00000000000E+00 -0.25914744567E+04  0.25914744567E+04  0.50400001928E-02 0.  1.
    10030    2    1    2    0    0  0.00000000000E+00  0.00000000000E+00 -0.14082577517E+04  0.37746911617E+04  0.35021569740E+04 0.  0.
        1    1    3    3  502    0  0.32716426239E+03  0.17124444079E+04 -0.52776935890E+03  0.18215495604E+04  0.50400001928E-02 0. -1.
       -1    1    3    3    0  502 -0.32716426239E+03 -0.17124444079E+04 -0.88048839284E+03  0.19531416013E+04  0.50400001928E-02 0.  1.
</event>
<event>
 5   0  0.1129219E-08  0.3500086E+04  0.7818609E-02  0.8113770E-01
       -1   -1    0    0    0  501  0.00000000000E+00  0.00000000000E+00  0.25922984535E+04  0.25922984535E+04  0.50400001928E-02 0.  1.
        1   -1    0    0  501    0  0.00000000000E+00  0.00000000000E+00 -0.11814421654E+04  0.11814421654E+04  0.50400001928E-02 0. -1.
    10030    2    1    2    0    0  0.00000000000E+00  0.00000000000E+00  0.14108562881E+04  0.37737406189E+04  0.35000861122E+04 0.  0.
        5    1    3    3  502    0 -0.73611123727E+03 -0.15785925329E+04  0.88844817860E+03  0.19552944521E+04  0.46999998093E+01 0.  1.
       -5    1    3    3    0  502  0.73611123727E+03  0.15785925329E+04  0.52240810955E+03  0.18184461668E+04  0.46999998093E+01 0. -1.
</event>
<event>
 5   0  0.3553585E-08  0.3497365E+04  0.7818609E-02  0.8114415E-01
       -2   -1    0    0    0  501  0.00000000000E+00  0.00000000000E+00  0.12222648259E+04  0.12222648259E+04  0.25500000920E-02 0.  1.
        2   -1    0    0  501    0  0.00000000000E+00  0.00000000000E+00 -0.25018237328E+04  0.25018237328E+04  0.25500000920E-02 0. -1.
    10030    2    1    2    0    0  0.00000000000E+00  0.00000000000E+00 -0.12795589069E+04  0.37240885588E+04  0.34973653794E+04 0.  0.
        2    1    3    3  502    0  0.14066426911E+04  0.33254606098E+03 -0.16877879711E+04  0.22221293343E+04  0.25500000920E-02 0. -1.
       -2    1    3    3    0  502 -0.14066426911E+04 -0.33254606098E+03  0.40822906423E+03  0.15019592244E+04  0.25500000920E-02 0.  1.
</event>
<event>
 5   0  0.1121462E-08  0.3499978E+04  0.7818609E-02  0.8113795E-01
        1   -1    0    0  501    0  0.00000000000E+00  0.00000000000E+00  0.23516328500E+04  0.23516328500E+04  0.50400001928E-02 0.  1.
       -1   -1    0    0    0  501  0.00000000000E+00  0.00000000000E+00 -0.13022704111E+04  0.13022704111E+04  0.50400001928E-02 0. -1.
    10030    2    1    2    0    0  0.00000000000E+00  0.00000000000E+00  0.10493624388E+04  0.36539032611E+04  0.34999782161E+04 0.  0.
        1    1    3    3  502    0  0.14499039104E+04 -0.96694940288E+03  0.35879241669E+03  0.17793101178E+04  0.50400001928E-02 0.  1.
       -1    1    3    3    0  502 -0.14499039104E+04  0.96694940288E+03  0.69057002215E+03  0.18745931432E+04  0.50400001928E-02 0. -1.
</event>
<event>
 5   0  0.1121462E-08  0.3500031E+04  0.7818609E-02  0.8113783E-01
        1   -1    0    0  501    0  0.00000000000E+00  0.00000000000E+00  0.12867249522E+04  0.12867249522E+04  0.50400001928E-02 0. -1.
       -1   -1    0    0    0  501  0.00000000000E+00  0.00000000000E+00 -0.23801152199E+04  0.23801152199E+04  0.50400001928E-02 0.  1.
    10030    2    1    2    0    0  0.00000000000E+00  0.00000000000E+00 -0.10933902677E+04  0.36668401722E+04  0.35000306528E+04 0.  0.
        2    1    3    3  502    0 -0.17258664887E+04  0.11519198313E+03 -0.26818848548E+03  0.17503740725E+04  0.25500000920E-02 0. -1.
       -2    1    3    3    0  502  0.17258664887E+04 -0.11519198313E+03 -0.82520178220E+03  0.19164660997E+04  0.25500000920E-02 0.  1.
</event>
<event>
 5   0  0.3554451E-08  0.3501602E+04  0.7818609E-02  0.8113410E-01
        2   -1    0    0  501    0  0.00000000000E+00  0.00000000000E+00  0.15944439371E+04  0.15944439371E+04  0.25500000920E-02 0.  1.
       -2   -1    0    0    0  501  0.00000000000E+00  0.00000000000E+00 -0.19224913931E+04  0.19224913931E+04  0.25500000920E-02 0. -1.
    10030    2    1    2    0    0  0.00000000000E+00  0.00000000000E+00 -0.32804745604E+03  0.35169353303E+04  0.35016023452E+04 0.  0.
        5    1    3    3  502    0  0.13936602844E+04 -0.48045926649E+02  0.89923605500E+03  0.16592905026E+04  0.46999998093E+01 0.  1.
       -5    1    3    3    0  502 -0.13936602844E+04  0.48045926649E+02 -0.12272835110E+04  0.18576448277E+04  0.46999998093E+01 0. -1.
</event>
<event>
 5   0  0.3700096E-08  0.3499910E+04  0.7818609E-02  0.8113811E-01
        2   -1    0    0  501    0  0.00000000000E+00  0.00000000000E+00  0.20703793115E+04  0.20703793115E+04  0.25500000920E-02 0. -1.
       -2   -1    0    0    0  501  0.00000000000E+00  0.00000000000E+00 -0.14791215845E+04  0.14791215845E+04  0.25500000920E-02 0.  1.
    10030    2    1    2    0    0  0.00000000000E+00  0.00000000000E+00  0.59125772697E+03  0.35495008960E+04  0.34999101290E+04 0.  0.
        4    1    3    3  502    0 -0.51550410800E+03 -0.16602906254E+04  0.92714755217E+02  0.17409500524E+04  0.12699999809E+01 0.  1.
       -4    1    3    3    0  502  0.51550410800E+03  0.16602906254E+04  0.49854297175E+03  0.18085508436E+04  0.12699999809E+01 0. -1.
</event>
<event>
 5   0  0.1121462E-08  0.3499159E+04  0.7818609E-02  0.8113989E-01
       -1   -1    0    0    0  501  0.00000000000E+00  0.00000000000E+00  0.29110094213E+04  0.29110094213E+04  0.50400001928E-02 0.  1.
        1   -1    0    0  501    0  0.00000000000E+00  0.00000000000E+00 -0.10515349361E+04  0.10515349361E+04  0.50400001928E-02 0. -1.
    10030    2    1    2    0    0  0.00000000000E+00  0.00000000000E+00  0.18594744852E+04  0.39625443575E+04  0.34991588166E+04 0.  0.
        2    1    3    3  502    0 -0.15795558387E+04 -0.68187183588E+03  0.12897749184E+04  0.21502244507E+04  0.25500000920E-02 0. -1.
       -2    1    3    3    0  502  0.15795558387E+04  0.68187183588E+03  0.56969956678E+03  0.18123199068E+04  0.25500000920E-02 0.  1.
</event>
<event>
 5   0  0.1140808E-08  0.3500489E+04  0.7818609E-02  0.8113674E-01
       -1   -1    0    0    0  501  0.00000000000E+00  0.00000000000E+00  0.27182602904E+04  0.27182602904E+04  0.50400001928E-02 0.  1.
        1   -1    0    0  501    0  0.00000000000E+00  0.00000000000E+00 -0.11269546525E+04  0.11269546525E+04  0.50400001928E-02 0. -1.
    10030    2    1    2    0    0  0.00000000000E+00  0.00000000000E+00  0.15913056379E+04  0.38452149428E+04  0.35004891549E+04 0.  0.
        3    1    3    3  502    0  0.11341026698E+04  0.33041207229E+03 -0.62304292506E+03  0.13354937289E+04  0.10100000352E+00 0. -1.
       -3    1    3    3    0  502 -0.11341026698E+04 -0.33041207229E+03  0.22143485630E+04  0.25097212140E+04  0.10100000352E+00 0.  1.
</event>
<event>
 5   0  0.1121462E-08  0.3502091E+04  0.7818609E-02  0.8113295E-01
       -1   -1    0    0    0  501  0.00000000000E+00  0.00000000000E+00  0.23911584570E+04  0.23911584570E+04  0.50400001928E-02 0.  1.
        1   -1    0    0  501    0  0.00000000000E+00  0.00000000000E+00 -0.12822904885E+04  0.12822904885E+04  0.50400001928E-02 0. -1.
    10030    2    1    2    0    0  0.00000000000E+00  0.00000000000E+00  0.11088679685E+04  0.36734489455E+04  0.35020906589E+04 0.  0.
        2    1    3    3  502    0  0.10962832329E+03  0.67200697710E+02  0.23861994833E+04  0.23896615403E+04  0.25500000920E-02 0.  1.
       -2    1    3    3    0  502 -0.10962832329E+03 -0.67200697710E+02 -0.12773315148E+04  0.12837874052E+04  0.25500000920E-02 0. -1.
</event>
<event>
 5   0  0.3467834E-08  0.3500164E+04  0.7818609E-02  0.8113751E-01
       -2   -1    0    0    0  501  0.00000000000E+00  0.00000000000E+00  0.13785917713E+04  0.13785917713E+04  0.25500000920E-02 0. -1.
        2   -1    0    0  501    0  0.00000000000E+00  0.00000000000E+00 -0.22216779239E+04  0.22216779239E+04  0.25500000920E-02 0.  1.
    10030    2    1    2    0    0  0.00000000000E+00  0.00000000000E+00 -0.84308615265E+03  0.36002696952E+04  0.35001639415E+04 0.  0.
        3    1    3    3  502    0 -0.57453131516E+03 -0.69941010544E+03 -0.19622222714E+04  0.21609204012E+04  0.10100000352E+00 0.  1.
       -3    1    3    3    0  502  0.57453131516E+03  0.69941010544E+03  0.11191361187E+04  0.14393492940E+04  0.10100000352E+00 0. -1.
</event>
<event>
 5   0  0.1121462E-08  0.3499314E+04  0.7818609E-02  0.8113952E-01
        3   -1    0    0  501    0  0.00000000000E+00  0.00000000000E+00  0.19707097049E+04  0.19707097075E+04  0.10100000352E+00 0. -1.
       -3   -1    0    0    0  501  0.00000000000E+00  0.00000000000E+00 -0.15533999436E+04  0.15533999469E+04  0.10100000352E+00 0.  1.
    10030    2    1    2    0    0  0.00000000000E+00  0.00000000000E+00  0.41730976131E+03  0.35241096545E+04  0.34993144214E+04 0.  0.
        3    1    3    3  502    0 -0.14414143918E+04 -0.53245093646E+03 -0.63400625947E+03  0.16622705544E+04  0.10100000352E+00 0.  1.
       -3    1    3    3    0  502  0.14414143918E+04  0.53245093646E+03  0.10513160208E+04  0.18618391001E+04  0.10100000352E+00 0. -1.
</event>
<event>
 5   0  0.1121462E-08  0.3499243E+04  0.7818609E-02  0.8113969E-01
       -1   -1    0    0    0  501  0.00000000000E+00  0.00000000000E+00  0.10945541454E+04  0.10945541454E+04  0.50400001928E-02 0.  1.
        1   -1    0    0  501    0  0.00000000000E+00  0.00000000000E+00 -0.27967327000E+04  0.27967327000E+04  0.50400001928E-02 0. -1.
    10030    2    1    2    0    0  0.00000000000E+00  0.00000000000E+00 -0.17021785546E+04  0.38912868453E+04  0.34992429868E+04 0.  0.
        4    1    3    3  502    0  0.12854743769E+04 -0.24076538730E+03  0.44134500027E+03  0.13802895955E+04  0.12699999809E+01 0.  1.
       -4    1    3    3    0  502 -0.12854743769E+04  0.24076538730E+03 -0.21435235549E+04  0.25109972498E+04  0.12699999809E+01 0. -1.
</event>
<event>
 5   0  0.1140808E-08  0.3500038E+04  0.7818609E-02  0.8113781E-01
       -1   -1    0    0    0  501  0.00000000000E+00  0.00000000000E+00  0.24287566647E+04  0.24287566647E+04  0.50400001928E-02 0.  1.
        1   -1    0    0  501    0  0.00000000000E+00  0.00000000000E+00 -0.12609605780E+04  0.12609605780E+04  0.50400001928E-02 0. -1.
    10030    2    1    2    0    0  0.00000000000E+00  0.00000000000E+00  0.11677960867E+04  0.36897172427E+04  0.35000379470E+04 0.  0.
        3    1    3    3  502    0 -0.80220689413E+03  0.14326935098E+04  0.12220289827E+04  0.20468271638E+04  0.10100000352E+00 0. -1.
       -3    1    3    3    0  502  0.80220689413E+03 -0.14326935098E+04 -0.54232895976E+02  0.16428900788E+04  0.10100000352E+00 0.  1.
</event>
<event>
 5   0  0.3628017E-08  0.3499944E+04  0.7818609E-02  0.8113803E-01
        2   -1    0    0  501    0  0.00000000000E+00  0.00000000000E+00  0.31592343451E+04  0.31592343451E+04  0.25500000920E-02 0.  1.
       -2   -1    0    0    0  501  0.00000000000E+00  0.00000000000E+00 -0.96934926650E+03  0.96934926650E+03  0.25500000920E-02 0. -1.
    10030    2    1    2    0    0  0.00000000000E+00  0.00000000000E+00  0.21898850786E+04  0.41285836116E+04  0.34999437110E+04 0.  0.
        1    1    3    3  502    0 -0.61563968881E+00 -0.52758104650E+03 -0.87330297172E+03  0.10202941831E+04  0.50400001928E-02 0. -1.
       -1    1    3    3    0  502  0.61563968881E+00  0.52758104650E+03  0.30631880503E+04  0.31082894285E+04  0.50400001928E-02 0.  1.
</event>
<event>
 5   0  0.1121462E-08  0.3498833E+04  0.7818609E-02  0.8114067E-01
        1   -1    0    0  501    0  0.00000000000E+00  0.00000000000E+00  0.21998442210E+04  0.21998442210E+04  0.50400001928E-02 0.  1.
       -1   -1    0    0    0  501  0.00000000000E+00  0.00000000000E+00 -0.13912156291E+04  0.13912156292E+04  0.50400001928E-02 0. -1.
    10030    2    1    2    0    0  0.00000000000E+00  0.00000000000E+00  0.80862859190E+03  0.35910598502E+04  0.34988327551E+04 0.  0.
        1    1    3    3  502    0  0.10049995902E+04 -0.13741529297E+04 -0.89622979583E+01  0.17024690227E+04  0.50400001928E-02 0. -1.
       -1    1    3    3    0  502 -0.10049995902E+04  0.13741529297E+04  0.81759088985E+03  0.18885908275E+04  0.50400001928E-02 0.  1.
</event>
<event>
 5   0  0.3467834E-08  0.3507864E+04  0.7818609E-02  0.8111929E-01
        2   -1    0    0  501    0  0.00000000000E+00  0.00000000000E+00  0.19914298677E+04  0.19914298677E+04  0.25500000920E-02 0.  1.
       -2   -1    0    0    0  501  0.00000000000E+00  0.00000000000E+00 -0.15447577484E+04  0.15447577484E+04  0.25500000920E-02 0. -1.
    10030    2    1    2    0    0  0.00000000000E+00  0.00000000000E+00  0.44667211936E+03  0.35361876161E+04  0.35078635769E+04 0.  0.
        3    1    3    3  502    0 -0.77376283423E+03  0.10093958600E+04  0.14408495348E+04  0.19218835340E+04  0.10100000352E+00 0.  1.
       -3    1    3    3    0  502  0.77376283423E+03 -0.10093958600E+04 -0.99417741549E+03  0.16143040821E+04  0.10100000352E+00 0. -1.
</event>
<event>
 5   0  0.3467834E-08  0.3501216E+04  0.7818609E-02  0.8113502E-01
        2   -1    0    0  501    0  0.00000000000E+00  0.00000000000E+00  0.19923365093E+04  0.19923365094E+04  0.25500000920E-02 0.  1.
       -2   -1    0    0    0  501  0.00000000000E+00  0.00000000000E+00 -0.15382083194E+04  0.15382083194E+04  0.25500000920E-02 0. -1.
    10030    2    1    2    0    0  0.00000000000E+00  0.00000000000E+00  0.45412818999E+03  0.35305448287E+04  0.35012161280E+04 0.  0.
        3    1    3    3  502    0 -0.11125862508E+04  0.13515794314E+04  0.22336478365E+03  0.17647965780E+04  0.10100000352E+00 0.  1.
       -3    1    3    3    0  502  0.11125862508E+04 -0.13515794314E+04  0.23076340634E+03  0.17657482507E+04  0.10100000352E+00 0. -1.
</event>
<event>
 5   0  0.3700096E-08  0.3499863E+04  0.7818609E-02  0.8113822E-01
        2   -1    0    0  501    0  0.00000000000E+00  0.00000000000E+00  0.25782137713E+04  0.25782137713E+04  0.25500000920E-02 0.  1.
       -2   -1    0    0    0  501  0.00000000000E+00  0.00000000000E+00 -0.11877449552E+04  0.11877449552E+04  0.25500000920E-02 0. -1.
    10030    2    1    2    0    0  0.00000000000E+00  0.00000000000E+00  0.13904688161E+04  0.37659587265E+04  0.34998630832E+04 0.  0.
        4    1    3    3  502    0 -0.54492933446E+03  0.22826769988E+03  0.24676508851E+04  0.25373916974E+04  0.12699999809E+01 0.  1.
       -4    1    3    3    0  502  0.54492933446E+03 -0.22826769988E+03 -0.10771820690E+04  0.12285670291E+04  0.12699999809E+01 0. -1.
</event>
<event>
 5   0  0.1129219E-08  0.3503045E+04  0.7818609E-02  0.8113069E-01
       -1   -1    0    0    0  501  0.00000000000E+00  0.00000000000E+00  0.13108810092E+04  0.13108810093E+04  0.50400001928E-02 0.  1.
        1   -1    0    0  501    0  0.00000000000E+00  0.00000000000E+00 -0.23402822573E+04  0.23402822573E+04  0.50400001928E-02 0. -1.
    10030    2    1    2    0    0  0.00000000000E+00  0.00000000000E+00 -0.10294012480E+04  0.36511632665E+04  0.35030452851E+04 0.  0.
        5    1    3    3  502    0  0.10856089825E+04  0.17040212811E+03  0.90686962295E+03  0.14247871249E+04  0.46999998093E+01 0.  1.
       -5    1    3    3    0  502 -0.10856089825E+04 -0.17040212811E+03 -0.19362708710E+04  0.22263761416E+04  0.46999998093E+01 0. -1.
</event>
<event>
 5   0  0.3700096E-08  0.3503069E+04  0.7818609E-02  0.8113063E-01
        2   -1    0    0  501    0  0.00000000000E+00  0.00000000000E+00  0.18376231433E+04  0.18376231433E+04  0.25500000920E-02 0.  1.
       -2   -1    0    0    0  501  0.00000000000E+00  0.00000000000E+00 -0.16694790856E+04  0.16694790856E+04  0.25500000920E-02 0. -1.
    10030    2    1    2    0    0  0.00000000000E+00  0.00000000000E+00  0.16814405772E+03  0.35071022290E+04  0.35030691715E+04 0.  0.
        4    1    3    3  502    0 -0.12036268847E+04  0.98979271203E+03  0.88465792118E+03  0.17919343014E+04  0.12699999809E+01 0.  1.
       -4    1    3    3    0  502  0.12036268847E+04 -0.98979271203E+03 -0.71651386346E+03  0.17151679275E+04  0.12699999809E+01 0. -1.
</event>
<event>
 5   0  0.1129219E-08  0.3500651E+04  0.7818609E-02  0.8113636E-01
        1   -1    0    0  501    0  0.00000000000E+00  0.00000000000E+00  0.21085994309E+04  0.21085994309E+04  0.50400001928E-02 0.  1.
       -1   -1    0    0    0  501  0.00000000000E+00  0.00000000000E+00 -0.14529261623E+04  0.14529261623E+04  0.50400001928E-02 0. -1.
    10030    2    1    2    0    0  0.00000000000E+00  0.00000000000E+00  0.65567326865E+03  0.35615255932E+04  0.35006509560E+04 0.  0.
        5    1    3    3  502    0 -0.18257095949E+03 -0.82643699943E+02 -0.14412089250E+04  0.14550832938E+04  0.46999998093E+01 0. -1.
       -5    1    3    3    0  502  0.18257095949E+03  0.82643699943E+02  0.20968821937E+04  0.21064422994E+04  0.46999998093E+01 0.  1.
</event>
<event>
 5   0  0.3628017E-08  0.3500490E+04  0.7818609E-02  0.8113674E-01
       -2   -1    0    0    0  501  0.00000000000E+00  0.00000000000E+00  0.11815881380E+04  0.11815881380E+04  0.25500000920E-02 0.  1.
        2   -1    0    0  501    0  0.00000000000E+00  0.00000000000E+00 -0.25925765975E+04  0.25925765975E+04  0.25500000920E-02 0. -1.
    10030    2    1    2    0    0  0.00000000000E+00  0.00000000000E+00 -0.14109884594E+04  0.37741647355E+04  0.35004901111E+04 0.  0.
        1    1    3    3  502    0  0.17169642101E+04 -0.50059209478E+02 -0.10677468390E+04  0.20225121348E+04  0.50400001928E-02 0. -1.
       -1    1    3    3    0  502 -0.17169642101E+04  0.50059209478E+02 -0.34324162044E+03  0.17516526007E+04  0.50400001928E-02 0.  1.
</event>
<event>
 5   0  0.1121462E-08  0.3514994E+04  0.7818609E-02  0.8110246E-01
       -1   -1    0    0    0  501  0.00000000000E+00  0.00000000000E+00  0.16866722425E+04  0.16866722425E+04  0.50400001928E-02 0.  1.
        1   -1    0    0  501    0  0.00000000000E+00  0.00000000000E+00 -0.18312954781E+04  0.18312954781E+04  0.50400001928E-02 0. -1.
    10030    2    1    2    0    0  0.00000000000E+00  0.00000000000E+00 -0.14462323558E+03  0.35179677206E+04  0.35149937416E+04 0.  0.
        2    1    3    3  502    0  0.15057763510E+04  0.58672105208E+03  0.61906314867E+03  0.17305615257E+04  0.25500000920E-02 0.  1.
       -2    1    3    3    0  502 -0.15057763510E+04 -0.58672105208E+03 -0.76368638425E+03  0.17874061949E+04  0.25500000920E-02 0. -1.
</event>
<event>
 5   0  0.3554451E-08  0.3499080E+04  0.7818609E-02  0.8114008E-01
        2   -1    0    0  501    0  0.00000000000E+00  0.00000000000E+00  0.17857606628E+04  0.17857606628E+04  0.25500000920E-02 0. -1.
       -2   -1    0    0    0  501  0.00000000000E+00  0.00000000000E+00 -0.17140540131E+04  0.17140540131E+04  0.25500000920E-02 0.  1.
    10030    2    1    2    0    0  0.00000000000E+00  0.00000000000E+00  0.71706649727E+02  0.34998146758E+04  0.34990800108E+04 0.  0.
        5    1    3    3  502    0 -0.17237003272E+04  0.31276177454E+02 -0.26211377670E+03  0.17438023796E+04  0.46999998093E+01 0. -1.
       -5    1    3    3    0  502  0.17237003272E+04 -0.31276177454E+02  0.33382042642E+03  0.17560122962E+04  0.46999998093E+01 0.  1.
</event>
<event>
 5   0  0.1140808E-08  0.3499985E+04  0.7818609E-02  0.8113793E-01
        1   -1    0    0  501    0  0.00000000000E+00  0.00000000000E+00  0.32828093174E+04  0.32828093174E+04  0.50400001928E-02 0.  1.
       -1   -1    0    0    0  501  0.00000000000E+00  0.00000000000E+00 -0.93288214396E+03  0.93288214398E+03  0.50400001928E-02 0. -1.
    10030    2    1    2    0    0  0.00000000000E+00  0.00000000000E+00  0.23499271734E+04  0.42156914614E+04  0.34999852538E+04 0.  0.
        3    1    3    3  502    0 -0.82180262773E+03 -0.87865868614E+03  0.27056941528E+04  0.29611115319E+04  0.10100000352E+00 0.  1.
       -3    1    3    3    0  502  0.82180262773E+03  0.87865868614E+03 -0.35576697935E+03  0.12545799295E+04  0.10100000352E+00 0. -1.
</event>
<event>
 5   0  0.1140808E-08  0.3499681E+04  0.7818609E-02  0.8113866E-01
        1   -1    0    0  501    0  0.00000000000E+00  0.00000000000E+00  0.24969086452E+04  0.24969086452E+04  0.50400001928E-02 0. -1.
       -1   -1    0    0    0  501  0.00000000000E+00  0.00000000000E+00 -0.12262927737E+04  0.12262927737E+04  0.50400001928E-02 0.  1.
    10030    2    1    2    0    0  0.00000000000E+00  0.00000000000E+00  0.12706158715E+04  0.37232014189E+04  0.34996805730E+04 0.  0.
        3    1    3    3  502    0  0.91255762257E+03 -0.56369514222E+03 -0.83553746644E+03  0.13596457244E+04  0.10100000352E+00 0.  1.
       -3    1    3    3    0  502 -0.91255762257E+03  0.56369514222E+03  0.21061533380E+04  0.23635556945E+04  0.10100000352E+00 0. -1.
</event>
<event>
 5   0  0.1140808E-08  0.3496640E+04  0.7818609E-02  0.8114587E-01
        1   -1    0    0  501    0  0.00000000000E+00  0.00000000000E+00  0.24076637998E+04  0.24076637998E+04  0.50400001928E-02 0.  1.
       -1   -1    0    0    0  501  0.00000000000E+00  0.00000000000E+00 -0.12695392482E+04  0.12695392482E+04  0.50400001928E-02 0. -1.
    10030    2    1    2    0    0  0.00000000000E+00  0.00000000000E+00  0.11381245515E+04  0.36772030480E+04  0.34966404964E+04 0.  0.
        3    1    3    3  502    0 -0.18512989085E+03 -0.12013626026E+03 -0.12548318147E+04  0.12740913197E+04  0.10100000352E+00 0. -1.
       -3    1    3    3    0  502  0.18512989085E+03  0.12013626026E+03  0.23929563663E+04  0.24031117283E+04  0.10100000352E+00 0.  1.
</event>
<event>
 5   0  0.1121462E-08  0.3498602E+04  0.7818609E-02  0.8114121E-01
        1   -1    0    0  501    0  0.00000000000E+00  0.00000000000E+00  0.17293696520E+04  0.17293696520E+04  0.50400001928E-02 0. -1.
       -1   -1    0    0    0  501  0.00000000000E+00  0.00000000000E+00 -0.17694623613E+04  0.17694623613E+04  0.50400001928E-02 0.  1.
    10030    2    1    2    0    0  0.00000000000E+00  0.00000000000E+00 -0.40092709275E+02  0.34988320133E+04  0.34986022969E+04 0.  0.
        4    1    3    3  502    0  0.11911297065E+04 -0.11256388240E+04  0.59171282710E+03  0.17424059293E+04  0.12699999809E+01 0.  1.
       -4    1    3    3    0  502 -0.11911297065E+04  0.11256388240E+04 -0.63180553637E+03  0.17564260840E+04  0.12699999809E+01 0. -1.
</event>
<event>
 5   0  0.1129219E-08  0.3499599E+04  0.7818609E-02  0.8113885E-01
        1   -1    0    0  501    0  0.00000000000E+00  0.00000000000E+00  0.19672289399E+04  0.19672289399E+04  0.50400001928E-02 0. -1.
       -1   -1    0    0    0  501  0.00000000000E+00  0.00000000000E+00 -0.15564020462E+04  0.15564020463E+04  0.50400001928E-02 0.  1.
    10030    2    1    2    0    0  0.00000000000E+00  0.00000000000E+00  0.41082689362E+03  0.35236309861E+04  0.34995994899E+04 0.  0.
        5    1    3    3  502    0  0.14855930648E+04  0.46004846776E+03 -0.60205723866E+03  0.16676709374E+04  0.46999998093E+01 0.  1.
       -5    1    3    3    0  502 -0.14855930648E+04 -0.46004846776E+03  0.10128841323E+04  0.18559600487E+04  0.46999998093E+01 0. -1.
</event>
<event>
 5   0  0.3554451E-08  0.3498237E+04  0.7818609E-02  0.8114208E-01
       -2   -1    0    0    0  501  0.00000000000E+00  0.00000000000E+00  0.14794409121E+04  0.14794409121E+04  0.25500000920E-02 0.  1.
        2   -1    0    0  501    0  0.00000000000E+00  0.00000000000E+00 -0.20679540468E+04  0.20679540468E+04  0.25500000920E-02 0. -1.
    10030    2    1    2    0    0  0.00000000000E+00  0.00000000000E+00 -0.58851313466E+03  0.35473949589E+04  0.34982371682E+04 0.  0.
        5    1    3    3  502    0  0.55999864643E+03  0.86048611504E+03 -0.17302628794E+04  0.20119310525E+04  0.46999998093E+01 0. -1.
       -5    1    3    3    0  502 -0.55999864643E+03 -0.86048611504E+03  0.11417497448E+04  0.15354639064E+04  0.46999998093E+01 0.  1.
</event>
<event>
 5   0  0.1121462E-08  0.3499408E+04  0.7818609E-02  0.8113930E-01
        3   -1    0    0  501    0  0.00000000000E+00  0.00000000000E+00  0.18180356530E+04  0.18180356558E+04  0.10100000352E+00 0. -1.
       -3   -1    0    0    0  501  0.00000000000E+00  0.00000000000E+00 -0.16839408165E+04  0.16839408195E+04  0.10100000352E+00 0.  1.
    10030    2    1    2    0    0  0.00000000000E+00  0.00000000000E+00  0.13409483651E+03  0.35019764754E+04  0.34994082084E+04 0.  0.
        1    1    3    3  502    0  0.12085858642E+04 -0.74807234524E+03  0.10881748596E+04  0.17900884196E+04  0.50400001928E-02 0. -1.
       -1    1    3    3    0  502 -0.12085858642E+04  0.74807234524E+03 -0.95408002311E+03  0.17118880557E+04  0.50400001928E-02 0.  1.
</event>
<event>
 5   0  0.3628017E-08  0.3499974E+04  0.7818609E-02  0.8113796E-01
        2   -1    0    0  501    0  0.00000000000E+00  0.00000000000E+00  0.23505161159E+04  0.23505161159E+04  0.25500000920E-02 0. -1.
       -2   -1    0    0    0  501  0.00000000000E+00  0.00000000000E+00 -0.13028859140E+04  0.13028859140E+04  0.25500000920E-02 0.  1.
    10030    2    1    2    0    0  0.00000000000E+00  0.00000000000E+00  0.10476302019E+04  0.36534020299E+04  0.34999739073E+04 0.  0.
        1    1    3    3  502    0  0.19831100610E+03  0.15454462050E+04  0.13554348892E+04  0.20651718976E+04  0.50400001928E-02 0. -1.
       -1    1    3    3    0  502 -0.19831100610E+03 -0.15454462050E+04 -0.30780468730E+03  0.15882301323E+04  0.50400001928E-02 0.  1.
</event>
<event>
 5   0  0.1121462E-08  0.3498176E+04  0.7818609E-02  0.8114222E-01
        1   -1    0    0  501    0  0.00000000000E+00  0.00000000000E+00  0.21763129976E+04  0.21763129976E+04  0.50400001928E-02 0.  1.
       -1   -1    0    0    0  501  0.00000000000E+00  0.00000000000E+00 -0.14057303985E+04  0.14057303985E+04  0.50400001928E-02 0. -1.
    10030    2    1    2    0    0  0.00000000000E+00  0.00000000000E+00  0.77058259913E+03  0.35820433961E+04  0.34981762890E+04 0.  0.
        1    1    3    3  502    0 -0.66218096117E+03 -0.16071661970E+04  0.18609594021E+03  0.17481700458E+04  0.50400001928E-02 0. -1.
       -1    1    3    3    0  502  0.66218096117E+03  0.16071661970E+04  0.58448665892E+03  0.18338733502E+04  0.50400001928E-02 0.  1.
</event>
<event>
 5   0  0.3700096E-08  0.3504552E+04  0.7818609E-02  0.8112712E-01
        2   -1    0    0  501    0  0.00000000000E+00  0.00000000000E+00  0.13939433654E+04  0.13939433654E+04  0.25500000920E-02 0.  1.
       -2   -1    0    0    0  501  0.00000000000E+00  0.00000000000E+00 -0.22027233283E+04  0.22027233283E+04  0.25500000920E-02 0. -1.
    10030    2    1    2    0    0  0.00000000000E+00  0.00000000000E+00 -0.80877996287E+03  0.35966666938E+04  0.35045522221E+04 0.  0.
        4    1    3    3  502    0 -0.11302715829E+04  0.50471164692E+03  0.86845994888E+03  0.15121084595E+04  0.12699999809E+01 0.  1.
       -4    1    3    3    0  502  0.11302715829E+04 -0.50471164692E+03 -0.16772399118E+04  0.20845582343E+04  0.12699999809E+01 0. -1.
</event>
<event>
 5   0  0.3467834E-08  0.3499454E+04  0.7818609E-02  0.8113919E-01
       -2   -1    0    0    0  501  0.00000000000E+00  0.00000000000E+00  0.18201135278E+04  0.18201135278E+04  0.25500000920E-02 0.  1.
        2   -1    0    0  501    0  0.00000000000E+00  0.00000000000E+00 -0.16820627881E+04  0.16820627881E+04  0.25500000920E-02 0. -1.
    10030    2    1    2    0    0  0.00000000000E+00  0.00000000000E+00  0.13805073973E+03  0.35021763159E+04  0.34994543776E+04 0.  0.
        3    1    3    3  502    0  0.16054861804E+04  0.68813815601E+03 -0.33158053624E+02  0.17470602347E+04  0.10100000352E+00 0. -1.
       -3    1    3    3    0  502 -0.16054861804E+04 -0.68813815601E+03  0.17120879335E+03  0.17551160811E+04  0.10100000352E+00 0.  1.
</event>
<event>
 5   0  0.1140808E-08  0.3500429E+04  0.7818609E-02  0.8113688E-01
       -1   -1    0    0    0  501  0.00000000000E+00  0.00000000000E+00  0.13609180881E+04  0.13609180881E+04  0.50400001928E-02 0. -1.
        1   -1    0    0  501    0  0.00000000000E+00  0.00000000000E+00 -0.22508713006E+04  0.22508713006E+04  0.50400001928E-02 0.  1.
    10030    2    1    2    0    0  0.00000000000E+00  0.00000000000E+00 -0.88995321246E+03  0.36117893887E+04  0.35004293834E+04 0.  0.
        3    1    3    3  502    0  0.45773816643E+03 -0.59957247305E+03 -0.20745361104E+04  0.22074219041E+04  0.10100000352E+00 0.  1.
       -3    1    3    3    0  502 -0.45773816643E+03  0.59957247305E+03  0.11845828979E+04  0.14043674846E+04  0.10100000352E+00 0. -1.
</event>
<event>
 5   0  0.1129219E-08  0.3498890E+04  0.7818609E-02  0.8114053E-01
        1   -1    0    0  501    0  0.00000000000E+00  0.00000000000E+00  0.23987153767E+04  0.23987153768E+04  0.50400001928E-02 0.  1.
       -1   -1    0    0    0  501  0.00000000000E+00  0.00000000000E+00 -0.12759155711E+04  0.12759155711E+04  0.50400001928E-02 0. -1.
    10030    2    1    2    0    0  0.00000000000E+00  0.00000000000E+00  0.11227998057E+04  0.36746309478E+04  0.34988902811E+04 0.  0.
        5    1    3    3  502    0 -0.56007672634E+03 -0.45291296089E+03 -0.11129540345E+04  0.13257091923E+04  0.46999998093E+01 0. -1.
       -5    1    3    3    0  502  0.56007672634E+03  0.45291296089E+03  0.22357538402E+04  0.23489217555E+04  0.46999998093E+01 0.  1.
</event>
<event>
 5   0  0.1121462E-08  0.3500695E+04  0.7818609E-02  0.8113625E-01
        1   -1    0    0  501    0  0.00000000000E+00  0.00000000000E+00  0.19032421285E+04  0.19032421285E+04  0.50400001928E-02 0.  1.
       -1   -1    0    0    0  501  0.00000000000E+00  0.00000000000E+00 -0.16097353215E+04  0.16097353215E+04  0.50400001928E-02 0. -1.
    10030    2    1    2    0    0  0.00000000000E+00  0.00000000000E+00  0.29350680693E+03  0.35129774500E+04  0.35006948337E+04 0.  0.
        4    1    3    3  502    0 -0.67759232831E+03 -0.69117854100E+03  0.16102444949E+04  0.18787623813E+04  0.12699999809E+01 0.  1.
       -4    1    3    3    0  502  0.67759232831E+03  0.69117854100E+03 -0.13167376880E+04  0.16342150687E+04  0.12699999809E+01 0. -1.
</event>
<event>
 5   0  0.3554451E-08  0.3501667E+04  0.7818609E-02  0.8113395E-01
       -2   -1    0    0    0  501  0.00000000000E+00  0.00000000000E+00  0.13283663023E+04  0.13283663023E+04  0.25500000920E-02 0.  1.
        2   -1    0    0  501    0  0.00000000000E+00  0.00000000000E+00 -0.23076595388E+04  0.23076595388E+04  0.25500000920E-02 0. -1.
    10030    2    1    2    0    0  0.00000000000E+00  0.00000000000E+00 -0.97929323651E+03  0.36360258411E+04  0.35016665567E+04 0.  0.
        5    1    3    3  502    0  0.15505439408E+04  0.77912304643E+03 -0.24795865685E+03  0.17529189426E+04  0.46999998093E+01 0. -1.
       -5    1    3    3    0  502 -0.15505439408E+04 -0.77912304643E+03 -0.73133457967E+03  0.18831068985E+04  0.46999998093E+01 0.  1.
</event>
<event>
 5   0  0.3553585E-08  0.3500609E+04  0.7818609E-02  0.8113646E-01
        2   -1    0    0  501    0  0.00000000000E+00  0.00000000000E+00  0.17129501926E+04  0.17129501926E+04  0.25500000920E-02 0. -1.
       -2   -1    0    0    0  501  0.00000000000E+00  0.00000000000E+00 -0.17884732602E+04  0.17884732602E+04  0.25500000920E-02 0.  1.
    10030    2    1    2    0    0  0.00000000000E+00  0.00000000000E+00 -0.75523067667E+02  0.35014234528E+04  0.35006088702E+04 0.  0.
        2    1    3    3  502    0 -0.97597723903E+03 -0.14422705070E+04  0.13803438929E+03  0.17469199407E+04  0.25500000920E-02 0.  1.
       -2    1    3    3    0  502  0.97597723903E+03  0.14422705070E+04 -0.21355745695E+03  0.17545035121E+04  0.25500000920E-02 0. -1.
</event>
<event>
 5   0  0.3467834E-08  0.3503008E+04  0.7818609E-02  0.8113077E-01
       -2   -1    0    0    0  501  0.00000000000E+00  0.00000000000E+00  0.14612931796E+04  0.14612931796E+04  0.25500000920E-02 0.  1.
        2   -1    0    0  501    0  0.00000000000E+00  0.00000000000E+00 -0.20993501646E+04  0.20993501647E+04  0.25500000920E-02 0. -1.
    10030    2    1    2    0    0  0.00000000000E+00  0.00000000000E+00 -0.63805698504E+03  0.35606433443E+04  0.35030078945E+04 0.  0.
        3    1    3    3  502    0  0.55109889898E+03  0.10394507915E+04  0.99985543140E+03  0.15439814890E+04  0.10100000352E+00 0.  1.
       -3    1    3    3    0  502 -0.55109889898E+03 -0.10394507915E+04 -0.16379124164E+04  0.20166618553E+04  0.10100000352E+00 0. -1.
</event>
<event>
 5   0  0.3553585E-08  0.3500315E+04  0.7818609E-02  0.8113715E-01
        2   -1    0    0  501    0  0.00000000000E+00  0.00000000000E+00  0.12806859004E+04  0.12806859004E+04  0.25500000920E-02 0. -1.
       -2   -1    0    0    0  501  0.00000000000E+00  0.00000000000E+00 -0.23917277057E+04  0.23917277057E+04  0.25500000920E-02 0.  1.
    10030    2    1    2    0    0  0.00000000000E+00  0.00000000000E+00 -0.11110418053E+04  0.36724136061E+04  0.35003153860E+04 0.  0.
        2    1    3    3  502    0 -0.10877460250E+04  0.12896478037E+04 -0.67157761598E+02  0.16884587757E+04  0.25500000920E-02 0. -1.
       -2    1    3    3    0  502  0.10877460250E+04 -0.12896478037E+04 -0.10438840437E+04  0.19839548304E+04  0.25500000920E-02 0.  1.
</event>
<event>
 5   0  0.3467834E-08  0.3503699E+04  0.7818609E-02  0.8112914E-01
        2   -1    0    0  501    0  0.00000000000E+00  0.00000000000E+00  0.29798221494E+04  0.29798221494E+04  0.25500000920E-02 0.  1.
       -2   -1    0    0    0  501  0.00000000000E+00  0.00000000000E+00 -0.10299194714E+04  0.10299194714E+04  0.25500000920E-02 0. -1.
    10030    2    1    2    0    0  0.00000000000E+00  0.00000000000E+00  0.19499026780E+04  0.40097416208E+04  0.35036991041E+04 0.  0.
        3    1    3    3  502    0  0.35274502412E+03  0.66687960776E+03  0.27843901514E+04  0.28847852587E+04  0.10100000352E+00 0.  1.
       -3    1    3    3    0  502 -0.35274502412E+03 -0.66687960776E+03 -0.83448747339E+03  0.11249563621E+04  0.10100000352E+00 0. -1.
</event>
<event>
 5   0  0.3554451E-08  0.3496324E+04  0.7818609E-02  0.8114662E-01
       -2   -1    0    0    0  501  0.00000000000E+00  0.00000000000E+00  0.12307893991E+04  0.12307893991E+04  0.25500000920E-02 0. -1.
        2   -1    0    0  501    0  0.00000000000E+00  0.00000000000E+00 -0.24830168183E+04  0.24830168183E+04  0.25500000920E-02 0.  1.
    10030    2    1    2    0    0  0.00000000000E+00  0.00000000000E+00 -0.12522274192E+04  0.37138062173E+04  0.34963242285E+04 0.  0.
        5    1    3    3  502    0  0.12982220318E+04 -0.10417761445E+04 -0.11935436349E+04  0.20482300841E+04  0.46999998093E+01 0.  1.
       -5    1    3    3    0  502 -0.12982220318E+04  0.10417761445E+04 -0.58683784294E+02  0.16655761332E+04  0.46999998093E+01 0. -1.
</event>
<event>
 5   0  0.3700096E-08  0.3500687E+04  0.7818609E-02  0.8113627E-01
       -2   -1    0    0    0  501  0.00000000000E+00  0.00000000000E+00  0.94913932112E+03  0.94913932112E+03  0.25500000920E-02 0.  1.
        2   -1    0    0  501    0  0.00000000000E+00  0.00000000000E+00 -0.32278739698E+04  0.32278739698E+04  0.25500000920E-02 0. -1.
    10030    2    1    2    0    0  0.00000000000E+00  0.00000000000E+00 -0.22787346486E+04  0.41770132909E+04  0.35006868516E+04 0.  0.
        4    1    3    3  502    0  0.14520266014E+03 -0.15937241868E+04 -0.19853271007E+04  0.25500129227E+04  0.12699999809E+01 0. -1.
       -4    1    3    3    0  502 -0.14520266014E+03  0.15937241868E+04 -0.29340754791E+03  0.16270003682E+04  0.12699999809E+01 0.  1.
</event>
<event>
 5   0  0.3700096E-08  0.3505428E+04  0.7818609E-02  0.8112505E-01
       -2   -1    0    0    0  501  0.00000000000E+00  0.00000000000E+00  0.12031010260E+04  0.12031010260E+04  0.25500000920E-02 0.  1.
        2   -1    0    0  501    0  0.00000000000E+00  0.00000000000E+00 -0.25534071360E+04  0.25534071360E+04  0.25500000920E-02 0. -1.
    10030    2    1    2    0    0  0.00000000000E+00  0.00000000000E+00 -0.13503061101E+04  0.37565081620E+04  0.35054282164E+04 0.  0.
        4    1    3    3  502    0 -0.65606494279E+03  0.25704699295E+03 -0.23949411708E+04  0.24964453109E+04  0.12699999809E+01 0. -1.
       -4    1    3    3    0  502  0.65606494279E+03 -0.25704699295E+03  0.10446350607E+04  0.12600628511E+04  0.12699999809E+01 0.  1.
</event>
<event>
 5   0  0.1121462E-08  0.3499739E+04  0.7818609E-02  0.8113852E-01
        1   -1    0    0  501    0  0.00000000000E+00  0.00000000000E+00  0.14160234719E+04  0.14160234719E+04  0.50400001928E-02 0.  1.
       -1   -1    0    0    0  501  0.00000000000E+00  0.00000000000E+00 -0.21624243390E+04  0.21624243390E+04  0.50400001928E-02 0. -1.
    10030    2    1    2    0    0  0.00000000000E+00  0.00000000000E+00 -0.74640086704E+03  0.35784478109E+04  0.34997392018E+04 0.  0.
        1    1    3    3  502    0 -0.11665006784E+04  0.78793041202E+03 -0.14360418455E+04  0.20109138094E+04  0.50400001928E-02 0. -1.
       -1    1    3    3    0  502  0.11665006784E+04 -0.78793041202E+03  0.68964097842E+03  0.15675340015E+04  0.50400001928E-02 0.  1.
</event>
<event>
 5   0  0.3553585E-08  0.3498873E+04  0.7818609E-02  0.8114057E-01
       -2   -1    0    0    0  501  0.00000000000E+00  0.00000000000E+00  0.15256427847E+04  0.15256427847E+04  0.25500000920E-02 0.  1.
        2   -1    0    0  501    0  0.00000000000E+00  0.00000000000E+00 -0.20060580884E+04  0.20060580884E+04  0.25500000920E-02 0. -1.
    10030    2    1    2    0    0  0.00000000000E+00  0.00000000000E+00 -0.48041530372E+03  0.35317008732E+04  0.34988729890E+04 0.  0.
        2    1    3    3  502    0  0.12000308085E+04 -0.47056004768E+03  0.95369478116E+03  0.16034445533E+04  0.25500000920E-02 0.  1.
       -2    1    3    3    0  502 -0.12000308085E+04  0.47056004768E+03 -0.14341100849E+04  0.19282563199E+04  0.25500000920E-02 0. -1.
</event>
<event>
 5   0  0.1129219E-08  0.3500259E+04  0.7818609E-02  0.8113729E-01
        1   -1    0    0  501    0  0.00000000000E+00  0.00000000000E+00  0.19613201443E+04  0.19613201443E+04  0.50400001928E-02 0.  1.
       -1   -1    0    0    0  501  0.00000000000E+00  0.00000000000E+00 -0.15616795979E+04  0.15616795979E+04  0.50400001928E-02 0. -1.
    10030    2    1    2    0    0  0.00000000000E+00  0.00000000000E+00  0.39964054641E+03  0.35229997421E+04  0.35002592214E+04 0.  0.
        5    1    3    3  502    0 -0.14934850244E+04  0.87755150902E+02 -0.71422795277E+03  0.16578124572E+04  0.46999998093E+01 0. -1.
       -5    1    3    3    0  502  0.14934850244E+04 -0.87755150902E+02  0.11138684992E+04  0.18651872850E+04  0.46999998093E+01 0.  1.
</event>
<event>
 5   0  0.1121462E-08  0.3500821E+04  0.7818609E-02  0.8113595E-01
        1   -1    0    0  501    0  0.00000000000E+00  0.00000000000E+00  0.15177658017E+04  0.15177658017E+04  0.50400001928E-02 0.  1.
       -1   -1    0    0    0  501  0.00000000000E+00  0.00000000000E+00 -0.20187157894E+04  0.20187157894E+04  0.50400001928E-02 0. -1.
    10030    2    1    2    0    0  0.00000000000E+00  0.00000000000E+00 -0.50094998776E+03  0.35364815911E+04  0.35008214971E+04 0.  0.
        1    1    3    3  502    0  0.10796653149E+04  0.13007574322E+04 -0.70929385050E+03  0.18332334428E+04  0.50400001928E-02 0. -1.
       -1    1    3    3    0  502 -0.10796653149E+04 -0.13007574322E+04  0.20834386275E+03  0.17032481483E+04  0.50400001928E-02 0.  1.
</event>
<event>
 5   0  0.1129219E-08  0.3500025E+04  0.7818609E-02  0.8113784E-01
        1   -1    0    0  501    0  0.00000000000E+00  0.00000000000E+00  0.13186550100E+04  0.13186550101E+04  0.50400001928E-02 0.  1.
       -1   -1    0    0    0  501  0.00000000000E+00  0.00000000000E+00 -0.23224755067E+04  0.23224755067E+04  0.50400001928E-02 0. -1.
    10030    2    1    2    0    0  0.00000000000E+00  0.00000000000E+00 -0.10038204967E+04  0.36411305168E+04  0.35000251214E+04 0.  0.
        5    1    3    3  502    0 -0.13922839314E+04 -0.62121663141E+03  0.39188804728E+03  0.15741546876E+04  0.46999998093E+01 0.  1.
       -5    1    3    3    0  502  0.13922839314E+04  0.62121663141E+03 -0.13957085440E+04  0.20669758292E+04  0.46999998093E+01 0. -1.
</event>
<event>
 5   0  0.3628017E-08  0.3497953E+04  0.7818609E-02  0.8114275E-01
       -2   -1    0    0    0  501  0.00000000000E+00  0.00000000000E+00  0.12968308996E+04  0.12968308996E+04  0.25500000920E-02 0.  1.
        2   -1    0    0  501    0  0.00000000000E+00  0.00000000000E+00 -0.23587643525E+04  0.23587643525E+04  0.25500000920E-02 0. -1.
    10030    2    1    2    0    0  0.00000000000E+00  0.00000000000E+00 -0.10619334528E+04  0.36555952521E+04  0.34979528283E+04 0.  0.
        1    1    3    3  502    0 -0.43615891963E+03 -0.18460553685E+03 -0.22904713271E+04  0.23389255456E+04  0.50400001928E-02 0. -1.
       -1    1    3    3    0  502  0.43615891963E+03  0.18460553685E+03  0.12285378743E+04  0.13166697065E+04  0.50400001928E-02 0.  1.
</event>
<event>
 5   0  0.3467834E-08  0.3499466E+04  0.7818609E-02  0.8113916E-01
       -2   -1    0    0    0  501  0.00000000000E+00  0.00000000000E+00  0.28679234098E+04  0.28679234098E+04  0.25500000920E-02 0.  1.
        2   -1    0    0  501    0  0.00000000000E+00  0.00000000000E+00 -0.10675202917E+04  0.10675202917E+04  0.25500000920E-02 0. -1.
    10030    2    1    2    0    0  0.00000000000E+00  0.00000000000E+00  0.18004031180E+04  0.39354437015E+04  0.34994664937E+04 0.  0.
        3    1    3    3  502    0 -0.84423350086E+03 -0.15231868778E+04  0.10908440934E+04  0.20549377886E+04  0.10100000352E+00 0.  1.
       -3    1    3    3    0  502  0.84423350086E+03  0.15231868778E+04  0.70955902467E+03  0.18805059129E+04  0.10100000352E+00 0. -1.
</event>
<event>
 5   0  0.3554451E-08  0.3473428E+04  0.7818609E-02  0.8120116E-01
       -2   -1    0    0    0  501  0.00000000000E+00  0.00000000000E+00  0.89329210119E+03  0.89329210120E+03  0.25500000920E-02 0.  1.
        2   -1    0    0  501    0  0.00000000000E+00  0.00000000000E+00 -0.33764722208E+04  0.33764722208E+04  0.25500000920E-02 0. -1.
    10030    2    1    2    0    0  0.00000000000E+00  0.00000000000E+00 -0.24831801196E+04  0.42697643220E+04  0.34734282574E+04 0.  0.
        5    1    3    3  502    0  0.10103924947E+04  0.36046516243E+03  0.43730253448E+03  0.11584833721E+04  0.46999998093E+01 0.  1.
       -5    1    3    3    0  502 -0.10103924947E+04 -0.36046516243E+03 -0.29204826541E+04  0.31112809500E+04  0.46999998093E+01 0. -1.
</event>
<event>
 5   0  0.1129219E-08  0.3499287E+04  0.7818609E-02  0.8113959E-01
        1   -1    0    0  501    0  0.00000000000E+00  0.00000000000E+00  0.18862101012E+04  0.18862101012E+04  0.50400001928E-02 0. -1.
       -1   -1    0    0    0  501  0.00000000000E+00  0.00000000000E+00 -0.16229647225E+04  0.16229647225E+04  0.50400001928E-02 0.  1.
    10030    2    1    2    0    0  0.00000000000E+00  0.00000000000E+00  0.26324537875E+03  0.35091748237E+04  0.34992870437E+04 0.  0.
        5    1    3    3  502    0  0.53734370903E+03 -0.16340475776E+04 -0.18925114567E+03  0.17305166378E+04  0.46999998093E+01 0. -1.
       -5    1    3    3    0  502 -0.53734370903E+03  0.16340475776E+04  0.45249652441E+03  0.17786581859E+04  0.46999998093E+01 0.  1.
</event>
<event>
 5   0  0.3467834E-08  0.3500726E+04  0.7818609E-02  0.8113618E-01
        2   -1    0    0  501    0  0.00000000000E+00  0.00000000000E+00  0.17185307450E+04  0.17185307450E+04  0.25500000920E-02 0.  1.
       -2   -1    0    0    0  501  0.00000000000E+00  0.00000000000E+00 -0.17827846036E+04  0.17827846036E+04  0.25500000920E-02 0. -1.
    10030    2    1    2    0    0  0.00000000000E+00  0.00000000000E+00 -0.64253858558E+02  0.35013153486E+04  0.35007257265E+04 0.  0.
        3    1    3    3  502    0 -0.16008144584E+04  0.59781960342E+03 -0.41136744693E+03  0.17576172493E+04  0.10100000352E+00 0. -1.
       -3    1    3    3    0  502  0.16008144584E+04 -0.59781960342E+03  0.34711358837E+03  0.17436980994E+04  0.10100000352E+00 0.  1.
</event>
<event>
 5   0  0.3700096E-08  0.3502388E+04  0.7818609E-02  0.8113224E-01
        2   -1    0    0  501    0  0.00000000000E+00  0.00000000000E+00  0.14943043809E+04  0.14943043809E+04  0.25500000920E-02 0.  1.
       -2   -1    0    0    0  501  0.00000000000E+00  0.00000000000E+00 -0.20522466806E+04  0.20522466806E+04  0.25500000920E-02 0. -1.
    10030    2    1    2    0    0  0.00000000000E+00  0.00000000000E+00 -0.55794229974E+03  0.35465510615E+04  0.35023884453E+04 0.  0.
        4    1    3    3  502    0  0.15996172935E+04  0.47540951696E+03 -0.81659888103E+03  0.18578549566E+04  0.12699999809E+01 0. -1.
       -4    1    3    3    0  502 -0.15996172935E+04 -0.47540951696E+03  0.25865658128E+03  0.16886961048E+04  0.12699999809E+01 0.  1.
</event>
<event>
 5   0  0.3554451E-08  0.3499975E+04  0.7818609E-02  0.8113796E-01
        2   -1    0    0  501    0  0.00000000000E+00  0.00000000000E+00  0.23687988913E+04  0.23687988913E+04  0.25500000920E-02 0. -1.
       -2   -1    0    0    0  501  0.00000000000E+00  0.00000000000E+00 -0.12928308655E+04  0.12928308655E+04  0.25500000920E-02 0.  1.
    10030    2    1    2    0    0  0.00000000000E+00  0.00000000000E+00  0.10759680257E+04  0.36616297568E+04  0.34999750404E+04 0.  0.
        5    1    3    3  502    0 -0.13912077484E+04  0.11574842855E+03 -0.56601760961E+03  0.15064045679E+04  0.46999998093E+01 0.  1.
       -5    1    3    3    0  502  0.13912077484E+04 -0.11574842855E+03  0.16419856353E+04  0.21552251888E+04  0.46999998093E+01 0. -1.
</event>
<event>
 5   0  0.1129219E-08  0.3500111E+04  0.7818609E-02  0.8113764E-01
       -1   -1    0    0    0  501  0.00000000000E+00  0.00000000000E+00  0.17266239857E+04  0.17266239857E+04  0.50400001928E-02 0. -1.
        1   -1    0    0  501    0  0.00000000000E+00  0.00000000000E+00 -0.17738045883E+04  0.17738045883E+04  0.50400001928E-02 0.  1.
    10030    2    1    2    0    0  0.00000000000E+00  0.00000000000E+00 -0.47180602669E+02  0.35004285740E+04  0.35001105972E+04 0.  0.
        5    1    3    3  502    0 -0.59844731975E+02  0.12295587272E+04  0.12204179575E+04  0.17334468946E+04  0.46999998093E+01 0. -1.
       -5    1    3    3    0  502  0.59844731975E+02 -0.12295587272E+04 -0.12675985602E+04  0.17669816794E+04  0.46999998093E+01 0.  1.
</event>
<event>
 5   0  0.3467834E-08  0.3502162E+04  0.7818609E-02  0.8113278E-01
        2   -1    0    0  501    0  0.00000000000E+00  0.00000000000E+00  0.18112492606E+04  0.18112492606E+04  0.25500000920E-02 0. -1.
       -2   -1    0    0    0  501  0.00000000000E+00  0.00000000000E+00 -0.16929113063E+04  0.16929113063E+04  0.25500000920E-02 0.  1.
    10030    2    1    2    0    0  0.00000000000E+00  0.00000000000E+00  0.11833795431E+03  0.35041605669E+04  0.35021618191E+04 0.  0.
        3    1    3    3  502    0 -0.54026520170E+03 -0.52698083201E+03  0.16401622351E+04  0.18054715320E+04  0.10100000352E+00 0. -1.
       -3    1    3    3    0  502  0.54026520170E+03  0.52698083201E+03 -0.15218242808E+04  0.16986890349E+04  0.10100000352E+00 0.  1.
</event>
<event>
 5   0  0.3628017E-08  0.3495287E+04  0.7818609E-02  0.8114908E-01
       -2   -1    0    0    0  501  0.00000000000E+00  0.00000000000E+00  0.13157608793E+04  0.13157608793E+04  0.25500000920E-02 0.  1.
        2   -1    0    0  501    0  0.00000000000E+00  0.00000000000E+00 -0.23212870033E+04  0.23212870033E+04  0.25500000920E-02 0. -1.
    10030    2    1    2    0    0  0.00000000000E+00  0.00000000000E+00 -0.10055261239E+04  0.36370478826E+04  0.34952874724E+04 0.  0.
        1    1    3    3  502    0 -0.98718596057E+03  0.10290822533E+04  0.54851542249E+03  0.15278794368E+04  0.50400001928E-02 0.  1.
       -1    1    3    3    0  502  0.98718596057E+03 -0.10290822533E+04 -0.15540415464E+04  0.21091684458E+04  0.50400001928E-02 0. -1.
</event>
<event>
 5   0  0.3700096E-08  0.3498715E+04  0.7818609E-02  0.8114094E-01
       -2   -1    0    0    0  501  0.00000000000E+00  0.00000000000E+00  0.18742434441E+04  0.18742434441E+04  0.25500000920E-02 0.  1.
        2   -1    0    0  501    0  0.00000000000E+00  0.00000000000E+00 -0.16327934861E+04  0.16327934861E+04  0.25500000920E-02 0. -1.
    10030    2    1    2    0    0  0.00000000000E+00  0.00000000000E+00  0.24144995803E+03  0.35070369302E+04  0.34987154710E+04 0.  0.
        4    1    3    3  502    0  0.29452480963E+03 -0.28048842633E+02 -0.16075333681E+04  0.16345325765E+04  0.12699999809E+01 0. -1.
       -4    1    3    3    0  502 -0.29452480963E+03  0.28048842633E+02  0.18489833262E+04  0.18725043537E+04  0.12699999809E+01 0.  1.
</event>
<event>
 5   0  0.3628017E-08  0.3501988E+04  0.7818609E-02  0.8113319E-01
       -2   -1    0    0    0  501  0.00000000000E+00  0.00000000000E+00  0.97080330372E+03  0.97080330372E+03  0.25500000920E-02 0.  1.
        2   -1    0    0  501    0  0.00000000000E+00  0.00000000000E+00 -0.31581881520E+04  0.31581881520E+04  0.25500000920E-02 0. -1.
    10030    2    1    2    0    0  0.00000000000E+00  0.00000000000E+00 -0.21873848482E+04  0.41289914557E+04  0.35019877165E+04 0.  0.
        1    1    3    3  502    0 -0.12142857262E+03  0.66424107310E+03  0.81111532606E+03  0.10554000065E+04  0.50400001928E-02 0.  1.
       -1    1    3    3    0  502  0.12142857262E+03 -0.66424107310E+03 -0.29985001743E+04  0.30735914492E+04  0.50400001928E-02 0. -1.
</event>
<event>
 5   0  0.3467834E-08  0.3500911E+04  0.7818609E-02  0.8113574E-01
        2   -1    0    0  501    0  0.00000000000E+00  0.00000000000E+00  0.21315127955E+04  0.21315127955E+04  0.25500000920E-02 0. -1.
       -2   -1    0    0    0  501  0.00000000000E+00  0.00000000000E+00 -0.14375212869E+04  0.14375212869E+04  0.25500000920E-02 0.  1.
    10030    2    1    2    0    0  0.00000000000E+00  0.00000000000E+00  0.69399150861E+03  0.35690340824E+04  0.35009113195E+04 0.  0.
        3    1    3    3  502    0  0.10784136140E+04  0.96757559858E+03 -0.65442009769E+03  0.15897937402E+04  0.10100000352E+00 0.  1.
       -3    1    3    3    0  502 -0.10784136140E+04 -0.96757559858E+03  0.13484116063E+04  0.19792403422E+04  0.10100000352E+00 0. -1.
</event>
<event>
 5   0  0.3553585E-08  0.3499460E+04  0.7818609E-02  0.8113918E-01
        2   -1    0    0  501    0  0.00000000000E+00  0.00000000000E+00  0.22596681066E+04  0.22596681066E+04  0.25500000920E-02 0. -1.
       -2   -1    0    0    0  501  0.00000000000E+00  0.00000000000E+00 -0.13548694330E+04  0.13548694330E+04  0.25500000920E-02 0.  1.
    10030    2    1    2    0    0  0.00000000000E+00  0.00000000000E+00  0.90479867368E+03  0.36145375396E+04  0.34994600991E+04 0.  0.
        2    1    3    3  502    0 -0.23745739116E+03 -0.13621582193E+04 -0.65509845090E+03  0.15300375837E+04  0.25500000920E-02 0.  1.
       -2    1    3    3    0  502  0.23745739116E+03  0.13621582193E+04  0.15598971246E+04  0.20844999559E+04  0.25500000920E-02 0. -1.
</event>
<event>
 5   0  0.3628017E-08  0.3497791E+04  0.7818609E-02  0.8114314E-01
        2   -1    0    0  501    0  0.00000000000E+00  0.00000000000E+00  0.21249170453E+04  0.21249170454E+04  0.25500000920E-02 0. -1.
       -2   -1    0    0    0  501  0.00000000000E+00  0.00000000000E+00 -0.14394141079E+04  0.14394141079E+04  0.25500000920E-02 0.  1.
    10030    2    1    2    0    0  0.00000000000E+00  0.00000000000E+00  0.68550293749E+03  0.35643311532E+04  0.34977910590E+04 0.  0.
        1    1    3    3  502    0 -0.16027402407E+04 -0.69960181581E+03  0.32195257225E+03  0.17781654700E+04  0.50400001928E-02 0.  1.
       -1    1    3    3    0  502  0.16027402407E+04  0.69960181581E+03  0.36355036524E+03  0.17861656832E+04  0.50400001928E-02 0. -1.
</event>
<event>
 5   0  0.3553585E-08  0.3499155E+04  0.7818609E-02  0.8113990E-01
       -2   -1    0    0    0  501  0.00000000000E+00  0.00000000000E+00  0.14330041852E+04  0.14330041852E+04  0.25500000920E-02 0.  1.
        2   -1    0    0  501    0  0.00000000000E+00  0.00000000000E+00 -0.21360863914E+04  0.21360863914E+04  0.25500000920E-02 0. -1.
    10030    2    1    2    0    0  0.00000000000E+00  0.00000000000E+00 -0.70308220619E+03  0.35690905767E+04  0.34991546059E+04 0.  0.
        2    1    3    3  502    0 -0.16328956398E+04 -0.50314813590E+03  0.32161673633E+02  0.17089589200E+04  0.25500000920E-02 0.  1.
       -2    1    3    3    0  502  0.16328956398E+04  0.50314813590E+03 -0.73524387982E+03  0.18601316566E+04  0.25500000920E-02 0. -1.
</event>
<event>
 5   0  0.1121462E-08  0.3499846E+04  0.7818609E-02  0.8113827E-01
        1   -1    0    0  501    0  0.00000000000E+00  0.00000000000E+00  0.21445305349E+04  0.21445305349E+04  0.50400001928E-02 0.  1.
       -1   -1    0    0    0  501  0.00000000000E+00  0.00000000000E+00 -0.14279254122E+04  0.14279254122E+04  0.50400001928E-02 0. -1.
    10030    2    1    2    0    0  0.00000000000E+00  0.00000000000E+00  0.71660512272E+03  0.35724559471E+04  0.34998455098E+04 0.  0.
        1    1    3    3  502    0  0.14972098054E+03  0.15422216842E+04  0.11884185780E+04  0.19527423823E+04  0.50400001928E-02 0.  1.
       -1    1    3    3    0  502 -0.14972098054E+03 -0.15422216842E+04 -0.47181345525E+03  0.16197135648E+04  0.50400001928E-02 0. -1.
</event>
<event>
 5   0  0.1121462E-08  0.3501147E+04  0.7818609E-02  0.8113518E-01
       -1   -1    0    0    0  501  0.00000000000E+00  0.00000000000E+00  0.27665964536E+04  0.27665964537E+04  0.50400001928E-02 0.  1.
        1   -1    0    0  501    0  0.00000000000E+00  0.00000000000E+00 -0.11076811562E+04  0.11076811562E+04  0.50400001928E-02 0. -1.
    10030    2    1    2    0    0  0.00000000000E+00  0.00000000000E+00  0.16589152974E+04  0.38742776099E+04  0.35011465314E+04 0.  0.
        2    1    3    3  502    0 -0.98588634746E+03  0.18895732914E+03  0.24164675925E+04  0.26166758279E+04  0.25500000920E-02 0.  1.
       -2    1    3    3    0  502  0.98588634746E+03 -0.18895732914E+03 -0.75755229510E+03  0.12576017820E+04  0.25500000920E-02 0. -1.
</event>
<event>
 5   0  0.1121462E-08  0.3500171E+04  0.7818609E-02  0.8113749E-01
        1   -1    0    0  501    0  0.00000000000E+00  0.00000000000E+00  0.20733838376E+04  0.20733838376E+04  0.50400001928E-02 0.  1.
       -1   -1    0    0    0  501  0.00000000000E+00  0.00000000000E+00 -0.14771986917E+04  0.14771986917E+04  0.50400001928E-02 0. -1.
    10030    2    1    2    0    0  0.00000000000E+00  0.00000000000E+00  0.59618514597E+03  0.35505825293E+04  0.35001713628E+04 0.  0.
        4    1    3    3  502    0 -0.72176841323E+03 -0.46739524442E+03  0.18443129508E+04  0.20349201042E+04  0.12699999809E+01 0.  1.
       -4    1    3    3    0  502  0.72176841323E+03  0.46739524442E+03 -0.12481278048E+04  0.15156624251E+04  0.12699999809E+01 0. -1.
</event>
<event>
 5   0  0.1121462E-08  0.3500605E+04  0.7818609E-02  0.8113647E-01
        3   -1    0    0  501    0  0.00000000000E+00  0.00000000000E+00  0.16643654760E+04  0.16643654791E+04  0.10100000352E+00 0. -1.
       -3   -1    0    0    0  501  0.00000000000E+00  0.00000000000E+00 -0.18406766989E+04  0.18406767017E+04  0.10100000352E+00 0.  1.
    10030    2    1    2    0    0  0.00000000000E+00  0.00000000000E+00 -0.17631122295E+03  0.35050421808E+04  0.35006049537E+04 0.  0.
        4    1    3    3  502    0  0.53841787421E+03  0.86303762367E+03 -0.15143309115E+04  0.18242608009E+04  0.12699999809E+01 0.  1.
       -4    1    3    3    0  502 -0.53841787421E+03 -0.86303762367E+03  0.13380196886E+04  0.16807813799E+04  0.12699999809E+01 0. -1.
</event>
<event>
 5   0  0.3467834E-08  0.3505150E+04  0.7818609E-02  0.8112571E-01
        2   -1    0    0  501    0  0.00000000000E+00  0.00000000000E+00  0.12868096796E+04  0.12868096796E+04  0.25500000920E-02 0.  1.
       -2   -1    0    0    0  501  0.00000000000E+00  0.00000000000E+00 -0.23869255273E+04  0.23869255273E+04  0.25500000920E-02 0. -1.
    10030    2    1    2    0    0  0.00000000000E+00  0.00000000000E+00 -0.11001158477E+04  0.36737352068E+04  0.35051498529E+04 0.  0.
        3    1    3    3  502    0 -0.13482871466E+04  0.51732214864E+03  0.49068574171E+03  0.15252124254E+04  0.10100000352E+00 0. -1.
       -3    1    3    3    0  502  0.13482871466E+04 -0.51732214864E+03 -0.15908015894E+04  0.21485227814E+04  0.10100000352E+00 0.  1.
</event>
<event>
 5   0  0.3467834E-08  0.3499296E+04  0.7818609E-02  0.8113957E-01
        2   -1    0    0  501    0  0.00000000000E+00  0.00000000000E+00  0.16472057672E+04  0.16472057672E+04  0.25500000920E-02 0. -1.
       -2   -1    0    0    0  501  0.00000000000E+00  0.00000000000E+00 -0.18584607959E+04  0.18584607959E+04  0.25500000920E-02 0.  1.
    10030    2    1    2    0    0  0.00000000000E+00  0.00000000000E+00 -0.21125502874E+03  0.35056665631E+04  0.34992955526E+04 0.  0.
        3    1    3    3  502    0 -0.11190029872E+04 -0.12804436202E+03  0.12357292696E+04  0.16720017590E+04  0.10100000352E+00 0. -1.
       -3    1    3    3    0  502  0.11190029872E+04  0.12804436202E+03 -0.14469842984E+04  0.18336648041E+04  0.10100000352E+00 0.  1.
</event>
<event>
 5   0  0.1140808E-08  0.3501285E+04  0.7818609E-02  0.8113485E-01
       -1   -1    0    0    0  501  0.00000000000E+00  0.00000000000E+00  0.15659016744E+04  0.15659016744E+04  0.50400001928E-02 0.  1.
        1   -1    0    0  501    0  0.00000000000E+00  0.00000000000E+00 -0.19571790207E+04  0.19571790207E+04  0.50400001928E-02 0. -1.
    10030    2    1    2    0    0  0.00000000000E+00  0.00000000000E+00 -0.39127734633E+03  0.35230806951E+04  0.35012854243E+04 0.  0.
        3    1    3    3  502    0 -0.27925993510E+03  0.14838740364E+04 -0.10870890166E+04  0.18605458359E+04  0.10100000352E+00 0. -1.
       -3    1    3    3    0  502  0.27925993510E+03 -0.14838740364E+04  0.69581167031E+03  0.16625348592E+04  0.10100000352E+00 0.  1.
</event>
<event>
 5   0  0.1121462E-08  0.3500555E+04  0.7818609E-02  0.8113658E-01
       -1   -1    0    0    0  501  0.00000000000E+00  0.00000000000E+00  0.14325456262E+04  0.14325456262E+04  0.50400001928E-02 0. -1.
        1   -1    0    0  501    0  0.00000000000E+00  0.00000000000E+00 -0.21384811495E+04  0.21384811495E+04  0.50400001928E-02 0.  1.
    10030    2    1    2    0    0  0.00000000000E+00  0.00000000000E+00 -0.70593552336E+03  0.35710267757E+04  0.35005552802E+04 0.  0.
        4    1    3    3  502    0  0.20575561334E+03  0.68421346162E+02  0.14187905261E+04  0.14352647919E+04  0.12699999809E+01 0. -1.
       -4    1    3    3    0  502 -0.20575561334E+03 -0.68421346162E+02 -0.21247260495E+04  0.21357619838E+04  0.12699999809E+01 0.  1.
</event>
<event>
 5   0  0.1129219E-08  0.3501130E+04  0.7818609E-02  0.8113522E-01
       -1   -1    0    0    0  501  0.00000000000E+00  0.00000000000E+00  0.17930167437E+04  0.17930167437E+04  0.50400001928E-02 0. -1.
        1   -1    0    0  501    0  0.00000000000E+00  0.00000000000E+00 -0.17091184089E+04  0.17091184089E+04  0.50400001928E-02 0.  1.
    10030    2    1    2    0    0  0.00000000000E+00  0.00000000000E+00  0.83898334856E+02  0.35021351526E+04  0.35011300599E+04 0.  0.
        5    1    3    3  502    0 -0.64150664274E+03 -0.13429928557E+04  0.96378589189E+03  0.17731514088E+04  0.46999998093E+01 0. -1.
       -5    1    3    3    0  502  0.64150664274E+03  0.13429928557E+04 -0.87988755703E+03  0.17289837438E+04  0.46999998093E+01 0.  1.
</event>
<event>
 5   0  0.3700096E-08  0.3501368E+04  0.7818609E-02  0.8113466E-01
       -2   -1    0    0    0  501  0.00000000000E+00  0.00000000000E+00  0.17877891309E+04  0.17877891309E+04  0.25500000920E-02 0. -1.
        2   -1    0    0  501    0  0.00000000000E+00  0.00000000000E+00 -0.17143489435E+04  0.17143489435E+04  0.25500000920E-02 0.  1.
    10030    2    1    2    0    0  0.00000000000E+00  0.00000000000E+00  0.73440187346E+02  0.35021380744E+04  0.35013679657E+04 0.  0.
        4    1    3    3  502    0  0.14048722645E+04 -0.16478883986E+03  0.10684853188E+04  0.17727052577E+04  0.12699999809E+01 0. -1.
       -4    1    3    3    0  502 -0.14048722645E+04  0.16478883986E+03 -0.99504513142E+03  0.17294328168E+04  0.12699999809E+01 0.  1.
</event>
<event>
 5   0  0.3700096E-08  0.3501387E+04  0.7818609E-02  0.8113461E-01
        2   -1    0    0  501    0  0.00000000000E+00  0.00000000000E+00  0.24548914065E+04  0.24548914065E+04  0.25500000920E-02 0.  1.
       -2   -1    0    0    0  501  0.00000000000E+00  0.00000000000E+00 -0.12484979636E+04  0.12484979636E+04  0.25500000920E-02 0. -1.
    10030    2    1    2    0    0  0.00000000000E+00  0.00000000000E+00  0.12063934429E+04  0.37033893700E+04  0.35013865378E+04 0.  0.
        4    1    3    3  502    0 -0.32369961048E+03 -0.22221637577E+03 -0.12013278379E+04  0.12638638149E+04  0.12699999809E+01 0. -1.
       -4    1    3    3    0  502  0.32369961048E+03  0.22221637577E+03  0.24077212808E+04  0.24395255552E+04  0.12699999809E+01 0.  1.
</event>
<event>
 5   0  0.3467834E-08  0.3497623E+04  0.7818609E-02  0.8114354E-01
       -2   -1    0    0    0  501  0.00000000000E+00  0.00000000000E+00  0.13660247200E+04  0.13660247200E+04  0.25500000920E-02 0. -1.
        2   -1    0    0  501    0  0.00000000000E+00  0.00000000000E+00 -0.22388619658E+04  0.22388619658E+04  0.25500000920E-02 0.  1.
    10030    2    1    2    0    0  0.00000000000E+00  0.00000000000E+00 -0.87283724585E+03  0.36048866858E+04  0.34976225010E+04 0.  0.
        3    1    3    3  502    0  0.11923724480E+03  0.17446403638E+04 -0.41704699812E+03  0.17977529664E+04  0.10100000352E+00 0.  1.
       -3    1    3    3    0  502 -0.11923724480E+03 -0.17446403638E+04 -0.45579024773E+03  0.18071337194E+04  0.10100000352E+00 0. -1.
</event>
<event>
 5   0  0.1121462E-08  0.3502546E+04  0.7818609E-02  0.8113187E-01
       -1   -1    0    0    0  501  0.00000000000E+00  0.00000000000E+00  0.20227697875E+04  0.20227697875E+04  0.50400001928E-02 0.  1.
        1   -1    0    0  501    0  0.00000000000E+00  0.00000000000E+00 -0.15162164990E+04  0.15162164990E+04  0.50400001928E-02 0. -1.
    10030    2    1    2    0    0  0.00000000000E+00  0.00000000000E+00  0.50655328849E+03  0.35389862866E+04  0.35025458887E+04 0.  0.
        1    1    3    3  502    0  0.97246940816E+03 -0.10359703915E+04  0.12876586947E+04  0.19175495602E+04  0.50400001928E-02 0.  1.
       -1    1    3    3    0  502 -0.97246940816E+03  0.10359703915E+04 -0.78110540623E+03  0.16214367263E+04  0.50400001928E-02 0. -1.
</event>
<event>
 5   0  0.3700096E-08  0.3500478E+04  0.7818609E-02  0.8113677E-01
        2   -1    0    0  501    0  0.00000000000E+00  0.00000000000E+00  0.21566113515E+04  0.21566113515E+04  0.25500000920E-02 0.  1.
       -2   -1    0    0    0  501  0.00000000000E+00  0.00000000000E+00 -0.14204395085E+04  0.14204395085E+04  0.25500000920E-02 0. -1.
    10030    2    1    2    0    0  0.00000000000E+00  0.00000000000E+00  0.73617184296E+03  0.35770508600E+04  0.35004776635E+04 0.  0.
        4    1    3    3  502    0 -0.79798597727E+03  0.31220214274E+03  0.19276033976E+04  0.21094805686E+04  0.12699999809E+01 0.  1.
       -4    1    3    3    0  502  0.79798597727E+03 -0.31220214274E+03 -0.11914315547E+04  0.14675702914E+04  0.12699999809E+01 0. -1.
</event>
<event>
 5   0  0.1121462E-08  0.3499798E+04  0.7818609E-02  0.8113838E-01
       -1   -1    0    0    0  501  0.00000000000E+00  0.00000000000E+00  0.16976314371E+04  0.16976314371E+04  0.50400001928E-02 0. -1.
        1   -1    0    0  501    0  0.00000000000E+00  0.00000000000E+00 -0.18037762965E+04  0.18037762965E+04  0.50400001928E-02 0.  1.
    10030    2    1    2    0    0  0.00000000000E+00  0.00000000000E+00 -0.10614485943E+03  0.35014077336E+04  0.34997984778E+04 0.  0.
        4    1    3    3  502    0  0.53743995752E+03  0.11174177514E+03 -0.17154073266E+04  0.18010973991E+04  0.12699999809E+01 0.  1.
       -4    1    3    3    0  502 -0.53743995752E+03 -0.11174177514E+03  0.16092624671E+04  0.17003103344E+04  0.12699999809E+01 0. -1.
</event>
<event>
 5   0  0.3628017E-08  0.3502311E+04  0.7818609E-02  0.8113243E-01
        2   -1    0    0  501    0  0.00000000000E+00  0.00000000000E+00  0.21047823427E+04  0.21047823427E+04  0.25500000920E-02 0. -1.
       -2   -1    0    0    0  501  0.00000000000E+00  0.00000000000E+00 -0.14569417252E+04  0.14569417252E+04  0.25500000920E-02 0.  1.
    10030    2    1    2    0    0  0.00000000000E+00  0.00000000000E+00  0.64784061745E+03  0.35617240679E+04  0.35023107901E+04 0.  0.
        1    1    3    3  502    0 -0.57753249319E+03  0.45401425199E+03  0.19405005005E+04  0.20749011818E+04  0.50400001928E-02 0. -1.
       -1    1    3    3    0  502  0.57753249319E+03 -0.45401425199E+03 -0.12926598830E+04  0.14868228862E+04  0.50400001928E-02 0.  1.
</event>
<event>
 5   0  0.3554451E-08  0.3498954E+04  0.7818609E-02  0.8114038E-01
       -2   -1    0    0    0  501  0.00000000000E+00  0.00000000000E+00  0.20581783393E+04  0.20581783393E+04  0.25500000920E-02 0.  1.
        2   -1    0    0  501    0  0.00000000000E+00  0.00000000000E+00 -0.14870770742E+04  0.14870770742E+04  0.25500000920E-02 0. -1.
    10030    2    1    2    0    0  0.00000000000E+00  0.00000000000E+00  0.57110126507E+03  0.35452554134E+04  0.34989540282E+04 0.  0.
        5    1    3    3  502    0 -0.42662861916E+03  0.13873508034E+04  0.12751496096E+04  0.19320411091E+04  0.46999998093E+01 0.  1.
       -5    1    3    3    0  502  0.42662861916E+03 -0.13873508034E+04 -0.70404834456E+03  0.16132143043E+04  0.46999998093E+01 0. -1.
</event>
<event>
 5   0  0.1121462E-08  0.3502416E+04  0.7818609E-02  0.8113218E-01
       -1   -1    0    0    0  501  0.00000000000E+00  0.00000000000E+00  0.17701311444E+04  0.17701311444E+04  0.50400001928E-02 0.  1.
        1   -1    0    0  501    0  0.00000000000E+00  0.00000000000E+00 -0.17324870433E+04  0.17324870433E+04  0.50400001928E-02 0. -1.
    10030    2    1    2    0    0  0.00000000000E+00  0.00000000000E+00  0.37644101093E+02  0.35026181878E+04  0.35024158935E+04 0.  0.
        1    1    3    3  502    0  0.17076975881E+04  0.38728635917E+03 -0.37069318552E+01  0.17510669655E+04  0.50400001928E-02 0. -1.
       -1    1    3    3    0  502 -0.17076975881E+04 -0.38728635917E+03  0.41351032949E+02  0.17515512223E+04  0.50400001928E-02 0.  1.
</event>
<event>
 5   0  0.1121462E-08  0.3499715E+04  0.7818609E-02  0.8113858E-01
       -1   -1    0    0    0  501  0.00000000000E+00  0.00000000000E+00  0.30893809532E+04  0.30893809532E+04  0.50400001928E-02 0. -1.
        1   -1    0    0  501    0  0.00000000000E+00  0.00000000000E+00 -0.99113739382E+03  0.99113739383E+03  0.50400001928E-02 0.  1.
    10030    2    1    2    0    0  0.00000000000E+00  0.00000000000E+00  0.20982435594E+04  0.40805183470E+04  0.34997148378E+04 0.  0.
        1    1    3    3  502    0  0.16054112004E+04 -0.68955879618E+03  0.11607406928E+04  0.20976547408E+04  0.50400001928E-02 0. -1.
       -1    1    3    3    0  502 -0.16054112004E+04  0.68955879618E+03  0.93750286656E+03  0.19828636062E+04  0.50400001928E-02 0.  1.
</event>
<event>
 5   0  0.1121462E-08  0.3499106E+04  0.7818609E-02  0.8114002E-01
        1   -1    0    0  501    0  0.00000000000E+00  0.00000000000E+00  0.16740360186E+04  0.16740360186E+04  0.50400001928E-02 0.  1.
       -1   -1    0    0    0  501  0.00000000000E+00  0.00000000000E+00 -0.18284762252E+04  0.18284762252E+04  0.50400001928E-02 0. -1.
    10030    2    1    2    0    0  0.00000000000E+00  0.00000000000E+00 -0.15444020658E+03  0.35025122438E+04  0.34991056344E+04 0.  0.
        4    1    3    3  502    0  0.63054705730E+03  0.14398757202E+04  0.69170858744E+03  0.17173508855E+04  0.12699999809E+01 0. -1.
       -4    1    3    3    0  502 -0.63054705730E+03 -0.14398757202E+04 -0.84614879402E+03  0.17851613584E+04  0.12699999809E+01 0.  1.
</event>
<event>
 5   0  0.3700096E-08  0.3501550E+04  0.7818609E-02  0.8113423E-01
        2   -1    0    0  501    0  0.00000000000E+00  0.00000000000E+00  0.18065128079E+04  0.18065128079E+04  0.25500000920E-02 0.  1.
       -2   -1    0    0    0  501  0.00000000000E+00  0.00000000000E+00 -0.16967569580E+04  0.16967569580E+04  0.25500000920E-02 0. -1.
    10030    2    1    2    0    0  0.00000000000E+00  0.00000000000E+00  0.10975584983E+03  0.35032697659E+04  0.35015500433E+04 0.  0.
        4    1    3    3  502    0  0.14809575267E+04 -0.90555006717E+03  0.28292723971E+03  0.17587795644E+04  0.12699999809E+01 0. -1.
       -4    1    3    3    0  502 -0.14809575267E+04  0.90555006717E+03 -0.17317138989E+03  0.17444902015E+04  0.12699999809E+01 0.  1.
</event>
<event>
 5   0  0.1121462E-08  0.3499600E+04  0.7818609E-02  0.8113885E-01
       -1   -1    0    0    0  501  0.00000000000E+00  0.00000000000E+00  0.26223995485E+04  0.26223995485E+04  0.50400001928E-02 0.  1.
        1   -1    0    0  501    0  0.00000000000E+00  0.00000000000E+00 -0.11675563966E+04  0.11675563966E+04  0.50400001928E-02 0. -1.
    10030    2    1    2    0    0  0.00000000000E+00  0.00000000000E+00  0.14548431519E+04  0.37899559450E+04  0.34995996155E+04 0.  0.
        1    1    3    3  502    0 -0.42364716278E+03 -0.83421871753E+03  0.23287513098E+04  0.25096773598E+04  0.50400001928E-02 0.  1.
       -1    1    3    3    0  502  0.42364716278E+03  0.83421871753E+03 -0.87390815796E+03  0.12802785852E+04  0.50400001928E-02 0. -1.
</event>
<event>
 5   0  0.3628017E-08  0.3506265E+04  0.7818609E-02  0.8112307E-01
       -2   -1    0    0    0  501  0.00000000000E+00  0.00000000000E+00  0.15649477227E+04  0.15649477227E+04  0.25500000920E-02 0.  1.
        2   -1    0    0  501    0  0.00000000000E+00  0.00000000000E+00 -0.19639466082E+04  0.19639466082E+04  0.25500000920E-02 0. -1.
    10030    2    1    2    0    0  0.00000000000E+00  0.00000000000E+00 -0.39899888550E+03  0.35288943309E+04  0.35062651194E+04 0.  0.
        1    1    3    3  502    0  0.33058633906E+03  0.74231279567E+03 -0.17629595194E+04  0.19412217497E+04  0.50400001928E-02 0. -1.
       -1    1    3    3    0  502 -0.33058633906E+03 -0.74231279567E+03  0.13639606339E+04  0.15876725812E+04  0.50400001928E-02 0.  1.
</event>
<event>
 5   0  0.1121462E-08  0.3493799E+04  0.7818609E-02  0.8115261E-01
        3   -1    0    0  501    0  0.00000000000E+00  0.00000000000E+00  0.22530375088E+04  0.22530375111E+04  0.10100000352E+00 0. -1.
       -3   -1    0    0    0  501  0.00000000000E+00  0.00000000000E+00 -0.13544640651E+04  0.13544640688E+04  0.10100000352E+00 0.  1.
    10030    2    1    2    0    0  0.00000000000E+00  0.00000000000E+00  0.89857344375E+03  0.36075015799E+04  0.34937992809E+04 0.  0.
        4    1    3    3  502    0 -0.14299844995E+04  0.99528876608E+03  0.31785986985E+03  0.17710143721E+04  0.12699999809E+01 0.  1.
       -4    1    3    3    0  502  0.14299844995E+04 -0.99528876608E+03  0.58071357390E+03  0.18364872078E+04  0.12699999809E+01 0. -1.
</event>
<event>
 5   0  0.3467834E-08  0.3497850E+04  0.7818609E-02  0.8114300E-01
        2   -1    0    0  501    0  0.00000000000E+00  0.00000000000E+00  0.20186277542E+04  0.20186277542E+04  0.25500000920E-02 0.  1.
       -2   -1    0    0    0  501  0.00000000000E+00  0.00000000000E+00 -0.15152565866E+04  0.15152565866E+04  0.25500000920E-02 0. -1.
    10030    2    1    2    0    0  0.00000000000E+00  0.00000000000E+00  0.50337116764E+03  0.35338843408E+04  0.34978501971E+04 0.  0.
        3    1    3    3  502    0  0.15302656662E+04 -0.66577167074E+03 -0.27693890293E+03  0.16916441981E+04  0.10100000352E+00 0. -1.
       -3    1    3    3    0  502 -0.15302656662E+04  0.66577167074E+03  0.78031007057E+03  0.18422401427E+04  0.10100000352E+00 0.  1.
</event>
<event>
 5   0  0.1121462E-08  0.3499966E+04  0.7818609E-02  0.8113798E-01
        1   -1    0    0  501    0  0.00000000000E+00  0.00000000000E+00  0.16565033177E+04  0.16565033177E+04  0.50400001928E-02 0.  1.
       -1   -1    0    0    0  501  0.00000000000E+00  0.00000000000E+00 -0.18487382454E+04  0.18487382454E+04  0.50400001928E-02 0. -1.
    10030    2    1    2    0    0  0.00000000000E+00  0.00000000000E+00 -0.19223492778E+03  0.35052415631E+04  0.34999663067E+04 0.  0.
        1    1    3    3  502    0  0.12877034018E+04  0.73460487980E+02  0.10884012331E+04  0.16876592484E+04  0.50400001928E-02 0.  1.
       -1    1    3    3    0  502 -0.12877034018E+04 -0.73460487980E+02 -0.12806361609E+04  0.18175823147E+04  0.50400001928E-02 0. -1.
</event>
<event>
 5   0  0.1121462E-08  0.3499812E+04  0.7818609E-02  0.8113834E-01
        3   -1    0    0  501    0  0.00000000000E+00  0.00000000000E+00  0.17884626889E+04  0.17884626918E+04  0.10100000352E+00 0.  1.
       -3   -1    0    0    0  501  0.00000000000E+00  0.00000000000E+00 -0.17121806794E+04  0.17121806824E+04  0.10100000352E+00 0. -1.
    10030    2    1    2    0    0  0.00000000000E+00  0.00000000000E+00  0.76282009496E+02  0.35006433742E+04  0.34998121504E+04 0.  0.
        4    1    3    3  502    0  0.15175426100E+04  0.25782940258E+03 -0.79437757857E+03  0.17321803960E+04  0.12699999809E+01 0. -1.
       -4    1    3    3    0  502 -0.15175426100E+04 -0.25782940258E+03  0.87065958807E+03  0.17684629782E+04  0.12699999809E+01 0.  1.
</event>
<event>
 5   0  0.3554451E-08  0.3498435E+04  0.7818609E-02  0.8114161E-01
        2   -1    0    0  501    0  0.00000000000E+00  0.00000000000E+00  0.24864296398E+04  0.24864296398E+04  0.25500000920E-02 0. -1.
       -2   -1    0    0    0  501  0.00000000000E+00  0.00000000000E+00 -0.12305846137E+04  0.12305846137E+04  0.25500000920E-02 0.  1.
    10030    2    1    2    0    0  0.00000000000E+00  0.00000000000E+00  0.12558450261E+04  0.37170142535E+04  0.34984351117E+04 0.  0.
        5    1    3    3  502    0 -0.39535889750E+03 -0.14472770194E+04 -0.32761224407E+03  0.15356664029E+04  0.46999998093E+01 0.  1.
       -5    1    3    3    0  502  0.39535889750E+03  0.14472770194E+04  0.15834572702E+04  0.21813478505E+04  0.46999998093E+01 0. -1.
</event>
<event>
 5   0  0.1121462E-08  0.3500719E+04  0.7818609E-02  0.8113619E-01
        1   -1    0    0  501    0  0.00000000000E+00  0.00000000000E+00  0.21156741137E+04  0.21156741137E+04  0.50400001928E-02 0.  1.
       -1   -1    0    0    0  501  0.00000000000E+00  0.00000000000E+00 -0.14481243298E+04  0.14481243298E+04  0.50400001928E-02 0. -1.
    10030    2    1    2    0    0  0.00000000000E+00  0.00000000000E+00  0.66754978398E+03  0.35637984435E+04  0.35007194449E+04 0.  0.
        1    1    3    3  502    0  0.85836029523E+03  0.95644606637E+03 -0.87599295214E+03  0.15552926177E+04  0.50400001928E-02 0. -1.
       -1    1    3    3    0  502 -0.85836029523E+03 -0.95644606637E+03  0.15435427361E+04  0.20085058259E+04  0.50400001928E-02 0.  1.
</event>
<event>
 5   0  0.1129219E-08  0.3499620E+04  0.7818609E-02  0.8113880E-01
       -1   -1    0    0    0  501  0.00000000000E+00  0.00000000000E+00  0.16142223841E+04  0.16142223841E+04  0.50400001928E-02 0. -1.
        1   -1    0    0  501    0  0.00000000000E+00  0.00000000000E+00 -0.18967865939E+04  0.18967865939E+04  0.50400001928E-02 0.  1.
    10030    2    1    2    0    0  0.00000000000E+00  0.00000000000E+00 -0.28256420980E+03  0.35110089780E+04  0.34996201952E+04 0.  0.
        5    1    3    3  502    0 -0.14936868230E+04 -0.87369441170E+03  0.11912189073E+03  0.17345473084E+04  0.46999998093E+01 0.  1.
       -5    1    3    3    0  502  0.14936868230E+04  0.87369441170E+03 -0.40168610054E+03  0.17764616696E+04  0.46999998093E+01 0. -1.
</event>
<event>
 5   0  0.1140808E-08  0.3500510E+04  0.7818609E-02  0.8113669E-01
        1   -1    0    0  501    0  0.00000000000E+00  0.00000000000E+00  0.13707800282E+04  0.13707800282E+04  0.50400001928E-02 0. -1.
       -1   -1    0    0    0  501  0.00000000000E+00  0.00000000000E+00 -0.22347807590E+04  0.22347807590E+04  0.50400001928E-02 0.  1.
    10030    2    1    2    0    0  0.00000000000E+00  0.00000000000E+00 -0.86400073084E+03  0.36055607873E+04  0.35005101525E+04 0.  0.
        3    1    3    3  502    0 -0.12389279703E+04  0.12256576393E+04 -0.26523521823E+03  0.17628184522E+04  0.10100000352E+00 0. -1.
       -3    1    3    3    0  502  0.12389279703E+04 -0.12256576393E+04 -0.59876551261E+03  0.18427423351E+04  0.10100000352E+00 0.  1.
</event>
<event>
 5   0  0.3700096E-08  0.3498305E+04  0.7818609E-02  0.8114192E-01
        2   -1    0    0  501    0  0.00000000000E+00  0.00000000000E+00  0.13409634170E+04  0.13409634170E+04  0.25500000920E-02 0.  1.
       -2   -1    0    0    0  501  0.00000000000E+00  0.00000000000E+00 -0.22815941245E+04  0.22815941245E+04  0.25500000920E-02 0. -1.
    10030    2    1    2    0    0  0.00000000000E+00  0.00000000000E+00 -0.94063070750E+03  0.36225575414E+04  0.34983048771E+04 0.  0.
        4    1    3    3  502    0  0.15213004569E+04  0.15618922493E+03 -0.13494588140E+04  0.20395565346E+04  0.12699999809E+01 0. -1.
       -4    1    3    3    0  502 -0.15213004569E+04 -0.15618922493E+03  0.40882810652E+03  0.15830010068E+04  0.12699999809E+01 0.  1.
</event>
<event>
 5   0  0.1121462E-08  0.3501245E+04  0.7818609E-02  0.8113495E-01
       -1   -1    0    0    0  501  0.00000000000E+00  0.00000000000E+00  0.21407638910E+04  0.21407638910E+04  0.50400001928E-02 0. -1.
        1   -1    0    0  501    0  0.00000000000E+00  0.00000000000E+00 -0.14315817481E+04  0.14315817481E+04  0.50400001928E-02 0.  1.
    10030    2    1    2    0    0  0.00000000000E+00  0.00000000000E+00  0.70918214295E+03  0.35723456391E+04  0.35012446435E+04 0.  0.
        2    1    3    3  502    0  0.10369628076E+04 -0.30612159671E+03 -0.10502043896E+04  0.15072927905E+04  0.25500000920E-02 0.  1.
       -2    1    3    3    0  502 -0.10369628076E+04  0.30612159671E+03  0.17593865326E+04  0.20650528486E+04  0.25500000920E-02 0. -1.
</event>
<event>
 5   0  0.3628017E-08  0.3499806E+04  0.7818609E-02  0.8113836E-01
        2   -1    0    0  501    0  0.00000000000E+00  0.00000000000E+00  0.20790802760E+04  0.20790802760E+04  0.25500000920E-02 0. -1.
       -2   -1    0    0    0  501  0.00000000000E+00  0.00000000000E+00 -0.14728439648E+04  0.14728439648E+04  0.25500000920E-02 0.  1.
    10030    2    1    2    0    0  0.00000000000E+00  0.00000000000E+00  0.60623631120E+03  0.35519242409E+04  0.34998061872E+04 0.  0.
        1    1    3    3  502    0  0.68365417648E+03  0.13724435044E+04 -0.55275309491E+03  0.16298834896E+04  0.50400001928E-02 0.  1.
       -1    1    3    3    0  502 -0.68365417648E+03 -0.13724435044E+04  0.11589894061E+04  0.19220407512E+04  0.50400001928E-02 0. -1.
</event>
<event>
 5   0  0.3628017E-08  0.3498443E+04  0.7818609E-02  0.8114159E-01
        2   -1    0    0  501    0  0.00000000000E+00  0.00000000000E+00  0.27297895579E+04  0.27297895579E+04  0.25500000920E-02 0. -1.
       -2   -1    0    0    0  501  0.00000000000E+00  0.00000000000E+00 -0.11208834391E+04  0.11208834391E+04  0.25500000920E-02 0.  1.
    10030    2    1    2    0    0  0.00000000000E+00  0.00000000000E+00  0.16089061189E+04  0.38506729970E+04  0.34984430295E+04 0.  0.
        1    1    3    3  502    0 -0.12096733197E+04 -0.49021379198E+03  0.20862427884E+04  0.24608998506E+04  0.50400001928E-02 0. -1.
       -1    1    3    3    0  502  0.12096733197E+04  0.49021379198E+03 -0.47733666957E+03  0.13897731464E+04  0.50400001928E-02 0.  1.
</event>
<event>
 5   0  0.3700096E-08  0.3502136E+04  0.7818609E-02  0.8113284E-01
       -2   -1    0    0    0  501  0.00000000000E+00  0.00000000000E+00  0.14181740502E+04  0.14181740502E+04  0.25500000920E-02 0. -1.
        2   -1    0    0  501    0  0.00000000000E+00  0.00000000000E+00 -0.21621037129E+04  0.21621037129E+04  0.25500000920E-02 0.  1.
    10030    2    1    2    0    0  0.00000000000E+00  0.00000000000E+00 -0.74392966270E+03  0.35802777630E+04  0.35021361363E+04 0.  0.
        4    1    3    3  502    0  0.98017129450E+03  0.91462471677E+03 -0.15235824061E+04  0.20294282693E+04  0.12699999809E+01 0.  1.
       -4    1    3    3    0  502 -0.98017129450E+03 -0.91462471677E+03  0.77965274341E+03  0.15508494938E+04  0.12699999809E+01 0. -1.
</event>
<event>
 5   0  0.3553585E-08  0.3500137E+04  0.7818609E-02  0.8113757E-01
       -2   -1    0    0    0  501  0.00000000000E+00  0.00000000000E+00  0.12407342787E+04  0.12407342787E+04  0.25500000920E-02 0.  1.
        2   -1    0    0  501    0  0.00000000000E+00  0.00000000000E+00 -0.24684902333E+04  0.24684902333E+04  0.25500000920E-02 0. -1.
    10030    2    1    2    0    0  0.00000000000E+00  0.00000000000E+00 -0.12277559546E+04  0.37092245120E+04  0.35001373967E+04 0.  0.
        2    1    3    3  502    0 -0.56373099566E+03 -0.12500656295E+04  0.53840430955E+03  0.14732059985E+04  0.25500000920E-02 0.  1.
       -2    1    3    3    0  502  0.56373099566E+03  0.12500656295E+04 -0.17661602642E+04  0.22360185134E+04  0.25500000920E-02 0. -1.
</event>
<event>
 5   0  0.3467834E-08  0.3497596E+04  0.7818609E-02  0.8114360E-01
       -2   -1    0    0    0  501  0.00000000000E+00  0.00000000000E+00  0.12870785956E+04  0.12870785956E+04  0.25500000920E-02 0. -1.
        2   -1    0    0  501    0  0.00000000000E+00  0.00000000000E+00 -0.23761526462E+04  0.23761526462E+04  0.25500000920E-02 0.  1.
    10030    2    1    2    0    0  0.00000000000E+00  0.00000000000E+00 -0.10890740506E+04  0.36632312419E+04  0.34975964381E+04 0.  0.
        3    1    3    3  502    0 -0.36523358640E+03 -0.16733574683E+04 -0.17457478431E+03  0.17216263110E+04  0.10100000352E+00 0.  1.
       -3    1    3    3    0  502  0.36523358640E+03  0.16733574683E+04 -0.91449926628E+03  0.19416049309E+04  0.10100000352E+00 0. -1.
</event>
<event>
 5   0  0.1140808E-08  0.3487845E+04  0.7818609E-02  0.8116677E-01
       -1   -1    0    0    0  501  0.00000000000E+00  0.00000000000E+00  0.29472773176E+04  0.29472773176E+04  0.50400001928E-02 0. -1.
        1   -1    0    0  501    0  0.00000000000E+00  0.00000000000E+00 -0.10318898451E+04  0.10318898451E+04  0.50400001928E-02 0.  1.
    10030    2    1    2    0    0  0.00000000000E+00  0.00000000000E+00  0.19153874725E+04  0.39791671627E+04  0.34878449132E+04 0.  0.
        3    1    3    3  502    0 -0.97368473258E+03  0.10032672520E+03 -0.68892878369E+03  0.11969754757E+04  0.10100000352E+00 0.  1.
       -3    1    3    3    0  502  0.97368473258E+03 -0.10032672520E+03  0.26043162562E+04  0.27821916869E+04  0.10100000352E+00 0. -1.
</event>
<event>
 5   0  0.1121462E-08  0.3502285E+04  0.7818609E-02  0.8113249E-01
       -1   -1    0    0    0  501  0.00000000000E+00  0.00000000000E+00  0.15439394358E+04  0.15439394358E+04  0.50400001928E-02 0.  1.
        1   -1    0    0  501    0  0.00000000000E+00  0.00000000000E+00 -0.19861527091E+04  0.19861527091E+04  0.50400001928E-02 0. -1.
    10030    2    1    2    0    0  0.00000000000E+00  0.00000000000E+00 -0.44221327331E+03  0.35300921450E+04  0.35022846790E+04 0.  0.
        4    1    3    3  502    0  0.16898117658E+04 -0.45860188642E+03 -0.24812217245E+03  0.17684302982E+04  0.12699999809E+01 0. -1.
       -4    1    3    3    0  502 -0.16898117658E+04  0.45860188642E+03 -0.19409110086E+03  0.17616618468E+04  0.12699999809E+01 0.  1.
</event>
<event>
 5   0  0.3467834E-08  0.3499801E+04  0.7818609E-02  0.8113837E-01
       -2   -1    0    0    0  501  0.00000000000E+00  0.00000000000E+00  0.35880837640E+04  0.35880837640E+04  0.25500000920E-02 0.  1.
        2   -1    0    0  501    0  0.00000000000E+00  0.00000000000E+00 -0.85342282762E+03  0.85342282762E+03  0.25500000920E-02 0. -1.
    10030    2    1    2    0    0  0.00000000000E+00  0.00000000000E+00  0.27346609364E+04  0.44415065916E+04  0.34998014753E+04 0.  0.
        3    1    3    3  502    0  0.11860064338E+04 -0.26723215867E+03  0.29646142298E+04  0.32042100164E+04  0.10100000352E+00 0.  1.
       -3    1    3    3    0  502 -0.11860064338E+04  0.26723215867E+03 -0.22995329338E+03  0.12372965752E+04  0.10100000352E+00 0. -1.
</event>
<event>
 5   0  0.3553585E-08  0.3499913E+04  0.7818609E-02  0.8113811E-01
        2   -1    0    0  501    0  0.00000000000E+00  0.00000000000E+00  0.23180444749E+04  0.23180444749E+04  0.25500000920E-02 0. -1.
       -2   -1    0    0    0  501  0.00000000000E+00  0.00000000000E+00 -0.13210907921E+04  0.13210907921E+04  0.25500000920E-02 0.  1.
    10030    2    1    2    0    0  0.00000000000E+00  0.00000000000E+00  0.99695368275E+03  0.36391352670E+04  0.34999126912E+04 0.  0.
        2    1    3    3  502    0  0.12921941953E+04  0.11606057081E+04  0.72045383472E+03  0.18803789980E+04  0.25500000920E-02 0. -1.
       -2    1    3    3    0  502 -0.12921941953E+04 -0.11606057081E+04  0.27649984804E+03  0.17587562691E+04  0.25500000920E-02 0.  1.
</event>
<event>
 5   0  0.1121462E-08  0.3502945E+04  0.7818609E-02  0.8113092E-01
        1   -1    0    0  501    0  0.00000000000E+00  0.00000000000E+00  0.14196960274E+04  0.14196960274E+04  0.50400001928E-02 0. -1.
       -1   -1    0    0    0  501  0.00000000000E+00  0.00000000000E+00 -0.21607834549E+04  0.21607834550E+04  0.50400001928E-02 0.  1.
    10030    2    1    2    0    0  0.00000000000E+00  0.00000000000E+00 -0.74108742756E+03  0.35804794823E+04  0.35029448680E+04 0.  0.
        1    1    3    3  502    0 -0.16894665749E+04 -0.29135856621E+03 -0.73690225741E+03  0.18660686105E+04  0.50400001928E-02 0.  1.
       -1    1    3    3    0  502  0.16894665749E+04  0.29135856621E+03 -0.41851701493E+01  0.17144108719E+04  0.50400001928E-02 0. -1.
</event>
<event>
 5   0  0.3628017E-08  0.3496719E+04  0.7818609E-02  0.8114568E-01
        2   -1    0    0  501    0  0.00000000000E+00  0.00000000000E+00  0.14818241845E+04  0.14818241845E+04  0.25500000920E-02 0.  1.
       -2   -1    0    0    0  501  0.00000000000E+00  0.00000000000E+00 -0.20628359255E+04  0.20628359255E+04  0.25500000920E-02 0. -1.
    10030    2    1    2    0    0  0.00000000000E+00  0.00000000000E+00 -0.58101174103E+03  0.35446601099E+04  0.34967185548E+04 0.  0.
        1    1    3    3  502    0  0.16467634340E+04 -0.57870632990E+03 -0.39202551161E+03  0.17889703256E+04  0.50400001928E-02 0.  1.
       -1    1    3    3    0  502 -0.16467634340E+04  0.57870632990E+03 -0.18898622941E+03  0.17556897844E+04  0.50400001928E-02 0. -1.
</event>
<event>
 5   0  0.1121462E-08  0.3500732E+04  0.7818609E-02  0.8113617E-01
        1   -1    0    0  501    0  0.00000000000E+00  0.00000000000E+00  0.10529935201E+04  0.10529935201E+04  0.50400001928E-02 0. -1.
       -1   -1    0    0    0  501  0.00000000000E+00  0.00000000000E+00 -0.29095913901E+04  0.29095913901E+04  0.50400001928E-02 0.  1.
    10030    2    1    2    0    0  0.00000000000E+00  0.00000000000E+00 -0.18565978700E+04  0.39625849102E+04  0.35007318548E+04 0.  0.
        2    1    3    3  502    0 -0.17134156457E+04  0.65750178534E+02 -0.13263533699E+04  0.21677936993E+04  0.25500000920E-02 0.  1.
       -2    1    3    3    0  502  0.17134156457E+04 -0.65750178534E+02 -0.53024450015E+03  0.17947912109E+04  0.25500000920E-02 0. -1.
</event>
<event>
 5   0  0.3554451E-08  0.3500554E+04  0.7818609E-02  0.8113659E-01
       -2   -1    0    0    0  501  0.00000000000E+00  0.00000000000E+00  0.16304986240E+04  0.16304986240E+04  0.25500000920E-02 0.  1.
        2   -1    0    0  501    0  0.00000000000E+00  0.00000000000E+00 -0.18788546799E+04  0.18788546799E+04  0.25500000920E-02 0. -1.
    10030    2    1    2    0    0  0.00000000000E+00  0.00000000000E+00 -0.24835605593E+03  0.35093533039E+04  0.35005542248E+04 0.  0.
        5    1    3    3  502    0  0.17318798148E+04  0.94797494324E+02 -0.35940289565E+03  0.17713234570E+04  0.46999998093E+01 0.  1.
       -5    1    3    3    0  502 -0.17318798148E+04 -0.94797494324E+02  0.11104683972E+03  0.17380298469E+04  0.46999998093E+01 0. -1.
</event>
<event>
 5   0  0.1121462E-08  0.3497625E+04  0.7818609E-02  0.8114353E-01
        1   -1    0    0  501    0  0.00000000000E+00  0.00000000000E+00  0.10201621278E+04  0.10201621278E+04  0.50400001928E-02 0.  1.
       -1   -1    0    0    0  501  0.00000000000E+00  0.00000000000E+00 -0.29979010577E+04  0.29979010577E+04  0.50400001928E-02 0. -1.
    10030    2    1    2    0    0  0.00000000000E+00  0.00000000000E+00 -0.19777389299E+04  0.40180631855E+04  0.34976249782E+04 0.  0.
        2    1    3    3  502    0  0.10119065002E+04 -0.88205314839E+03 -0.22765340411E+04  0.26428355534E+04  0.25500000920E-02 0. -1.
       -2    1    3    3    0  502 -0.10119065002E+04  0.88205314839E+03  0.29879511121E+03  0.13752276322E+04  0.25500000920E-02 0.  1.
</event>
<event>
 5   0  0.1140808E-08  0.3498630E+04  0.7818609E-02  0.8114115E-01
       -1   -1    0    0    0  501  0.00000000000E+00  0.00000000000E+00  0.14543920000E+04  0.14543920000E+04  0.50400001928E-02 0. -1.
        1   -1    0    0  501    0  0.00000000000E+00  0.00000000000E+00 -0.21040421926E+04  0.21040421926E+04  0.50400001928E-02 0.  1.
    10030    2    1    2    0    0  0.00000000000E+00  0.00000000000E+00 -0.64965019259E+03  0.35584341926E+04  0.34986295217E+04 0.  0.
        3    1    3    3  502    0 -0.12679432399E+04  0.35110258224E+03 -0.14974195161E+04  0.19932933302E+04  0.10100000352E+00 0.  1.
       -3    1    3    3    0  502  0.12679432399E+04 -0.35110258224E+03  0.84776932349E+03  0.15651408624E+04  0.10100000352E+00 0. -1.
</event>
<event>
 5   0  0.1129219E-08  0.3501280E+04  0.7818609E-02  0.8113487E-01
        1   -1    0    0  501    0  0.00000000000E+00  0.00000000000E+00  0.11866570098E+04  0.11866570098E+04  0.50400001928E-02 0.  1.
       -1   -1    0    0    0  501  0.00000000000E+00  0.00000000000E+00 -0.25826668345E+04  0.25826668345E+04  0.50400001928E-02 0. -1.
    10030    2    1    2    0    0  0.00000000000E+00  0.00000000000E+00 -0.13960098248E+04  0.37693238443E+04  0.35012795964E+04 0.  0.
        5    1    3    3  502    0 -0.43046455172E+03 -0.82075988772E+03  0.90087880191E+03  0.12924980578E+04  0.46999998093E+01 0.  1.
       -5    1    3    3    0  502  0.43046455172E+03  0.82075988772E+03 -0.22968886267E+04  0.24768257865E+04  0.46999998093E+01 0. -1.
</event>
<event>
 5   0  0.3628017E-08  0.3500646E+04  0.7818609E-02  0.8113637E-01
        2   -1    0    0  501    0  0.00000000000E+00  0.00000000000E+00  0.29125967353E+04  0.29125967353E+04  0.25500000920E-02 0. -1.
       -2   -1    0    0    0  501  0.00000000000E+00  0.00000000000E+00 -0.10518554528E+04  0.10518554528E+04  0.25500000920E-02 0.  1.
    10030    2    1    2    0    0  0.00000000000E+00  0.00000000000E+00  0.18607412825E+04  0.39644521880E+04  0.35006460876E+04 0.  0.
        1    1    3    3  502    0  0.99277238247E+02 -0.18321288758E+03  0.28984988799E+04  0.29059798156E+04  0.50400001928E-02 0. -1.
       -1    1    3    3    0  502 -0.99277238247E+02  0.18321288758E+03 -0.10377575974E+04  0.10584723724E+04  0.50400001928E-02 0.  1.
</event>
<event>
 5   0  0.1140808E-08  0.3499509E+04  0.7818609E-02  0.8113906E-01
       -1   -1    0    0    0  501  0.00000000000E+00  0.00000000000E+00  0.14207027840E+04  0.14207027840E+04  0.50400001928E-02 0. -1.
        1   -1    0    0  501    0  0.00000000000E+00  0.00000000000E+00 -0.21550188481E+04  0.21550188481E+04  0.50400001928E-02 0.  1.
    10030    2    1    2    0    0  0.00000000000E+00  0.00000000000E+00 -0.73431606410E+03  0.35757216321E+04  0.34995092668E+04 0.  0.
        3    1    3    3  502    0 -0.90583710585E+03  0.14288688349E+00  0.11624748433E+04  0.14737328978E+04  0.10100000352E+00 0. -1.
       -3    1    3    3    0  502  0.90583710585E+03 -0.14288688349E+00 -0.18967909074E+04  0.21019887343E+04  0.10100000352E+00 0.  1.
</event>
<event>
 5   0  0.3553585E-08  0.3502001E+04  0.7818609E-02  0.8113316E-01
       -2   -1    0    0    0  501  0.00000000000E+00  0.00000000000E+00  0.26741433858E+04  0.26741433858E+04  0.25500000920E-02 0.  1.
        2   -1    0    0  501    0  0.00000000000E+00  0.00000000000E+00 -0.11465363755E+04  0.11465363755E+04  0.25500000920E-02 0. -1.
    10030    2    1    2    0    0  0.00000000000E+00  0.00000000000E+00  0.15276070103E+04  0.38206797613E+04  0.35020009509E+04 0.  0.
        2    1    3    3  502    0  0.79181687968E+02 -0.64406486565E+03  0.25381159739E+04  0.26197560932E+04  0.25500000920E-02 0.  1.
       -2    1    3    3    0  502 -0.79181687968E+02  0.64406486565E+03 -0.10105089636E+04  0.12009236681E+04  0.25500000920E-02 0. -1.
</event>
<event>
 5   0  0.1121462E-08  0.3500593E+04  0.7818609E-02  0.8113649E-01
       -1   -1    0    0    0  501  0.00000000000E+00  0.00000000000E+00  0.15344292427E+04  0.15344292427E+04  0.50400001928E-02 0.  1.
        1   -1    0    0  501    0  0.00000000000E+00  0.00000000000E+00 -0.19965322625E+04  0.19965322625E+04  0.50400001928E-02 0. -1.
    10030    2    1    2    0    0  0.00000000000E+00  0.00000000000E+00 -0.46210301979E+03  0.35309615052E+04  0.35005927998E+04 0.  0.
        4    1    3    3  502    0 -0.13126916310E+04  0.59235538450E+03 -0.12344130629E+04  0.18967924089E+04  0.12699999809E+01 0. -1.
       -4    1    3    3    0  502  0.13126916310E+04 -0.59235538450E+03  0.77231004313E+03  0.16341690963E+04  0.12699999809E+01 0.  1.
</event>
<event>
 5   0  0.1129219E-08  0.3501247E+04  0.7818609E-02  0.8113494E-01
        1   -1    0    0  501    0  0.00000000000E+00  0.00000000000E+00  0.15581793339E+04  0.15581793339E+04  0.50400001928E-02 0.  1.
       -1   -1    0    0    0  501  0.00000000000E+00  0.00000000000E+00 -0.19668355703E+04  0.19668355703E+04  0.50400001928E-02 0. -1.
    10030    2    1    2    0    0  0.00000000000E+00  0.00000000000E+00 -0.40865623639E+03  0.35250149043E+04  0.35012469430E+04 0.  0.
        5    1    3    3  502    0 -0.12476323084E+04 -0.11823963125E+04  0.12960560725E+03  0.17237943961E+04  0.46999998093E+01 0. -1.
       -5    1    3    3    0  502  0.12476323084E+04  0.11823963125E+04 -0.53826184365E+03  0.18012205081E+04  0.46999998093E+01 0.  1.
</event>
<event>
 5   0  0.3554451E-08  0.3499915E+04  0.7818609E-02  0.8113810E-01
        2   -1    0    0  501    0  0.00000000000E+00  0.00000000000E+00  0.19636472160E+04  0.19636472160E+04  0.25500000920E-02 0.  1.
       -2   -1    0    0    0  501  0.00000000000E+00  0.00000000000E+00 -0.15595224307E+04  0.15595224307E+04  0.25500000920E-02 0. -1.
    10030    2    1    2    0    0  0.00000000000E+00  0.00000000000E+00  0.40412478530E+03  0.35231696467E+04  0.34999153585E+04 0.  0.
        5    1    3    3  502    0  0.11102882025E+04  0.48131266406E+03 -0.10704283155E+04  0.16156239172E+04  0.46999998093E+01 0. -1.
       -5    1    3    3    0  502 -0.11102882025E+04 -0.48131266406E+03  0.14745531008E+04  0.19075457295E+04  0.46999998093E+01 0.  1.
</event>
<event>
 5   0  0.1129219E-08  0.3501472E+04  0.7818609E-02  0.8113441E-01
       -1   -1    0    0    0  501  0.00000000000E+00  0.00000000000E+00  0.15842108672E+04  0.15842108672E+04  0.50400001928E-02 0.  1.
        1   -1    0    0  501    0  0.00000000000E+00  0.00000000000E+00 -0.19347657001E+04  0.19347657001E+04  0.50400001928E-02 0. -1.
    10030    2    1    2    0    0  0.00000000000E+00  0.00000000000E+00 -0.35055483284E+03  0.35189765673E+04  0.35014721747E+04 0.  0.
        5    1    3    3  502    0  0.28758716236E+03  0.17089384488E+04  0.74718541599E+02  0.17345840851E+04  0.46999998093E+01 0.  1.
       -5    1    3    3    0  502 -0.28758716236E+03 -0.17089384488E+04 -0.42527337443E+03  0.17843924822E+04  0.46999998093E+01 0. -1.
</event>
<event>
 5   0  0.1121462E-08  0.3500100E+04  0.7818609E-02  0.8113766E-01
       -1   -1    0    0    0  501  0.00000000000E+00  0.00000000000E+00  0.20264410344E+04  0.20264410344E+04  0.50400001928E-02 0. -1.
        1   -1    0    0  501    0  0.00000000000E+00  0.00000000000E+00 -0.15113562238E+04  0.15113562238E+04  0.50400001928E-02 0.  1.
    10030    2    1    2    0    0  0.00000000000E+00  0.00000000000E+00  0.51508481058E+03  0.35377972582E+04  0.35000995811E+04 0.  0.
        2    1    3    3  502    0  0.12230528373E+04  0.68367340741E+03 -0.80227666475E+03  0.16145945056E+04  0.25500000920E-02 0.  1.
       -2    1    3    3    0  502 -0.12230528373E+04 -0.68367340741E+03  0.13173614753E+04  0.19232027526E+04  0.25500000920E-02 0. -1.
</event>
<event>
 5   0  0.3628017E-08  0.3500239E+04  0.7818609E-02  0.8113733E-01
        2   -1    0    0  501    0  0.00000000000E+00  0.00000000000E+00  0.21693348426E+04  0.21693348426E+04  0.25500000920E-02 0. -1.
       -2   -1    0    0    0  501  0.00000000000E+00  0.00000000000E+00 -0.14119159749E+04  0.14119159749E+04  0.25500000920E-02 0.  1.
    10030    2    1    2    0    0  0.00000000000E+00  0.00000000000E+00  0.75741886769E+03  0.35812508175E+04  0.35002391456E+04 0.  0.
        1    1    3    3  502    0 -0.63726035768E+03  0.26627326775E+03  0.20240062337E+04  0.21385984781E+04  0.50400001928E-02 0. -1.
       -1    1    3    3    0  502  0.63726035768E+03 -0.26627326775E+03 -0.12665873660E+04  0.14426523394E+04  0.50400001928E-02 0.  1.
</event>
<event>
 5   0  0.1121462E-08  0.3498058E+04  0.7818609E-02  0.8114250E-01
        1   -1    0    0  501    0  0.00000000000E+00  0.00000000000E+00  0.10075662181E+04  0.10075662181E+04  0.50400001928E-02 0. -1.
       -1   -1    0    0    0  501  0.00000000000E+00  0.00000000000E+00 -0.30361298084E+04  0.30361298084E+04  0.50400001928E-02 0.  1.
    10030    2    1    2    0    0  0.00000000000E+00  0.00000000000E+00 -0.20285635903E+04  0.40436960266E+04  0.34980576489E+04 0.  0.
        1    1    3    3  502    0 -0.97645705247E+03  0.43649765090E+02  0.66238339576E+03  0.11807308924E+04  0.50400001928E-02 0. -1.
       -1    1    3    3    0  502  0.97645705247E+03 -0.43649765090E+02 -0.26909469861E+04  0.28629651341E+04  0.50400001928E-02 0.  1.
</event>
<event>
 5   0  0.3628017E-08  0.3499566E+04  0.7818609E-02  0.8113893E-01
       -2   -1    0    0    0  501  0.00000000000E+00  0.00000000000E+00  0.18313280538E+04  0.18313280538E+04  0.25500000920E-02 0.  1.
        2   -1    0    0  501    0  0.00000000000E+00  0.00000000000E+00 -0.16718686987E+04  0.16718686987E+04  0.25500000920E-02 0. -1.
    10030    2    1    2    0    0  0.00000000000E+00  0.00000000000E+00  0.15945935508E+03  0.35031967525E+04  0.34995657161E+04 0.  0.
        1    1    3    3  502    0 -0.30200474241E+03  0.82999899983E+03  0.15918050737E+04  0.18204253890E+04  0.50400001928E-02 0.  1.
       -1    1    3    3    0  502  0.30200474241E+03 -0.82999899983E+03 -0.14323457186E+04  0.16827713635E+04  0.50400001928E-02 0. -1.
</event>
<event>
 5   0  0.3628017E-08  0.3498576E+04  0.7818609E-02  0.8114127E-01
        2   -1    0    0  501    0  0.00000000000E+00  0.00000000000E+00  0.26086442731E+04  0.26086442731E+04  0.25500000920E-02 0.  1.
       -2   -1    0    0    0  501  0.00000000000E+00  0.00000000000E+00 -0.11730265650E+04  0.11730265651E+04  0.25500000920E-02 0. -1.
    10030    2    1    2    0    0  0.00000000000E+00  0.00000000000E+00  0.14356177081E+04  0.37816708382E+04  0.34985762997E+04 0.  0.
        1    1    3    3  502    0 -0.32445692277E+03  0.16221637634E+04  0.13324330330E+04  0.21241622719E+04  0.50400001928E-02 0.  1.
       -1    1    3    3    0  502  0.32445692277E+03 -0.16221637634E+04  0.10318467511E+03  0.16575085663E+04  0.50400001928E-02 0. -1.
</event>
<event>
 5   0  0.1121462E-08  0.3508737E+04  0.7818609E-02  0.8111722E-01
        1   -1    0    0  501    0  0.00000000000E+00  0.00000000000E+00  0.20320469732E+04  0.20320469732E+04  0.50400001928E-02 0.  1.
       -1   -1    0    0    0  501  0.00000000000E+00  0.00000000000E+00 -0.15146347813E+04  0.15146347813E+04  0.50400001928E-02 0. -1.
    10030    2    1    2    0    0  0.00000000000E+00  0.00000000000E+00  0.51741219190E+03  0.35466817546E+04  0.35087371079E+04 0.  0.
        4    1    3    3  502    0  0.61601021843E+02 -0.16444410895E+04  0.87341604808E+03  0.18630186228E+04  0.12699999809E+01 0.  1.
       -4    1    3    3    0  502 -0.61601021843E+02  0.16444410895E+04 -0.35600385618E+03  0.16836631318E+04  0.12699999809E+01 0. -1.
</event>
<event>
 5   0  0.1129219E-08  0.3500120E+04  0.7818609E-02  0.8113761E-01
        1   -1    0    0  501    0  0.00000000000E+00  0.00000000000E+00  0.12630001278E+04  0.12630001278E+04  0.50400001928E-02 0. -1.
       -1   -1    0    0    0  501  0.00000000000E+00  0.00000000000E+00 -0.24249483698E+04  0.24249483698E+04  0.50400001928E-02 0.  1.
    10030    2    1    2    0    0  0.00000000000E+00  0.00000000000E+00 -0.11619482420E+04  0.36879484976E+04  0.35001200556E+04 0.  0.
        5    1    3    3  502    0  0.13029510466E+04 -0.11649032800E+04 -0.48669079290E+03  0.18142687506E+04  0.46999998093E+01 0. -1.
       -5    1    3    3    0  502 -0.13029510466E+04  0.11649032800E+04 -0.67525744910E+03  0.18736797470E+04  0.46999998093E+01 0.  1.
</event>
<event>
 5   0  0.3628017E-08  0.3499781E+04  0.7818609E-02  0.8113842E-01
        2   -1    0    0  501    0  0.00000000000E+00  0.00000000000E+00  0.26023178886E+04  0.26023178886E+04  0.25500000920E-02 0. -1.
       -2   -1    0    0    0  501  0.00000000000E+00  0.00000000000E+00 -0.11766880457E+04  0.11766880457E+04  0.25500000920E-02 0.  1.
    10030    2    1    2    0    0  0.00000000000E+00  0.00000000000E+00  0.14256298429E+04  0.37790059343E+04  0.34997807649E+04 0.  0.
        1    1    3    3  502    0  0.35632739570E+03 -0.11150527809E+04  0.21172828078E+04  0.24193384231E+04  0.50400001928E-02 0. -1.
       -1    1    3    3    0  502 -0.35632739570E+03  0.11150527809E+04 -0.69165296488E+03  0.13596675112E+04  0.50400001928E-02 0.  1.
</event>
<event>
 5   0  0.1121462E-08  0.3499571E+04  0.7818609E-02  0.8113892E-01
        1   -1    0    0  501    0  0.00000000000E+00  0.00000000000E+00  0.19831991419E+04  0.19831991419E+04  0.50400001928E-02 0.  1.
       -1   -1    0    0    0  501  0.00000000000E+00  0.00000000000E+00 -0.15438432908E+04  0.15438432909E+04  0.50400001928E-02 0. -1.
    10030    2    1    2    0    0  0.00000000000E+00  0.00000000000E+00  0.43935585101E+03  0.35270424327E+04  0.34995706534E+04 0.  0.
        4    1    3    3  502    0  0.79490794123E+03 -0.13279699321E+04  0.10423974045E+04  0.18660055566E+04  0.12699999809E+01 0.  1.
       -4    1    3    3    0  502 -0.79490794123E+03  0.13279699321E+04 -0.60304155352E+03  0.16610368761E+04  0.12699999809E+01 0. -1.
</event>
<event>
 5   0  0.1121462E-08  0.3500264E+04  0.7818609E-02  0.8113727E-01
       -1   -1    0    0    0  501  0.00000000000E+00  0.00000000000E+00  0.19924306812E+04  0.19924306813E+04  0.50400001928E-02 0. -1.
        1   -1    0    0  501    0  0.00000000000E+00  0.00000000000E+00 -0.15372990511E+04  0.15372990511E+04  0.50400001928E-02 0.  1.
    10030    2    1    2    0    0  0.00000000000E+00  0.00000000000E+00  0.45513163015E+03  0.35297297324E+04  0.35002638733E+04 0.  0.
        1    1    3    3  502    0 -0.62442095402E+03  0.13695147043E+04 -0.67297462549E+03  0.16487470697E+04  0.50400001928E-02 0. -1.
       -1    1    3    3    0  502  0.62442095402E+03 -0.13695147043E+04  0.11281062556E+04  0.18809826627E+04  0.50400001928E-02 0.  1.
</event>
<event>
 5   0  0.1129219E-08  0.3501926E+04  0.7818609E-02  0.8113334E-01
        1   -1    0    0  501    0  0.00000000000E+00  0.00000000000E+00  0.19207823878E+04  0.19207823878E+04  0.50400001928E-02 0. -1.
       -1   -1    0    0    0  501  0.00000000000E+00  0.00000000000E+00 -0.15961572914E+04  0.15961572915E+04  0.50400001928E-02 0.  1.
    10030    2    1    2    0    0  0.00000000000E+00  0.00000000000E+00  0.32462509638E+03  0.35169396793E+04  0.35019256495E+04 0.  0.
        5    1    3    3  502    0  0.44643955703E+03 -0.76968857979E+03  0.16767965187E+04  0.18982616899E+04  0.46999998093E+01 0. -1.
       -5    1    3    3    0  502 -0.44643955703E+03  0.76968857979E+03 -0.13521714224E+04  0.16186779894E+04  0.46999998093E+01 0.  1.
</event>
<event>
 5   0  0.3700096E-08  0.3499647E+04  0.7818609E-02  0.8113874E-01
       -2   -1    0    0    0  501  0.00000000000E+00  0.00000000000E+00  0.30844489362E+04  0.30844489362E+04  0.25500000920E-02 0. -1.
        2   -1    0    0  501    0  0.00000000000E+00  0.00000000000E+00 -0.99268378784E+03  0.99268378784E+03  0.25500000920E-02 0.  1.
    10030    2    1    2    0    0  0.00000000000E+00  0.00000000000E+00  0.20917651483E+04  0.40771327240E+04  0.34996470984E+04 0.  0.
        4    1    3    3  502    0 -0.93968888956E+03  0.10999632691E+04 -0.10089840752E+03  0.14502125721E+04  0.12699999809E+01 0.  1.
       -4    1    3    3    0  502  0.93968888956E+03 -0.10999632691E+04  0.21926635558E+04  0.26269201519E+04  0.12699999809E+01 0. -1.
</event>
<event>
 5   0  0.3553585E-08  0.3500858E+04  0.7818609E-02  0.8113587E-01
       -2   -1    0    0    0  501  0.00000000000E+00  0.00000000000E+00  0.12962141792E+04  0.12962141792E+04  0.25500000920E-02 0. -1.
        2   -1    0    0  501    0  0.00000000000E+00  0.00000000000E+00 -0.23638081568E+04  0.23638081568E+04  0.25500000920E-02 0.  1.
    10030    2    1    2    0    0  0.00000000000E+00  0.00000000000E+00 -0.10675939775E+04  0.36600223360E+04  0.35008579804E+04 0.  0.
        2    1    3    3  502    0  0.40368874449E+03 -0.12765148423E+04  0.64509885133E+03  0.14861383761E+04  0.25500000920E-02 0. -1.
       -2    1    3    3    0  502 -0.40368874449E+03  0.12765148423E+04 -0.17126928289E+04  0.21738839599E+04  0.25500000920E-02 0.  1.
</event>
<event>
 5   0  0.1129219E-08  0.3501285E+04  0.7818609E-02  0.8113485E-01
       -1   -1    0    0    0  501  0.00000000000E+00  0.00000000000E+00  0.13064432725E+04  0.13064432725E+04  0.50400001928E-02 0. -1.
        1   -1    0    0  501    0  0.00000000000E+00  0.00000000000E+00 -0.23458728954E+04  0.23458728954E+04  0.50400001928E-02 0.  1.
    10030    2    1    2    0    0  0.00000000000E+00  0.00000000000E+00 -0.10394296230E+04  0.36523161679E+04  0.35012853996E+04 0.  0.
        5    1    3    3  502    0 -0.68528251346E+03 -0.15214265325E+04 -0.10720618257E+04  0.19833530863E+04  0.46999998093E+01 0.  1.
       -5    1    3    3    0  502  0.68528251346E+03  0.15214265325E+04  0.32632202700E+02  0.16689630816E+04  0.46999998093E+01 0. -1.
</event>
<event>
 5   0  0.1121462E-08  0.3499584E+04  0.7818609E-02  0.8113889E-01
        1   -1    0    0  501    0  0.00000000000E+00  0.00000000000E+00  0.14375469300E+04  0.14375469300E+04  0.50400001928E-02 0. -1.
       -1   -1    0    0    0  501  0.00000000000E+00  0.00000000000E+00 -0.21298589544E+04  0.21298589544E+04  0.50400001928E-02 0.  1.
    10030    2    1    2    0    0  0.00000000000E+00  0.00000000000E+00 -0.69231202434E+03  0.35674058844E+04  0.34995840903E+04 0.  0.
        1    1    3    3  502    0 -0.11462051935E+04 -0.39105621437E+03  0.94127724739E+03  0.15338559792E+04  0.50400001928E-02 0. -1.
       -1    1    3    3    0  502  0.11462051935E+04  0.39105621437E+03 -0.16335892717E+04  0.20335499053E+04  0.50400001928E-02 0.  1.
</event>
<event>
 5   0  0.3467834E-08  0.3498873E+04  0.7818609E-02  0.8114057E-01
       -2   -1    0    0    0  501  0.00000000000E+00  0.00000000000E+00  0.10788547726E+04  0.10788547726E+04  0.25500000920E-02 0. -1.
        2   -1    0    0  501    0  0.00000000000E+00  0.00000000000E+00 -0.28368301398E+04  0.28368301399E+04  0.25500000920E-02 0.  1.
    10030    2    1    2    0    0  0.00000000000E+00  0.00000000000E+00 -0.17579753672E+04  0.39156849125E+04  0.34988728102E+04 0.  0.
        3    1    3    3  502    0 -0.26920445379E+03 -0.14687270432E+04 -0.18991125268E+04  0.24158349622E+04  0.10100000352E+00 0.  1.
       -3    1    3    3    0  502  0.26920445379E+03  0.14687270432E+04  0.14113715956E+03  0.14998499503E+04  0.10100000352E+00 0. -1.
</event>
<event>
 5   0  0.3700096E-08  0.3499608E+04  0.7818609E-02  0.8113883E-01
       -2   -1    0    0    0  501  0.00000000000E+00  0.00000000000E+00  0.23588455069E+04  0.23588455069E+04  0.25500000920E-02 0.  1.
        2   -1    0    0  501    0  0.00000000000E+00  0.00000000000E+00 -0.12980139516E+04  0.12980139516E+04  0.25500000920E-02 0. -1.
    10030    2    1    2    0    0  0.00000000000E+00  0.00000000000E+00  0.10608315553E+04  0.36568594585E+04  0.34996081938E+04 0.  0.
        4    1    3    3  502    0 -0.10536614096E+04  0.76426088750E+03  0.17523701921E+04  0.21829108945E+04  0.12699999809E+01 0.  1.
       -4    1    3    3    0  502  0.10536614096E+04 -0.76426088750E+03 -0.69153863684E+03  0.14739485640E+04  0.12699999809E+01 0. -1.
</event>
<event>
 5   0  0.3700096E-08  0.3499208E+04  0.7818609E-02  0.8113978E-01
       -2   -1    0    0    0  501  0.00000000000E+00  0.00000000000E+00  0.13860921125E+04  0.13860921125E+04  0.25500000920E-02 0. -1.
        2   -1    0    0  501    0  0.00000000000E+00  0.00000000000E+00 -0.22084487898E+04  0.22084487898E+04  0.25500000920E-02 0.  1.
    10030    2    1    2    0    0  0.00000000000E+00  0.00000000000E+00 -0.82235667732E+03  0.35945409024E+04  0.34992075952E+04 0.  0.
        4    1    3    3  502    0 -0.10273256583E+04 -0.58981423512E+03 -0.17338258253E+04  0.20998648636E+04  0.12699999809E+01 0.  1.
       -4    1    3    3    0  502  0.10273256583E+04  0.58981423512E+03  0.91146914800E+03  0.14946760387E+04  0.12699999809E+01 0. -1.
</event>
<event>
 5   0  0.1140808E-08  0.3499610E+04  0.7818609E-02  0.8113882E-01
       -1   -1    0    0    0  501  0.00000000000E+00  0.00000000000E+00  0.20289664167E+04  0.20289664167E+04  0.50400001928E-02 0.  1.
        1   -1    0    0  501    0  0.00000000000E+00  0.00000000000E+00 -0.15090530662E+04  0.15090530662E+04  0.50400001928E-02 0. -1.
    10030    2    1    2    0    0  0.00000000000E+00  0.00000000000E+00  0.51991335055E+03  0.35380194829E+04  0.34996102597E+04 0.  0.
        3    1    3    3  502    0 -0.22433376072E+03  0.34210698637E+03  0.19799388725E+04  0.20217617999E+04  0.10100000352E+00 0.  1.
       -3    1    3    3    0  502  0.22433376072E+03 -0.34210698637E+03 -0.14600255220E+04  0.15162576830E+04  0.10100000352E+00 0. -1.
</event>
<event>
 5   0  0.1129219E-08  0.3499937E+04  0.7818609E-02  0.8113805E-01
       -1   -1    0    0    0  501  0.00000000000E+00  0.00000000000E+00  0.16967268054E+04  0.16967268054E+04  0.50400001928E-02 0. -1.
        1   -1    0    0  501    0  0.00000000000E+00  0.00000000000E+00 -0.18048813058E+04  0.18048813058E+04  0.50400001928E-02 0.  1.
    10030    2    1    2    0    0  0.00000000000E+00  0.00000000000E+00 -0.10815450035E+03  0.35016081112E+04  0.34999374235E+04 0.  0.
        5    1    3    3  502    0  0.13868609569E+04 -0.98811296631E+02  0.10090783058E+04  0.17179662696E+04  0.46999998093E+01 0. -1.
       -5    1    3    3    0  502 -0.13868609569E+04  0.98811296631E+02 -0.11172328062E+04  0.17836418417E+04  0.46999998093E+01 0.  1.
</event>
<event>
 5   0  0.1140808E-08  0.3500931E+04  0.7818609E-02  0.8113569E-01
       -1   -1    0    0    0  501  0.00000000000E+00  0.00000000000E+00  0.18839576446E+04  0.18839576446E+04  0.50400001928E-02 0.  1.
        1   -1    0    0  501    0  0.00000000000E+00  0.00000000000E+00 -0.16264320261E+04  0.16264320262E+04  0.50400001928E-02 0. -1.
    10030    2    1    2    0    0  0.00000000000E+00  0.00000000000E+00  0.25752561841E+03  0.35103896707E+04  0.35009307614E+04 0.  0.
        3    1    3    3  502    0 -0.10178377238E+04 -0.79477993695E+02  0.15545112523E+04  0.18597891351E+04  0.10100000352E+00 0.  1.
       -3    1    3    3    0  502  0.10178377238E+04  0.79477993695E+02 -0.12969856339E+04  0.16506005356E+04  0.10100000352E+00 0. -1.
</event>
<event>
 5   0  0.1121462E-08  0.3510436E+04  0.7818609E-02  0.8111321E-01
       -1   -1    0    0    0  501  0.00000000000E+00  0.00000000000E+00  0.16411621864E+04  0.16411621864E+04  0.50400001928E-02 0. -1.
        1   -1    0    0  501    0  0.00000000000E+00  0.00000000000E+00 -0.18772003782E+04  0.18772003782E+04  0.50400001928E-02 0.  1.
    10030    2    1    2    0    0  0.00000000000E+00  0.00000000000E+00 -0.23603819186E+03  0.35183625646E+04  0.35104360282E+04 0.  0.
        2    1    3    3  502    0  0.17216652596E+04  0.12705457159E+03 -0.43577779122E+03  0.17804989227E+04  0.25500000920E-02 0.  1.
       -2    1    3    3    0  502 -0.17216652596E+04 -0.12705457159E+03  0.19973959936E+03  0.17378636419E+04  0.25500000920E-02 0. -1.
</event>
<event>
 5   0  0.3467834E-08  0.3501069E+04  0.7818609E-02  0.8113537E-01
       -2   -1    0    0    0  501  0.00000000000E+00  0.00000000000E+00  0.19274101653E+04  0.19274101653E+04  0.25500000920E-02 0.  1.
        2   -1    0    0  501    0  0.00000000000E+00  0.00000000000E+00 -0.15898905548E+04  0.15898905548E+04  0.25500000920E-02 0. -1.
    10030    2    1    2    0    0  0.00000000000E+00  0.00000000000E+00  0.33751961055E+03  0.35173007201E+04  0.35010691036E+04 0.  0.
        3    1    3    3  502    0  0.33675244266E+03  0.11837518054E+04  0.14194009932E+04  0.18786616870E+04  0.10100000352E+00 0.  1.
       -3    1    3    3    0  502 -0.33675244266E+03 -0.11837518054E+04 -0.10818813827E+04  0.16386390331E+04  0.10100000352E+00 0. -1.
</event>
<event>
 5   0  0.3467834E-08  0.3501622E+04  0.7818609E-02  0.8113406E-01
        2   -1    0    0  501    0  0.00000000000E+00  0.00000000000E+00  0.17646963609E+04  0.17646963609E+04  0.25500000920E-02 0.  1.
       -2   -1    0    0    0  501  0.00000000000E+00  0.00000000000E+00 -0.17370346860E+04  0.17370346860E+04  0.25500000920E-02 0. -1.
    10030    2    1    2    0    0  0.00000000000E+00  0.00000000000E+00  0.27661674887E+02  0.35017310469E+04  0.35016217894E+04 0.  0.
        3    1    3    3  502    0  0.81921219372E+03  0.57492530168E+03  0.14504309357E+04  0.17622138435E+04  0.10100000352E+00 0.  1.
       -3    1    3    3    0  502 -0.81921219372E+03 -0.57492530168E+03 -0.14227692608E+04  0.17395172033E+04  0.10100000352E+00 0. -1.
</event>
<event>
 5   0  0.1140808E-08  0.3502118E+04  0.7818609E-02  0.8113288E-01
        1   -1    0    0  501    0  0.00000000000E+00  0.00000000000E+00  0.11192873556E+04  0.11192873556E+04  0.50400001928E-02 0. -1.
       -1   -1    0    0    0  501  0.00000000000E+00  0.00000000000E+00 -0.27394286945E+04  0.27394286945E+04  0.50400001928E-02 0.  1.
    10030    2    1    2    0    0  0.00000000000E+00  0.00000000000E+00 -0.16201413389E+04  0.38587160501E+04  0.35021181586E+04 0.  0.
        3    1    3    3  502    0  0.16705120328E+04  0.51694301128E+03 -0.91085807564E+03  0.19716751692E+04  0.10100000352E+00 0.  1.
       -3    1    3    3    0  502 -0.16705120328E+04 -0.51694301128E+03 -0.70928326325E+03  0.18870408809E+04  0.10100000352E+00 0. -1.
</event>
<event>
 5   0  0.3553585E-08  0.3498533E+04  0.7818609E-02  0.8114138E-01
        2   -1    0    0  501    0  0.00000000000E+00  0.00000000000E+00  0.25413048639E+04  0.25413048639E+04  0.25500000920E-02 0.  1.
       -2   -1    0    0    0  501  0.00000000000E+00  0.00000000000E+00 -0.12040792937E+04  0.12040792937E+04  0.25500000920E-02 0. -1.
    10030    2    1    2    0    0  0.00000000000E+00  0.00000000000E+00  0.13372255702E+04  0.37453841577E+04  0.34985325871E+04 0.  0.
        2    1    3    3  502    0  0.16738078173E+04  0.16438802865E+03  0.11834574649E+04  0.20565085958E+04  0.25500000920E-02 0.  1.
       -2    1    3    3    0  502 -0.16738078173E+04 -0.16438802865E+03  0.15376810529E+03  0.16888755619E+04  0.25500000920E-02 0. -1.
</event>
<event>
 5   0  0.3628017E-08  0.3482206E+04  0.7818609E-02  0.8118020E-01
       -2   -1    0    0    0  501  0.00000000000E+00  0.00000000000E+00  0.10365748257E+04  0.10365748257E+04  0.25500000920E-02 0. -1.
        2   -1    0    0  501    0  0.00000000000E+00  0.00000000000E+00 -0.29244773520E+04  0.29244773520E+04  0.25500000920E-02 0.  1.
    10030    2    1    2    0    0  0.00000000000E+00  0.00000000000E+00 -0.18879025263E+04  0.39610521777E+04  0.34822059683E+04 0.  0.
        1    1    3    3  502    0 -0.74896754144E+03  0.11756471753E+04 -0.21306448391E+04  0.25461237380E+04  0.50400001928E-02 0.  1.
       -1    1    3    3    0  502  0.74896754144E+03 -0.11756471753E+04  0.24274231278E+03  0.14149284397E+04  0.50400001928E-02 0. -1.
</event>
<event>
 5   0  0.3700096E-08  0.3500429E+04  0.7818609E-02  0.8113688E-01
        2   -1    0    0  501    0  0.00000000000E+00  0.00000000000E+00  0.22039723812E+04  0.22039723812E+04  0.25500000920E-02 0.  1.
       -2   -1    0    0    0  501  0.00000000000E+00  0.00000000000E+00 -0.13898774892E+04  0.13898774892E+04  0.25500000920E-02 0. -1.
    10030    2    1    2    0    0  0.00000000000E+00  0.00000000000E+00  0.81409489202E+03  0.35938498703E+04  0.35004294590E+04 0.  0.
        4    1    3    3  502    0 -0.96624160881E+03  0.12065090067E+04  0.12499098425E+04  0.19878538822E+04  0.12699999809E+01 0.  1.
       -4    1    3    3    0  502  0.96624160881E+03 -0.12065090067E+04 -0.43581495046E+03  0.16059959881E+04  0.12699999809E+01 0. -1.
</event>
<event>
 5   0  0.1129219E-08  0.3500491E+04  0.7818609E-02  0.8113674E-01
       -1   -1    0    0    0  501  0.00000000000E+00  0.00000000000E+00  0.23398188111E+04  0.23398188111E+04  0.50400001928E-02 0.  1.
        1   -1    0    0  501    0  0.00000000000E+00  0.00000000000E+00 -0.13092292772E+04  0.13092292772E+04  0.50400001928E-02 0. -1.
    10030    2    1    2    0    0  0.00000000000E+00  0.00000000000E+00  0.10305895339E+04  0.36490480883E+04  0.35004909889E+04 0.  0.
        5    1    3    3  502    0 -0.18539197065E+03  0.11828814254E+04  0.18460931267E+04  0.22003773703E+04  0.46999998093E+01 0.  1.
       -5    1    3    3    0  502  0.18539197065E+03 -0.11828814254E+04 -0.81550359280E+03  0.14486707180E+04  0.46999998093E+01 0. -1.
</event>
<event>
 5   0  0.3628017E-08  0.3502335E+04  0.7818609E-02  0.8113237E-01
       -2   -1    0    0    0  501  0.00000000000E+00  0.00000000000E+00  0.88772574392E+03  0.88772574393E+03  0.25500000920E-02 0. -1.
        2   -1    0    0  501    0  0.00000000000E+00  0.00000000000E+00 -0.34544304310E+04  0.34544304310E+04  0.25500000920E-02 0.  1.
    10030    2    1    2    0    0  0.00000000000E+00  0.00000000000E+00 -0.25667046870E+04  0.43421561749E+04  0.35023345495E+04 0.  0.
        1    1    3    3  502    0  0.63387252160E+03  0.25218884462E+02 -0.33069663394E+04  0.33672624988E+04  0.50400001928E-02 0.  1.
       -1    1    3    3    0  502 -0.63387252160E+03 -0.25218884462E+02  0.74026165235E+03  0.97489367612E+03  0.50400001928E-02 0. -1.
</event>
<event>
 5   0  0.3467834E-08  0.3500700E+04  0.7818609E-02  0.8113624E-01
       -2   -1    0    0    0  501  0.00000000000E+00  0.00000000000E+00  0.11434382690E+04  0.11434382690E+04  0.25500000920E-02 0.  1.
        2   -1    0    0  501    0  0.00000000000E+00  0.00000000000E+00 -0.26793972051E+04  0.26793972051E+04  0.25500000920E-02 0. -1.
    10030    2    1    2    0    0  0.00000000000E+00  0.00000000000E+00 -0.15359589362E+04  0.38228354741E+04  0.35007001026E+04 0.  0.
        3    1    3    3  502    0 -0.70853561048E+03 -0.49699112599E+03 -0.24293950574E+04  0.25789500278E+04  0.10100000352E+00 0. -1.
       -3    1    3    3    0  502  0.70853561048E+03  0.49699112599E+03  0.89343612125E+03  0.12438854463E+04  0.10100000352E+00 0.  1.
</event>
<event>
 5   0  0.1121462E-08  0.3498836E+04  0.7818609E-02  0.8114066E-01
        1   -1    0    0  501    0  0.00000000000E+00  0.00000000000E+00  0.20233931376E+04  0.20233931376E+04  0.50400001928E-02 0.  1.
       -1   -1    0    0    0  501  0.00000000000E+00  0.00000000000E+00 -0.15125397396E+04  0.15125397396E+04  0.50400001928E-02 0. -1.
    10030    2    1    2    0    0  0.00000000000E+00  0.00000000000E+00  0.51085339797E+03  0.35359328772E+04  0.34988355374E+04 0.  0.
        4    1    3    3  502    0  0.88933880080E+03 -0.10568454161E+04 -0.82955559465E+03  0.16112137765E+04  0.12699999809E+01 0. -1.
       -4    1    3    3    0  502 -0.88933880080E+03  0.10568454161E+04  0.13404089926E+04  0.19247191007E+04  0.12699999809E+01 0.  1.
</event>
<event>
 5   0  0.3554451E-08  0.3500197E+04  0.7818609E-02  0.8113743E-01
       -2   -1    0    0    0  501  0.00000000000E+00  0.00000000000E+00  0.14733746003E+04  0.14733746003E+04  0.25500000920E-02 0. -1.
        2   -1    0    0  501    0  0.00000000000E+00  0.00000000000E+00 -0.20787955003E+04  0.20787955003E+04  0.25500000920E-02 0.  1.
    10030    2    1    2    0    0  0.00000000000E+00  0.00000000000E+00 -0.60542090005E+03  0.35521701006E+04  0.35001968455E+04 0.  0.
        5    1    3    3  502    0 -0.86942823960E+03 -0.11433170304E+04 -0.13174287525E+04  0.19490305035E+04  0.46999998093E+01 0.  1.
       -5    1    3    3    0  502  0.86942823960E+03  0.11433170304E+04  0.71200785240E+03  0.16031395971E+04  0.46999998093E+01 0. -1.
</event>
<event>
 5   0  0.3553585E-08  0.3496102E+04  0.7818609E-02  0.8114714E-01
       -2   -1    0    0    0  501  0.00000000000E+00  0.00000000000E+00  0.12304466518E+04  0.12304466518E+04  0.25500000920E-02 0.  1.
        2   -1    0    0  501    0  0.00000000000E+00  0.00000000000E+00 -0.24833926231E+04  0.24833926231E+04  0.25500000920E-02 0. -1.
    10030    2    1    2    0    0  0.00000000000E+00  0.00000000000E+00 -0.12529459713E+04  0.37138392750E+04  0.34961019083E+04 0.  0.
        2    1    3    3  502    0 -0.10417840967E+03 -0.13386735654E+04  0.56251314316E+03  0.14557888212E+04  0.25500000920E-02 0.  1.
       -2    1    3    3    0  502  0.10417840967E+03  0.13386735654E+04 -0.18154591145E+04  0.22580504538E+04  0.25500000920E-02 0. -1.
</event>
<event>
 5   0  0.3553585E-08  0.3497583E+04  0.7818609E-02  0.8114363E-01
        2   -1    0    0  501    0  0.00000000000E+00  0.00000000000E+00  0.18658072697E+04  0.18658072697E+04  0.25500000920E-02 0.  1.
       -2   -1    0    0    0  501  0.00000000000E+00  0.00000000000E+00 -0.16391144433E+04  0.16391144433E+04  0.25500000920E-02 0. -1.
    10030    2    1    2    0    0  0.00000000000E+00  0.00000000000E+00  0.22669282640E+03  0.35049217131E+04  0.34975829622E+04 0.  0.
        2    1    3    3  502    0 -0.49274618580E+03  0.12376750236E+04  0.12486991148E+04  0.18258936844E+04  0.25500000920E-02 0.  1.
       -2    1    3    3    0  502  0.49274618580E+03 -0.12376750236E+04 -0.10220062884E+04  0.16790280287E+04  0.25500000920E-02 0. -1.
</event>
<event>
 5   0  0.1140808E-08  0.3500490E+04  0.7818609E-02  0.8113674E-01
       -1   -1    0    0    0  501  0.00000000000E+00  0.00000000000E+00  0.20215254034E+04  0.20215254034E+04  0.50400001928E-02 0. -1.
        1   -1    0    0  501    0  0.00000000000E+00  0.00000000000E+00 -0.15153692848E+04  0.15153692848E+04  0.50400001928E-02 0.  1.
    10030    2    1    2    0    0  0.00000000000E+00  0.00000000000E+00  0.50615611859E+03  0.35368946882E+04  0.35004899684E+04 0.  0.
        3    1    3    3  502    0  0.95043284079E+03  0.60705406719E+03  0.16054749215E+04  0.19619854635E+04  0.10100000352E+00 0. -1.
       -3    1    3    3    0  502 -0.95043284079E+03 -0.60705406719E+03 -0.10993188029E+04  0.15749092247E+04  0.10100000352E+00 0.  1.
</event>
<event>
 5   0  0.1121462E-08  0.3499750E+04  0.7818609E-02  0.8113849E-01
        1   -1    0    0  501    0  0.00000000000E+00  0.00000000000E+00  0.23245689542E+04  0.23245689542E+04  0.50400001928E-02 0.  1.
       -1   -1    0    0    0  501  0.00000000000E+00  0.00000000000E+00 -0.13172600952E+04  0.13172600952E+04  0.50400001928E-02 0. -1.
    10030    2    1    2    0    0  0.00000000000E+00  0.00000000000E+00  0.10073088590E+04  0.36418290494E+04  0.34997496606E+04 0.  0.
        2    1    3    3  502    0 -0.73907908773E+03 -0.10476844372E+04 -0.73556570087E+03  0.14781534014E+04  0.25500000920E-02 0. -1.
       -2    1    3    3    0  502  0.73907908773E+03  0.10476844372E+04  0.17428745599E+04  0.21636756479E+04  0.25500000920E-02 0.  1.
</event>
<event>
 5   0  0.3628017E-08  0.3495563E+04  0.7818609E-02  0.8114842E-01
        2   -1    0    0  501    0  0.00000000000E+00  0.00000000000E+00  0.15841882924E+04  0.15841882924E+04  0.25500000920E-02 0. -1.
       -2   -1    0    0    0  501  0.00000000000E+00  0.00000000000E+00 -0.19282686663E+04  0.19282686663E+04  0.25500000920E-02 0.  1.
    10030    2    1    2    0    0  0.00000000000E+00  0.00000000000E+00 -0.34408037392E+03  0.35124569588E+04  0.34955632713E+04 0.  0.
        1    1    3    3  502    0  0.13995498023E+04 -0.86263511372E+03 -0.76808623893E+03  0.18146171659E+04  0.50400001928E-02 0.  1.
       -1    1    3    3    0  502 -0.13995498023E+04  0.86263511372E+03  0.42400586501E+03  0.16978397928E+04  0.50400001928E-02 0. -1.
</event>
<event>
 5   0  0.1121462E-08  0.3498988E+04  0.7818609E-02  0.8114030E-01
       -1   -1    0    0    0  501  0.00000000000E+00  0.00000000000E+00  0.15780236421E+04  0.15780236421E+04  0.50400001928E-02 0.  1.
        1   -1    0    0  501    0  0.00000000000E+00  0.00000000000E+00 -0.19395969525E+04  0.19395969525E+04  0.50400001928E-02 0. -1.
    10030    2    1    2    0    0  0.00000000000E+00  0.00000000000E+00 -0.36157331036E+03  0.35176205946E+04  0.34989883379E+04 0.  0.
        2    1    3    3  502    0 -0.11817855077E+04  0.68620330784E+03  0.91738446000E+03  0.16459301970E+04  0.25500000920E-02 0.  1.
       -2    1    3    3    0  502  0.11817855077E+04 -0.68620330784E+03 -0.12789577704E+04  0.18716903976E+04  0.25500000920E-02 0. -1.
</event>
<event>
 5   0  0.1129219E-08  0.3500269E+04  0.7818609E-02  0.8113726E-01
        1   -1    0    0  501    0  0.00000000000E+00  0.00000000000E+00  0.16713436250E+04  0.16713436250E+04  0.50400001928E-02 0. -1.
       -1   -1    0    0    0  501  0.00000000000E+00  0.00000000000E+00 -0.18326397012E+04  0.18326397012E+04  0.50400001928E-02 0.  1.
    10030    2    1    2    0    0  0.00000000000E+00  0.00000000000E+00 -0.16129607619E+03  0.35039833263E+04  0.35002689506E+04 0.  0.
        5    1    3    3  502    0  0.13722988796E+04 -0.71671174138E+03 -0.89764438386E+03  0.17895998058E+04  0.46999998093E+01 0. -1.
       -5    1    3    3    0  502 -0.13722988796E+04  0.71671174138E+03  0.73634830767E+03  0.17143835205E+04  0.46999998093E+01 0.  1.
</event>
<event>
 5   0  0.3554451E-08  0.3499651E+04  0.7818609E-02  0.8113873E-01
        2   -1    0    0  501    0  0.00000000000E+00  0.00000000000E+00  0.20582695040E+04  0.20582695040E+04  0.25500000920E-02 0.  1.
       -2   -1    0    0    0  501  0.00000000000E+00  0.00000000000E+00 -0.14876033583E+04  0.14876033583E+04  0.25500000920E-02 0. -1.
    10030    2    1    2    0    0  0.00000000000E+00  0.00000000000E+00  0.57066614570E+03  0.35458728623E+04  0.34996506263E+04 0.  0.
        5    1    3    3  502    0 -0.71618813563E+03 -0.35715503452E+03  0.18619640963E+04  0.20266764789E+04  0.46999998093E+01 0.  1.
       -5    1    3    3    0  502  0.71618813563E+03  0.35715503452E+03 -0.12912979506E+04  0.15191963834E+04  0.46999998093E+01 0. -1.
</event>
<event>
 5   0  0.1121462E-08  0.3499389E+04  0.7818609E-02  0.8113935E-01
       -1   -1    0    0    0  501  0.00000000000E+00  0.00000000000E+00  0.19945057681E+04  0.19945057681E+04  0.50400001928E-02 0. -1.
        1   -1    0    0  501    0  0.00000000000E+00  0.00000000000E+00 -0.15349321746E+04  0.15349321746E+04  0.50400001928E-02 0.  1.
    10030    2    1    2    0    0  0.00000000000E+00  0.00000000000E+00  0.45957359346E+03  0.35294379427E+04  0.34993891329E+04 0.  0.
        2    1    3    3  502    0 -0.33111032847E+03  0.81540149229E+03 -0.12954544943E+04  0.15661149351E+04  0.25500000920E-02 0.  1.
       -2    1    3    3    0  502  0.33111032847E+03 -0.81540149229E+03  0.17550280878E+04  0.19633230076E+04  0.25500000920E-02 0. -1.
</event>
<event>
 5   0  0.1140808E-08  0.3500753E+04  0.7818609E-02  0.8113612E-01
       -1   -1    0    0    0  501  0.00000000000E+00  0.00000000000E+00  0.16081692191E+04  0.16081692191E+04  0.50400001928E-02 0.  1.
        1   -1    0    0  501    0  0.00000000000E+00  0.00000000000E+00 -0.19051586225E+04  0.19051586225E+04  0.50400001928E-02 0. -1.
    10030    2    1    2    0    0  0.00000000000E+00  0.00000000000E+00 -0.29698940340E+03  0.35133278415E+04  0.35007527500E+04 0.  0.
        3    1    3    3  502    0 -0.85362548415E+03  0.25542981068E+03  0.13635348342E+04  0.16288487068E+04  0.10100000352E+00 0.  1.
       -3    1    3    3    0  502  0.85362548415E+03 -0.25542981068E+03 -0.16605242376E+04  0.18844791347E+04  0.10100000352E+00 0. -1.
</event>
<event>
 5   0  0.1129219E-08  0.3500799E+04  0.7818609E-02  0.8113601E-01
        1   -1    0    0  501    0  0.00000000000E+00  0.00000000000E+00  0.22963146226E+04  0.22963146226E+04  0.50400001928E-02 0. -1.
       -1   -1    0    0    0  501  0.00000000000E+00  0.00000000000E+00 -0.13342678264E+04  0.13342678264E+04  0.50400001928E-02 0.  1.
    10030    2    1    2    0    0  0.00000000000E+00  0.00000000000E+00  0.96204679613E+03  0.36305824490E+04  0.35007991775E+04 0.  0.
        5    1    3    3  502    0  0.73601715440E+03 -0.57150779802E+03 -0.10556416399E+04  0.14080993490E+04  0.46999998093E+01 0.  1.
       -5    1    3    3    0  502 -0.73601715440E+03  0.57150779802E+03  0.20176884360E+04  0.22224831000E+04  0.46999998093E+01 0. -1.
</event>
<event>
 5   0  0.3553585E-08  0.3500359E+04  0.7818609E-02  0.8113705E-01
       -2   -1    0    0    0  501  0.00000000000E+00  0.00000000000E+00  0.10909104770E+04  0.10909104770E+04  0.25500000920E-02 0. -1.
        2   -1    0    0  501    0  0.00000000000E+00  0.00000000000E+00 -0.28078643149E+04  0.28078643149E+04  0.25500000920E-02 0.  1.
    10030    2    1    2    0    0  0.00000000000E+00  0.00000000000E+00 -0.17169538379E+04  0.38987747919E+04  0.35003591811E+04 0.  0.
        2    1    3    3  502    0 -0.13423558754E+04  0.69072752344E+03  0.12780845424E+03  0.15150441607E+04  0.25500000920E-02 0. -1.
       -2    1    3    3    0  502  0.13423558754E+04 -0.69072752344E+03 -0.18447622921E+04  0.23837306312E+04  0.25500000920E-02 0.  1.
</event>
<event>
 5   0  0.3467834E-08  0.3499007E+04  0.7818609E-02  0.8114025E-01
       -2   -1    0    0    0  501  0.00000000000E+00  0.00000000000E+00  0.11885866664E+04  0.11885866664E+04  0.25500000920E-02 0.  1.
        2   -1    0    0  501    0  0.00000000000E+00  0.00000000000E+00 -0.25751271303E+04  0.25751271303E+04  0.25500000920E-02 0. -1.
    10030    2    1    2    0    0  0.00000000000E+00  0.00000000000E+00 -0.13865404639E+04  0.37637137967E+04  0.34990065855E+04 0.  0.
        3    1    3    3  502    0  0.60353442276E+03 -0.33544704038E+03 -0.24223565639E+04  0.25188469285E+04  0.10100000352E+00 0. -1.
       -3    1    3    3    0  502 -0.60353442276E+03  0.33544704038E+03  0.10358161000E+04  0.12448668682E+04  0.10100000352E+00 0.  1.
</event>
<event>
 5   0  0.1140808E-08  0.3496313E+04  0.7818609E-02  0.8114664E-01
       -1   -1    0    0    0  501  0.00000000000E+00  0.00000000000E+00  0.12194610763E+04  0.12194610763E+04  0.50400001928E-02 0. -1.
        1   -1    0    0  501    0  0.00000000000E+00  0.00000000000E+00 -0.25060665810E+04  0.25060665810E+04  0.50400001928E-02 0.  1.
    10030    2    1    2    0    0  0.00000000000E+00  0.00000000000E+00 -0.12866055047E+04  0.37255276573E+04  0.34963127149E+04 0.  0.
        3    1    3    3  502    0 -0.22324222369E+02 -0.65278646414E+02 -0.25046154238E+04  0.25055654260E+04  0.10100000352E+00 0.  1.
       -3    1    3    3    0  502  0.22324222369E+02  0.65278646414E+02  0.12180099191E+04  0.12199622313E+04  0.10100000352E+00 0. -1.
</event>
<event>
 5   0  0.3628017E-08  0.3499357E+04  0.7818609E-02  0.8113942E-01
        2   -1    0    0  501    0  0.00000000000E+00  0.00000000000E+00  0.21366607060E+04  0.21366607060E+04  0.25500000920E-02 0.  1.
       -2   -1    0    0    0  501  0.00000000000E+00  0.00000000000E+00 -0.14327846574E+04  0.14327846574E+04  0.25500000920E-02 0. -1.
    10030    2    1    2    0    0  0.00000000000E+00  0.00000000000E+00  0.70387604857E+03  0.35694453633E+04  0.34993568995E+04 0.  0.
        1    1    3    3  502    0  0.48858489030E+01  0.13230940662E+04 -0.81588283127E+03  0.15544344868E+04  0.50400001928E-02 0. -1.
       -1    1    3    3    0  502 -0.48858489030E+01 -0.13230940662E+04  0.15197588798E+04  0.20150108765E+04  0.50400001928E-02 0.  1.
</event>
<event>
 5   0  0.3628017E-08  0.3499599E+04  0.7818609E-02  0.8113885E-01
       -2   -1    0    0    0  501  0.00000000000E+00  0.00000000000E+00  0.14852505927E+04  0.14852505927E+04  0.25500000920E-02 0.  1.
        2   -1    0    0  501    0  0.00000000000E+00  0.00000000000E+00 -0.20614694023E+04  0.20614694023E+04  0.25500000920E-02 0. -1.
    10030    2    1    2    0    0  0.00000000000E+00  0.00000000000E+00 -0.57621880965E+03  0.35467199950E+04  0.34995992066E+04 0.  0.
        1    1    3    3  502    0  0.13721799717E+04 -0.10844403838E+04 -0.23344023692E+03  0.17644781566E+04  0.50400001928E-02 0.  1.
       -1    1    3    3    0  502 -0.13721799717E+04  0.10844403838E+04 -0.34277857273E+03  0.17822418385E+04  0.50400001928E-02 0. -1.
</event>
<event>
 5   0  0.3554451E-08  0.3499649E+04  0.7818609E-02  0.8113873E-01
       -2   -1    0    0    0  501  0.00000000000E+00  0.00000000000E+00  0.15292946907E+04  0.15292946907E+04  0.25500000920E-02 0. -1.
        2   -1    0    0  501    0  0.00000000000E+00  0.00000000000E+00 -0.20021554867E+04  0.20021554867E+04  0.25500000920E-02 0.  1.
    10030    2    1    2    0    0  0.00000000000E+00  0.00000000000E+00 -0.47286079602E+03  0.35314501774E+04  0.34996489857E+04 0.  0.
        5    1    3    3  502    0  0.13745616969E+04  0.78006894883E+03  0.52135040614E+03  0.16642583212E+04  0.46999998093E+01 0. -1.
       -5    1    3    3    0  502 -0.13745616969E+04 -0.78006894883E+03 -0.99421120216E+03  0.18671918563E+04  0.46999998093E+01 0.  1.
</event>
<event>
 5   0  0.3467834E-08  0.3498136E+04  0.7818609E-02  0.8114232E-01
       -2   -1    0    0    0  501  0.00000000000E+00  0.00000000000E+00  0.24286370840E+04  0.24286370840E+04  0.25500000920E-02 0.  1.
        2   -1    0    0  501    0  0.00000000000E+00  0.00000000000E+00 -0.12596528804E+04  0.12596528804E+04  0.25500000920E-02 0. -1.
    10030    2    1    2    0    0  0.00000000000E+00  0.00000000000E+00  0.11689842036E+04  0.36882899644E+04  0.34981364744E+04 0.  0.
        3    1    3    3  502    0 -0.14703482074E+04 -0.65107684796E+03  0.13099449868E+04  0.20740734779E+04  0.10100000352E+00 0.  1.
       -3    1    3    3    0  502  0.14703482074E+04  0.65107684796E+03 -0.14096078320E+03  0.16142164866E+04  0.10100000352E+00 0. -1.
</event>
<event>
 5   0  0.1121462E-08  0.3498238E+04  0.7818609E-02  0.8114208E-01
       -1   -1    0    0    0  501  0.00000000000E+00  0.00000000000E+00  0.11731585650E+04  0.11731585650E+04  0.50400001928E-02 0. -1.
        1   -1    0    0  501    0  0.00000000000E+00  0.00000000000E+00 -0.26078461921E+04  0.26078461921E+04  0.50400001928E-02 0.  1.
    10030    2    1    2    0    0  0.00000000000E+00  0.00000000000E+00 -0.14346876272E+04  0.37810047571E+04  0.34982378973E+04 0.  0.
        1    1    3    3  502    0  0.41679173668E+03 -0.16568408811E+04 -0.11225907251E+04  0.20442717513E+04  0.50400001928E-02 0. -1.
       -1    1    3    3    0  502 -0.41679173668E+03  0.16568408811E+04 -0.31209690205E+03  0.17367330058E+04  0.50400001928E-02 0.  1.
</event>
<event>
 5   0  0.1121462E-08  0.3500432E+04  0.7818609E-02  0.8113688E-01
       -1   -1    0    0    0  501  0.00000000000E+00  0.00000000000E+00  0.23099798142E+04  0.23099798142E+04  0.50400001928E-02 0.  1.
        1   -1    0    0  501    0  0.00000000000E+00  0.00000000000E+00 -0.13260966716E+04  0.13260966717E+04  0.50400001928E-02 0. -1.
    10030    2    1    2    0    0  0.00000000000E+00  0.00000000000E+00  0.98388314255E+03  0.36360764859E+04  0.35004322837E+04 0.  0.
        1    1    3    3  502    0 -0.72601051756E+03 -0.71320551021E+03 -0.98713991392E+03  0.14178147203E+04  0.50400001928E-02 0. -1.
       -1    1    3    3    0  502  0.72601051756E+03  0.71320551021E+03  0.19710230565E+04  0.22182617656E+04  0.50400001928E-02 0.  1.
</event>
<event>
 5   0  0.1140808E-08  0.3495812E+04  0.7818609E-02  0.8114783E-01
       -1   -1    0    0    0  501  0.00000000000E+00  0.00000000000E+00  0.15995499039E+04  0.15995499039E+04  0.50400001928E-02 0.  1.
        1   -1    0    0  501    0  0.00000000000E+00  0.00000000000E+00 -0.19100217673E+04  0.19100217673E+04  0.50400001928E-02 0. -1.
    10030    2    1    2    0    0  0.00000000000E+00  0.00000000000E+00 -0.31047186339E+03  0.35095716713E+04  0.34958118568E+04 0.  0.
        3    1    3    3  502    0 -0.80694225604E+03 -0.31004402281E+03 -0.16803903174E+04  0.18897075778E+04  0.10100000352E+00 0. -1.
       -3    1    3    3    0  502  0.80694225604E+03  0.31004402281E+03  0.13699184540E+04  0.16198640935E+04  0.10100000352E+00 0.  1.
</event>
<event>
 5   0  0.3554451E-08  0.3500036E+04  0.7818609E-02  0.8113781E-01
       -2   -1    0    0    0  501  0.00000000000E+00  0.00000000000E+00  0.16119033768E+04  0.16119033768E+04  0.25500000920E-02 0.  1.
        2   -1    0    0  501    0  0.00000000000E+00  0.00000000000E+00 -0.18999665421E+04  0.18999665421E+04  0.25500000920E-02 0. -1.
    10030    2    1    2    0    0  0.00000000000E+00  0.00000000000E+00 -0.28806316531E+03  0.35118699190E+04  0.35000357056E+04 0.  0.
        5    1    3    3  502    0 -0.96515591949E+03  0.13662331551E+04 -0.65998947074E+03  0.17982567043E+04  0.46999998093E+01 0. -1.
       -5    1    3    3    0  502  0.96515591949E+03 -0.13662331551E+04  0.37192630543E+03  0.17136132147E+04  0.46999998093E+01 0.  1.
</event>
<event>
 5   0  0.3628017E-08  0.3499258E+04  0.7818609E-02  0.8113966E-01
        2   -1    0    0  501    0  0.00000000000E+00  0.00000000000E+00  0.18495660624E+04  0.18495660624E+04  0.25500000920E-02 0.  1.
       -2   -1    0    0    0  501  0.00000000000E+00  0.00000000000E+00 -0.16550920661E+04  0.16550920661E+04  0.25500000920E-02 0. -1.
    10030    2    1    2    0    0  0.00000000000E+00  0.00000000000E+00  0.19447399631E+03  0.35046581284E+04  0.34992582731E+04 0.  0.
        1    1    3    3  502    0 -0.78164921227E+03  0.44789559363E+03 -0.14049495671E+04  0.16689725102E+04  0.50400001928E-02 0. -1.
       -1    1    3    3    0  502  0.78164921227E+03 -0.44789559363E+03  0.15994235634E+04  0.18356856182E+04  0.50400001928E-02 0.  1.
</event>
<event>
 5   0  0.1129219E-08  0.3500245E+04  0.7818609E-02  0.8113732E-01
       -1   -1    0    0    0  501  0.00000000000E+00  0.00000000000E+00  0.30790996984E+04  0.30790996984E+04  0.50400001928E-02 0.  1.
        1   -1    0    0  501    0  0.00000000000E+00  0.00000000000E+00 -0.99474792722E+03  0.99474792723E+03  0.50400001928E-02 0. -1.
    10030    2    1    2    0    0  0.00000000000E+00  0.00000000000E+00  0.20843517712E+04  0.40738476256E+04  0.35002445873E+04 0.  0.
        5    1    3    3  502    0  0.16765071249E+04  0.40061873858E+03  0.13946868206E+04  0.22172832321E+04  0.46999998093E+01 0.  1.
       -5    1    3    3    0  502 -0.16765071249E+04 -0.40061873858E+03  0.68966495052E+03  0.18565643936E+04  0.46999998093E+01 0. -1.
</event>
<event>
 5   0  0.1129219E-08  0.3501995E+04  0.7818609E-02  0.8113317E-01
        1   -1    0    0  501    0  0.00000000000E+00  0.00000000000E+00  0.22792665302E+04  0.22792665302E+04  0.50400001928E-02 0.  1.
       -1   -1    0    0    0  501  0.00000000000E+00  0.00000000000E+00 -0.13451658271E+04  0.13451658271E+04  0.50400001928E-02 0. -1.
    10030    2    1    2    0    0  0.00000000000E+00  0.00000000000E+00  0.93410070308E+03  0.36244323573E+04  0.35019945444E+04 0.  0.
        5    1    3    3  502    0  0.98475655949E+03 -0.18843385569E+03 -0.10186583402E+04  0.14293144173E+04  0.46999998093E+01 0. -1.
       -5    1    3    3    0  502 -0.98475655949E+03  0.18843385569E+03  0.19527590433E+04  0.21951179400E+04  0.46999998093E+01 0.  1.
</event>
<event>
 5   0  0.3628017E-08  0.3488692E+04  0.7818609E-02  0.8116475E-01
       -2   -1    0    0    0  501  0.00000000000E+00  0.00000000000E+00  0.24676276430E+04  0.24676276430E+04  0.25500000920E-02 0. -1.
        2   -1    0    0  501    0  0.00000000000E+00  0.00000000000E+00 -0.12330639300E+04  0.12330639300E+04  0.25500000920E-02 0.  1.
    10030    2    1    2    0    0  0.00000000000E+00  0.00000000000E+00  0.12345637130E+04  0.37006915730E+04  0.34886918117E+04 0.  0.
        1    1    3    3  502    0 -0.98930315154E+03 -0.12182576702E+04 -0.19048432459E+03  0.15808721500E+04  0.50400001928E-02 0.  1.
       -1    1    3    3    0  502  0.98930315154E+03  0.12182576702E+04  0.14250480376E+04  0.21198194230E+04  0.50400001928E-02 0. -1.
</event>
<event>
 5   0  0.1140808E-08  0.3499449E+04  0.7818609E-02  0.8113921E-01
        1   -1    0    0  501    0  0.00000000000E+00  0.00000000000E+00  0.21026597582E+04  0.21026597582E+04  0.50400001928E-02 0.  1.
       -1   -1    0    0    0  501  0.00000000000E+00  0.00000000000E+00 -0.14560300391E+04  0.14560300392E+04  0.50400001928E-02 0. -1.
    10030    2    1    2    0    0  0.00000000000E+00  0.00000000000E+00  0.64662971907E+03  0.35586897974E+04  0.34994489681E+04 0.  0.
        3    1    3    3  502    0  0.15404372988E+04 -0.74953455539E+03 -0.38784046399E+02  0.17135499216E+04  0.10100000352E+00 0. -1.
       -3    1    3    3    0  502 -0.15404372988E+04  0.74953455539E+03  0.68541376547E+03  0.18451398758E+04  0.10100000352E+00 0.  1.
</event>
<event>
 5   0  0.1121462E-08  0.3500270E+04  0.7818609E-02  0.8113726E-01
       -1   -1    0    0    0  501  0.00000000000E+00  0.00000000000E+00  0.11082508970E+04  0.11082508970E+04  0.50400001928E-02 0.  1.
        1   -1    0    0  501    0  0.00000000000E+00  0.00000000000E+00 -0.27637892235E+04  0.27637892235E+04  0.50400001928E-02 0. -1.
    10030    2    1    2    0    0  0.00000000000E+00  0.00000000000E+00 -0.16555383265E+04  0.38720401205E+04  0.35002696388E+04 0.  0.
        2    1    3    3  502    0 -0.10809782554E+04 -0.92155596579E+03  0.30316282944E+03  0.14524761918E+04  0.25500000920E-02 0.  1.
       -2    1    3    3    0  502  0.10809782554E+04  0.92155596579E+03 -0.19587011560E+04  0.24195639287E+04  0.25500000920E-02 0. -1.
</event>
<event>
 5   0  0.1121462E-08  0.3502231E+04  0.7818609E-02  0.8113261E-01
        1   -1    0    0  501    0  0.00000000000E+00  0.00000000000E+00  0.31048643020E+04  0.31048643021E+04  0.50400001928E-02 0.  1.
       -1   -1    0    0    0  501  0.00000000000E+00  0.00000000000E+00 -0.98761349758E+03  0.98761349759E+03  0.50400001928E-02 0. -1.
    10030    2    1    2    0    0  0.00000000000E+00  0.00000000000E+00  0.21172508045E+04  0.40924777996E+04  0.35022312276E+04 0.  0.
        4    1    3    3  502    0  0.49389673886E+03 -0.94750104572E+03  0.26797798787E+04  0.28849461054E+04  0.12699999809E+01 0.  1.
       -4    1    3    3    0  502 -0.49389673886E+03  0.94750104572E+03 -0.56252907420E+03  0.12075316942E+04  0.12699999809E+01 0. -1.
</event>
<event>
 5   0  0.1121462E-08  0.3502578E+04  0.7818609E-02  0.8113179E-01
       -1   -1    0    0    0  501  0.00000000000E+00  0.00000000000E+00  0.10868623529E+04  0.10868623529E+04  0.50400001928E-02 0.  1.
        1   -1    0    0  501    0  0.00000000000E+00  0.00000000000E+00 -0.28218967805E+04  0.28218967805E+04  0.50400001928E-02 0. -1.
    10030    2    1    2    0    0  0.00000000000E+00  0.00000000000E+00 -0.17350344276E+04  0.39087591334E+04  0.35025781217E+04 0.  0.
        4    1    3    3  502    0 -0.20044259011E+03 -0.16257009394E+04 -0.15589940881E+04  0.22613148732E+04  0.12699999809E+01 0. -1.
       -4    1    3    3    0  502  0.20044259011E+03  0.16257009394E+04 -0.17604033950E+03  0.16474442602E+04  0.12699999809E+01 0.  1.
</event>
<event>
 5   0  0.1121462E-08  0.3498937E+04  0.7818609E-02  0.8114042E-01
       -1   -1    0    0    0  501  0.00000000000E+00  0.00000000000E+00  0.11896506276E+04  0.11896506276E+04  0.50400001928E-02 0.  1.
        1   -1    0    0  501    0  0.00000000000E+00  0.00000000000E+00 -0.25727223553E+04  0.25727223553E+04  0.50400001928E-02 0. -1.
    10030    2    1    2    0    0  0.00000000000E+00  0.00000000000E+00 -0.13830717277E+04  0.37623729829E+04  0.34989374184E+04 0.  0.
        1    1    3    3  502    0  0.21965231963E+03 -0.16533708029E+04 -0.12380851162E+03  0.16724863829E+04  0.50400001928E-02 0.  1.
       -1    1    3    3    0  502 -0.21965231963E+03  0.16533708029E+04 -0.12592632161E+04  0.20898866000E+04  0.50400001928E-02 0. -1.
</event>
<event>
 5   0  0.1140808E-08  0.3499551E+04  0.7818609E-02  0.8113896E-01
        1   -1    0    0  501    0  0.00000000000E+00  0.00000000000E+00  0.25245737969E+04  0.25245737969E+04  0.50400001928E-02 0. -1.
       -1   -1    0    0    0  501  0.00000000000E+00  0.00000000000E+00 -0.12127646341E+04  0.12127646342E+04  0.50400001928E-02 0.  1.
    10030    2    1    2    0    0  0.00000000000E+00  0.00000000000E+00  0.13118091628E+04  0.37373384311E+04  0.34995507239E+04 0.  0.
        3    1    3    3  502    0  0.82187079234E+02  0.96624400916E+03 -0.89953954506E+03  0.13227069232E+04  0.10100000352E+00 0.  1.
       -3    1    3    3    0  502 -0.82187079234E+02 -0.96624400916E+03  0.22113487078E+04  0.24146315079E+04  0.10100000352E+00 0. -1.
</event>
<event>
 5   0  0.1121462E-08  0.3500245E+04  0.7818609E-02  0.8113732E-01
        1   -1    0    0  501    0  0.00000000000E+00  0.00000000000E+00  0.28516493066E+04  0.28516493066E+04  0.50400001928E-02 0.  1.
       -1   -1    0    0    0  501  0.00000000000E+00  0.00000000000E+00 -0.10740901460E+04  0.10740901460E+04  0.50400001928E-02 0. -1.
    10030    2    1    2    0    0  0.00000000000E+00  0.00000000000E+00  0.17775591606E+04  0.39257394525E+04  0.35002448028E+04 0.  0.
        4    1    3    3  502    0  0.11954523062E+03 -0.45593317123E+03  0.27791215546E+04  0.28188090299E+04  0.12699999809E+01 0.  1.
       -4    1    3    3    0  502 -0.11954523062E+03  0.45593317123E+03 -0.10015623940E+04  0.11069304227E+04  0.12699999809E+01 0. -1.
</event>
<event>
 5   0  0.3554451E-08  0.3501334E+04  0.7818609E-02  0.8113474E-01
        2   -1    0    0  501    0  0.00000000000E+00  0.00000000000E+00  0.12112723728E+04  0.12112723728E+04  0.25500000920E-02 0.  1.
       -2   -1    0    0    0  501  0.00000000000E+00  0.00000000000E+00 -0.25302610363E+04  0.25302610363E+04  0.25500000920E-02 0. -1.
    10030    2    1    2    0    0  0.00000000000E+00  0.00000000000E+00 -0.13189886636E+04  0.37415334091E+04  0.35013341967E+04 0.  0.
        5    1    3    3  502    0  0.80948143758E+03 -0.77188115567E+03 -0.20986410512E+04  0.23781036706E+04  0.46999998093E+01 0. -1.
       -5    1    3    3    0  502 -0.80948143758E+03  0.77188115567E+03  0.77965238764E+03  0.13634297385E+04  0.46999998093E+01 0.  1.
</event>
<event>
 5   0  0.1121462E-08  0.3500484E+04  0.7818609E-02  0.8113675E-01
        1   -1    0    0  501    0  0.00000000000E+00  0.00000000000E+00  0.10551167944E+04  0.10551167944E+04  0.50400001928E-02 0.  1.
       -1   -1    0    0    0  501  0.00000000000E+00  0.00000000000E+00 -0.29033246312E+04  0.29033246312E+04  0.50400001928E-02 0. -1.
    10030    2    1    2    0    0  0.00000000000E+00  0.00000000000E+00 -0.18482078368E+04  0.39584414256E+04  0.35004837255E+04 0.  0.
        2    1    3    3  502    0  0.21693875104E+03 -0.61957399985E+03  0.91063008024E+03  0.11225780623E+04  0.25500000920E-02 0.  1.
       -2    1    3    3    0  502 -0.21693875104E+03  0.61957399985E+03 -0.27588379170E+04  0.28358633633E+04  0.25500000920E-02 0. -1.
</event>
<event>
 5   0  0.1140808E-08  0.3495359E+04  0.7818609E-02  0.8114891E-01
       -1   -1    0    0    0  501  0.00000000000E+00  0.00000000000E+00  0.12735803784E+04  0.12735803784E+04  0.50400001928E-02 0.  1.
        1   -1    0    0  501    0  0.00000000000E+00  0.00000000000E+00 -0.23982653483E+04  0.23982653483E+04  0.50400001928E-02 0. -1.
    10030    2    1    2    0    0  0.00000000000E+00  0.00000000000E+00 -0.11246849699E+04  0.36718457268E+04  0.34953590316E+04 0.  0.
        3    1    3    3  502    0 -0.16514379737E+03 -0.78020707237E+03  0.10712947952E+04  0.13355403768E+04  0.10100000352E+00 0.  1.
       -3    1    3    3    0  502  0.16514379737E+03  0.78020707237E+03 -0.21959797651E+04  0.23363053500E+04  0.10100000352E+00 0. -1.
</event>
<event>
 5   0  0.1121462E-08  0.3500206E+04  0.7818609E-02  0.8113741E-01
        1   -1    0    0  501    0  0.00000000000E+00  0.00000000000E+00  0.15808655644E+04  0.15808655644E+04  0.50400001928E-02 0. -1.
       -1   -1    0    0    0  501  0.00000000000E+00  0.00000000000E+00 -0.19374574286E+04  0.19374574286E+04  0.50400001928E-02 0.  1.
    10030    2    1    2    0    0  0.00000000000E+00  0.00000000000E+00 -0.35659186425E+03  0.35183229930E+04  0.35002055547E+04 0.  0.
        2    1    3    3  502    0  0.51494142809E+03 -0.80003891423E+03  0.12981954753E+04  0.16095149676E+04  0.25500000920E-02 0. -1.
       -2    1    3    3    0  502 -0.51494142809E+03  0.80003891423E+03 -0.16547873396E+04  0.19088080254E+04  0.25500000920E-02 0.  1.
</event>
<event>
 5   0  0.3628017E-08  0.3501460E+04  0.7818609E-02  0.8113444E-01
       -2   -1    0    0    0  501  0.00000000000E+00  0.00000000000E+00  0.16482455844E+04  0.16482455844E+04  0.25500000920E-02 0.  1.
        2   -1    0    0  501    0  0.00000000000E+00  0.00000000000E+00 -0.18595864369E+04  0.18595864369E+04  0.25500000920E-02 0. -1.
    10030    2    1    2    0    0  0.00000000000E+00  0.00000000000E+00 -0.21134085242E+03  0.35078320213E+04  0.35014597718E+04 0.  0.
        1    1    3    3  502    0 -0.14930317582E+03 -0.16449606567E+04 -0.68713011554E+03  0.17889479579E+04  0.50400001928E-02 0. -1.
       -1    1    3    3    0  502  0.14930317582E+03  0.16449606567E+04  0.47578926312E+03  0.17188840634E+04  0.50400001928E-02 0.  1.
</event>
<event>
 5   0  0.1121462E-08  0.3501295E+04  0.7818609E-02  0.8113483E-01
        1   -1    0    0  501    0  0.00000000000E+00  0.00000000000E+00  0.20226586944E+04  0.20226586944E+04  0.50400001928E-02 0. -1.
       -1   -1    0    0    0  501  0.00000000000E+00  0.00000000000E+00 -0.15152169681E+04  0.15152169681E+04  0.50400001928E-02 0.  1.
    10030    2    1    2    0    0  0.00000000000E+00  0.00000000000E+00  0.50744172627E+03  0.35378756626E+04  0.35012950601E+04 0.  0.
        1    1    3    3  502    0  0.11695618186E+04  0.10957364066E+04  0.96553353231E+03  0.18710339715E+04  0.50400001928E-02 0.  1.
       -1    1    3    3    0  502 -0.11695618186E+04 -0.10957364066E+04 -0.45809180604E+03  0.16668416911E+04  0.50400001928E-02 0. -1.
</event>
<event>
 5   0  0.3553585E-08  0.3494150E+04  0.7818609E-02  0.8115178E-01
        2   -1    0    0  501    0  0.00000000000E+00  0.00000000000E+00  0.19408138799E+04  0.19408138799E+04  0.25500000920E-02 0.  1.
       -2   -1    0    0    0  501  0.00000000000E+00  0.00000000000E+00 -0.15726759957E+04  0.15726759957E+04  0.25500000920E-02 0. -1.
    10030    2    1    2    0    0  0.00000000000E+00  0.00000000000E+00  0.36813788417E+03  0.35134898756E+04  0.34941501978E+04 0.  0.
        2    1    3    3  502    0 -0.11666004004E+04 -0.12311334897E+04 -0.23732724268E+03  0.17125917154E+04  0.25500000920E-02 0. -1.
       -2    1    3    3    0  502  0.11666004004E+04  0.12311334897E+04  0.60546512685E+03  0.18008981602E+04  0.25500000920E-02 0.  1.
</event>
<event>
 5   0  0.1121462E-08  0.3495735E+04  0.7818609E-02  0.8114801E-01
        3   -1    0    0  501    0  0.00000000000E+00  0.00000000000E+00  0.16384832185E+04  0.16384832216E+04  0.10100000352E+00 0.  1.
       -3   -1    0    0    0  501  0.00000000000E+00  0.00000000000E+00 -0.18645546563E+04  0.18645546590E+04  0.10100000352E+00 0. -1.
    10030    2    1    2    0    0  0.00000000000E+00  0.00000000000E+00 -0.22607143780E+03  0.35030378806E+04  0.34957354159E+04 0.  0.
        3    1    3    3  502    0  0.10239877399E+04  0.11373363442E+04 -0.95916718368E+03  0.18061247320E+04  0.10100000352E+00 0. -1.
       -3    1    3    3    0  502 -0.10239877399E+04 -0.11373363442E+04  0.73309574588E+03  0.16969131486E+04  0.10100000352E+00 0.  1.
</event>
<event>
 5   0  0.1121462E-08  0.3495373E+04  0.7818609E-02  0.8114887E-01
        1   -1    0    0  501    0  0.00000000000E+00  0.00000000000E+00  0.19770941473E+04  0.19770941473E+04  0.50400001928E-02 0. -1.
       -1   -1    0    0    0  501  0.00000000000E+00  0.00000000000E+00 -0.15448975092E+04  0.15448975092E+04  0.50400001928E-02 0.  1.
    10030    2    1    2    0    0  0.00000000000E+00  0.00000000000E+00  0.43219663816E+03  0.35219916565E+04  0.34953728405E+04 0.  0.
        1    1    3    3  502    0  0.73726140228E+03 -0.37898686710E+03 -0.13341966815E+04  0.15707533880E+04  0.50400001928E-02 0.  1.
       -1    1    3    3    0  502 -0.73726140228E+03  0.37898686710E+03  0.17663933197E+04  0.19512382685E+04  0.50400001928E-02 0. -1.
</event>
<event>
 5   0  0.1140808E-08  0.3500314E+04  0.7818609E-02  0.8113716E-01
        1   -1    0    0  501    0  0.00000000000E+00  0.00000000000E+00  0.12208815094E+04  0.12208815094E+04  0.50400001928E-02 0.  1.
       -1   -1    0    0    0  501  0.00000000000E+00  0.00000000000E+00 -0.25088831500E+04  0.25088831500E+04  0.50400001928E-02 0. -1.
    10030    2    1    2    0    0  0.00000000000E+00  0.00000000000E+00 -0.12880016407E+04  0.37297646594E+04  0.35003137272E+04 0.  0.
        3    1    3    3  502    0  0.11488727969E+04  0.12774864613E+04 -0.99927665825E+03  0.19875699264E+04  0.10100000352E+00 0. -1.
       -3    1    3    3    0  502 -0.11488727969E+04 -0.12774864613E+04 -0.28872498240E+03  0.17421947331E+04  0.10100000352E+00 0.  1.
</event>
<event>
 5   0  0.3467834E-08  0.3499415E+04  0.7818609E-02  0.8113928E-01
        2   -1    0    0  501    0  0.00000000000E+00  0.00000000000E+00  0.18165438062E+04  0.18165438062E+04  0.25500000920E-02 0. -1.
       -2   -1    0    0    0  501  0.00000000000E+00  0.00000000000E+00 -0.16853307469E+04  0.16853307469E+04  0.25500000920E-02 0.  1.
    10030    2    1    2    0    0  0.00000000000E+00  0.00000000000E+00  0.13121305930E+03  0.35018745531E+04  0.34994154539E+04 0.  0.
        3    1    3    3  502    0 -0.71202196547E+03 -0.82327415895E+03 -0.13052909993E+04  0.16995705996E+04  0.10100000352E+00 0.  1.
       -3    1    3    3    0  502  0.71202196547E+03  0.82327415895E+03  0.14365040586E+04  0.18023039535E+04  0.10100000352E+00 0. -1.
</event>
<event>
 5   0  0.3700096E-08  0.3500280E+04  0.7818609E-02  0.8113724E-01
        2   -1    0    0  501    0  0.00000000000E+00  0.00000000000E+00  0.17513392113E+04  0.17513392113E+04  0.25500000920E-02 0.  1.
       -2   -1    0    0    0  501  0.00000000000E+00  0.00000000000E+00 -0.17489413303E+04  0.17489413303E+04  0.25500000920E-02 0. -1.
    10030    2    1    2    0    0  0.00000000000E+00  0.00000000000E+00  0.23978810567E+01  0.35002805416E+04  0.35002797202E+04 0.  0.
        4    1    3    3  502    0 -0.79515577554E+03 -0.12883477491E+04 -0.87679630363E+03  0.17495387967E+04  0.12699999809E+01 0. -1.
       -4    1    3    3    0  502  0.79515577554E+03  0.12883477491E+04  0.87919418468E+03  0.17507417449E+04  0.12699999809E+01 0.  1.
</event>
<event>
 5   0  0.1121462E-08  0.3500575E+04  0.7818609E-02  0.8113654E-01
        1   -1    0    0  501    0  0.00000000000E+00  0.00000000000E+00  0.14718460516E+04  0.14718460516E+04  0.50400001928E-02 0.  1.
       -1   -1    0    0    0  501  0.00000000000E+00  0.00000000000E+00 -0.20814040735E+04  0.20814040735E+04  0.50400001928E-02 0. -1.
    10030    2    1    2    0    0  0.00000000000E+00  0.00000000000E+00 -0.60955802193E+03  0.35532501252E+04  0.35005750199E+04 0.  0.
        1    1    3    3  502    0 -0.15429894886E+04 -0.24447243004E+03  0.49635208021E+03  0.16391914832E+04  0.50400001928E-02 0.  1.
       -1    1    3    3    0  502  0.15429894886E+04  0.24447243004E+03 -0.11059101021E+04  0.19140586420E+04  0.50400001928E-02 0. -1.
</event>
<event>
 5   0  0.1129219E-08  0.3499664E+04  0.7818609E-02  0.8113870E-01
        1   -1    0    0  501    0  0.00000000000E+00  0.00000000000E+00  0.18823514025E+04  0.18823514025E+04  0.50400001928E-02 0.  1.
       -1   -1    0    0    0  501  0.00000000000E+00  0.00000000000E+00 -0.16266419289E+04  0.16266419289E+04  0.50400001928E-02 0. -1.
    10030    2    1    2    0    0  0.00000000000E+00  0.00000000000E+00  0.25570947368E+03  0.35089933314E+04  0.34996638217E+04 0.  0.
        5    1    3    3  502    0 -0.86069381939E+03 -0.25001654811E+02  0.16552247462E+04  0.18658000922E+04  0.46999998093E+01 0.  1.
       -5    1    3    3    0  502  0.86069381939E+03  0.25001654811E+02 -0.13995152725E+04  0.16431932392E+04  0.46999998093E+01 0. -1.
</event>
<event>
 5   0  0.3467834E-08  0.3498825E+04  0.7818609E-02  0.8114068E-01
       -2   -1    0    0    0  501  0.00000000000E+00  0.00000000000E+00  0.13037628819E+04  0.13037628819E+04  0.25500000920E-02 0.  1.
        2   -1    0    0  501    0  0.00000000000E+00  0.00000000000E+00 -0.23473935047E+04  0.23473935047E+04  0.25500000920E-02 0. -1.
    10030    2    1    2    0    0  0.00000000000E+00  0.00000000000E+00 -0.10436306229E+04  0.36511563866E+04  0.34988252432E+04 0.  0.
        3    1    3    3  502    0  0.15064141627E+03  0.12237136820E+04 -0.18169279108E+04  0.21957675322E+04  0.10100000352E+00 0. -1.
       -3    1    3    3    0  502 -0.15064141627E+03 -0.12237136820E+04  0.77329728795E+03  0.14553888545E+04  0.10100000352E+00 0.  1.
</event>
<event>
 5   0  0.1121462E-08  0.3501560E+04  0.7818609E-02  0.8113420E-01
       -1   -1    0    0    0  501  0.00000000000E+00  0.00000000000E+00  0.14813769897E+04  0.14813769897E+04  0.50400001928E-02 0. -1.
        1   -1    0    0  501    0  0.00000000000E+00  0.00000000000E+00 -0.20691766166E+04  0.20691766166E+04  0.50400001928E-02 0.  1.
    10030    2    1    2    0    0  0.00000000000E+00  0.00000000000E+00 -0.58779962683E+03  0.35505536063E+04  0.35015600109E+04 0.  0.
        4    1    3    3  502    0  0.34713755146E+03  0.65721232493E+03  0.13134601959E+04  0.15091758740E+04  0.12699999809E+01 0. -1.
       -4    1    3    3    0  502 -0.34713755146E+03 -0.65721232493E+03 -0.19012598227E+04  0.20413777323E+04  0.12699999809E+01 0.  1.
</event>
<event>
 5   0  0.3467834E-08  0.3500186E+04  0.7818609E-02  0.8113746E-01
       -2   -1    0    0    0  501  0.00000000000E+00  0.00000000000E+00  0.16657542478E+04  0.16657542478E+04  0.25500000920E-02 0. -1.
        2   -1    0    0  501    0  0.00000000000E+00  0.00000000000E+00 -0.18387013875E+04  0.18387013875E+04  0.25500000920E-02 0.  1.
    10030    2    1    2    0    0  0.00000000000E+00  0.00000000000E+00 -0.17294713973E+03  0.35044556353E+04  0.35001855075E+04 0.  0.
        3    1    3    3  502    0 -0.46056610083E+03  0.65242739402E+03  0.14726808722E+04  0.16752825431E+04  0.10100000352E+00 0. -1.
       -3    1    3    3    0  502  0.46056610083E+03 -0.65242739402E+03 -0.16456280119E+04  0.18291730923E+04  0.10100000352E+00 0.  1.
</event>
<event>
 5   0  0.1121462E-08  0.3500983E+04  0.7818609E-02  0.8113557E-01
       -3   -1    0    0    0  501  0.00000000000E+00  0.00000000000E+00  0.10934389777E+04  0.10934389824E+04  0.10100000352E+00 0. -1.
        3   -1    0    0  501    0  0.00000000000E+00  0.00000000000E+00 -0.28023694476E+04  0.28023694495E+04  0.10100000352E+00 0.  1.
    10030    2    1    2    0    0  0.00000000000E+00  0.00000000000E+00 -0.17089304699E+04  0.38958084318E+04  0.35009827173E+04 0.  0.
        1    1    3    3  502    0  0.15780674384E+04 -0.32391533016E+02 -0.12222716973E+02  0.15784471630E+04  0.50400001928E-02 0.  1.
       -1    1    3    3    0  502 -0.15780674384E+04  0.32391533016E+02 -0.16967077529E+04  0.23173612689E+04  0.50400001928E-02 0. -1.
</event>
<event>
 5   0  0.1121462E-08  0.3500611E+04  0.7818609E-02  0.8113645E-01
       -1   -1    0    0    0  501  0.00000000000E+00  0.00000000000E+00  0.21704302859E+04  0.21704302859E+04  0.50400001928E-02 0. -1.
        1   -1    0    0  501    0  0.00000000000E+00  0.00000000000E+00 -0.14115029789E+04  0.14115029789E+04  0.50400001928E-02 0.  1.
    10030    2    1    2    0    0  0.00000000000E+00  0.00000000000E+00  0.75892730695E+03  0.35819332648E+04  0.35006106976E+04 0.  0.
        2    1    3    3  502    0 -0.14151686260E+04 -0.10281094182E+04  0.44301608593E+03  0.18044318962E+04  0.25500000920E-02 0. -1.
       -2    1    3    3    0  502  0.14151686260E+04  0.10281094182E+04  0.31591122102E+03  0.17775013686E+04  0.25500000920E-02 0.  1.
</event>
<event>
 5   0  0.3554451E-08  0.3499279E+04  0.7818609E-02  0.8113961E-01
       -2   -1    0    0    0  501  0.00000000000E+00  0.00000000000E+00  0.19536002509E+04  0.19536002509E+04  0.25500000920E-02 0. -1.
        2   -1    0    0  501    0  0.00000000000E+00  0.00000000000E+00 -0.15669731449E+04  0.15669731449E+04  0.25500000920E-02 0.  1.
    10030    2    1    2    0    0  0.00000000000E+00  0.00000000000E+00  0.38662710600E+03  0.35205733958E+04  0.34992794281E+04 0.  0.
        5    1    3    3  502    0  0.65901733827E+03 -0.15628514507E+04  0.62535487078E+03  0.18077331975E+04  0.46999998093E+01 0.  1.
       -5    1    3    3    0  502 -0.65901733827E+03  0.15628514507E+04 -0.23872776477E+03  0.17128401982E+04  0.46999998093E+01 0. -1.
</event>
<event>
 5   0  0.1121462E-08  0.3500325E+04  0.7818609E-02  0.8113713E-01
       -1   -1    0    0    0  501  0.00000000000E+00  0.00000000000E+00  0.12702079930E+04  0.12702079930E+04  0.50400001928E-02 0.  1.
        1   -1    0    0  501    0  0.00000000000E+00  0.00000000000E+00 -0.24114700302E+04  0.24114700302E+04  0.50400001928E-02 0. -1.
    10030    2    1    2    0    0  0.00000000000E+00  0.00000000000E+00 -0.11412620372E+04  0.36816780232E+04  0.35003248462E+04 0.  0.
        1    1    3    3  502    0 -0.73177506123E+03 -0.57226843169E+03 -0.21307472254E+04  0.23244503946E+04  0.50400001928E-02 0. -1.
       -1    1    3    3    0  502  0.73177506123E+03  0.57226843169E+03  0.98948518821E+03  0.13572276286E+04  0.50400001928E-02 0.  1.
</event>
<event>
 5   0  0.1121462E-08  0.3501484E+04  0.7818609E-02  0.8113438E-01
        1   -1    0    0  501    0  0.00000000000E+00  0.00000000000E+00  0.19162586505E+04  0.19162586505E+04  0.50400001928E-02 0. -1.
       -1   -1    0    0    0  501  0.00000000000E+00  0.00000000000E+00 -0.15995215396E+04  0.15995215396E+04  0.50400001928E-02 0.  1.
    10030    2    1    2    0    0  0.00000000000E+00  0.00000000000E+00  0.31673711090E+03  0.35157801901E+04  0.35014836781E+04 0.  0.
        1    1    3    3  502    0  0.65009438433E+03 -0.98491604594E+03  0.14568674718E+04  0.18748720373E+04  0.50400001928E-02 0. -1.
       -1    1    3    3    0  502 -0.65009438433E+03  0.98491604594E+03 -0.11401303609E+04  0.16409081528E+04  0.50400001928E-02 0.  1.
</event>
<event>
 5   0  0.3554451E-08  0.3500259E+04  0.7818609E-02  0.8113729E-01
        2   -1    0    0  501    0  0.00000000000E+00  0.00000000000E+00  0.18060463470E+04  0.18060463470E+04  0.25500000920E-02 0. -1.
       -2   -1    0    0    0  501  0.00000000000E+00  0.00000000000E+00 -0.16959441215E+04  0.16959441215E+04  0.25500000920E-02 0.  1.
    10030    2    1    2    0    0  0.00000000000E+00  0.00000000000E+00  0.11010222551E+03  0.35019904685E+04  0.35002592392E+04 0.  0.
        5    1    3    3  502    0 -0.49100966267E+03  0.15182458888E+04  0.77427419624E+03  0.17736075351E+04  0.46999998093E+01 0. -1.
       -5    1    3    3    0  502  0.49100966267E+03 -0.15182458888E+04 -0.66417197074E+03  0.17283829334E+04  0.46999998093E+01 0.  1.
</event>
<event>
 5   0  0.1121462E-08  0.3498486E+04  0.7818609E-02  0.8114149E-01
        1   -1    0    0  501    0  0.00000000000E+00  0.00000000000E+00  0.23999539696E+04  0.23999539696E+04  0.50400001928E-02 0. -1.
       -1   -1    0    0    0  501  0.00000000000E+00  0.00000000000E+00 -0.12749620694E+04  0.12749620694E+04  0.50400001928E-02 0.  1.
    10030    2    1    2    0    0  0.00000000000E+00  0.00000000000E+00  0.11249919002E+04  0.36749160391E+04  0.34984855464E+04 0.  0.
        4    1    3    3  502    0 -0.13264465384E+04  0.63236806822E+03  0.15592980040E+04  0.21426062800E+04  0.12699999809E+01 0. -1.
       -4    1    3    3    0  502  0.13264465384E+04 -0.63236806822E+03 -0.43430610383E+03  0.15323097590E+04  0.12699999809E+01 0.  1.
</event>
<event>
 5   0  0.1121462E-08  0.3500713E+04  0.7818609E-02  0.8113621E-01
       -1   -1    0    0    0  501  0.00000000000E+00  0.00000000000E+00  0.20025215948E+04  0.20025215948E+04  0.50400001928E-02 0.  1.
        1   -1    0    0  501    0  0.00000000000E+00  0.00000000000E+00 -0.15299451235E+04  0.15299451235E+04  0.50400001928E-02 0. -1.
    10030    2    1    2    0    0  0.00000000000E+00  0.00000000000E+00  0.47257647131E+03  0.35324667183E+04  0.35007131552E+04 0.  0.
        1    1    3    3  502    0 -0.10397614491E+04  0.24838731590E+03 -0.11622661475E+04  0.15791335369E+04  0.50400001928E-02 0. -1.
       -1    1    3    3    0  502  0.10397614491E+04 -0.24838731590E+03  0.16348426188E+04  0.19533331815E+04  0.50400001928E-02 0.  1.
</event>
<event>
 5   0  0.3554451E-08  0.3503432E+04  0.7818609E-02  0.8112977E-01
        2   -1    0    0  501    0  0.00000000000E+00  0.00000000000E+00  0.22292331397E+04  0.22292331397E+04  0.25500000920E-02 0.  1.
       -2   -1    0    0    0  501  0.00000000000E+00  0.00000000000E+00 -0.13764865995E+04  0.13764865995E+04  0.25500000920E-02 0. -1.
    10030    2    1    2    0    0  0.00000000000E+00  0.00000000000E+00  0.85274654013E+03  0.36057197392E+04  0.35034323421E+04 0.  0.
        5    1    3    3  502    0 -0.37868860789E+03  0.92799441197E+02  0.21840015760E+04  0.22185359524E+04  0.46999998093E+01 0.  1.
       -5    1    3    3    0  502  0.37868860789E+03 -0.92799441197E+02 -0.13312550358E+04  0.13871837868E+04  0.46999998093E+01 0. -1.
</event>
<event>
 5   0  0.1129219E-08  0.3500541E+04  0.7818609E-02  0.8113662E-01
        1   -1    0    0  501    0  0.00000000000E+00  0.00000000000E+00  0.20761414707E+04  0.20761414707E+04  0.50400001928E-02 0.  1.
       -1   -1    0    0    0  501  0.00000000000E+00  0.00000000000E+00 -0.14755483645E+04  0.14755483645E+04  0.50400001928E-02 0. -1.
    10030    2    1    2    0    0  0.00000000000E+00  0.00000000000E+00  0.60059310623E+03  0.35516898352E+04  0.35005411876E+04 0.  0.
        5    1    3    3  502    0  0.59317149128E+02  0.13829474492E+04 -0.78650497391E+03  0.15920660587E+04  0.46999998093E+01 0. -1.
       -5    1    3    3    0  502 -0.59317149128E+02 -0.13829474492E+04  0.13870980801E+04  0.19596237765E+04  0.46999998093E+01 0.  1.
</event>
<event>
 5   0  0.3467834E-08  0.3499939E+04  0.7818609E-02  0.8113804E-01
       -2   -1    0    0    0  501  0.00000000000E+00  0.00000000000E+00  0.16277945634E+04  0.16277945634E+04  0.25500000920E-02 0. -1.
        2   -1    0    0  501    0  0.00000000000E+00  0.00000000000E+00 -0.18813142761E+04  0.18813142761E+04  0.25500000920E-02 0.  1.
    10030    2    1    2    0    0  0.00000000000E+00  0.00000000000E+00 -0.25351971277E+03  0.35091088395E+04  0.34999389427E+04 0.  0.
        3    1    3    3  502    0 -0.15852095610E+04 -0.24653474762E+03  0.57416003427E+03  0.17039156344E+04  0.10100000352E+00 0. -1.
       -3    1    3    3    0  502  0.15852095610E+04  0.24653474762E+03 -0.82767974704E+03  0.18051932051E+04  0.10100000352E+00 0.  1.
</event>
<event>
 5   0  0.1121462E-08  0.3499579E+04  0.7818609E-02  0.8113890E-01
        1   -1    0    0  501    0  0.00000000000E+00  0.00000000000E+00  0.10768421064E+04  0.10768421064E+04  0.50400001928E-02 0.  1.
       -1   -1    0    0    0  501  0.00000000000E+00  0.00000000000E+00 -0.28432800469E+04  0.28432800469E+04  0.50400001928E-02 0. -1.
    10030    2    1    2    0    0  0.00000000000E+00  0.00000000000E+00 -0.17664379405E+04  0.39201221533E+04  0.34995792175E+04 0.  0.
        2    1    3    3  502    0  0.25107113730E+03  0.87990259433E+03  0.78748620756E+03  0.12072281552E+04  0.25500000920E-02 0.  1.
       -2    1    3    3    0  502 -0.25107113730E+03 -0.87990259433E+03 -0.25539241480E+04  0.27128939982E+04  0.25500000920E-02 0. -1.
</event>
<event>
 5   0  0.1121462E-08  0.3499280E+04  0.7818609E-02  0.8113961E-01
        1   -1    0    0  501    0  0.00000000000E+00  0.00000000000E+00  0.22870180203E+04  0.22870180203E+04  0.50400001928E-02 0. -1.
       -1   -1    0    0    0  501  0.00000000000E+00  0.00000000000E+00 -0.13385293533E+04  0.13385293533E+04  0.50400001928E-02 0.  1.
    10030    2    1    2    0    0  0.00000000000E+00  0.00000000000E+00  0.94848866700E+03  0.36255473737E+04  0.34992803556E+04 0.  0.
        4    1    3    3  502    0  0.25376137261E+03  0.11276432204E+04  0.18351335118E+04  0.21687993651E+04  0.12699999809E+01 0. -1.
       -4    1    3    3    0  502 -0.25376137261E+03 -0.11276432204E+04 -0.88664484484E+03  0.14567480086E+04  0.12699999809E+01 0.  1.
</event>
<event>
 5   0  0.1121462E-08  0.3500189E+04  0.7818609E-02  0.8113745E-01
        1   -1    0    0  501    0  0.00000000000E+00  0.00000000000E+00  0.19016125172E+04  0.19016125172E+04  0.50400001928E-02 0. -1.
       -1   -1    0    0    0  501  0.00000000000E+00  0.00000000000E+00 -0.16106493259E+04  0.16106493259E+04  0.50400001928E-02 0.  1.
    10030    2    1    2    0    0  0.00000000000E+00  0.00000000000E+00  0.29096319128E+03  0.35122618431E+04  0.35001890915E+04 0.  0.
        1    1    3    3  502    0 -0.77869352435E+03  0.72826341078E+03 -0.12471452491E+04  0.16407627716E+04  0.50400001928E-02 0. -1.
       -1    1    3    3    0  502  0.77869352435E+03 -0.72826341078E+03  0.15381084404E+04  0.18714990715E+04  0.50400001928E-02 0.  1.
</event>
<event>
 5   0  0.1121462E-08  0.3500939E+04  0.7818609E-02  0.8113568E-01
       -1   -1    0    0    0  501  0.00000000000E+00  0.00000000000E+00  0.12030954439E+04  0.12030954439E+04  0.50400001928E-02 0.  1.
        1   -1    0    0  501    0  0.00000000000E+00  0.00000000000E+00 -0.25468826955E+04  0.25468826955E+04  0.50400001928E-02 0. -1.
    10030    2    1    2    0    0  0.00000000000E+00  0.00000000000E+00 -0.13437872516E+04  0.37499781395E+04  0.35009387125E+04 0.  0.
        4    1    3    3  502    0  0.14218033032E+04  0.57227788093E+03 -0.15776931650E+04  0.21995781281E+04  0.12699999809E+01 0. -1.
       -4    1    3    3    0  502 -0.14218033032E+04 -0.57227788093E+03  0.23390591336E+03  0.15504000114E+04  0.12699999809E+01 0.  1.
</event>
<event>
 5   0  0.3553585E-08  0.3519540E+04  0.7818609E-02  0.8109175E-01
        2   -1    0    0  501    0  0.00000000000E+00  0.00000000000E+00  0.14984663362E+04  0.14984663362E+04  0.25500000920E-02 0.  1.
       -2   -1    0    0    0  501  0.00000000000E+00  0.00000000000E+00 -0.20666401485E+04  0.20666401485E+04  0.25500000920E-02 0. -1.
    10030    2    1    2    0    0  0.00000000000E+00  0.00000000000E+00 -0.56817381231E+03  0.35651064848E+04  0.35195401357E+04 0.  0.
        2    1    3    3  502    0 -0.10147739573E+04  0.87175383453E+03 -0.14421599891E+04  0.19671162565E+04  0.25500000920E-02 0. -1.
       -2    1    3    3    0  502  0.10147739573E+04 -0.87175383453E+03  0.87398617674E+03  0.15979902283E+04  0.25500000920E-02 0.  1.
</event>
<event>
 5   0  0.3628017E-08  0.3497074E+04  0.7818609E-02  0.8114484E-01
        2   -1    0    0  501    0  0.00000000000E+00  0.00000000000E+00  0.21302512415E+04  0.21302512415E+04  0.25500000920E-02 0.  1.
       -2   -1    0    0    0  501  0.00000000000E+00  0.00000000000E+00 -0.14352208130E+04  0.14352208130E+04  0.25500000920E-02 0. -1.
    10030    2    1    2    0    0  0.00000000000E+00  0.00000000000E+00  0.69503042846E+03  0.35654720545E+04  0.34970735873E+04 0.  0.
        1    1    3    3  502    0  0.71648546643E+03 -0.98103426458E+03 -0.93469953400E+03  0.15327892454E+04  0.50400001928E-02 0. -1.
       -1    1    3    3    0  502 -0.71648546643E+03  0.98103426458E+03  0.16297299625E+04  0.20326828091E+04  0.50400001928E-02 0.  1.
</event>
<event>
 5   0  0.3467834E-08  0.3500134E+04  0.7818609E-02  0.8113758E-01
        2   -1    0    0  501    0  0.00000000000E+00  0.00000000000E+00  0.26923735668E+04  0.26923735668E+04  0.25500000920E-02 0.  1.
       -2   -1    0    0    0  501  0.00000000000E+00  0.00000000000E+00 -0.11375594324E+04  0.11375594324E+04  0.25500000920E-02 0. -1.
    10030    2    1    2    0    0  0.00000000000E+00  0.00000000000E+00  0.15548141344E+04  0.38299329991E+04  0.35001342525E+04 0.  0.
        3    1    3    3  502    0 -0.33786594648E+03 -0.15429700040E+04  0.16019509400E+04  0.22497014592E+04  0.10100000352E+00 0. -1.
       -3    1    3    3    0  502  0.33786594648E+03  0.15429700040E+04 -0.47136805580E+02  0.15802315399E+04  0.10100000352E+00 0.  1.
</event>
<event>
 5   0  0.3628017E-08  0.3499887E+04  0.7818609E-02  0.8113817E-01
       -2   -1    0    0    0  501  0.00000000000E+00  0.00000000000E+00  0.10255646368E+04  0.10255646368E+04  0.25500000920E-02 0. -1.
        2   -1    0    0  501    0  0.00000000000E+00  0.00000000000E+00 -0.29859674578E+04  0.29859674578E+04  0.25500000920E-02 0.  1.
    10030    2    1    2    0    0  0.00000000000E+00  0.00000000000E+00 -0.19604028210E+04  0.40115320946E+04  0.34998872161E+04 0.  0.
        1    1    3    3  502    0 -0.16040971027E+04  0.53580078513E+02 -0.17795022570E+04  0.23963778129E+04  0.50400001928E-02 0.  1.
       -1    1    3    3    0  502  0.16040971027E+04 -0.53580078513E+02 -0.18090056395E+03  0.16151542817E+04  0.50400001928E-02 0. -1.
</event>
<event>
 5   0  0.3700096E-08  0.3499709E+04  0.7818609E-02  0.8113859E-01
        2   -1    0    0  501    0  0.00000000000E+00  0.00000000000E+00  0.31029605708E+04  0.31029605708E+04  0.25500000920E-02 0. -1.
       -2   -1    0    0    0  501  0.00000000000E+00  0.00000000000E+00 -0.98679666851E+03  0.98679666851E+03  0.25500000920E-02 0.  1.
    10030    2    1    2    0    0  0.00000000000E+00  0.00000000000E+00  0.21161639023E+04  0.40897572393E+04  0.34997092187E+04 0.  0.
        4    1    3    3  502    0 -0.83560488963E+03  0.54437057433E+03  0.27383530867E+04  0.29143016478E+04  0.12699999809E+01 0. -1.
       -4    1    3    3    0  502  0.83560488963E+03 -0.54437057433E+03 -0.62218918437E+03  0.11754555916E+04  0.12699999809E+01 0.  1.
</event>
<event>
 5   0  0.1140808E-08  0.3499574E+04  0.7818609E-02  0.8113891E-01
        1   -1    0    0  501    0  0.00000000000E+00  0.00000000000E+00  0.19783269881E+04  0.19783269882E+04  0.50400001928E-02 0.  1.
       -1   -1    0    0    0  501  0.00000000000E+00  0.00000000000E+00 -0.15476484532E+04  0.15476484532E+04  0.50400001928E-02 0. -1.
    10030    2    1    2    0    0  0.00000000000E+00  0.00000000000E+00  0.43067853499E+03  0.35259754413E+04  0.34995740901E+04 0.  0.
        3    1    3    3  502    0 -0.72252817588E+03  0.10468717976E+04  0.14259727228E+04  0.19108599483E+04  0.10100000352E+00 0.  1.
       -3    1    3    3    0  502  0.72252817588E+03 -0.10468717976E+04 -0.99529418782E+03  0.16151154931E+04  0.10100000352E+00 0. -1.
</event>
<event>
 5   0  0.1121462E-08  0.3501306E+04  0.7818609E-02  0.8113480E-01
        1   -1    0    0  501    0  0.00000000000E+00  0.00000000000E+00  0.18994498507E+04  0.18994498507E+04  0.50400001928E-02 0. -1.
       -1   -1    0    0    0  501  0.00000000000E+00  0.00000000000E+00 -0.16135124504E+04  0.16135124504E+04  0.50400001928E-02 0.  1.
    10030    2    1    2    0    0  0.00000000000E+00  0.00000000000E+00  0.28593740027E+03  0.35129623011E+04  0.35013060323E+04 0.  0.
        1    1    3    3  502    0  0.24226201659E+03  0.93559428312E+03 -0.13216026204E+04  0.16372724372E+04  0.50400001928E-02 0.  1.
       -1    1    3    3    0  502 -0.24226201659E+03 -0.93559428312E+03  0.16075400207E+04  0.18756898639E+04  0.50400001928E-02 0. -1.
</event>
<event>
 5   0  0.1121462E-08  0.3499122E+04  0.7818609E-02  0.8113998E-01
       -3   -1    0    0    0  501  0.00000000000E+00  0.00000000000E+00  0.19870654831E+04  0.19870654856E+04  0.10100000352E+00 0. -1.
        3   -1    0    0  501    0  0.00000000000E+00  0.00000000000E+00 -0.15404442125E+04  0.15404442158E+04  0.10100000352E+00 0.  1.
    10030    2    1    2    0    0  0.00000000000E+00  0.00000000000E+00  0.44662127061E+03  0.35275097014E+04  0.34991219090E+04 0.  0.
        3    1    3    3  502    0  0.49028142870E+03 -0.16091241744E+04 -0.26153508275E+03  0.17023680853E+04  0.10100000352E+00 0. -1.
       -3    1    3    3    0  502 -0.49028142870E+03  0.16091241744E+04  0.70815635336E+03  0.18251416162E+04  0.10100000352E+00 0.  1.
</event>
<event>
 5   0  0.1121462E-08  0.3500520E+04  0.7818609E-02  0.8113667E-01
       -1   -1    0    0    0  501  0.00000000000E+00  0.00000000000E+00  0.23816090509E+04  0.23816090509E+04  0.50400001928E-02 0. -1.
        1   -1    0    0  501    0  0.00000000000E+00  0.00000000000E+00 -0.12862777057E+04  0.12862777057E+04  0.50400001928E-02 0.  1.
    10030    2    1    2    0    0  0.00000000000E+00  0.00000000000E+00  0.10953313453E+04  0.36678867566E+04  0.35005203190E+04 0.  0.
        1    1    3    3  502    0  0.13245153020E+04 -0.49037611810E+03 -0.53549061465E+03  0.15104832739E+04  0.50400001928E-02 0.  1.
       -1    1    3    3    0  502 -0.13245153020E+04  0.49037611810E+03  0.16308219599E+04  0.21574034827E+04  0.50400001928E-02 0. -1.
</event>
<event>
 5   0  0.1121462E-08  0.3502875E+04  0.7818609E-02  0.8113109E-01
       -1   -1    0    0    0  501  0.00000000000E+00  0.00000000000E+00  0.17599726483E+04  0.17599726483E+04  0.50400001928E-02 0. -1.
        1   -1    0    0  501    0  0.00000000000E+00  0.00000000000E+00 -0.17429435805E+04  0.17429435805E+04  0.50400001928E-02 0.  1.
    10030    2    1    2    0    0  0.00000000000E+00  0.00000000000E+00  0.17029067837E+02  0.35029162288E+04  0.35028748360E+04 0.  0.
        4    1    3    3  502    0  0.13145528290E+04 -0.89807856347E+03 -0.72151955101E+03  0.17479091286E+04  0.12699999809E+01 0.  1.
       -4    1    3    3    0  502 -0.13145528290E+04  0.89807856347E+03  0.73854861885E+03  0.17550071002E+04  0.12699999809E+01 0. -1.
</event>
<event>
 5   0  0.1140808E-08  0.3515987E+04  0.7818609E-02  0.8110012E-01
       -1   -1    0    0    0  501  0.00000000000E+00  0.00000000000E+00  0.12928583314E+04  0.12928583315E+04  0.50400001928E-02 0. -1.
        1   -1    0    0  501    0  0.00000000000E+00  0.00000000000E+00 -0.23904710204E+04  0.23904710204E+04  0.50400001928E-02 0.  1.
    10030    2    1    2    0    0  0.00000000000E+00  0.00000000000E+00 -0.10976126890E+04  0.36833293519E+04  0.35159865613E+04 0.  0.
        3    1    3    3  502    0  0.12524493630E+04 -0.12099994797E+04 -0.80069183939E+03  0.19167252228E+04  0.10100000352E+00 0. -1.
       -3    1    3    3    0  502 -0.12524493630E+04  0.12099994797E+04 -0.29692084960E+03  0.17666041291E+04  0.10100000352E+00 0.  1.
</event>
<event>
 5   0  0.3700096E-08  0.3500303E+04  0.7818609E-02  0.8113718E-01
       -2   -1    0    0    0  501  0.00000000000E+00  0.00000000000E+00  0.28828023237E+04  0.28828023237E+04  0.25500000920E-02 0. -1.
        2   -1    0    0  501    0  0.00000000000E+00  0.00000000000E+00 -0.10625184389E+04  0.10625184389E+04  0.25500000920E-02 0.  1.
    10030    2    1    2    0    0  0.00000000000E+00  0.00000000000E+00  0.18202838848E+04  0.39453207627E+04  0.35003032010E+04 0.  0.
        4    1    3    3  502    0  0.72609122693E+03  0.31937651205E+02  0.27046629524E+04  0.28006127512E+04  0.12699999809E+01 0. -1.
       -4    1    3    3    0  502 -0.72609122693E+03 -0.31937651205E+02 -0.88437906757E+03  0.11447080114E+04  0.12699999809E+01 0.  1.
</event>
<event>
 5   0  0.1121462E-08  0.3494791E+04  0.7818609E-02  0.8115026E-01
       -1   -1    0    0    0  501  0.00000000000E+00  0.00000000000E+00  0.15484178350E+04  0.15484178350E+04  0.50400001928E-02 0.  1.
        1   -1    0    0  501    0  0.00000000000E+00  0.00000000000E+00 -0.19719421226E+04  0.19719421226E+04  0.50400001928E-02 0. -1.
    10030    2    1    2    0    0  0.00000000000E+00  0.00000000000E+00 -0.42352428752E+03  0.35203599576E+04  0.34947906102E+04 0.  0.
        2    1    3    3  502    0  0.81189646193E+03 -0.11142639239E+04  0.86969906504E+03  0.16300725201E+04  0.25500000920E-02 0.  1.
       -2    1    3    3    0  502 -0.81189646193E+03  0.11142639239E+04 -0.12932233526E+04  0.18902874375E+04  0.25500000920E-02 0. -1.
</event>
<event>
 5   0  0.1140808E-08  0.3500167E+04  0.7818609E-02  0.8113750E-01
        1   -1    0    0  501    0  0.00000000000E+00  0.00000000000E+00  0.19185057983E+04  0.19185057983E+04  0.50400001928E-02 0. -1.
       -1   -1    0    0    0  501  0.00000000000E+00  0.00000000000E+00 -0.15964467854E+04  0.15964467854E+04  0.50400001928E-02 0.  1.
    10030    2    1    2    0    0  0.00000000000E+00  0.00000000000E+00  0.32205901285E+03  0.35149525837E+04  0.35001670900E+04 0.  0.
        3    1    3    3  502    0 -0.31053922804E+03 -0.15989916854E+04  0.80371997268E+03  0.18163630769E+04  0.10100000352E+00 0. -1.
       -3    1    3    3    0  502  0.31053922804E+03  0.15989916854E+04 -0.48166095983E+03  0.16985895068E+04  0.10100000352E+00 0.  1.
</event>
<event>
 5   0  0.3554451E-08  0.3500987E+04  0.7818609E-02  0.8113556E-01
        2   -1    0    0  501    0  0.00000000000E+00  0.00000000000E+00  0.23026438548E+04  0.23026438548E+04  0.25500000920E-02 0.  1.
       -2   -1    0    0    0  501  0.00000000000E+00  0.00000000000E+00 -0.13307432044E+04  0.13307432044E+04  0.25500000920E-02 0. -1.
    10030    2    1    2    0    0  0.00000000000E+00  0.00000000000E+00  0.97190065045E+03  0.36333870592E+04  0.35009870962E+04 0.  0.
        5    1    3    3  502    0 -0.61664394571E+03  0.73527362402E+03 -0.10334265977E+04  0.14102729101E+04  0.46999998093E+01 0. -1.
       -5    1    3    3    0  502  0.61664394571E+03 -0.73527362402E+03  0.20053272482E+04  0.22231141492E+04  0.46999998093E+01 0.  1.
</event>
<event>
 5   0  0.1121462E-08  0.3500003E+04  0.7818609E-02  0.8113789E-01
       -1   -1    0    0    0  501  0.00000000000E+00  0.00000000000E+00  0.13880297438E+04  0.13880297438E+04  0.50400001928E-02 0. -1.
        1   -1    0    0  501    0  0.00000000000E+00  0.00000000000E+00 -0.22063682761E+04  0.22063682761E+04  0.50400001928E-02 0.  1.
    10030    2    1    2    0    0  0.00000000000E+00  0.00000000000E+00 -0.81833853234E+03  0.35943980200E+04  0.35000027389E+04 0.  0.
        2    1    3    3  502    0  0.31456683762E+03 -0.78149909949E+03  0.11660875358E+04  0.14385594458E+04  0.25500000920E-02 0. -1.
       -2    1    3    3    0  502 -0.31456683762E+03  0.78149909949E+03 -0.19844260682E+04  0.21558385742E+04  0.25500000920E-02 0.  1.
</event>
<event>
 5   0  0.1129219E-08  0.3499482E+04  0.7818609E-02  0.8113913E-01
       -1   -1    0    0    0  501  0.00000000000E+00  0.00000000000E+00  0.13656912349E+04  0.13656912349E+04  0.50400001928E-02 0.  1.
        1   -1    0    0  501    0  0.00000000000E+00  0.00000000000E+00 -0.22417906798E+04  0.22417906798E+04  0.50400001928E-02 0. -1.
    10030    2    1    2    0    0  0.00000000000E+00  0.00000000000E+00 -0.87609944496E+03  0.36074819147E+04  0.34994821799E+04 0.  0.
        5    1    3    3  502    0  0.14788417306E+04  0.20255953730E+02  0.52578585143E+03  0.15696674869E+04  0.46999998093E+01 0.  1.
       -5    1    3    3    0  502 -0.14788417306E+04 -0.20255953730E+02 -0.14018852964E+04  0.20378144278E+04  0.46999998093E+01 0. -1.
</event>
<event>
 5   0  0.1129219E-08  0.3499906E+04  0.7818609E-02  0.8113812E-01
       -1   -1    0    0    0  501  0.00000000000E+00  0.00000000000E+00  0.97061582163E+03  0.97061582164E+03  0.50400001928E-02 0. -1.
        1   -1    0    0  501    0  0.00000000000E+00  0.00000000000E+00 -0.31550429729E+04  0.31550429729E+04  0.50400001928E-02 0.  1.
    10030    2    1    2    0    0  0.00000000000E+00  0.00000000000E+00 -0.21844271512E+04  0.41256587945E+04  0.34999055001E+04 0.  0.
        5    1    3    3  502    0  0.13072994627E+04  0.10105563678E+03  0.27389763887E+03  0.13395096616E+04  0.46999998093E+01 0. -1.
       -5    1    3    3    0  502 -0.13072994627E+04 -0.10105563678E+03 -0.24583247901E+04  0.27861491329E+04  0.46999998093E+01 0.  1.
</event>
<event>
 5   0  0.3553585E-08  0.3496438E+04  0.7818609E-02  0.8114635E-01
       -2   -1    0    0    0  501  0.00000000000E+00  0.00000000000E+00  0.27349892654E+04  0.27349892654E+04  0.25500000920E-02 0.  1.
        2   -1    0    0  501    0  0.00000000000E+00  0.00000000000E+00 -0.11174703220E+04  0.11174703221E+04  0.25500000920E-02 0. -1.
    10030    2    1    2    0    0  0.00000000000E+00  0.00000000000E+00  0.16175189433E+04  0.38524595874E+04  0.34964378074E+04 0.  0.
        2    1    3    3  502    0 -0.12974837844E+04  0.58890428334E+03 -0.30729479026E+03  0.14576359332E+04  0.25500000920E-02 0. -1.
       -2    1    3    3    0  502  0.12974837844E+04 -0.58890428334E+03  0.19248137336E+04  0.23948236542E+04  0.25500000920E-02 0.  1.
</event>
<event>
 5   0  0.3553585E-08  0.3500492E+04  0.7818609E-02  0.8113673E-01
        2   -1    0    0  501    0  0.00000000000E+00  0.00000000000E+00  0.17689785597E+04  0.17689785597E+04  0.25500000920E-02 0. -1.
       -2   -1    0    0    0  501  0.00000000000E+00  0.00000000000E+00 -0.17317118624E+04  0.17317118624E+04  0.25500000920E-02 0.  1.
    10030    2    1    2    0    0  0.00000000000E+00  0.00000000000E+00  0.37266697279E+02  0.35006904222E+04  0.35004920547E+04 0.  0.
        2    1    3    3  502    0  0.21755139138E+03  0.67652981078E+02 -0.17168196012E+04  0.17318703984E+04  0.25500000920E-02 0.  1.
       -2    1    3    3    0  502 -0.21755139138E+03 -0.67652981078E+02  0.17540862985E+04  0.17688200237E+04  0.25500000920E-02 0. -1.
</event>
<event>
 5   0  0.3554451E-08  0.3500457E+04  0.7818609E-02  0.8113682E-01
        2   -1    0    0  501    0  0.00000000000E+00  0.00000000000E+00  0.19688408897E+04  0.19688408897E+04  0.25500000920E-02 0. -1.
       -2   -1    0    0    0  501  0.00000000000E+00  0.00000000000E+00 -0.15558902144E+04  0.15558902144E+04  0.25500000920E-02 0.  1.
    10030    2    1    2    0    0  0.00000000000E+00  0.00000000000E+00  0.41295067530E+03  0.35247311042E+04  0.35004572696E+04 0.  0.
        5    1    3    3  502    0 -0.42822188872E+03 -0.42253586555E+03 -0.14485058331E+04  0.15684711607E+04  0.46999998093E+01 0.  1.
       -5    1    3    3    0  502  0.42822188872E+03  0.42253586555E+03  0.18614565084E+04  0.19562599434E+04  0.46999998093E+01 0. -1.
</event>
<event>
 5   0  0.3700096E-08  0.3500177E+04  0.7818609E-02  0.8113748E-01
        2   -1    0    0  501    0  0.00000000000E+00  0.00000000000E+00  0.21195795617E+04  0.21195795617E+04  0.25500000920E-02 0. -1.
       -2   -1    0    0    0  501  0.00000000000E+00  0.00000000000E+00 -0.14450084246E+04  0.14450084246E+04  0.25500000920E-02 0.  1.
    10030    2    1    2    0    0  0.00000000000E+00  0.00000000000E+00  0.67457113712E+03  0.35645879864E+04  0.35001773231E+04 0.  0.
        4    1    3    3  502    0  0.54136231422E+03  0.74896216091E+03 -0.11762639267E+04  0.14958662747E+04  0.12699999809E+01 0.  1.
       -4    1    3    3    0  502 -0.54136231422E+03 -0.74896216091E+03  0.18508350638E+04  0.20687217116E+04  0.12699999809E+01 0. -1.
</event>
<event>
 5   0  0.1121462E-08  0.3499830E+04  0.7818609E-02  0.8113830E-01
        1   -1    0    0  501    0  0.00000000000E+00  0.00000000000E+00  0.22926772655E+04  0.22926772655E+04  0.50400001928E-02 0. -1.
       -1   -1    0    0    0  501  0.00000000000E+00  0.00000000000E+00 -0.13356448981E+04  0.13356448981E+04  0.50400001928E-02 0.  1.
    10030    2    1    2    0    0  0.00000000000E+00  0.00000000000E+00  0.95703236741E+03  0.36283221636E+04  0.34998301060E+04 0.  0.
        1    1    3    3  502    0  0.78714974000E+03 -0.41862377328E+03  0.20395717575E+04  0.22259163351E+04  0.50400001928E-02 0. -1.
       -1    1    3    3    0  502 -0.78714974000E+03  0.41862377328E+03 -0.10825393901E+04  0.14024058285E+04  0.50400001928E-02 0.  1.
</event>
<event>
 5   0  0.3700096E-08  0.3495349E+04  0.7818609E-02  0.8114893E-01
       -2   -1    0    0    0  501  0.00000000000E+00  0.00000000000E+00  0.13288798727E+04  0.13288798727E+04  0.25500000920E-02 0.  1.
        2   -1    0    0  501    0  0.00000000000E+00  0.00000000000E+00 -0.22984514034E+04  0.22984514034E+04  0.25500000920E-02 0. -1.
    10030    2    1    2    0    0  0.00000000000E+00  0.00000000000E+00 -0.96957153064E+03  0.36273312761E+04  0.34953488000E+04 0.  0.
        4    1    3    3  502    0 -0.58343304176E+03  0.11667200648E+04 -0.16917737943E+04  0.21362888400E+04  0.12699999809E+01 0. -1.
       -4    1    3    3    0  502  0.58343304176E+03 -0.11667200648E+04  0.72220226362E+03  0.14910424361E+04  0.12699999809E+01 0.  1.
</event>
<event>
 5   0  0.1121462E-08  0.3496962E+04  0.7818609E-02  0.8114510E-01
        1   -1    0    0  501    0  0.00000000000E+00  0.00000000000E+00  0.20765768743E+04  0.20765768743E+04  0.50400001928E-02 0.  1.
       -1   -1    0    0    0  501  0.00000000000E+00  0.00000000000E+00 -0.14722241482E+04  0.14722241482E+04  0.50400001928E-02 0. -1.
    10030    2    1    2    0    0  0.00000000000E+00  0.00000000000E+00  0.60435272611E+03  0.35488010225E+04  0.34969624647E+04 0.  0.
        4    1    3    3  502    0 -0.13840465565E+04 -0.88390974770E+03 -0.30697474197E+03  0.16706634664E+04  0.12699999809E+01 0. -1.
       -4    1    3    3    0  502  0.13840465565E+04  0.88390974770E+03  0.91132746808E+03  0.18781375561E+04  0.12699999809E+01 0.  1.
</event>
<event>
 5   0  0.3628017E-08  0.3501196E+04  0.7818609E-02  0.8113507E-01
       -2   -1    0    0    0  501  0.00000000000E+00  0.00000000000E+00  0.18488882514E+04  0.18488882514E+04  0.25500000920E-02 0.  1.
        2   -1    0    0  501    0  0.00000000000E+00  0.00000000000E+00 -0.16575331164E+04  0.16575331164E+04  0.25500000920E-02 0. -1.
    10030    2    1    2    0    0  0.00000000000E+00  0.00000000000E+00  0.19135513505E+03  0.35064213678E+04  0.35011960843E+04 0.  0.
        1    1    3    3  502    0  0.78417195726E+03 -0.51286245217E+03 -0.13852584973E+04  0.16723918972E+04  0.50400001928E-02 0. -1.
       -1    1    3    3    0  502 -0.78417195726E+03  0.51286245217E+03  0.15766136323E+04  0.18340294706E+04  0.50400001928E-02 0.  1.
</event>
<event>
 5   0  0.1140808E-08  0.3500691E+04  0.7818609E-02  0.8113626E-01
        1   -1    0    0  501    0  0.00000000000E+00  0.00000000000E+00  0.16261870025E+04  0.16261870025E+04  0.50400001928E-02 0.  1.
       -1   -1    0    0    0  501  0.00000000000E+00  0.00000000000E+00 -0.18839832622E+04  0.18839832622E+04  0.50400001928E-02 0. -1.
    10030    2    1    2    0    0  0.00000000000E+00  0.00000000000E+00 -0.25779625973E+03  0.35101702647E+04  0.35006908426E+04 0.  0.
        3    1    3    3  502    0  0.16684391099E+04 -0.39601845612E+03  0.22303576746E+03  0.17292381689E+04  0.10100000352E+00 0.  1.
       -3    1    3    3    0  502 -0.16684391099E+04  0.39601845612E+03 -0.48083202720E+03  0.17809320958E+04  0.10100000352E+00 0. -1.
</event>
<event>
 5   0  0.3467834E-08  0.3499717E+04  0.7818609E-02  0.8113857E-01
        2   -1    0    0  501    0  0.00000000000E+00  0.00000000000E+00  0.12049276034E+04  0.12049276034E+04  0.25500000920E-02 0.  1.
       -2   -1    0    0    0  501  0.00000000000E+00  0.00000000000E+00 -0.25412357206E+04  0.25412357206E+04  0.25500000920E-02 0. -1.
    10030    2    1    2    0    0  0.00000000000E+00  0.00000000000E+00 -0.13363081172E+04  0.37461633240E+04  0.34997171694E+04 0.  0.
        3    1    3    3  502    0 -0.40823730275E+03  0.16126812698E+04 -0.12491524222E+04  0.20803317902E+04  0.10100000352E+00 0. -1.
       -3    1    3    3    0  502  0.40823730275E+03 -0.16126812698E+04 -0.87155694933E+02  0.16658315337E+04  0.10100000352E+00 0.  1.
</event>
<event>
 5   0  0.1129219E-08  0.3499849E+04  0.7818609E-02  0.8113826E-01
       -1   -1    0    0    0  501  0.00000000000E+00  0.00000000000E+00  0.23634451626E+04  0.23634451627E+04  0.50400001928E-02 0. -1.
        1   -1    0    0  501    0  0.00000000000E+00  0.00000000000E+00 -0.12956661118E+04  0.12956661118E+04  0.50400001928E-02 0.  1.
    10030    2    1    2    0    0  0.00000000000E+00  0.00000000000E+00  0.10677790509E+04  0.36591112744E+04  0.34998490277E+04 0.  0.
        5    1    3    3  502    0 -0.13525421967E+03 -0.14879881021E+04  0.14862821188E+04  0.21074769091E+04  0.46999998093E+01 0. -1.
       -5    1    3    3    0  502  0.13525421967E+03  0.14879881021E+04 -0.41850306786E+03  0.15516343653E+04  0.46999998093E+01 0.  1.
</event>
<event>
 5   0  0.3628017E-08  0.3514500E+04  0.7818609E-02  0.8110362E-01
       -2   -1    0    0    0  501  0.00000000000E+00  0.00000000000E+00  0.99504817381E+03  0.99504817381E+03  0.25500000920E-02 0. -1.
        2   -1    0    0  501    0  0.00000000000E+00  0.00000000000E+00 -0.31032943276E+04  0.31032943276E+04  0.25500000920E-02 0.  1.
    10030    2    1    2    0    0  0.00000000000E+00  0.00000000000E+00 -0.21082461538E+04  0.40983425014E+04  0.35144998810E+04 0.  0.
        1    1    3    3  502    0 -0.13312255475E+04  0.92920745736E+03 -0.18384135217E+04  0.24526215024E+04  0.50400001928E-02 0.  1.
       -1    1    3    3    0  502  0.13312255475E+04 -0.92920745736E+03 -0.26983263211E+03  0.16457209990E+04  0.50400001928E-02 0. -1.
</event>
<event>
 5   0  0.3467834E-08  0.3500662E+04  0.7818609E-02  0.8113633E-01
        2   -1    0    0  501    0  0.00000000000E+00  0.00000000000E+00  0.13239050669E+04  0.13239050669E+04  0.25500000920E-02 0. -1.
       -2   -1    0    0    0  501  0.00000000000E+00  0.00000000000E+00 -0.23141069453E+04  0.23141069453E+04  0.25500000920E-02 0.  1.
    10030    2    1    2    0    0  0.00000000000E+00  0.00000000000E+00 -0.99020187843E+03  0.36380120122E+04  0.35006616005E+04 0.  0.
        3    1    3    3  502    0 -0.82566939889E+03 -0.42262175549E+03  0.10474967186E+04  0.13991384814E+04  0.10100000352E+00 0. -1.
       -3    1    3    3    0  502  0.82566939889E+03  0.42262175549E+03 -0.20376985970E+04  0.22388735308E+04  0.10100000352E+00 0.  1.
</event>
<event>
 5   0  0.1121462E-08  0.3501303E+04  0.7818609E-02  0.8113481E-01
        3   -1    0    0  501    0  0.00000000000E+00  0.00000000000E+00  0.22230748798E+04  0.22230748821E+04  0.10100000352E+00 0.  1.
       -3   -1    0    0    0  501  0.00000000000E+00  0.00000000000E+00 -0.13786220483E+04  0.13786220520E+04  0.10100000352E+00 0. -1.
    10030    2    1    2    0    0  0.00000000000E+00  0.00000000000E+00  0.84445283154E+03  0.36016969341E+04  0.35013026462E+04 0.  0.
        5    1    3    3  502    0  0.69726714023E+03  0.87321965376E+03  0.18084812744E+04  0.21258693841E+04  0.46999998093E+01 0.  1.
       -5    1    3    3    0  502 -0.69726714023E+03 -0.87321965376E+03 -0.96402844285E+03  0.14758275499E+04  0.46999998093E+01 0. -1.
</event>
<event>
 5   0  0.1121462E-08  0.3500410E+04  0.7818609E-02  0.8113693E-01
       -1   -1    0    0    0  501  0.00000000000E+00  0.00000000000E+00  0.18110615707E+04  0.18110615707E+04  0.50400001928E-02 0. -1.
        1   -1    0    0  501    0  0.00000000000E+00  0.00000000000E+00 -0.16913929385E+04  0.16913929385E+04  0.50400001928E-02 0.  1.
    10030    2    1    2    0    0  0.00000000000E+00  0.00000000000E+00  0.11966863221E+03  0.35024545093E+04  0.35004095486E+04 0.  0.
        4    1    3    3  502    0 -0.16460820058E+04 -0.53837279995E+03 -0.19286796936E+03  0.17425931562E+04  0.12699999809E+01 0. -1.
       -4    1    3    3    0  502  0.16460820058E+04  0.53837279995E+03  0.31253660157E+03  0.17598613530E+04  0.12699999809E+01 0.  1.
</event>
<event>
 5   0  0.1121462E-08  0.3503712E+04  0.7818609E-02  0.8112911E-01
       -1   -1    0    0    0  501  0.00000000000E+00  0.00000000000E+00  0.19578641545E+04  0.19578641545E+04  0.50400001928E-02 0.  1.
        1   -1    0    0  501    0  0.00000000000E+00  0.00000000000E+00 -0.15675245248E+04  0.15675245248E+04  0.50400001928E-02 0. -1.
    10030    2    1    2    0    0  0.00000000000E+00  0.00000000000E+00  0.39033962971E+03  0.35253886794E+04  0.35037123618E+04 0.  0.
        4    1    3    3  502    0  0.14585944982E+04 -0.96580066030E+03  0.28918039346E+03  0.17731034202E+04  0.12699999809E+01 0.  1.
       -4    1    3    3    0  502 -0.14585944982E+04  0.96580066030E+03  0.10115923625E+03  0.17522852592E+04  0.12699999809E+01 0. -1.
</event>
<event>
 5   0  0.3700096E-08  0.3496151E+04  0.7818609E-02  0.8114703E-01
       -2   -1    0    0    0  501  0.00000000000E+00  0.00000000000E+00  0.12121941520E+04  0.12121941520E+04  0.25500000920E-02 0. -1.
        2   -1    0    0  501    0  0.00000000000E+00  0.00000000000E+00 -0.25208564652E+04  0.25208564652E+04  0.25500000920E-02 0.  1.
    10030    2    1    2    0    0  0.00000000000E+00  0.00000000000E+00 -0.13086623132E+04  0.37330506171E+04  0.34961507204E+04 0.  0.
        4    1    3    3  502    0  0.15716853857E+03  0.96559770402E+03  0.89251584025E+03  0.13242609311E+04  0.12699999809E+01 0. -1.
       -4    1    3    3    0  502 -0.15716853857E+03 -0.96559770402E+03 -0.22011781535E+04  0.24087896861E+04  0.12699999809E+01 0.  1.
</event>
<event>
 5   0  0.3628017E-08  0.3498735E+04  0.7818609E-02  0.8114090E-01
        2   -1    0    0  501    0  0.00000000000E+00  0.00000000000E+00  0.27340726336E+04  0.27340726336E+04  0.25500000920E-02 0.  1.
       -2   -1    0    0    0  501  0.00000000000E+00  0.00000000000E+00 -0.11193145348E+04  0.11193145348E+04  0.25500000920E-02 0. -1.
    10030    2    1    2    0    0  0.00000000000E+00  0.00000000000E+00  0.16147580988E+04  0.38533871684E+04  0.34987353361E+04 0.  0.
        1    1    3    3  502    0  0.68186111674E+03  0.45584250121E+03  0.25091798643E+04  0.26398315400E+04  0.50400001928E-02 0.  1.
       -1    1    3    3    0  502 -0.68186111674E+03 -0.45584250121E+03 -0.89442176551E+03  0.12135556283E+04  0.50400001928E-02 0. -1.
</event>
<event>
 5   0  0.1121462E-08  0.3499318E+04  0.7818609E-02  0.8113952E-01
       -1   -1    0    0    0  501  0.00000000000E+00  0.00000000000E+00  0.26322400231E+04  0.26322400231E+04  0.50400001928E-02 0. -1.
        1   -1    0    0  501    0  0.00000000000E+00  0.00000000000E+00 -0.11630042970E+04  0.11630042970E+04  0.50400001928E-02 0.  1.
    10030    2    1    2    0    0  0.00000000000E+00  0.00000000000E+00  0.14692357260E+04  0.37952443201E+04  0.34993179094E+04 0.  0.
        1    1    3    3  502    0 -0.14722047003E+04 -0.86718021276E+03  0.11431963290E+04  0.20557932891E+04  0.50400001928E-02 0. -1.
       -1    1    3    3    0  502  0.14722047003E+04  0.86718021276E+03  0.32603939704E+03  0.17394510310E+04  0.50400001928E-02 0.  1.
</event>
<event>
 5   0  0.3554451E-08  0.3499326E+04  0.7818609E-02  0.8113950E-01
        2   -1    0    0  501    0  0.00000000000E+00  0.00000000000E+00  0.25266603842E+04  0.25266603842E+04  0.25500000920E-02 0. -1.
       -2   -1    0    0    0  501  0.00000000000E+00  0.00000000000E+00 -0.12116075758E+04  0.12116075758E+04  0.25500000920E-02 0.  1.
    10030    2    1    2    0    0  0.00000000000E+00  0.00000000000E+00  0.13150528084E+04  0.37382679599E+04  0.34993261425E+04 0.  0.
        5    1    3    3  502    0  0.14618216843E+04  0.87824348181E+03  0.23957741584E+03  0.17221073364E+04  0.46999998093E+01 0. -1.
       -5    1    3    3    0  502 -0.14618216843E+04 -0.87824348181E+03  0.10754753925E+04  0.20161606235E+04  0.46999998093E+01 0.  1.
</event>
<event>
 5   0  0.1121462E-08  0.3497976E+04  0.7818609E-02  0.8114270E-01
       -1   -1    0    0    0  501  0.00000000000E+00  0.00000000000E+00  0.30678266097E+04  0.30678266097E+04  0.50400001928E-02 0.  1.
        1   -1    0    0  501    0  0.00000000000E+00  0.00000000000E+00 -0.99710966676E+03  0.99710966677E+03  0.50400001928E-02 0. -1.
    10030    2    1    2    0    0  0.00000000000E+00  0.00000000000E+00  0.20707169429E+04  0.40649362764E+04  0.34979763112E+04 0.  0.
        4    1    3    3  502    0 -0.98426705743E+03  0.12724224624E+04  0.18329884099E+04  0.24387883645E+04  0.12699999809E+01 0. -1.
       -4    1    3    3    0  502  0.98426705743E+03 -0.12724224624E+04  0.23772853294E+03  0.16261479119E+04  0.12699999809E+01 0.  1.
</event>
<event>
 5   0  0.1129219E-08  0.3500112E+04  0.7818609E-02  0.8113763E-01
       -1   -1    0    0    0  501  0.00000000000E+00  0.00000000000E+00  0.12593326161E+04  0.12593326161E+04  0.50400001928E-02 0.  1.
        1   -1    0    0  501    0  0.00000000000E+00  0.00000000000E+00 -0.24319987774E+04  0.24319987774E+04  0.50400001928E-02 0. -1.
    10030    2    1    2    0    0  0.00000000000E+00  0.00000000000E+00 -0.11726661613E+04  0.36913313936E+04  0.35001116456E+04 0.  0.
        5    1    3    3  502    0  0.48009441649E+02  0.79035189013E+03  0.10596074177E+04  0.13227815339E+04  0.46999998093E+01 0.  1.
       -5    1    3    3    0  502 -0.48009441649E+02 -0.79035189013E+03 -0.22322735790E+04  0.23685498597E+04  0.46999998093E+01 0. -1.
</event>
<event>
 5   0  0.1121462E-08  0.3500132E+04  0.7818609E-02  0.8113759E-01
        1   -1    0    0  501    0  0.00000000000E+00  0.00000000000E+00  0.31860960304E+04  0.31860960304E+04  0.50400001928E-02 0. -1.
       -1   -1    0    0    0  501  0.00000000000E+00  0.00000000000E+00 -0.96128018444E+03  0.96128018445E+03  0.50400001928E-02 0.  1.
    10030    2    1    2    0    0  0.00000000000E+00  0.00000000000E+00  0.22248158460E+04  0.41473762149E+04  0.35001319860E+04 0.  0.
        2    1    3    3  502    0 -0.92585815137E+03  0.57994606243E+03 -0.50759053252E+03  0.12046571714E+04  0.25500000920E-02 0.  1.
       -2    1    3    3    0  502  0.92585815137E+03 -0.57994606243E+03  0.27324063785E+04  0.29427190435E+04  0.25500000920E-02 0. -1.
</event>
<event>
 5   0  0.3700096E-08  0.3501922E+04  0.7818609E-02  0.8113335E-01
        2   -1    0    0  501    0  0.00000000000E+00  0.00000000000E+00  0.26259767456E+04  0.26259767456E+04  0.25500000920E-02 0.  1.
       -2   -1    0    0    0  501  0.00000000000E+00  0.00000000000E+00 -0.11675136764E+04  0.11675136764E+04  0.25500000920E-02 0. -1.
    10030    2    1    2    0    0  0.00000000000E+00  0.00000000000E+00  0.14584630692E+04  0.37934904221E+04  0.35019216236E+04 0.  0.
        4    1    3    3  502    0 -0.12215944468E+04 -0.14923377610E+03  0.20784436978E+04  0.24154696293E+04  0.12699999809E+01 0.  1.
       -4    1    3    3    0  502  0.12215944468E+04  0.14923377610E+03 -0.61998062856E+03  0.13780207927E+04  0.12699999809E+01 0. -1.
</event>
<event>
 5   0  0.1121462E-08  0.3500601E+04  0.7818609E-02  0.8113647E-01
       -1   -1    0    0    0  501  0.00000000000E+00  0.00000000000E+00  0.21798185415E+04  0.21798185415E+04  0.50400001928E-02 0. -1.
        1   -1    0    0  501    0  0.00000000000E+00  0.00000000000E+00 -0.14054162893E+04  0.14054162893E+04  0.50400001928E-02 0.  1.
    10030    2    1    2    0    0  0.00000000000E+00  0.00000000000E+00  0.77440225216E+03  0.35852348308E+04  0.35006013689E+04 0.  0.
        1    1    3    3  502    0 -0.49249103352E+03 -0.12151438651E+04 -0.80032758827E+03  0.15361140190E+04  0.50400001928E-02 0.  1.
       -1    1    3    3    0  502  0.49249103352E+03  0.12151438651E+04  0.15747298404E+04  0.20491208118E+04  0.50400001928E-02 0. -1.
</event>
<event>
 5   0  0.1140808E-08  0.3499423E+04  0.7818609E-02  0.8113927E-01
        1   -1    0    0  501    0  0.00000000000E+00  0.00000000000E+00  0.21095473829E+04  0.21095473829E+04  0.50400001928E-02 0.  1.
       -1   -1    0    0    0  501  0.00000000000E+00  0.00000000000E+00 -0.14512545973E+04  0.14512545973E+04  0.50400001928E-02 0. -1.
    10030    2    1    2    0    0  0.00000000000E+00  0.00000000000E+00  0.65829278561E+03  0.35608019803E+04  0.34994230026E+04 0.  0.
        3    1    3    3  502    0  0.13291878632E+04 -0.46474232540E+03  0.13859996940E+04  0.19757836336E+04  0.10100000352E+00 0.  1.
       -3    1    3    3    0  502 -0.13291878632E+04  0.46474232540E+03 -0.72770690840E+03  0.15850183467E+04  0.10100000352E+00 0. -1.
</event>
<event>
 5   0  0.3553585E-08  0.3499130E+04  0.7818609E-02  0.8113996E-01
       -2   -1    0    0    0  501  0.00000000000E+00  0.00000000000E+00  0.20610610226E+04  0.20610610226E+04  0.25500000920E-02 0.  1.
        2   -1    0    0  501    0  0.00000000000E+00  0.00000000000E+00 -0.14851468453E+04  0.14851468453E+04  0.25500000920E-02 0. -1.
    10030    2    1    2    0    0  0.00000000000E+00  0.00000000000E+00  0.57591417729E+03  0.35462078678E+04  0.34991303351E+04 0.  0.
        2    1    3    3  502    0 -0.10744072065E+03  0.18968739856E+03  0.20472425505E+04  0.20588168637E+04  0.25500000920E-02 0.  1.
       -2    1    3    3    0  502  0.10744072065E+03 -0.18968739856E+03 -0.14713283732E+04  0.14873910042E+04  0.25500000920E-02 0. -1.
</event>
<event>
 5   0  0.3700096E-08  0.3500719E+04  0.7818609E-02  0.8113620E-01
       -2   -1    0    0    0  501  0.00000000000E+00  0.00000000000E+00  0.11528683237E+04  0.11528683237E+04  0.25500000920E-02 0. -1.
        2   -1    0    0  501    0  0.00000000000E+00  0.00000000000E+00 -0.26575097055E+04  0.26575097055E+04  0.25500000920E-02 0.  1.
    10030    2    1    2    0    0  0.00000000000E+00  0.00000000000E+00 -0.15046413818E+04  0.38103780293E+04  0.35007192172E+04 0.  0.
        4    1    3    3  502    0 -0.17881509139E+02 -0.14037461200E+04 -0.18902303908E+04  0.23545265895E+04  0.12699999809E+01 0.  1.
       -4    1    3    3    0  502  0.17881509139E+02  0.14037461200E+04  0.38558900896E+03  0.14558514397E+04  0.12699999809E+01 0. -1.
</event>
<event>
 5   0  0.1129219E-08  0.3484019E+04  0.7818609E-02  0.8117588E-01
       -1   -1    0    0    0  501  0.00000000000E+00  0.00000000000E+00  0.22012223418E+04  0.22012223418E+04  0.50400001928E-02 0.  1.
        1   -1    0    0  501    0  0.00000000000E+00  0.00000000000E+00 -0.13785959977E+04  0.13785959977E+04  0.50400001928E-02 0. -1.
    10030    2    1    2    0    0  0.00000000000E+00  0.00000000000E+00  0.82262634407E+03  0.35798183396E+04  0.34840185479E+04 0.  0.
        5    1    3    3  502    0 -0.12387236644E+04 -0.91113836680E+03  0.12523335455E+04  0.19831719137E+04  0.46999998093E+01 0.  1.
       -5    1    3    3    0  502  0.12387236644E+04  0.91113836680E+03 -0.42970720143E+03  0.15966464258E+04  0.46999998093E+01 0. -1.
</event>
<event>
 5   0  0.3700096E-08  0.3498790E+04  0.7818609E-02  0.8114077E-01
       -2   -1    0    0    0  501  0.00000000000E+00  0.00000000000E+00  0.25452420001E+04  0.25452420001E+04  0.25500000920E-02 0. -1.
        2   -1    0    0  501    0  0.00000000000E+00  0.00000000000E+00 -0.12023938753E+04  0.12023938753E+04  0.25500000920E-02 0.  1.
    10030    2    1    2    0    0  0.00000000000E+00  0.00000000000E+00  0.13428481248E+04  0.37476358754E+04  0.34987903007E+04 0.  0.
        4    1    3    3  502    0  0.11353525544E+04  0.12325141640E+04  0.12094065500E+04  0.20665871390E+04  0.12699999809E+01 0.  1.
       -4    1    3    3    0  502 -0.11353525544E+04 -0.12325141640E+04  0.13344157480E+03  0.16810487363E+04  0.12699999809E+01 0. -1.
</event>
<event>
 5   0  0.1121462E-08  0.3500621E+04  0.7818609E-02  0.8113643E-01
        1   -1    0    0  501    0  0.00000000000E+00  0.00000000000E+00  0.93238673812E+03  0.93238673813E+03  0.50400001928E-02 0. -1.
       -1   -1    0    0    0  501  0.00000000000E+00  0.00000000000E+00 -0.32857463628E+04  0.32857463629E+04  0.50400001928E-02 0.  1.
    10030    2    1    2    0    0  0.00000000000E+00  0.00000000000E+00 -0.23533596247E+04  0.42181331010E+04  0.35006207070E+04 0.  0.
        2    1    3    3  502    0  0.60505764456E+03  0.12431323667E+03  0.79668631497E+03  0.10080960364E+04  0.25500000920E-02 0. -1.
       -2    1    3    3    0  502 -0.60505764456E+03 -0.12431323667E+03 -0.31500459397E+04  0.32100370646E+04  0.25500000920E-02 0.  1.
</event>
<event>
 5   0  0.3554451E-08  0.3499920E+04  0.7818609E-02  0.8113809E-01
        2   -1    0    0  501    0  0.00000000000E+00  0.00000000000E+00  0.23889198806E+04  0.23889198806E+04  0.25500000920E-02 0. -1.
       -2   -1    0    0    0  501  0.00000000000E+00  0.00000000000E+00 -0.12819013179E+04  0.12819013179E+04  0.25500000920E-02 0.  1.
    10030    2    1    2    0    0  0.00000000000E+00  0.00000000000E+00  0.11070185627E+04  0.36708211984E+04  0.34999197380E+04 0.  0.
        5    1    3    3  502    0 -0.68878606607E+03 -0.33591702821E+03  0.22035663815E+04  0.23330223707E+04  0.46999998093E+01 0. -1.
       -5    1    3    3    0  502  0.68878606607E+03  0.33591702821E+03 -0.10965478188E+04  0.13377988277E+04  0.46999998093E+01 0.  1.
</event>
<event>
 5   0  0.1121462E-08  0.3500382E+04  0.7818609E-02  0.8113700E-01
       -1   -1    0    0    0  501  0.00000000000E+00  0.00000000000E+00  0.18419064879E+04  0.18419064880E+04  0.50400001928E-02 0. -1.
        1   -1    0    0  501    0  0.00000000000E+00  0.00000000000E+00 -0.16630420010E+04  0.16630420010E+04  0.50400001928E-02 0.  1.
    10030    2    1    2    0    0  0.00000000000E+00  0.00000000000E+00  0.17886448693E+03  0.35049484890E+04  0.35003816086E+04 0.  0.
        4    1    3    3  502    0 -0.88666782637E+02 -0.16253154915E+04  0.73343074504E+03  0.17853387679E+04  0.12699999809E+01 0. -1.
       -4    1    3    3    0  502  0.88666782637E+02  0.16253154915E+04 -0.55456625811E+03  0.17196097211E+04  0.12699999809E+01 0.  1.
</event>
<event>
 5   0  0.3467834E-08  0.3497275E+04  0.7818609E-02  0.8114436E-01
        2   -1    0    0  501    0  0.00000000000E+00  0.00000000000E+00  0.26665995420E+04  0.26665995420E+04  0.25500000920E-02 0.  1.
       -2   -1    0    0    0  501  0.00000000000E+00  0.00000000000E+00 -0.11466788725E+04  0.11466788726E+04  0.25500000920E-02 0. -1.
    10030    2    1    2    0    0  0.00000000000E+00  0.00000000000E+00  0.15199206694E+04  0.38132784145E+04  0.34972751429E+04 0.  0.
        3    1    3    3  502    0  0.66696125854E+03 -0.78734510743E+03  0.22992508315E+04  0.25201793656E+04  0.10100000352E+00 0.  1.
       -3    1    3    3    0  502 -0.66696125854E+03  0.78734510743E+03 -0.77933016206E+03  0.12930990489E+04  0.10100000352E+00 0. -1.
</event>
<event>
 5   0  0.1121462E-08  0.3505379E+04  0.7818609E-02  0.8112516E-01
       -1   -1    0    0    0  501  0.00000000000E+00  0.00000000000E+00  0.13005090816E+04  0.13005090816E+04  0.50400001928E-02 0.  1.
        1   -1    0    0  501    0  0.00000000000E+00  0.00000000000E+00 -0.23620907713E+04  0.23620907713E+04  0.50400001928E-02 0. -1.
    10030    2    1    2    0    0  0.00000000000E+00  0.00000000000E+00 -0.10615816897E+04  0.36625998530E+04  0.35053790093E+04 0.  0.
        2    1    3    3  502    0 -0.99888113319E+03  0.14185432360E+04 -0.79073017367E+03  0.19066417173E+04  0.25500000920E-02 0. -1.
       -2    1    3    3    0  502  0.99888113319E+03 -0.14185432360E+04 -0.27085151601E+03  0.17559581357E+04  0.25500000920E-02 0.  1.
</event>
<event>
 5   0  0.3553585E-08  0.3500159E+04  0.7818609E-02  0.8113752E-01
       -2   -1    0    0    0  501  0.00000000000E+00  0.00000000000E+00  0.10537267324E+04  0.10537267324E+04  0.25500000920E-02 0. -1.
        2   -1    0    0  501    0  0.00000000000E+00  0.00000000000E+00 -0.29066158659E+04  0.29066158659E+04  0.25500000920E-02 0.  1.
    10030    2    1    2    0    0  0.00000000000E+00  0.00000000000E+00 -0.18528891335E+04  0.39603425983E+04  0.35001593327E+04 0.  0.
        2    1    3    3  502    0  0.16534000764E+03 -0.10719777991E+04  0.62755507459E+03  0.12531157534E+04  0.25500000920E-02 0. -1.
       -2    1    3    3    0  502 -0.16534000764E+03  0.10719777991E+04 -0.24804442081E+04  0.27072268448E+04  0.25500000920E-02 0.  1.
</event>
<event>
 5   0  0.3700096E-08  0.3498621E+04  0.7818609E-02  0.8114117E-01
       -2   -1    0    0    0  501  0.00000000000E+00  0.00000000000E+00  0.15483801204E+04  0.15483801204E+04  0.25500000920E-02 0.  1.
        2   -1    0    0  501    0  0.00000000000E+00  0.00000000000E+00 -0.19763148681E+04  0.19763148682E+04  0.25500000920E-02 0. -1.
    10030    2    1    2    0    0  0.00000000000E+00  0.00000000000E+00 -0.42793474778E+03  0.35246949885E+04  0.34986206730E+04 0.  0.
        4    1    3    3  502    0  0.12194461616E+04  0.10467366697E+04 -0.91004245275E+03  0.18468582716E+04  0.12699999809E+01 0. -1.
       -4    1    3    3    0  502 -0.12194461616E+04 -0.10467366697E+04  0.48210770498E+03  0.16778367169E+04  0.12699999809E+01 0.  1.
</event>
<event>
 5   0  0.3554451E-08  0.3500326E+04  0.7818609E-02  0.8113713E-01
        2   -1    0    0  501    0  0.00000000000E+00  0.00000000000E+00  0.18968757059E+04  0.18968757059E+04  0.25500000920E-02 0. -1.
       -2   -1    0    0    0  501  0.00000000000E+00  0.00000000000E+00 -0.16147978298E+04  0.16147978298E+04  0.25500000920E-02 0.  1.
    10030    2    1    2    0    0  0.00000000000E+00  0.00000000000E+00  0.28207787616E+03  0.35116735357E+04  0.35003261409E+04 0.  0.
        5    1    3    3  502    0  0.23837546482E+03  0.17099137000E+04 -0.14698226251E+03  0.17327012435E+04  0.46999998093E+01 0. -1.
       -5    1    3    3    0  502 -0.23837546482E+03 -0.17099137000E+04  0.42906013868E+03  0.17789722922E+04  0.46999998093E+01 0.  1.
</event>
<event>
 5   0  0.1121462E-08  0.3504103E+04  0.7818609E-02  0.8112818E-01
        1   -1    0    0  501    0  0.00000000000E+00  0.00000000000E+00  0.18713905073E+04  0.18713905073E+04  0.50400001928E-02 0.  1.
       -1   -1    0    0    0  501  0.00000000000E+00  0.00000000000E+00 -0.16403226586E+04  0.16403226586E+04  0.50400001928E-02 0. -1.
    10030    2    1    2    0    0  0.00000000000E+00  0.00000000000E+00  0.23106784877E+03  0.35117131659E+04  0.35041028822E+04 0.  0.
        1    1    3    3  502    0 -0.56805662100E+03  0.40725682225E+03 -0.14945472912E+04  0.16499145583E+04  0.50400001928E-02 0. -1.
       -1    1    3    3    0  502  0.56805662100E+03 -0.40725682225E+03  0.17256151400E+04  0.18617986076E+04  0.50400001928E-02 0.  1.
</event>
<event>
 5   0  0.1121462E-08  0.3500474E+04  0.7818609E-02  0.8113678E-01
        1   -1    0    0  501    0  0.00000000000E+00  0.00000000000E+00  0.11905204655E+04  0.11905204655E+04  0.50400001928E-02 0. -1.
       -1   -1    0    0    0  501  0.00000000000E+00  0.00000000000E+00 -0.25731006406E+04  0.25731006406E+04  0.50400001928E-02 0.  1.
    10030    2    1    2    0    0  0.00000000000E+00  0.00000000000E+00 -0.13825801751E+04  0.37636211061E+04  0.35004736665E+04 0.  0.
        2    1    3    3  502    0  0.31232275238E+03  0.16866277702E+04 -0.31718141690E+03  0.17443803451E+04  0.25500000920E-02 0. -1.
       -2    1    3    3    0  502 -0.31232275238E+03 -0.16866277702E+04 -0.10653987582E+04  0.20192407610E+04  0.25500000920E-02 0.  1.
</event>
<event>
 5   0  0.3554451E-08  0.3498341E+04  0.7818609E-02  0.8114183E-01
       -2   -1    0    0    0  501  0.00000000000E+00  0.00000000000E+00  0.16975283422E+04  0.16975283422E+04  0.25500000920E-02 0. -1.
        2   -1    0    0  501    0  0.00000000000E+00  0.00000000000E+00 -0.18023834760E+04  0.18023834760E+04  0.25500000920E-02 0.  1.
    10030    2    1    2    0    0  0.00000000000E+00  0.00000000000E+00 -0.10485513382E+03  0.34999118183E+04  0.34983407691E+04 0.  0.
        5    1    3    3  502    0 -0.11532399346E+04  0.74117767711E+03 -0.11393169659E+04  0.17825184248E+04  0.46999998093E+01 0.  1.
       -5    1    3    3    0  502  0.11532399346E+04 -0.74117767711E+03  0.10344618321E+04  0.17173933935E+04  0.46999998093E+01 0. -1.
</event>
<event>
 5   0  0.1140808E-08  0.3501503E+04  0.7818609E-02  0.8113434E-01
       -1   -1    0    0    0  501  0.00000000000E+00  0.00000000000E+00  0.15196088892E+04  0.15196088892E+04  0.50400001928E-02 0.  1.
        1   -1    0    0  501    0  0.00000000000E+00  0.00000000000E+00 -0.20170521198E+04  0.20170521198E+04  0.50400001928E-02 0. -1.
    10030    2    1    2    0    0  0.00000000000E+00  0.00000000000E+00 -0.49744323064E+03  0.35366610090E+04  0.35015027238E+04 0.  0.
        3    1    3    3  502    0  0.31984801898E+03 -0.92913533541E+03  0.12148046977E+04  0.15624806208E+04  0.10100000352E+00 0.  1.
       -3    1    3    3    0  502 -0.31984801898E+03  0.92913533541E+03 -0.17122479283E+04  0.19741803882E+04  0.10100000352E+00 0. -1.
</event>
<event>
 5   0  0.3628017E-08  0.3499212E+04  0.7818609E-02  0.8113977E-01
       -2   -1    0    0    0  501  0.00000000000E+00  0.00000000000E+00  0.14133561296E+04  0.14133561296E+04  0.25500000920E-02 0.  1.
        2   -1    0    0  501    0  0.00000000000E+00  0.00000000000E+00 -0.21658521657E+04  0.21658521657E+04  0.25500000920E-02 0. -1.
    10030    2    1    2    0    0  0.00000000000E+00  0.00000000000E+00 -0.75249603610E+03  0.35792082953E+04  0.34992115879E+04 0.  0.
        1    1    3    3  502    0 -0.59541277191E+03 -0.92843749842E+03  0.10129648543E+04  0.14975347587E+04  0.50400001928E-02 0.  1.
       -1    1    3    3    0  502  0.59541277191E+03  0.92843749842E+03 -0.17654608904E+04  0.20816735366E+04  0.50400001928E-02 0. -1.
</event>
<event>
 5   0  0.1121462E-08  0.3500374E+04  0.7818609E-02  0.8113701E-01
        1   -1    0    0  501    0  0.00000000000E+00  0.00000000000E+00  0.23750988149E+04  0.23750988149E+04  0.50400001928E-02 0.  1.
       -1   -1    0    0    0  501  0.00000000000E+00  0.00000000000E+00 -0.12896959854E+04  0.12896959854E+04  0.50400001928E-02 0. -1.
    10030    2    1    2    0    0  0.00000000000E+00  0.00000000000E+00  0.10854028295E+04  0.36647948003E+04  0.35003744980E+04 0.  0.
        1    1    3    3  502    0  0.42799702545E+03 -0.16940319572E+04  0.64859415625E+03  0.18637596694E+04  0.50400001928E-02 0. -1.
       -1    1    3    3    0  502 -0.42799702545E+03  0.16940319572E+04  0.43680867320E+03  0.18010351309E+04  0.50400001928E-02 0.  1.
</event>
<event>
 5   0  0.3628017E-08  0.3499716E+04  0.7818609E-02  0.8113857E-01
        2   -1    0    0  501    0  0.00000000000E+00  0.00000000000E+00  0.21192833761E+04  0.21192833761E+04  0.25500000920E-02 0.  1.
       -2   -1    0    0    0  501  0.00000000000E+00  0.00000000000E+00 -0.14448295553E+04  0.14448295553E+04  0.25500000920E-02 0. -1.
    10030    2    1    2    0    0  0.00000000000E+00  0.00000000000E+00  0.67445382080E+03  0.35641129313E+04  0.34997161357E+04 0.  0.
        1    1    3    3  502    0 -0.14100959307E+04 -0.83430491867E+03  0.96299907573E+03  0.19004742700E+04  0.50400001928E-02 0.  1.
       -1    1    3    3    0  502  0.14100959307E+04  0.83430491867E+03 -0.28854525493E+03  0.16636386613E+04  0.50400001928E-02 0. -1.
</event>
<event>
 5   0  0.3467834E-08  0.3499875E+04  0.7818609E-02  0.8113820E-01
        2   -1    0    0  501    0  0.00000000000E+00  0.00000000000E+00  0.34101955236E+04  0.34101955236E+04  0.25500000920E-02 0. -1.
       -2   -1    0    0    0  501  0.00000000000E+00  0.00000000000E+00 -0.89797828164E+03  0.89797828164E+03  0.25500000920E-02 0.  1.
    10030    2    1    2    0    0  0.00000000000E+00  0.00000000000E+00  0.25122172420E+04  0.43081738053E+04  0.34998751500E+04 0.  0.
        3    1    3    3  502    0  0.57374890672E+03  0.78412410115E+03  0.30476570935E+04  0.31987891746E+04  0.10100000352E+00 0. -1.
       -3    1    3    3    0  502 -0.57374890672E+03 -0.78412410115E+03 -0.53543985149E+03  0.11093846307E+04  0.10100000352E+00 0.  1.
</event>
<event>
 5   0  0.3554451E-08  0.3500813E+04  0.7818609E-02  0.8113597E-01
       -2   -1    0    0    0  501  0.00000000000E+00  0.00000000000E+00  0.22453019499E+04  0.22453019499E+04  0.25500000920E-02 0.  1.
        2   -1    0    0  501    0  0.00000000000E+00  0.00000000000E+00 -0.13645925850E+04  0.13645925850E+04  0.25500000920E-02 0. -1.
    10030    2    1    2    0    0  0.00000000000E+00  0.00000000000E+00  0.88070936490E+03  0.36098945348E+04  0.35008127009E+04 0.  0.
        5    1    3    3  502    0  0.31239918171E+03 -0.93815160450E+03  0.19297205034E+04  0.21683092475E+04  0.46999998093E+01 0.  1.
       -5    1    3    3    0  502 -0.31239918171E+03  0.93815160450E+03 -0.10490111385E+04  0.14415852873E+04  0.46999998093E+01 0. -1.
</event>
<event>
 5   0  0.3467834E-08  0.3498344E+04  0.7818609E-02  0.8114183E-01
       -2   -1    0    0    0  501  0.00000000000E+00  0.00000000000E+00  0.14861006518E+04  0.14861006518E+04  0.25500000920E-02 0. -1.
        2   -1    0    0  501    0  0.00000000000E+00  0.00000000000E+00 -0.20588122830E+04  0.20588122830E+04  0.25500000920E-02 0.  1.
    10030    2    1    2    0    0  0.00000000000E+00  0.00000000000E+00 -0.57271163122E+03  0.35449129348E+04  0.34983437657E+04 0.  0.
        3    1    3    3  502    0 -0.75308600089E+03 -0.13574885632E+04  0.53040650315E+03  0.16405013846E+04  0.10100000352E+00 0. -1.
       -3    1    3    3    0  502  0.75308600089E+03  0.13574885632E+04 -0.11031181344E+04  0.19044115502E+04  0.10100000352E+00 0.  1.
</event>
<event>
 5   0  0.1121462E-08  0.3495493E+04  0.7818609E-02  0.8114859E-01
        1   -1    0    0  501    0  0.00000000000E+00  0.00000000000E+00  0.19151839486E+04  0.19151839487E+04  0.50400001928E-02 0.  1.
       -1   -1    0    0    0  501  0.00000000000E+00  0.00000000000E+00 -0.15949470333E+04  0.15949470333E+04  0.50400001928E-02 0. -1.
    10030    2    1    2    0    0  0.00000000000E+00  0.00000000000E+00  0.32023691538E+03  0.35101309819E+04  0.34954925015E+04 0.  0.
        4    1    3    3  502    0 -0.12969657460E+04 -0.96860454878E+03  0.82189302907E+03  0.18154406304E+04  0.12699999809E+01 0.  1.
       -4    1    3    3    0  502  0.12969657460E+04  0.96860454878E+03 -0.50165611369E+03  0.16946903515E+04  0.12699999809E+01 0. -1.
</event>
<event>
 5   0  0.1140808E-08  0.3500645E+04  0.7818609E-02  0.8113637E-01
        1   -1    0    0  501    0  0.00000000000E+00  0.00000000000E+00  0.24000537956E+04  0.24000537956E+04  0.50400001928E-02 0.  1.
       -1   -1    0    0    0  501  0.00000000000E+00  0.00000000000E+00 -0.12764836320E+04  0.12764836320E+04  0.50400001928E-02 0. -1.
    10030    2    1    2    0    0  0.00000000000E+00  0.00000000000E+00  0.11235701637E+04  0.36765374276E+04  0.35006453039E+04 0.  0.
        3    1    3    3  502    0  0.11505258793E+04 -0.39662896751E+03 -0.75944104955E+03  0.14344947036E+04  0.10100000352E+00 0. -1.
       -3    1    3    3    0  502 -0.11505258793E+04  0.39662896751E+03  0.18830112132E+04  0.22420427240E+04  0.10100000352E+00 0.  1.
</event>
<event>
 5   0  0.1121462E-08  0.3499745E+04  0.7818609E-02  0.8113850E-01
       -1   -1    0    0    0  501  0.00000000000E+00  0.00000000000E+00  0.13486109558E+04  0.13486109558E+04  0.50400001928E-02 0. -1.
        1   -1    0    0  501    0  0.00000000000E+00  0.00000000000E+00 -0.22705244336E+04  0.22705244336E+04  0.50400001928E-02 0.  1.
    10030    2    1    2    0    0  0.00000000000E+00  0.00000000000E+00 -0.92191347780E+03  0.36191353893E+04  0.34997452058E+04 0.  0.
        2    1    3    3  502    0 -0.38016480306E+03  0.22505943406E+03  0.12899900196E+04  0.13635436469E+04  0.25500000920E-02 0. -1.
       -2    1    3    3    0  502  0.38016480306E+03 -0.22505943406E+03 -0.22119034974E+04  0.22555917424E+04  0.25500000920E-02 0.  1.
</event>
<event>
 5   0  0.1121462E-08  0.3499523E+04  0.7818609E-02  0.8113903E-01
        1   -1    0    0  501    0  0.00000000000E+00  0.00000000000E+00  0.24320394392E+04  0.24320394392E+04  0.50400001928E-02 0.  1.
       -1   -1    0    0    0  501  0.00000000000E+00  0.00000000000E+00 -0.12588877695E+04  0.12588877695E+04  0.50400001928E-02 0. -1.
    10030    2    1    2    0    0  0.00000000000E+00  0.00000000000E+00  0.11731516697E+04  0.36909272088E+04  0.34995226560E+04 0.  0.
        1    1    3    3  502    0 -0.26980729280E+03 -0.10634508643E+04  0.20241909449E+04  0.23024058499E+04  0.50400001928E-02 0.  1.
       -1    1    3    3    0  502  0.26980729280E+03  0.10634508643E+04 -0.85103927518E+03  0.13885213589E+04  0.50400001928E-02 0. -1.
</event>
<event>
 5   0  0.3628017E-08  0.3501254E+04  0.7818609E-02  0.8113493E-01
        2   -1    0    0  501    0  0.00000000000E+00  0.00000000000E+00  0.22745668262E+04  0.22745668262E+04  0.25500000920E-02 0.  1.
       -2   -1    0    0    0  501  0.00000000000E+00  0.00000000000E+00 -0.13473753678E+04  0.13473753678E+04  0.25500000920E-02 0. -1.
    10030    2    1    2    0    0  0.00000000000E+00  0.00000000000E+00  0.92719145837E+03  0.36219421940E+04  0.35012542404E+04 0.  0.
        1    1    3    3  502    0  0.12755045546E+04 -0.38155192417E+03  0.16395298711E+04  0.21120018793E+04  0.50400001928E-02 0.  1.
       -1    1    3    3    0  502 -0.12755045546E+04  0.38155192417E+03 -0.71233841275E+03  0.15099403147E+04  0.50400001928E-02 0. -1.
</event>
<event>
 5   0  0.1140808E-08  0.3500031E+04  0.7818609E-02  0.8113783E-01
        1   -1    0    0  501    0  0.00000000000E+00  0.00000000000E+00  0.15569300197E+04  0.15569300197E+04  0.50400001928E-02 0.  1.
       -1   -1    0    0    0  501  0.00000000000E+00  0.00000000000E+00 -0.19670467445E+04  0.19670467445E+04  0.50400001928E-02 0. -1.
    10030    2    1    2    0    0  0.00000000000E+00  0.00000000000E+00 -0.41011672481E+03  0.35239767641E+04  0.35000309293E+04 0.  0.
        3    1    3    3  502    0  0.25373830944E+03 -0.67689571932E+03  0.13995777938E+04  0.15752425069E+04  0.10100000352E+00 0.  1.
       -3    1    3    3    0  502 -0.25373830944E+03  0.67689571932E+03 -0.18096945186E+04  0.19487342572E+04  0.10100000352E+00 0. -1.
</event>
<event>
 5   0  0.3553585E-08  0.3500774E+04  0.7818609E-02  0.8113607E-01
       -2   -1    0    0    0  501  0.00000000000E+00  0.00000000000E+00  0.15196592208E+04  0.15196592208E+04  0.25500000920E-02 0.  1.
        2   -1    0    0  501    0  0.00000000000E+00  0.00000000000E+00 -0.20161457457E+04  0.20161457457E+04  0.25500000920E-02 0. -1.
    10030    2    1    2    0    0  0.00000000000E+00  0.00000000000E+00 -0.49648652495E+03  0.35358049665E+04  0.35007738990E+04 0.  0.
        2    1    3    3  502    0  0.10603647246E+02  0.82329573996E+03 -0.18083443467E+04  0.19869669320E+04  0.25500000920E-02 0. -1.
       -2    1    3    3    0  502 -0.10603647246E+02 -0.82329573996E+03  0.13118578217E+04  0.15488380345E+04  0.25500000920E-02 0.  1.
</event>
<event>
 5   0  0.1129219E-08  0.3500396E+04  0.7818609E-02  0.8113696E-01
        1   -1    0    0  501    0  0.00000000000E+00  0.00000000000E+00  0.20258712811E+04  0.20258712811E+04  0.50400001928E-02 0.  1.
       -1   -1    0    0    0  501  0.00000000000E+00  0.00000000000E+00 -0.15120369502E+04  0.15120369502E+04  0.50400001928E-02 0. -1.
    10030    2    1    2    0    0  0.00000000000E+00  0.00000000000E+00  0.51383433083E+03  0.35379082313E+04  0.35003955396E+04 0.  0.
        5    1    3    3  502    0 -0.54225533029E+02  0.82248987312E+03 -0.13035653146E+04  0.15423146953E+04  0.46999998093E+01 0. -1.
       -5    1    3    3    0  502  0.54225533029E+02 -0.82248987312E+03  0.18173996454E+04  0.19955935360E+04  0.46999998093E+01 0.  1.
</event>
<event>
 5   0  0.3700096E-08  0.3500168E+04  0.7818609E-02  0.8113750E-01
        2   -1    0    0  501    0  0.00000000000E+00  0.00000000000E+00  0.19524898953E+04  0.19524898953E+04  0.25500000920E-02 0.  1.
       -2   -1    0    0    0  501  0.00000000000E+00  0.00000000000E+00 -0.15686605508E+04  0.15686605508E+04  0.25500000920E-02 0. -1.
    10030    2    1    2    0    0  0.00000000000E+00  0.00000000000E+00  0.38382934447E+03  0.35211504461E+04  0.35001679243E+04 0.  0.
        4    1    3    3  502    0  0.51391339715E+03 -0.10019680896E+04 -0.11557973562E+04  0.16136654467E+04  0.12699999809E+01 0. -1.
       -4    1    3    3    0  502 -0.51391339715E+03  0.10019680896E+04  0.15396267007E+04  0.19074849994E+04  0.12699999809E+01 0.  1.
</event>
<event>
 5   0  0.3628017E-08  0.3499468E+04  0.7818609E-02  0.8113916E-01
       -2   -1    0    0    0  501  0.00000000000E+00  0.00000000000E+00  0.15202875686E+04  0.15202875686E+04  0.25500000920E-02 0.  1.
        2   -1    0    0  501    0  0.00000000000E+00  0.00000000000E+00 -0.20138087373E+04  0.20138087373E+04  0.25500000920E-02 0. -1.
    10030    2    1    2    0    0  0.00000000000E+00  0.00000000000E+00 -0.49352116861E+03  0.35340963059E+04  0.34994676103E+04 0.  0.
        1    1    3    3  502    0 -0.35991797196E+03 -0.68855721067E+03  0.13365275478E+04  0.15459488558E+04  0.50400001928E-02 0.  1.
       -1    1    3    3    0  502  0.35991797196E+03  0.68855721067E+03 -0.18300487164E+04  0.19881474501E+04  0.50400001928E-02 0. -1.
</event>
<event>
 5   0  0.3467834E-08  0.3502335E+04  0.7818609E-02  0.8113237E-01
       -2   -1    0    0    0  501  0.00000000000E+00  0.00000000000E+00  0.14910575684E+04  0.14910575684E+04  0.25500000920E-02 0.  1.
        2   -1    0    0  501    0  0.00000000000E+00  0.00000000000E+00 -0.20566526518E+04  0.20566526518E+04  0.25500000920E-02 0. -1.
    10030    2    1    2    0    0  0.00000000000E+00  0.00000000000E+00 -0.56559508336E+03  0.35477102201E+04  0.35023349366E+04 0.  0.
        3    1    3    3  502    0  0.62386794308E+03  0.15922495050E+04  0.99071712661E+02  0.17129754555E+04  0.10100000352E+00 0. -1.
       -3    1    3    3    0  502 -0.62386794308E+03 -0.15922495050E+04 -0.66466679602E+03  0.18347347646E+04  0.10100000352E+00 0.  1.
</event>
<event>
 5   0  0.1121462E-08  0.3499709E+04  0.7818609E-02  0.8113859E-01
        1   -1    0    0  501    0  0.00000000000E+00  0.00000000000E+00  0.17853218231E+04  0.17853218231E+04  0.50400001928E-02 0.  1.
       -1   -1    0    0    0  501  0.00000000000E+00  0.00000000000E+00 -0.17150919407E+04  0.17150919407E+04  0.50400001928E-02 0. -1.
    10030    2    1    2    0    0  0.00000000000E+00  0.00000000000E+00  0.70229882422E+02  0.35004137638E+04  0.34997091710E+04 0.  0.
        4    1    3    3  502    0 -0.13705917169E+04 -0.10423013848E+04  0.34674728625E+03  0.17564592579E+04  0.12699999809E+01 0.  1.
       -4    1    3    3    0  502  0.13705917169E+04  0.10423013848E+04 -0.27651740383E+03  0.17439545059E+04  0.12699999809E+01 0. -1.
</event>
<event>
 5   0  0.3700096E-08  0.3500031E+04  0.7818609E-02  0.8113783E-01
        2   -1    0    0  501    0  0.00000000000E+00  0.00000000000E+00  0.24200230432E+04  0.24200230432E+04  0.25500000920E-02 0.  1.
       -2   -1    0    0    0  501  0.00000000000E+00  0.00000000000E+00 -0.12655060208E+04  0.12655060208E+04  0.25500000920E-02 0. -1.
    10030    2    1    2    0    0  0.00000000000E+00  0.00000000000E+00  0.11545170223E+04  0.36855290640E+04  0.35000307037E+04 0.  0.
        4    1    3    3  502    0 -0.10665351497E+04  0.46645545391E+02 -0.88291334750E+03  0.13853557754E+04  0.12699999809E+01 0. -1.
       -4    1    3    3    0  502  0.10665351497E+04 -0.46645545391E+02  0.20374303698E+04  0.23001732885E+04  0.12699999809E+01 0.  1.
</event>
<event>
 5   0  0.3700096E-08  0.3500416E+04  0.7818609E-02  0.8113691E-01
        2   -1    0    0  501    0  0.00000000000E+00  0.00000000000E+00  0.22453060441E+04  0.22453060441E+04  0.25500000920E-02 0. -1.
       -2   -1    0    0    0  501  0.00000000000E+00  0.00000000000E+00 -0.13642808910E+04  0.13642808910E+04  0.25500000920E-02 0.  1.
    10030    2    1    2    0    0  0.00000000000E+00  0.00000000000E+00  0.88102515311E+03  0.36095869351E+04  0.35004160497E+04 0.  0.
        4    1    3    3  502    0  0.52068612049E+03  0.16882989623E+03  0.21547703782E+04  0.22232081696E+04  0.12699999809E+01 0. -1.
       -4    1    3    3    0  502 -0.52068612049E+03 -0.16882989623E+03 -0.12737452251E+04  0.13863787654E+04  0.12699999809E+01 0.  1.
</event>
<event>
 5   0  0.1121462E-08  0.3499288E+04  0.7818609E-02  0.8113959E-01
       -1   -1    0    0    0  501  0.00000000000E+00  0.00000000000E+00  0.13880611865E+04  0.13880611865E+04  0.50400001928E-02 0. -1.
        1   -1    0    0  501    0  0.00000000000E+00  0.00000000000E+00 -0.22054169650E+04  0.22054169650E+04  0.50400001928E-02 0.  1.
    10030    2    1    2    0    0  0.00000000000E+00  0.00000000000E+00 -0.81735577851E+03  0.35934781515E+04  0.34992877499E+04 0.  0.
        2    1    3    3  502    0  0.67961504088E+02 -0.77216827665E+03  0.12021065436E+04  0.14303575622E+04  0.25500000920E-02 0. -1.
       -2    1    3    3    0  502 -0.67961504088E+02  0.77216827665E+03 -0.20194623221E+04  0.21631205893E+04  0.25500000920E-02 0.  1.
</event>
<event>
 5   0  0.3628017E-08  0.3500120E+04  0.7818609E-02  0.8113761E-01
       -2   -1    0    0    0  501  0.00000000000E+00  0.00000000000E+00  0.22238866028E+04  0.22238866028E+04  0.25500000920E-02 0. -1.
        2   -1    0    0  501    0  0.00000000000E+00  0.00000000000E+00 -0.13771880753E+04  0.13771880753E+04  0.25500000920E-02 0.  1.
    10030    2    1    2    0    0  0.00000000000E+00  0.00000000000E+00  0.84669852750E+03  0.36010746781E+04  0.35001200609E+04 0.  0.
        1    1    3    3  502    0 -0.10426903578E+04 -0.10430219662E+04 -0.54595649828E+03  0.15726304405E+04  0.50400001928E-02 0.  1.
       -1    1    3    3    0  502  0.10426903578E+04  0.10430219662E+04  0.13926550258E+04  0.20284442376E+04  0.50400001928E-02 0. -1.
</event>
<event>
 5   0  0.1129219E-08  0.3499210E+04  0.7818609E-02  0.8113977E-01
       -1   -1    0    0    0  501  0.00000000000E+00  0.00000000000E+00  0.20878919057E+04  0.20878919058E+04  0.50400001928E-02 0. -1.
        1   -1    0    0  501    0  0.00000000000E+00  0.00000000000E+00 -0.14661288169E+04  0.14661288169E+04  0.50400001928E-02 0.  1.
    10030    2    1    2    0    0  0.00000000000E+00  0.00000000000E+00  0.62176308882E+03  0.35540207227E+04  0.34992104765E+04 0.  0.
        5    1    3    3  502    0 -0.11475500281E+04  0.52205881089E+03  0.15430116624E+04  0.19925670752E+04  0.46999998093E+01 0. -1.
       -5    1    3    3    0  502  0.11475500281E+04 -0.52205881089E+03 -0.92124857356E+03  0.15614536475E+04  0.46999998093E+01 0.  1.
</event>
<event>
 5   0  0.1129219E-08  0.3501705E+04  0.7818609E-02  0.8113386E-01
        1   -1    0    0  501    0  0.00000000000E+00  0.00000000000E+00  0.18251275012E+04  0.18251275012E+04  0.50400001928E-02 0.  1.
       -1   -1    0    0    0  501  0.00000000000E+00  0.00000000000E+00 -0.16795998685E+04  0.16795998685E+04  0.50400001928E-02 0. -1.
    10030    2    1    2    0    0  0.00000000000E+00  0.00000000000E+00  0.14552763271E+03  0.35047273698E+04  0.35017046770E+04 0.  0.
        5    1    3    3  502    0  0.17333240400E+04 -0.23372470350E+03  0.15297260011E+03  0.17556942134E+04  0.46999998093E+01 0.  1.
       -5    1    3    3    0  502 -0.17333240400E+04  0.23372470350E+03 -0.74449673984E+01  0.17490331564E+04  0.46999998093E+01 0. -1.
</event>
<event>
 5   0  0.1129219E-08  0.3501773E+04  0.7818609E-02  0.8113370E-01
        1   -1    0    0  501    0  0.00000000000E+00  0.00000000000E+00  0.16163589466E+04  0.16163589466E+04  0.50400001928E-02 0.  1.
       -1   -1    0    0    0  501  0.00000000000E+00  0.00000000000E+00 -0.18966106829E+04  0.18966106829E+04  0.50400001928E-02 0. -1.
    10030    2    1    2    0    0  0.00000000000E+00  0.00000000000E+00 -0.28025173633E+03  0.35129696296E+04  0.35017730627E+04 0.  0.
        5    1    3    3  502    0 -0.56949040365E+03  0.88877028432E+03  0.12612477632E+04  0.16446884047E+04  0.46999998093E+01 0.  1.
       -5    1    3    3    0  502  0.56949040365E+03 -0.88877028432E+03 -0.15414994996E+04  0.18682812249E+04  0.46999998093E+01 0. -1.
</event>
<event>
 5   0  0.1121462E-08  0.3501805E+04  0.7818609E-02  0.8113362E-01
       -1   -1    0    0    0  501  0.00000000000E+00  0.00000000000E+00  0.18217508141E+04  0.18217508141E+04  0.50400001928E-02 0.  1.
        1   -1    0    0  501    0  0.00000000000E+00  0.00000000000E+00 -0.16828094729E+04  0.16828094729E+04  0.50400001928E-02 0. -1.
    10030    2    1    2    0    0  0.00000000000E+00  0.00000000000E+00  0.13894134121E+03  0.35045602870E+04  0.35018049788E+04 0.  0.
        2    1    3    3  502    0 -0.13359317824E+04  0.10939677659E+04 -0.22089607995E+03  0.17407683011E+04  0.25500000920E-02 0.  1.
       -2    1    3    3    0  502  0.13359317824E+04 -0.10939677659E+04  0.35983742117E+03  0.17637919859E+04  0.25500000920E-02 0. -1.
</event>
<event>
 5   0  0.3467834E-08  0.3501693E+04  0.7818609E-02  0.8113389E-01
        2   -1    0    0  501    0  0.00000000000E+00  0.00000000000E+00  0.19988429345E+04  0.19988429345E+04  0.25500000920E-02 0.  1.
       -2   -1    0    0    0  501  0.00000000000E+00  0.00000000000E+00 -0.15336193655E+04  0.15336193655E+04  0.25500000920E-02 0. -1.
    10030    2    1    2    0    0  0.00000000000E+00  0.00000000000E+00  0.46522356903E+03  0.35324623000E+04  0.35016934377E+04 0.  0.
        3    1    3    3  502    0 -0.67186973909E+03 -0.14096156630E+04  0.10314276389E+04  0.18714348100E+04  0.10100000352E+00 0.  1.
       -3    1    3    3    0  502  0.67186973909E+03  0.14096156630E+04 -0.56620406985E+03  0.16610274900E+04  0.10100000352E+00 0. -1.
</event>
<event>
 5   0  0.3554451E-08  0.3499246E+04  0.7818609E-02  0.8113969E-01
        2   -1    0    0  501    0  0.00000000000E+00  0.00000000000E+00  0.26621528586E+04  0.26621528586E+04  0.25500000920E-02 0. -1.
       -2   -1    0    0    0  501  0.00000000000E+00  0.00000000000E+00 -0.11498893460E+04  0.11498893460E+04  0.25500000920E-02 0.  1.
    10030    2    1    2    0    0  0.00000000000E+00  0.00000000000E+00  0.15122635126E+04  0.38120422046E+04  0.34992463243E+04 0.  0.
        5    1    3    3  502    0 -0.78019389197E+03  0.14024014228E+03 -0.94303277843E+03  0.12319507773E+04  0.46999998093E+01 0.  1.
       -5    1    3    3    0  502  0.78019389197E+03 -0.14024014228E+03  0.24552962910E+04  0.25800914273E+04  0.46999998093E+01 0. -1.
</event>
<event>
 5   0  0.3553585E-08  0.3501796E+04  0.7818609E-02  0.8113364E-01
        2   -1    0    0  501    0  0.00000000000E+00  0.00000000000E+00  0.28735405395E+04  0.28735405395E+04  0.25500000920E-02 0.  1.
       -2   -1    0    0    0  501  0.00000000000E+00  0.00000000000E+00 -0.10668524564E+04  0.10668524564E+04  0.25500000920E-02 0. -1.
    10030    2    1    2    0    0  0.00000000000E+00  0.00000000000E+00  0.18066880831E+04  0.39403929959E+04  0.35017959866E+04 0.  0.
        2    1    3    3  502    0  0.10411017235E+04  0.65069358250E+03 -0.50134773397E+03  0.13261389397E+04  0.25500000920E-02 0. -1.
       -2    1    3    3    0  502 -0.10411017235E+04 -0.65069358250E+03  0.23080358171E+04  0.26142540562E+04  0.25500000920E-02 0.  1.
</event>
<event>
 5   0  0.1121462E-08  0.3500037E+04  0.7818609E-02  0.8113781E-01
        1   -1    0    0  501    0  0.00000000000E+00  0.00000000000E+00  0.15435039945E+04  0.15435039946E+04  0.50400001928E-02 0. -1.
       -1   -1    0    0    0  501  0.00000000000E+00  0.00000000000E+00 -0.19841634351E+04  0.19841634351E+04  0.50400001928E-02 0.  1.
    10030    2    1    2    0    0  0.00000000000E+00  0.00000000000E+00 -0.44065944059E+03  0.35276674297E+04  0.35000366787E+04 0.  0.
        4    1    3    3  502    0 -0.25296785055E+03 -0.80479527876E+02 -0.19637519357E+04  0.19816137277E+04  0.12699999809E+01 0.  1.
       -4    1    3    3    0  502  0.25296785055E+03  0.80479527876E+02  0.15230924951E+04  0.15460537020E+04  0.12699999809E+01 0. -1.
</event>
<event>
 5   0  0.3628017E-08  0.3498564E+04  0.7818609E-02  0.8114130E-01
       -2   -1    0    0    0  501  0.00000000000E+00  0.00000000000E+00  0.21821758776E+04  0.21821758776E+04  0.25500000920E-02 0. -1.
        2   -1    0    0  501    0  0.00000000000E+00  0.00000000000E+00 -0.14022643028E+04  0.14022643028E+04  0.25500000920E-02 0.  1.
    10030    2    1    2    0    0  0.00000000000E+00  0.00000000000E+00  0.77991157480E+03  0.35844401804E+04  0.34985638971E+04 0.  0.
        1    1    3    3  502    0  0.58826240843E+03  0.28173678716E+03 -0.12730183531E+04  0.14303859639E+04  0.50400001928E-02 0.  1.
       -1    1    3    3    0  502 -0.58826240843E+03 -0.28173678716E+03  0.20529299279E+04  0.21540542164E+04  0.50400001928E-02 0. -1.
</event>
<event>
 5   0  0.1121462E-08  0.3500358E+04  0.7818609E-02  0.8113705E-01
        1   -1    0    0  501    0  0.00000000000E+00  0.00000000000E+00  0.19678553141E+04  0.19678553141E+04  0.50400001928E-02 0. -1.
       -1   -1    0    0    0  501  0.00000000000E+00  0.00000000000E+00 -0.15565808634E+04  0.15565808634E+04  0.50400001928E-02 0.  1.
    10030    2    1    2    0    0  0.00000000000E+00  0.00000000000E+00  0.41127445076E+03  0.35244361775E+04  0.35003576525E+04 0.  0.
        2    1    3    3  502    0  0.87288162362E+03 -0.69118096198E+03  0.15652863118E+04  0.19208786242E+04  0.25500000920E-02 0. -1.
       -2    1    3    3    0  502 -0.87288162362E+03  0.69118096198E+03 -0.11540118611E+04  0.16035575532E+04  0.25500000920E-02 0.  1.
</event>
<event>
 5   0  0.1121462E-08  0.3500491E+04  0.7818609E-02  0.8113674E-01
        1   -1    0    0  501    0  0.00000000000E+00  0.00000000000E+00  0.19365718303E+04  0.19365718303E+04  0.50400001928E-02 0.  1.
       -1   -1    0    0    0  501  0.00000000000E+00  0.00000000000E+00 -0.15818465127E+04  0.15818465127E+04  0.50400001928E-02 0. -1.
    10030    2    1    2    0    0  0.00000000000E+00  0.00000000000E+00  0.35472531763E+03  0.35184183429E+04  0.35004910491E+04 0.  0.
        1    1    3    3  502    0  0.98240293566E+01  0.83289450998E+03  0.17245802997E+04  0.19151989418E+04  0.50400001928E-02 0.  1.
       -1    1    3    3    0  502 -0.98240293566E+01 -0.83289450998E+03 -0.13698549821E+04  0.16032194012E+04  0.50400001928E-02 0. -1.
</event>
<event>
 5   0  0.1140808E-08  0.3500893E+04  0.7818609E-02  0.8113578E-01
       -1   -1    0    0    0  501  0.00000000000E+00  0.00000000000E+00  0.23294293156E+04  0.23294293156E+04  0.50400001928E-02 0. -1.
        1   -1    0    0  501    0  0.00000000000E+00  0.00000000000E+00 -0.13153707867E+04  0.13153707867E+04  0.50400001928E-02 0.  1.
    10030    2    1    2    0    0  0.00000000000E+00  0.00000000000E+00  0.10140585289E+04  0.36448001023E+04  0.35008931840E+04 0.  0.
        3    1    3    3  502    0  0.99317522273E+02 -0.64771545282E+03  0.21969155121E+04  0.22925612436E+04  0.10100000352E+00 0. -1.
       -3    1    3    3    0  502 -0.99317522273E+02  0.64771545282E+03 -0.11828569832E+04  0.13522388587E+04  0.10100000352E+00 0.  1.
</event>
<event>
 5   0  0.1121462E-08  0.3500914E+04  0.7818609E-02  0.8113573E-01
       -1   -1    0    0    0  501  0.00000000000E+00  0.00000000000E+00  0.19202462509E+04  0.19202462509E+04  0.50400001928E-02 0. -1.
        1   -1    0    0  501    0  0.00000000000E+00  0.00000000000E+00 -0.15956807494E+04  0.15956807494E+04  0.50400001928E-02 0.  1.
    10030    2    1    2    0    0  0.00000000000E+00  0.00000000000E+00  0.32456550153E+03  0.35159270003E+04  0.35009141530E+04 0.  0.
        2    1    3    3  502    0 -0.14637559985E+04 -0.86337914188E+03 -0.25915328431E+03  0.17190595075E+04  0.25500000920E-02 0.  1.
       -2    1    3    3    0  502  0.14637559985E+04  0.86337914188E+03  0.58371878584E+03  0.17968674928E+04  0.25500000920E-02 0. -1.
</event>
<event>
 5   0  0.1140808E-08  0.3501025E+04  0.7818609E-02  0.8113547E-01
       -1   -1    0    0    0  501  0.00000000000E+00  0.00000000000E+00  0.12300903997E+04  0.12300903997E+04  0.50400001928E-02 0.  1.
        1   -1    0    0  501    0  0.00000000000E+00  0.00000000000E+00 -0.24911123739E+04  0.24911123739E+04  0.50400001928E-02 0. -1.
    10030    2    1    2    0    0  0.00000000000E+00  0.00000000000E+00 -0.12610219742E+04  0.37212027735E+04  0.35010246589E+04 0.  0.
        3    1    3    3  502    0 -0.60705366673E+03  0.11771215390E+04  0.58609799758E+03  0.14483232184E+04  0.10100000352E+00 0.  1.
       -3    1    3    3    0  502  0.60705366673E+03 -0.11771215390E+04 -0.18471199718E+04  0.22728795552E+04  0.10100000352E+00 0. -1.
</event>
<event>
 5   0  0.1121462E-08  0.3502259E+04  0.7818609E-02  0.8113255E-01
       -1   -1    0    0    0  501  0.00000000000E+00  0.00000000000E+00  0.17250049356E+04  0.17250049356E+04  0.50400001928E-02 0.  1.
        1   -1    0    0  501    0  0.00000000000E+00  0.00000000000E+00 -0.17776500982E+04  0.17776500982E+04  0.50400001928E-02 0. -1.
    10030    2    1    2    0    0  0.00000000000E+00  0.00000000000E+00 -0.52645162603E+02  0.35026550339E+04  0.35022593812E+04 0.  0.
        1    1    3    3  502    0  0.15062471104E+02 -0.11052412436E+04  0.13320171845E+04  0.17309115704E+04  0.50400001928E-02 0.  1.
       -1    1    3    3    0  502 -0.15062471104E+02  0.11052412436E+04 -0.13846623471E+04  0.17717434635E+04  0.50400001928E-02 0. -1.
</event>
<event>
 5   0  0.1121462E-08  0.3498808E+04  0.7818609E-02  0.8114072E-01
        1   -1    0    0  501    0  0.00000000000E+00  0.00000000000E+00  0.21461949017E+04  0.21461949017E+04  0.50400001928E-02 0.  1.
       -1   -1    0    0    0  501  0.00000000000E+00  0.00000000000E+00 -0.14259722218E+04  0.14259722218E+04  0.50400001928E-02 0. -1.
    10030    2    1    2    0    0  0.00000000000E+00  0.00000000000E+00  0.72022267990E+03  0.35721671235E+04  0.34988079755E+04 0.  0.
        2    1    3    3  502    0 -0.84393518319E+03  0.11996333906E+04 -0.61332983995E+03  0.15898177122E+04  0.25500000920E-02 0. -1.
       -2    1    3    3    0  502  0.84393518319E+03 -0.11996333906E+04  0.13335525199E+04  0.19823494113E+04  0.25500000920E-02 0.  1.
</event>
<event>
 5   0  0.3553585E-08  0.3514137E+04  0.7818609E-02  0.8110448E-01
        2   -1    0    0  501    0  0.00000000000E+00  0.00000000000E+00  0.18124195117E+04  0.18124195117E+04  0.25500000920E-02 0.  1.
       -2   -1    0    0    0  501  0.00000000000E+00  0.00000000000E+00 -0.17034082107E+04  0.17034082107E+04  0.25500000920E-02 0. -1.
    10030    2    1    2    0    0  0.00000000000E+00  0.00000000000E+00  0.10901130100E+03  0.35158277224E+04  0.35141373208E+04 0.  0.
        2    1    3    3  502    0 -0.15083185927E+04  0.89125691058E+03  0.18845963585E+03  0.17620672212E+04  0.25500000920E-02 0.  1.
       -2    1    3    3    0  502  0.15083185927E+04 -0.89125691058E+03 -0.79448334852E+02  0.17537605012E+04  0.25500000920E-02 0. -1.
</event>
<event>
 5   0  0.1121462E-08  0.3499595E+04  0.7818609E-02  0.8113886E-01
        1   -1    0    0  501    0  0.00000000000E+00  0.00000000000E+00  0.11891757806E+04  0.11891757806E+04  0.50400001928E-02 0.  1.
       -1   -1    0    0    0  501  0.00000000000E+00  0.00000000000E+00 -0.25747168900E+04  0.25747168900E+04  0.50400001928E-02 0. -1.
    10030    2    1    2    0    0  0.00000000000E+00  0.00000000000E+00 -0.13855411094E+04  0.37638926705E+04  0.34995948151E+04 0.  0.
        2    1    3    3  502    0 -0.16453248538E+04 -0.29867741748E+03 -0.13860102270E+03  0.16779488424E+04  0.25500000920E-02 0.  1.
       -2    1    3    3    0  502  0.16453248538E+04  0.29867741748E+03 -0.12469400867E+04  0.20859438281E+04  0.25500000920E-02 0. -1.
</event>
<event>
 5   0  0.1129219E-08  0.3500491E+04  0.7818609E-02  0.8113674E-01
       -1   -1    0    0    0  501  0.00000000000E+00  0.00000000000E+00  0.15825396851E+04  0.15825396851E+04  0.50400001928E-02 0.  1.
        1   -1    0    0  501    0  0.00000000000E+00  0.00000000000E+00 -0.19357238900E+04  0.19357238900E+04  0.50400001928E-02 0. -1.
    10030    2    1    2    0    0  0.00000000000E+00  0.00000000000E+00 -0.35318420481E+03  0.35182635751E+04  0.35004913229E+04 0.  0.
        5    1    3    3  502    0  0.46292314229E+01 -0.93091225944E+03  0.13130659625E+04  0.16095910588E+04  0.46999998093E+01 0.  1.
       -5    1    3    3    0  502 -0.46292314229E+01  0.93091225944E+03 -0.16662501673E+04  0.19086725163E+04  0.46999998093E+01 0. -1.
</event>
<event>
 5   0  0.3467834E-08  0.3498202E+04  0.7818609E-02  0.8114216E-01
       -2   -1    0    0    0  501  0.00000000000E+00  0.00000000000E+00  0.12008086342E+04  0.12008086342E+04  0.25500000920E-02 0. -1.
        2   -1    0    0  501    0  0.00000000000E+00  0.00000000000E+00 -0.25477455651E+04  0.25477455651E+04  0.25500000920E-02 0.  1.
    10030    2    1    2    0    0  0.00000000000E+00  0.00000000000E+00 -0.13469369310E+04  0.37485541993E+04  0.34982023225E+04 0.  0.
        3    1    3    3  502    0 -0.12655814737E+01 -0.15579614034E+04 -0.15254202921E+04  0.21804018928E+04  0.10100000352E+00 0.  1.
       -3    1    3    3    0  502  0.12655814737E+01  0.15579614034E+04  0.17848336119E+03  0.15681523066E+04  0.10100000352E+00 0. -1.
</event>
<event>
 5   0  0.3467834E-08  0.3499754E+04  0.7818609E-02  0.8113848E-01
        2   -1    0    0  501    0  0.00000000000E+00  0.00000000000E+00  0.10934024392E+04  0.10934024392E+04  0.25500000920E-02 0.  1.
       -2   -1    0    0    0  501  0.00000000000E+00  0.00000000000E+00 -0.28004967900E+04  0.28004967900E+04  0.25500000920E-02 0. -1.
    10030    2    1    2    0    0  0.00000000000E+00  0.00000000000E+00 -0.17070943509E+04  0.38938992292E+04  0.34997542891E+04 0.  0.
        3    1    3    3  502    0 -0.74507617469E+03 -0.92359118819E+03 -0.22844271251E+04  0.25742506656E+04  0.10100000352E+00 0. -1.
       -3    1    3    3    0  502  0.74507617469E+03  0.92359118819E+03  0.57733277426E+03  0.13196485636E+04  0.10100000352E+00 0.  1.
</event>
<event>
 5   0  0.3700096E-08  0.3485292E+04  0.7818609E-02  0.8117284E-01
       -2   -1    0    0    0  501  0.00000000000E+00  0.00000000000E+00  0.17226070756E+04  0.17226070756E+04  0.25500000920E-02 0. -1.
        2   -1    0    0  501    0  0.00000000000E+00  0.00000000000E+00 -0.17629178615E+04  0.17629178615E+04  0.25500000920E-02 0.  1.
    10030    2    1    2    0    0  0.00000000000E+00  0.00000000000E+00 -0.40310785956E+02  0.34855249371E+04  0.34852918282E+04 0.  0.
        4    1    3    3  502    0  0.12337604478E+04  0.48328193188E+03  0.11117714041E+04  0.17296715110E+04  0.12699999809E+01 0. -1.
       -4    1    3    3    0  502 -0.12337604478E+04 -0.48328193188E+03 -0.11520821901E+04  0.17558534260E+04  0.12699999809E+01 0.  1.
</event>
<event>
 5   0  0.3467834E-08  0.3498108E+04  0.7818609E-02  0.8114238E-01
        2   -1    0    0  501    0  0.00000000000E+00  0.00000000000E+00  0.24668593633E+04  0.24668593633E+04  0.25500000920E-02 0.  1.
       -2   -1    0    0    0  501  0.00000000000E+00  0.00000000000E+00 -0.12401154636E+04  0.12401154636E+04  0.25500000920E-02 0. -1.
    10030    2    1    2    0    0  0.00000000000E+00  0.00000000000E+00  0.12267438997E+04  0.37069748269E+04  0.34981083133E+04 0.  0.
        3    1    3    3  502    0  0.11987634862E+04  0.11673640518E+04  0.11531139236E+04  0.20321034561E+04  0.10100000352E+00 0.  1.
       -3    1    3    3    0  502 -0.11987634862E+04 -0.11673640518E+04  0.73629976130E+02  0.16748713708E+04  0.10100000352E+00 0. -1.
</event>
<event>
 5   0  0.3628017E-08  0.3501232E+04  0.7818609E-02  0.8113498E-01
       -2   -1    0    0    0  501  0.00000000000E+00  0.00000000000E+00  0.15854931920E+04  0.15854931920E+04  0.25500000920E-02 0. -1.
        2   -1    0    0  501    0  0.00000000000E+00  0.00000000000E+00 -0.19329356645E+04  0.19329356645E+04  0.25500000920E-02 0.  1.
    10030    2    1    2    0    0  0.00000000000E+00  0.00000000000E+00 -0.34744247248E+03  0.35184288564E+04  0.35012319755E+04 0.  0.
        1    1    3    3  502    0  0.15970817373E+04 -0.49361655490E+03  0.34876417978E+03  0.17076193464E+04  0.50400001928E-02 0. -1.
       -1    1    3    3    0  502 -0.15970817373E+04  0.49361655490E+03 -0.69620665226E+03  0.18108095101E+04  0.50400001928E-02 0.  1.
</event>
<event>
 5   0  0.3554451E-08  0.3500127E+04  0.7818609E-02  0.8113760E-01
        2   -1    0    0  501    0  0.00000000000E+00  0.00000000000E+00  0.21661430142E+04  0.21661430142E+04  0.25500000920E-02 0. -1.
       -2   -1    0    0    0  501  0.00000000000E+00  0.00000000000E+00 -0.14139056698E+04  0.14139056698E+04  0.25500000920E-02 0.  1.
    10030    2    1    2    0    0  0.00000000000E+00  0.00000000000E+00  0.75223734446E+03  0.35800486840E+04  0.35001267916E+04 0.  0.
        5    1    3    3  502    0  0.11515246284E+04  0.11543676805E+04 -0.27410623143E+03  0.16533995366E+04  0.46999998093E+01 0.  1.
       -5    1    3    3    0  502 -0.11515246284E+04 -0.11543676805E+04  0.10263435759E+04  0.19266491474E+04  0.46999998093E+01 0. -1.
</event>
<event>
 5   0  0.3554451E-08  0.3501512E+04  0.7818609E-02  0.8113432E-01
       -2   -1    0    0    0  501  0.00000000000E+00  0.00000000000E+00  0.18757262341E+04  0.18757262341E+04  0.25500000920E-02 0. -1.
        2   -1    0    0  501    0  0.00000000000E+00  0.00000000000E+00 -0.16341120599E+04  0.16341120599E+04  0.25500000920E-02 0.  1.
    10030    2    1    2    0    0  0.00000000000E+00  0.00000000000E+00  0.24161417424E+03  0.35098382940E+04  0.35015121649E+04 0.  0.
        5    1    3    3  502    0  0.63606821196E+03 -0.11686145349E+04  0.12614417807E+04  0.18334394338E+04  0.46999998093E+01 0. -1.
       -5    1    3    3    0  502 -0.63606821196E+03  0.11686145349E+04 -0.10198276064E+04  0.16763988602E+04  0.46999998093E+01 0.  1.
</event>
<event>
 5   0  0.1129219E-08  0.3496824E+04  0.7818609E-02  0.8114543E-01
       -1   -1    0    0    0  501  0.00000000000E+00  0.00000000000E+00  0.15172554089E+04  0.15172554089E+04  0.50400001928E-02 0. -1.
        1   -1    0    0  501    0  0.00000000000E+00  0.00000000000E+00 -0.20147853531E+04  0.20147853531E+04  0.50400001928E-02 0.  1.
    10030    2    1    2    0    0  0.00000000000E+00  0.00000000000E+00 -0.49752994423E+03  0.35320407620E+04  0.34968236872E+04 0.  0.
        5    1    3    3  502    0  0.53831310520E+03  0.15551282471E+04 -0.84523488846E+03  0.18500402619E+04  0.46999998093E+01 0.  1.
       -5    1    3    3    0  502 -0.53831310520E+03 -0.15551282471E+04  0.34770494423E+03  0.16820005001E+04  0.46999998093E+01 0. -1.
</event>
<event>
 5   0  0.1121462E-08  0.3497657E+04  0.7818609E-02  0.8114345E-01
        1   -1    0    0  501    0  0.00000000000E+00  0.00000000000E+00  0.15299738637E+04  0.15299738637E+04  0.50400001928E-02 0. -1.
       -1   -1    0    0    0  501  0.00000000000E+00  0.00000000000E+00 -0.19989889840E+04  0.19989889840E+04  0.50400001928E-02 0.  1.
    10030    2    1    2    0    0  0.00000000000E+00  0.00000000000E+00 -0.46901512025E+03  0.35289628477E+04  0.34976568724E+04 0.  0.
        1    1    3    3  502    0  0.16779341479E+04  0.42381604592E+03 -0.48839018353E+03  0.17982235725E+04  0.50400001928E-02 0. -1.
       -1    1    3    3    0  502 -0.16779341479E+04 -0.42381604592E+03  0.19375063280E+02  0.17307392751E+04  0.50400001928E-02 0.  1.
</event>
<event>
 5   0  0.1140808E-08  0.3511183E+04  0.7818609E-02  0.8111145E-01
       -1   -1    0    0    0  501  0.00000000000E+00  0.00000000000E+00  0.18968698048E+04  0.18968698048E+04  0.50400001928E-02 0.  1.
        1   -1    0    0  501    0  0.00000000000E+00  0.00000000000E+00 -0.16248357578E+04  0.16248357579E+04  0.50400001928E-02 0. -1.
    10030    2    1    2    0    0  0.00000000000E+00  0.00000000000E+00  0.27203404693E+03  0.35217055626E+04  0.35111832119E+04 0.  0.
        3    1    3    3  502    0  0.66669711184E+03 -0.52039226358E+03  0.16790710537E+04  0.18800459464E+04  0.10100000352E+00 0.  1.
       -3    1    3    3    0  502 -0.66669711184E+03  0.52039226358E+03 -0.14070370068E+04  0.16416596162E+04  0.10100000352E+00 0. -1.
</event>
<event>
 5   0  0.1121462E-08  0.3499822E+04  0.7818609E-02  0.8113832E-01
       -1   -1    0    0    0  501  0.00000000000E+00  0.00000000000E+00  0.20626009514E+04  0.20626009514E+04  0.50400001928E-02 0. -1.
        1   -1    0    0  501    0  0.00000000000E+00  0.00000000000E+00 -0.14846251277E+04  0.14846251277E+04  0.50400001928E-02 0.  1.
    10030    2    1    2    0    0  0.00000000000E+00  0.00000000000E+00  0.57797582365E+03  0.35472260791E+04  0.34998223960E+04 0.  0.
        1    1    3    3  502    0  0.91120776810E+03 -0.13213629817E+04 -0.41751118101E+03  0.16584979084E+04  0.50400001928E-02 0.  1.
       -1    1    3    3    0  502 -0.91120776810E+03  0.13213629817E+04  0.99548700466E+03  0.18887281706E+04  0.50400001928E-02 0. -1.
</event>
<event>
 5   0  0.1121462E-08  0.3499305E+04  0.7818609E-02  0.8113955E-01
       -1   -1    0    0    0  501  0.00000000000E+00  0.00000000000E+00  0.14286975941E+04  0.14286975941E+04  0.50400001928E-02 0.  1.
        1   -1    0    0  501    0  0.00000000000E+00  0.00000000000E+00 -0.21427091816E+04  0.21427091816E+04  0.50400001928E-02 0. -1.
    10030    2    1    2    0    0  0.00000000000E+00  0.00000000000E+00 -0.71401158751E+03  0.35714067757E+04  0.34993047610E+04 0.  0.
        4    1    3    3  502    0  0.62711394333E+03  0.46373307811E+02  0.13093823831E+04  0.14525516238E+04  0.12699999809E+01 0.  1.
       -4    1    3    3    0  502 -0.62711394333E+03 -0.46373307811E+02 -0.20233939706E+04  0.21188551519E+04  0.12699999809E+01 0. -1.
</event>
<event>
 5   0  0.3700096E-08  0.3497955E+04  0.7818609E-02  0.8114275E-01
       -2   -1    0    0    0  501  0.00000000000E+00  0.00000000000E+00  0.15813861541E+04  0.15813861541E+04  0.25500000920E-02 0. -1.
        2   -1    0    0  501    0  0.00000000000E+00  0.00000000000E+00 -0.19343292908E+04  0.19343292908E+04  0.25500000920E-02 0.  1.
    10030    2    1    2    0    0  0.00000000000E+00  0.00000000000E+00 -0.35294313674E+03  0.35157154449E+04  0.34979545783E+04 0.  0.
        4    1    3    3  502    0  0.15487113120E+04 -0.22911615382E+03  0.60717892541E+03  0.16791869461E+04  0.12699999809E+01 0. -1.
       -4    1    3    3    0  502 -0.15487113120E+04  0.22911615382E+03 -0.96012206214E+03  0.18365284988E+04  0.12699999809E+01 0.  1.
</event>
<event>
 5   0  0.3554451E-08  0.3498777E+04  0.7818609E-02  0.8114080E-01
        2   -1    0    0  501    0  0.00000000000E+00  0.00000000000E+00  0.21466985198E+04  0.21466985198E+04  0.25500000920E-02 0. -1.
       -2   -1    0    0    0  501  0.00000000000E+00  0.00000000000E+00 -0.14256126054E+04  0.14256126054E+04  0.25500000920E-02 0.  1.
    10030    2    1    2    0    0  0.00000000000E+00  0.00000000000E+00  0.72108591439E+03  0.35723111251E+04  0.34987771977E+04 0.  0.
        5    1    3    3  502    0  0.14393326413E+04  0.71189358288E+03  0.10692990183E+04  0.19292209324E+04  0.46999998093E+01 0. -1.
       -5    1    3    3    0  502 -0.14393326413E+04 -0.71189358288E+03 -0.34821310388E+03  0.16430901927E+04  0.46999998093E+01 0.  1.
</event>
<event>
 5   0  0.1121462E-08  0.3501535E+04  0.7818609E-02  0.8113426E-01
        1   -1    0    0  501    0  0.00000000000E+00  0.00000000000E+00  0.15531308035E+04  0.15531308036E+04  0.50400001928E-02 0.  1.
       -1   -1    0    0    0  501  0.00000000000E+00  0.00000000000E+00 -0.19735534118E+04  0.19735534118E+04  0.50400001928E-02 0. -1.
    10030    2    1    2    0    0  0.00000000000E+00  0.00000000000E+00 -0.42042260824E+03  0.35266842153E+04  0.35015348614E+04 0.  0.
        1    1    3    3  502    0  0.16237709046E+04  0.64512988056E+03 -0.98227827980E+02  0.17499923485E+04  0.50400001928E-02 0.  1.
       -1    1    3    3    0  502 -0.16237709046E+04 -0.64512988056E+03 -0.32219478026E+03  0.17766918669E+04  0.50400001928E-02 0. -1.
</event>
<event>
 5   0  0.3467834E-08  0.3499140E+04  0.7818609E-02  0.8113994E-01
        2   -1    0    0  501    0  0.00000000000E+00  0.00000000000E+00  0.24799569187E+04  0.24799569187E+04  0.25500000920E-02 0. -1.
       -2   -1    0    0    0  501  0.00000000000E+00  0.00000000000E+00 -0.12342939173E+04  0.12342939173E+04  0.25500000920E-02 0.  1.
    10030    2    1    2    0    0  0.00000000000E+00  0.00000000000E+00  0.12456630014E+04  0.37142508360E+04  0.34991403172E+04 0.  0.
        3    1    3    3  502    0 -0.11365708597E+04  0.95195486236E+02  0.20310936485E+04  0.23294198675E+04  0.10100000352E+00 0. -1.
       -3    1    3    3    0  502  0.11365708597E+04 -0.95195486236E+02 -0.78543064710E+03  0.13848309685E+04  0.10100000352E+00 0.  1.
</event>
<event>
 5   0  0.3628017E-08  0.3499413E+04  0.7818609E-02  0.8113929E-01
       -2   -1    0    0    0  501  0.00000000000E+00  0.00000000000E+00  0.18309483648E+04  0.18309483648E+04  0.25500000920E-02 0.  1.
        2   -1    0    0  501    0  0.00000000000E+00  0.00000000000E+00 -0.16720693398E+04  0.16720693398E+04  0.25500000920E-02 0. -1.
    10030    2    1    2    0    0  0.00000000000E+00  0.00000000000E+00  0.15887902507E+03  0.35030177046E+04  0.34994128785E+04 0.  0.
        1    1    3    3  502    0 -0.32165404810E+03 -0.16236402165E+04 -0.48842233731E+03  0.17257535337E+04  0.50400001928E-02 0. -1.
       -1    1    3    3    0  502  0.32165404810E+03  0.16236402165E+04  0.64730136238E+03  0.17772641709E+04  0.50400001928E-02 0.  1.
</event>
<event>
 5   0  0.3553585E-08  0.3500985E+04  0.7818609E-02  0.8113556E-01
       -2   -1    0    0    0  501  0.00000000000E+00  0.00000000000E+00  0.15332181943E+04  0.15332181943E+04  0.25500000920E-02 0. -1.
        2   -1    0    0  501    0  0.00000000000E+00  0.00000000000E+00 -0.19985575053E+04  0.19985575053E+04  0.25500000920E-02 0.  1.
    10030    2    1    2    0    0  0.00000000000E+00  0.00000000000E+00 -0.46533931097E+03  0.35317756996E+04  0.35009854210E+04 0.  0.
        2    1    3    3  502    0 -0.27239799674E+03  0.11350604688E+04 -0.15486197989E+04  0.19392746629E+04  0.25500000920E-02 0.  1.
       -2    1    3    3    0  502  0.27239799674E+03 -0.11350604688E+04  0.10832804879E+04  0.15925010367E+04  0.25500000920E-02 0. -1.
</event>
<event>
 5   0  0.1121462E-08  0.3497908E+04  0.7818609E-02  0.8114286E-01
        1   -1    0    0  501    0  0.00000000000E+00  0.00000000000E+00  0.22866946903E+04  0.22866946903E+04  0.50400001928E-02 0.  1.
       -1   -1    0    0    0  501  0.00000000000E+00  0.00000000000E+00 -0.13376687244E+04  0.13376687244E+04  0.50400001928E-02 0. -1.
    10030    2    1    2    0    0  0.00000000000E+00  0.00000000000E+00  0.94902596592E+03  0.36243634148E+04  0.34979079288E+04 0.  0.
        2    1    3    3  502    0  0.14764062539E+04  0.67728225152E+03 -0.19727246489E+03  0.16362772076E+04  0.25500000920E-02 0.  1.
       -2    1    3    3    0  502 -0.14764062539E+04 -0.67728225152E+03  0.11462984308E+04  0.19880862072E+04  0.25500000920E-02 0. -1.
</event>
<event>
 5   0  0.1121462E-08  0.3505421E+04  0.7818609E-02  0.8112506E-01
        1   -1    0    0  501    0  0.00000000000E+00  0.00000000000E+00  0.10970504292E+04  0.10970504293E+04  0.50400001928E-02 0.  1.
       -1   -1    0    0    0  501  0.00000000000E+00  0.00000000000E+00 -0.28002302454E+04  0.28002302454E+04  0.50400001928E-02 0. -1.
    10030    2    1    2    0    0  0.00000000000E+00  0.00000000000E+00 -0.17031798161E+04  0.38972806746E+04  0.35054208265E+04 0.  0.
        4    1    3    3  502    0 -0.15607745691E+04  0.62894570288E+03 -0.13967082118E+04  0.21868665699E+04  0.12699999809E+01 0. -1.
       -4    1    3    3    0  502  0.15607745691E+04 -0.62894570288E+03 -0.30647160435E+03  0.17104141048E+04  0.12699999809E+01 0.  1.
</event>
<event>
 5   0  0.3554451E-08  0.3498520E+04  0.7818609E-02  0.8114141E-01
        2   -1    0    0  501    0  0.00000000000E+00  0.00000000000E+00  0.25062209955E+04  0.25062209955E+04  0.25500000920E-02 0. -1.
       -2   -1    0    0    0  501  0.00000000000E+00  0.00000000000E+00 -0.12209258651E+04  0.12209258651E+04  0.25500000920E-02 0.  1.
    10030    2    1    2    0    0  0.00000000000E+00  0.00000000000E+00  0.12852951304E+04  0.37271468607E+04  0.34985197082E+04 0.  0.
        5    1    3    3  502    0  0.82619124906E+03 -0.21451436416E+03  0.22692797396E+04  0.24245125322E+04  0.46999998093E+01 0. -1.
       -5    1    3    3    0  502 -0.82619124906E+03  0.21451436416E+03 -0.98398460919E+03  0.13026343284E+04  0.46999998093E+01 0.  1.
</event>
<event>
 5   0  0.1121462E-08  0.3500719E+04  0.7818609E-02  0.8113620E-01
        1   -1    0    0  501    0  0.00000000000E+00  0.00000000000E+00  0.30834996426E+04  0.30834996426E+04  0.50400001928E-02 0. -1.
       -1   -1    0    0    0  501  0.00000000000E+00  0.00000000000E+00 -0.99359757385E+03  0.99359757386E+03  0.50400001928E-02 0.  1.
    10030    2    1    2    0    0  0.00000000000E+00  0.00000000000E+00  0.20899020688E+04  0.40770972165E+04  0.35007186485E+04 0.  0.
        2    1    3    3  502    0 -0.65812347215E+03  0.15972276874E+04  0.71658086707E+03  0.18702275073E+04  0.25500000920E-02 0.  1.
       -2    1    3    3    0  502  0.65812347215E+03 -0.15972276874E+04  0.13733212017E+04  0.22068697092E+04  0.25500000920E-02 0. -1.
</event>
<event>
 5   0  0.1129219E-08  0.3500255E+04  0.7818609E-02  0.8113729E-01
        1   -1    0    0  501    0  0.00000000000E+00  0.00000000000E+00  0.21305219227E+04  0.21305219227E+04  0.50400001928E-02 0.  1.
       -1   -1    0    0    0  501  0.00000000000E+00  0.00000000000E+00 -0.14376509334E+04  0.14376509334E+04  0.50400001928E-02 0. -1.
    10030    2    1    2    0    0  0.00000000000E+00  0.00000000000E+00  0.69287098931E+03  0.35681728562E+04  0.35002553227E+04 0.  0.
        5    1    3    3  502    0 -0.14569365418E+04  0.10076150323E+03  0.13295696799E+04  0.19749923015E+04  0.46999998093E+01 0.  1.
       -5    1    3    3    0  502  0.14569365418E+04 -0.10076150323E+03 -0.63669869055E+03  0.15931805547E+04  0.46999998093E+01 0. -1.
</event>
<event>
 5   0  0.1121462E-08  0.3500378E+04  0.7818609E-02  0.8113700E-01
        1   -1    0    0  501    0  0.00000000000E+00  0.00000000000E+00  0.12097346928E+04  0.12097346928E+04  0.50400001928E-02 0.  1.
       -1   -1    0    0    0  501  0.00000000000E+00  0.00000000000E+00 -0.25320932444E+04  0.25320932444E+04  0.50400001928E-02 0. -1.
    10030    2    1    2    0    0  0.00000000000E+00  0.00000000000E+00 -0.13223585516E+04  0.37418279372E+04  0.35003777185E+04 0.  0.
        4    1    3    3  502    0  0.11114320838E+04  0.12270309076E+04 -0.54329677404E+02  0.16564538786E+04  0.12699999809E+01 0. -1.
       -4    1    3    3    0  502 -0.11114320838E+04 -0.12270309076E+04 -0.12680288742E+04  0.20853740585E+04  0.12699999809E+01 0.  1.
</event>
<event>
 5   0  0.1140808E-08  0.3500085E+04  0.7818609E-02  0.8113770E-01
       -1   -1    0    0    0  501  0.00000000000E+00  0.00000000000E+00  0.20456061028E+04  0.20456061028E+04  0.50400001928E-02 0.  1.
        1   -1    0    0  501    0  0.00000000000E+00  0.00000000000E+00 -0.14971843780E+04  0.14971843780E+04  0.50400001928E-02 0. -1.
    10030    2    1    2    0    0  0.00000000000E+00  0.00000000000E+00  0.54842172472E+03  0.35427904808E+04  0.35000854279E+04 0.  0.
        3    1    3    3  502    0  0.13642352276E+03 -0.86260904058E+02 -0.14896341284E+04  0.14983531519E+04  0.10100000352E+00 0. -1.
       -3    1    3    3    0  502 -0.13642352276E+03  0.86260904058E+02  0.20380558531E+04  0.20444373289E+04  0.10100000352E+00 0.  1.
</event>
<event>
 5   0  0.1129219E-08  0.3500609E+04  0.7818609E-02  0.8113646E-01
       -1   -1    0    0    0  501  0.00000000000E+00  0.00000000000E+00  0.16566406126E+04  0.16566406126E+04  0.50400001928E-02 0. -1.
        1   -1    0    0  501    0  0.00000000000E+00  0.00000000000E+00 -0.18492644014E+04  0.18492644014E+04  0.50400001928E-02 0.  1.
    10030    2    1    2    0    0  0.00000000000E+00  0.00000000000E+00 -0.19262378879E+03  0.35059050140E+04  0.35006093817E+04 0.  0.
        5    1    3    3  502    0  0.75835416846E+03 -0.90306590596E+03  0.11990570341E+04  0.16817814770E+04  0.46999998093E+01 0. -1.
       -5    1    3    3    0  502 -0.75835416846E+03  0.90306590596E+03 -0.13916808229E+04  0.18241235370E+04  0.46999998093E+01 0.  1.
</event>
<event>
 5   0  0.1121462E-08  0.3501983E+04  0.7818609E-02  0.8113320E-01
        1   -1    0    0  501    0  0.00000000000E+00  0.00000000000E+00  0.21225509664E+04  0.21225509664E+04  0.50400001928E-02 0.  1.
       -1   -1    0    0    0  501  0.00000000000E+00  0.00000000000E+00 -0.14444748079E+04  0.14444748079E+04  0.50400001928E-02 0. -1.
    10030    2    1    2    0    0  0.00000000000E+00  0.00000000000E+00  0.67807615855E+03  0.35670257743E+04  0.35019830950E+04 0.  0.
        1    1    3    3  502    0  0.20843123254E+03 -0.15187150912E+04  0.12009413062E+04  0.19473569595E+04  0.50400001928E-02 0.  1.
       -1    1    3    3    0  502 -0.20843123254E+03  0.15187150912E+04 -0.52286514761E+03  0.16196688148E+04  0.50400001928E-02 0. -1.
</event>
<event>
 5   0  0.3628017E-08  0.3499577E+04  0.7818609E-02  0.8113890E-01
        2   -1    0    0  501    0  0.00000000000E+00  0.00000000000E+00  0.22574822864E+04  0.22574822864E+04  0.25500000920E-02 0. -1.
       -2   -1    0    0    0  501  0.00000000000E+00  0.00000000000E+00 -0.13562719956E+04  0.13562719956E+04  0.25500000920E-02 0.  1.
    10030    2    1    2    0    0  0.00000000000E+00  0.00000000000E+00  0.90121029078E+03  0.36137542821E+04  0.34995771206E+04 0.  0.
        1    1    3    3  502    0 -0.12183638768E+04  0.10857168374E+04  0.11025254269E+04  0.19694552304E+04  0.50400001928E-02 0. -1.
       -1    1    3    3    0  502  0.12183638768E+04 -0.10857168374E+04 -0.20131513610E+03  0.16442990517E+04  0.50400001928E-02 0.  1.
</event>
<event>
 5   0  0.1121462E-08  0.3499512E+04  0.7818609E-02  0.8113906E-01
        1   -1    0    0  501    0  0.00000000000E+00  0.00000000000E+00  0.14652824701E+04  0.14652824701E+04  0.50400001928E-02 0.  1.
       -1   -1    0    0    0  501  0.00000000000E+00  0.00000000000E+00 -0.20894577994E+04  0.20894577994E+04  0.50400001928E-02 0. -1.
    10030    2    1    2    0    0  0.00000000000E+00  0.00000000000E+00 -0.62417532931E+03  0.35547402695E+04  0.34995119005E+04 0.  0.
        1    1    3    3  502    0 -0.13998052016E+03  0.17359920706E+04 -0.48321861163E+03  0.18074189448E+04  0.50400001928E-02 0. -1.
       -1    1    3    3    0  502  0.13998052016E+03 -0.17359920706E+04 -0.14095671769E+03  0.17473213247E+04  0.50400001928E-02 0.  1.
</event>
<event>
 5   0  0.3628017E-08  0.3499017E+04  0.7818609E-02  0.8114023E-01
        2   -1    0    0  501    0  0.00000000000E+00  0.00000000000E+00  0.24904025844E+04  0.24904025844E+04  0.25500000920E-02 0. -1.
       -2   -1    0    0    0  501  0.00000000000E+00  0.00000000000E+00 -0.12290304154E+04  0.12290304154E+04  0.25500000920E-02 0.  1.
    10030    2    1    2    0    0  0.00000000000E+00  0.00000000000E+00  0.12613721690E+04  0.37194329998E+04  0.34990173037E+04 0.  0.
        1    1    3    3  502    0 -0.16197469694E+04  0.17604417968E+03 -0.46807634640E+02  0.16299578991E+04  0.50400001928E-02 0.  1.
       -1    1    3    3    0  502  0.16197469694E+04 -0.17604417968E+03  0.13081798037E+04  0.20894751008E+04  0.50400001928E-02 0. -1.
</event>
<event>
 5   0  0.3554451E-08  0.3499965E+04  0.7818609E-02  0.8113798E-01
        2   -1    0    0  501    0  0.00000000000E+00  0.00000000000E+00  0.30915798288E+04  0.30915798288E+04  0.25500000920E-02 0.  1.
       -2   -1    0    0    0  501  0.00000000000E+00  0.00000000000E+00 -0.99057401290E+03  0.99057401291E+03  0.25500000920E-02 0. -1.
    10030    2    1    2    0    0  0.00000000000E+00  0.00000000000E+00  0.21010058158E+04  0.40821538417E+04  0.34999649354E+04 0.  0.
        5    1    3    3  502    0 -0.29019855214E+03 -0.13832854490E+04  0.22539969202E+04  0.26604920671E+04  0.46999998093E+01 0.  1.
       -5    1    3    3    0  502  0.29019855214E+03  0.13832854490E+04 -0.15299110433E+03  0.14216617745E+04  0.46999998093E+01 0. -1.
</event>
<event>
 5   0  0.1121462E-08  0.3498733E+04  0.7818609E-02  0.8114090E-01
        1   -1    0    0  501    0  0.00000000000E+00  0.00000000000E+00  0.26742043110E+04  0.26742043110E+04  0.50400001928E-02 0.  1.
       -1   -1    0    0    0  501  0.00000000000E+00  0.00000000000E+00 -0.11443714672E+04  0.11443714672E+04  0.50400001928E-02 0. -1.
    10030    2    1    2    0    0  0.00000000000E+00  0.00000000000E+00  0.15298328438E+04  0.38185757782E+04  0.34987329769E+04 0.  0.
        2    1    3    3  502    0 -0.17111134301E+04 -0.33517170915E+03  0.91939668229E+03  0.19711771875E+04  0.25500000920E-02 0.  1.
       -2    1    3    3    0  502  0.17111134301E+04  0.33517170915E+03  0.61043616155E+03  0.18473985906E+04  0.25500000920E-02 0. -1.
</event>
<event>
 5   0  0.1121462E-08  0.3499957E+04  0.7818609E-02  0.8113800E-01
        1   -1    0    0  501    0  0.00000000000E+00  0.00000000000E+00  0.24801277948E+04  0.24801277948E+04  0.50400001928E-02 0. -1.
       -1   -1    0    0    0  501  0.00000000000E+00  0.00000000000E+00 -0.12347847356E+04  0.12347847356E+04  0.50400001928E-02 0.  1.
    10030    2    1    2    0    0  0.00000000000E+00  0.00000000000E+00  0.12453430592E+04  0.37149125304E+04  0.34999565388E+04 0.  0.
        1    1    3    3  502    0  0.38700914132E+03  0.61432677140E+03 -0.10673661149E+04  0.12909081613E+04  0.50400001928E-02 0.  1.
       -1    1    3    3    0  502 -0.38700914132E+03 -0.61432677140E+03  0.23127091741E+04  0.24240043691E+04  0.50400001928E-02 0. -1.
</event>
<event>
 5   0  0.3553585E-08  0.3499297E+04  0.7818609E-02  0.8113957E-01
       -2   -1    0    0    0  501  0.00000000000E+00  0.00000000000E+00  0.22893856997E+04  0.22893856997E+04  0.25500000920E-02 0.  1.
        2   -1    0    0  501    0  0.00000000000E+00  0.00000000000E+00 -0.13371575159E+04  0.13371575159E+04  0.25500000920E-02 0. -1.
    10030    2    1    2    0    0  0.00000000000E+00  0.00000000000E+00  0.95222818386E+03  0.36265432156E+04  0.34992966694E+04 0.  0.
        2    1    3    3  502    0  0.10135456533E+04 -0.13438416440E+04 -0.18833980080E+02  0.16833121738E+04  0.25500000920E-02 0. -1.
       -2    1    3    3    0  502 -0.10135456533E+04  0.13438416440E+04  0.97106216394E+03  0.19432310418E+04  0.25500000920E-02 0.  1.
</event>
<event>
 5   0  0.1140808E-08  0.3499484E+04  0.7818609E-02  0.8113912E-01
       -1   -1    0    0    0  501  0.00000000000E+00  0.00000000000E+00  0.14682439183E+04  0.14682439183E+04  0.50400001928E-02 0. -1.
        1   -1    0    0  501    0  0.00000000000E+00  0.00000000000E+00 -0.20852105495E+04  0.20852105495E+04  0.50400001928E-02 0.  1.
    10030    2    1    2    0    0  0.00000000000E+00  0.00000000000E+00 -0.61696663121E+03  0.35534544678E+04  0.34994843664E+04 0.  0.
        3    1    3    3  502    0 -0.38656822505E+03 -0.12904308329E+04 -0.14423745189E+04  0.19735984876E+04  0.10100000352E+00 0.  1.
       -3    1    3    3    0  502  0.38656822505E+03  0.12904308329E+04  0.82540788770E+03  0.15798559803E+04  0.10100000352E+00 0. -1.
</event>
<event>
 5   0  0.1140808E-08  0.3499021E+04  0.7818609E-02  0.8114022E-01
       -1   -1    0    0    0  501  0.00000000000E+00  0.00000000000E+00  0.20875683712E+04  0.20875683712E+04  0.50400001928E-02 0.  1.
        1   -1    0    0  501    0  0.00000000000E+00  0.00000000000E+00 -0.14661968564E+04  0.14661968564E+04  0.50400001928E-02 0. -1.
    10030    2    1    2    0    0  0.00000000000E+00  0.00000000000E+00  0.62137151480E+03  0.35537652276E+04  0.34990205392E+04 0.  0.
        3    1    3    3  502    0  0.63923433017E+03  0.61948446489E+03 -0.12190009948E+04  0.15094187512E+04  0.10100000352E+00 0. -1.
       -3    1    3    3    0  502 -0.63923433017E+03 -0.61948446489E+03  0.18403725096E+04  0.20443464763E+04  0.10100000352E+00 0.  1.
</event>
<event>
 5   0  0.3553585E-08  0.3499953E+04  0.7818609E-02  0.8113801E-01
        2   -1    0    0  501    0  0.00000000000E+00  0.00000000000E+00  0.20753726188E+04  0.20753726188E+04  0.25500000920E-02 0.  1.
       -2   -1    0    0    0  501  0.00000000000E+00  0.00000000000E+00 -0.14755987162E+04  0.14755987162E+04  0.25500000920E-02 0. -1.
    10030    2    1    2    0    0  0.00000000000E+00  0.00000000000E+00  0.59977390260E+03  0.35509713350E+04  0.34999526693E+04 0.  0.
        2    1    3    3  502    0 -0.16714532979E+04  0.51195369812E+03  0.21768457827E+03  0.17616013430E+04  0.25500000920E-02 0.  1.
       -2    1    3    3    0  502  0.16714532979E+04 -0.51195369812E+03  0.38208932433E+03  0.17893699919E+04  0.25500000920E-02 0. -1.
</event>
<event>
 5   0  0.1129219E-08  0.3500124E+04  0.7818609E-02  0.8113760E-01
       -1   -1    0    0    0  501  0.00000000000E+00  0.00000000000E+00  0.14487254302E+04  0.14487254302E+04  0.50400001928E-02 0.  1.
        1   -1    0    0  501    0  0.00000000000E+00  0.00000000000E+00 -0.21140772511E+04  0.21140772511E+04  0.50400001928E-02 0. -1.
    10030    2    1    2    0    0  0.00000000000E+00  0.00000000000E+00 -0.66535182092E+03  0.35628026813E+04  0.35001242692E+04 0.  0.
        5    1    3    3  502    0  0.70558191301E+02  0.96725730732E+03 -0.18155160117E+04  0.20583210720E+04  0.46999998093E+01 0. -1.
       -5    1    3    3    0  502 -0.70558191301E+02 -0.96725730732E+03  0.11501641907E+04  0.15044816092E+04  0.46999998093E+01 0.  1.
</event>
<event>
 5   0  0.3467834E-08  0.3503782E+04  0.7818609E-02  0.8112894E-01
       -2   -1    0    0    0  501  0.00000000000E+00  0.00000000000E+00  0.12932101507E+04  0.12932101507E+04  0.25500000920E-02 0.  1.
        2   -1    0    0  501    0  0.00000000000E+00  0.00000000000E+00 -0.23732591199E+04  0.23732591199E+04  0.25500000920E-02 0. -1.
    10030    2    1    2    0    0  0.00000000000E+00  0.00000000000E+00 -0.10800489692E+04  0.36664692707E+04  0.35037824043E+04 0.  0.
        3    1    3    3  502    0 -0.61165620291E+02  0.44647485114E+03 -0.23115694426E+04  0.23550869037E+04  0.10100000352E+00 0. -1.
       -3    1    3    3    0  502  0.61165620291E+02 -0.44647485114E+03  0.12315204734E+04  0.13113823670E+04  0.10100000352E+00 0.  1.
</event>
<event>
 5   0  0.3467834E-08  0.3499228E+04  0.7818609E-02  0.8113973E-01
        2   -1    0    0  501    0  0.00000000000E+00  0.00000000000E+00  0.23685155044E+04  0.23685155044E+04  0.25500000920E-02 0. -1.
       -2   -1    0    0    0  501  0.00000000000E+00  0.00000000000E+00 -0.12924338332E+04  0.12924338332E+04  0.25500000920E-02 0.  1.
    10030    2    1    2    0    0  0.00000000000E+00  0.00000000000E+00  0.10760816712E+04  0.36609493375E+04  0.34992282419E+04 0.  0.
        3    1    3    3  502    0  0.66730044102E+03  0.49650098679E+03  0.21484481436E+04  0.23038299729E+04  0.10100000352E+00 0. -1.
       -3    1    3    3    0  502 -0.66730044102E+03 -0.49650098679E+03 -0.10723664724E+04  0.13571193646E+04  0.10100000352E+00 0.  1.
</event>
<event>
 5   0  0.3553585E-08  0.3502820E+04  0.7818609E-02  0.8113122E-01
        2   -1    0    0  501    0  0.00000000000E+00  0.00000000000E+00  0.14240892289E+04  0.14240892289E+04  0.25500000920E-02 0.  1.
       -2   -1    0    0    0  501  0.00000000000E+00  0.00000000000E+00 -0.21539638545E+04  0.21539638545E+04  0.25500000920E-02 0. -1.
    10030    2    1    2    0    0  0.00000000000E+00  0.00000000000E+00 -0.72987462561E+03  0.35780530834E+04  0.35028198495E+04 0.  0.
        2    1    3    3  502    0  0.59653453076E+03  0.16429241649E+04 -0.47860842125E+03  0.18122139164E+04  0.25500000920E-02 0.  1.
       -2    1    3    3    0  502 -0.59653453076E+03 -0.16429241649E+04 -0.25126620436E+03  0.17658391669E+04  0.25500000920E-02 0. -1.
</event>
<event>
 5   0  0.1121462E-08  0.3501717E+04  0.7818609E-02  0.8113383E-01
        1   -1    0    0  501    0  0.00000000000E+00  0.00000000000E+00  0.19180784962E+04  0.19180784962E+04  0.50400001928E-02 0. -1.
       -1   -1    0    0    0  501  0.00000000000E+00  0.00000000000E+00 -0.15982166914E+04  0.15982166914E+04  0.50400001928E-02 0.  1.
    10030    2    1    2    0    0  0.00000000000E+00  0.00000000000E+00  0.31986180481E+03  0.35162951875E+04  0.35017167606E+04 0.  0.
        4    1    3    3  502    0 -0.12367686072E+04 -0.97323737171E+02 -0.10807024809E+04  0.16452926678E+04  0.12699999809E+01 0.  1.
       -4    1    3    3    0  502  0.12367686072E+04  0.97323737171E+02  0.14005642857E+04  0.18710025197E+04  0.12699999809E+01 0. -1.
</event>
<event>
 5   0  0.3628017E-08  0.3499351E+04  0.7818609E-02  0.8113944E-01
        2   -1    0    0  501    0  0.00000000000E+00  0.00000000000E+00  0.26142523878E+04  0.26142523878E+04  0.25500000920E-02 0. -1.
       -2   -1    0    0    0  501  0.00000000000E+00  0.00000000000E+00 -0.11710287643E+04  0.11710287643E+04  0.25500000920E-02 0.  1.
    10030    2    1    2    0    0  0.00000000000E+00  0.00000000000E+00  0.14432236235E+04  0.37852811521E+04  0.34993512217E+04 0.  0.
        1    1    3    3  502    0 -0.88067945798E+03 -0.12362332217E+04  0.16630693550E+04  0.22515924510E+04  0.50400001928E-02 0. -1.
       -1    1    3    3    0  502  0.88067945798E+03  0.12362332217E+04 -0.21984573144E+03  0.15336887010E+04  0.50400001928E-02 0.  1.
</event>
<event>
 5   0  0.3553585E-08  0.3503789E+04  0.7818609E-02  0.8112893E-01
       -2   -1    0    0    0  501  0.00000000000E+00  0.00000000000E+00  0.18771680054E+04  0.18771680054E+04  0.25500000920E-02 0. -1.
        2   -1    0    0  501    0  0.00000000000E+00  0.00000000000E+00 -0.16349809948E+04  0.16349809948E+04  0.25500000920E-02 0.  1.
    10030    2    1    2    0    0  0.00000000000E+00  0.00000000000E+00  0.24218701064E+03  0.35121490002E+04  0.35037888137E+04 0.  0.
        2    1    3    3  502    0 -0.78323336117E+01 -0.17312050686E+04 -0.14787802781E+03  0.17375270491E+04  0.25500000920E-02 0.  1.
       -2    1    3    3    0  502  0.78323336117E+01  0.17312050686E+04  0.39006503845E+03  0.17746219511E+04  0.25500000920E-02 0. -1.
</event>
<event>
 5   0  0.3628017E-08  0.3499684E+04  0.7818609E-02  0.8113865E-01
       -2   -1    0    0    0  501  0.00000000000E+00  0.00000000000E+00  0.15904991420E+04  0.15904991420E+04  0.25500000920E-02 0.  1.
        2   -1    0    0  501    0  0.00000000000E+00  0.00000000000E+00 -0.19251481024E+04  0.19251481024E+04  0.25500000920E-02 0. -1.
    10030    2    1    2    0    0  0.00000000000E+00  0.00000000000E+00 -0.33464896032E+03  0.35156472444E+04  0.34996836457E+04 0.  0.
        1    1    3    3  502    0 -0.51746603439E+03  0.10658397539E+04  0.11262452446E+04  0.16346907441E+04  0.50400001928E-02 0.  1.
       -1    1    3    3    0  502  0.51746603439E+03 -0.10658397539E+04 -0.14608942050E+04  0.18809565003E+04  0.50400001928E-02 0. -1.
</event>
<event>
 5   0  0.3467834E-08  0.3500473E+04  0.7818609E-02  0.8113678E-01
        2   -1    0    0  501    0  0.00000000000E+00  0.00000000000E+00  0.20527794177E+04  0.20527794177E+04  0.25500000920E-02 0. -1.
       -2   -1    0    0    0  501  0.00000000000E+00  0.00000000000E+00 -0.14922828998E+04  0.14922828998E+04  0.25500000920E-02 0.  1.
    10030    2    1    2    0    0  0.00000000000E+00  0.00000000000E+00  0.56049651786E+03  0.35450623175E+04  0.35004728950E+04 0.  0.
        3    1    3    3  502    0 -0.53331370927E+03  0.68866128225E+03  0.18176933705E+04  0.20156108437E+04  0.10100000352E+00 0. -1.
       -3    1    3    3    0  502  0.53331370927E+03 -0.68866128225E+03 -0.12571968526E+04  0.15294514738E+04  0.10100000352E+00 0.  1.
</event>
<event>
 5   0  0.1121462E-08  0.3498615E+04  0.7818609E-02  0.8114118E-01
        1   -1    0    0  501    0  0.00000000000E+00  0.00000000000E+00  0.31322037495E+04  0.31322037495E+04  0.50400001928E-02 0.  1.
       -1   -1    0    0    0  501  0.00000000000E+00  0.00000000000E+00 -0.97697231065E+03  0.97697231066E+03  0.50400001928E-02 0. -1.
    10030    2    1    2    0    0  0.00000000000E+00  0.00000000000E+00  0.21552314388E+04  0.41091760601E+04  0.34986147742E+04 0.  0.
        2    1    3    3  502    0 -0.75871386612E+03  0.11854490892E+04 -0.14249019141E+03  0.14146518046E+04  0.25500000920E-02 0. -1.
       -2    1    3    3    0  502  0.75871386612E+03 -0.11854490892E+04  0.22977216302E+04  0.26945242555E+04  0.25500000920E-02 0.  1.
</event>
<event>
 5   0  0.3467834E-08  0.3500112E+04  0.7818609E-02  0.8113763E-01
        2   -1    0    0  501    0  0.00000000000E+00  0.00000000000E+00  0.24550895264E+04  0.24550895264E+04  0.25500000920E-02 0.  1.
       -2   -1    0    0    0  501  0.00000000000E+00  0.00000000000E+00 -0.12474884979E+04  0.12474884980E+04  0.25500000920E-02 0. -1.
    10030    2    1    2    0    0  0.00000000000E+00  0.00000000000E+00  0.12076010284E+04  0.37025780243E+04  0.35001119671E+04 0.  0.
        3    1    3    3  502    0 -0.54973680694E+03 -0.29610280406E+03  0.23332433205E+04  0.24153492150E+04  0.10100000352E+00 0.  1.
       -3    1    3    3    0  502  0.54973680694E+03  0.29610280406E+03 -0.11256422921E+04  0.12872288093E+04  0.10100000352E+00 0. -1.
</event>
<event>
 5   0  0.3700096E-08  0.3500513E+04  0.7818609E-02  0.8113668E-01
       -2   -1    0    0    0  501  0.00000000000E+00  0.00000000000E+00  0.14486467203E+04  0.14486467203E+04  0.25500000920E-02 0.  1.
        2   -1    0    0  501    0  0.00000000000E+00  0.00000000000E+00 -0.21146615255E+04  0.21146615256E+04  0.25500000920E-02 0. -1.
    10030    2    1    2    0    0  0.00000000000E+00  0.00000000000E+00 -0.66601480520E+03  0.35633082459E+04  0.35005128102E+04 0.  0.
        4    1    3    3  502    0  0.10791295044E+04 -0.82815389470E+03  0.78812952601E+03  0.15721034073E+04  0.12699999809E+01 0.  1.
       -4    1    3    3    0  502 -0.10791295044E+04  0.82815389470E+03 -0.14541443312E+04  0.19912048386E+04  0.12699999809E+01 0. -1.
</event>
<event>
 5   0  0.1121462E-08  0.3481492E+04  0.7818609E-02  0.8118190E-01
        1   -1    0    0  501    0  0.00000000000E+00  0.00000000000E+00  0.14265090526E+04  0.14265090526E+04  0.50400001928E-02 0.  1.
       -1   -1    0    0    0  501  0.00000000000E+00  0.00000000000E+00 -0.21242042440E+04  0.21242042440E+04  0.50400001928E-02 0. -1.
    10030    2    1    2    0    0  0.00000000000E+00  0.00000000000E+00 -0.69769519140E+03  0.35507132965E+04  0.34814919696E+04 0.  0.
        1    1    3    3  502    0 -0.10315204742E+04  0.35514300120E+03 -0.17322971088E+04  0.20471966962E+04  0.50400001928E-02 0. -1.
       -1    1    3    3    0  502  0.10315204742E+04 -0.35514300120E+03  0.10346019174E+04  0.15035166003E+04  0.50400001928E-02 0.  1.
</event>
<event>
 5   0  0.1121462E-08  0.3499013E+04  0.7818609E-02  0.8114024E-01
       -1   -1    0    0    0  501  0.00000000000E+00  0.00000000000E+00  0.17879280470E+04  0.17879280470E+04  0.50400001928E-02 0. -1.
        1   -1    0    0  501    0  0.00000000000E+00  0.00000000000E+00 -0.17119110400E+04  0.17119110401E+04  0.50400001928E-02 0.  1.
    10030    2    1    2    0    0  0.00000000000E+00  0.00000000000E+00  0.76017006918E+02  0.34998390870E+04  0.34990134395E+04 0.  0.
        2    1    3    3  502    0 -0.15821405102E+04 -0.74528976324E+03  0.84369599033E+02  0.17509265132E+04  0.25500000920E-02 0. -1.
       -2    1    3    3    0  502  0.15821405102E+04  0.74528976324E+03 -0.83525921149E+01  0.17489125739E+04  0.25500000920E-02 0.  1.
</event>
<event>
 5   0  0.1129219E-08  0.3499585E+04  0.7818609E-02  0.8113888E-01
       -1   -1    0    0    0  501  0.00000000000E+00  0.00000000000E+00  0.30194173325E+04  0.30194173325E+04  0.50400001928E-02 0.  1.
        1   -1    0    0  501    0  0.00000000000E+00  0.00000000000E+00 -0.10140281417E+04  0.10140281418E+04  0.50400001928E-02 0. -1.
    10030    2    1    2    0    0  0.00000000000E+00  0.00000000000E+00  0.20053891908E+04  0.40334454743E+04  0.34995852022E+04 0.  0.
        5    1    3    3  502    0  0.46011415865E+03 -0.16682533654E+04  0.70441412432E+03  0.18684206375E+04  0.46999998093E+01 0. -1.
       -5    1    3    3    0  502 -0.46011415865E+03  0.16682533654E+04  0.13009750665E+04  0.21650248368E+04  0.46999998093E+01 0.  1.
</event>
<event>
 5   0  0.1140808E-08  0.3495305E+04  0.7818609E-02  0.8114903E-01
       -1   -1    0    0    0  501  0.00000000000E+00  0.00000000000E+00  0.14065739761E+04  0.14065739761E+04  0.50400001928E-02 0.  1.
        1   -1    0    0  501    0  0.00000000000E+00  0.00000000000E+00 -0.21714389019E+04  0.21714389019E+04  0.50400001928E-02 0. -1.
    10030    2    1    2    0    0  0.00000000000E+00  0.00000000000E+00 -0.76486492574E+03  0.35780128780E+04  0.34953051084E+04 0.  0.
        3    1    3    3  502    0  0.13277051368E+04 -0.75612637094E+03  0.48603007624E+03  0.16033568737E+04  0.10100000352E+00 0.  1.
       -3    1    3    3    0  502 -0.13277051368E+04  0.75612637094E+03 -0.12508950020E+04  0.19746560043E+04  0.10100000352E+00 0. -1.
</event>
<event>
 5   0  0.3700096E-08  0.3500112E+04  0.7818609E-02  0.8113763E-01
        2   -1    0    0  501    0  0.00000000000E+00  0.00000000000E+00  0.25554289498E+04  0.25554289498E+04  0.25500000920E-02 0. -1.
       -2   -1    0    0    0  501  0.00000000000E+00  0.00000000000E+00 -0.11985056348E+04  0.11985056348E+04  0.25500000920E-02 0.  1.
    10030    2    1    2    0    0  0.00000000000E+00  0.00000000000E+00  0.13569233149E+04  0.37539345846E+04  0.35001119958E+04 0.  0.
        4    1    3    3  502    0 -0.10091997290E+04 -0.10053759682E+04  0.17687595602E+04  0.22710739585E+04  0.12699999809E+01 0. -1.
       -4    1    3    3    0  502  0.10091997290E+04  0.10053759682E+04 -0.41183624527E+03  0.14828606261E+04  0.12699999809E+01 0.  1.
</event>
<event>
 5   0  0.1121462E-08  0.3497074E+04  0.7818609E-02  0.8114484E-01
        1   -1    0    0  501    0  0.00000000000E+00  0.00000000000E+00  0.22034325934E+04  0.22034325934E+04  0.50400001928E-02 0.  1.
       -1   -1    0    0    0  501  0.00000000000E+00  0.00000000000E+00 -0.13875543183E+04  0.13875543183E+04  0.50400001928E-02 0. -1.
    10030    2    1    2    0    0  0.00000000000E+00  0.00000000000E+00  0.81587827511E+03  0.35909869117E+04  0.34970744402E+04 0.  0.
        1    1    3    3  502    0  0.70267653154E+03 -0.87408322519E+03 -0.96958030092E+03  0.14825187191E+04  0.50400001928E-02 0. -1.
       -1    1    3    3    0  502 -0.70267653154E+03  0.87408322519E+03  0.17854585760E+04  0.21084681926E+04  0.50400001928E-02 0.  1.
</event>
<event>
 5   0  0.3554451E-08  0.3501661E+04  0.7818609E-02  0.8113396E-01
       -2   -1    0    0    0  501  0.00000000000E+00  0.00000000000E+00  0.13738647846E+04  0.13738647846E+04  0.25500000920E-02 0.  1.
        2   -1    0    0  501    0  0.00000000000E+00  0.00000000000E+00 -0.22312299690E+04  0.22312299690E+04  0.25500000920E-02 0. -1.
    10030    2    1    2    0    0  0.00000000000E+00  0.00000000000E+00 -0.85736518443E+03  0.36050947536E+04  0.35016614804E+04 0.  0.
        5    1    3    3  502    0 -0.81401625962E+02  0.16209294464E+04 -0.11048531653E+04  0.19633545533E+04  0.46999998093E+01 0. -1.
       -5    1    3    3    0  502  0.81401625962E+02 -0.16209294464E+04  0.24748798091E+03  0.16417402004E+04  0.46999998093E+01 0.  1.
</event>
<event>
 5   0  0.3554451E-08  0.3497171E+04  0.7818609E-02  0.8114461E-01
        2   -1    0    0  501    0  0.00000000000E+00  0.00000000000E+00  0.15271067994E+04  0.15271067994E+04  0.25500000920E-02 0.  1.
       -2   -1    0    0    0  501  0.00000000000E+00  0.00000000000E+00 -0.20021856820E+04  0.20021856820E+04  0.25500000920E-02 0. -1.
    10030    2    1    2    0    0  0.00000000000E+00  0.00000000000E+00 -0.47507888260E+03  0.35292924814E+04  0.34971710674E+04 0.  0.
        5    1    3    3  502    0 -0.16631998681E+04  0.43631214929E+03 -0.55814781115E+03  0.18078034080E+04  0.46999998093E+01 0.  1.
       -5    1    3    3    0  502  0.16631998681E+04 -0.43631214929E+03  0.83068928558E+02  0.17214890734E+04  0.46999998093E+01 0. -1.
</event>
<event>
 5   0  0.3554451E-08  0.3500056E+04  0.7818609E-02  0.8113777E-01
       -2   -1    0    0    0  501  0.00000000000E+00  0.00000000000E+00  0.14136041812E+04  0.14136041812E+04  0.25500000920E-02 0.  1.
        2   -1    0    0  501    0  0.00000000000E+00  0.00000000000E+00 -0.21665171089E+04  0.21665171089E+04  0.25500000920E-02 0. -1.
    10030    2    1    2    0    0  0.00000000000E+00  0.00000000000E+00 -0.75291292771E+03  0.35801212900E+04  0.35000557959E+04 0.  0.
        5    1    3    3  502    0  0.12916308558E+03 -0.16996266863E+04 -0.78196123001E+03  0.18753398174E+04  0.46999998093E+01 0. -1.
       -5    1    3    3    0  502 -0.12916308558E+03  0.16996266863E+04  0.29048302306E+02  0.17047814726E+04  0.46999998093E+01 0.  1.
</event>
<event>
 5   0  0.3553585E-08  0.3498409E+04  0.7818609E-02  0.8114167E-01
        2   -1    0    0  501    0  0.00000000000E+00  0.00000000000E+00  0.15278531299E+04  0.15278531299E+04  0.25500000920E-02 0. -1.
       -2   -1    0    0    0  501  0.00000000000E+00  0.00000000000E+00 -0.20026251559E+04  0.20026251559E+04  0.25500000920E-02 0.  1.
    10030    2    1    2    0    0  0.00000000000E+00  0.00000000000E+00 -0.47477202604E+03  0.35304782858E+04  0.34984094171E+04 0.  0.
        2    1    3    3  502    0 -0.11014682470E+04  0.65194217262E+03  0.96579135720E+03  0.16034381314E+04  0.25500000920E-02 0. -1.
       -2    1    3    3    0  502  0.11014682470E+04 -0.65194217262E+03 -0.14405633832E+04  0.19270401544E+04  0.25500000920E-02 0.  1.
</event>
<event>
 5   0  0.1121462E-08  0.3501613E+04  0.7818609E-02  0.8113408E-01
        1   -1    0    0  501    0  0.00000000000E+00  0.00000000000E+00  0.21023558448E+04  0.21023558448E+04  0.50400001928E-02 0.  1.
       -1   -1    0    0    0  501  0.00000000000E+00  0.00000000000E+00 -0.14580422419E+04  0.14580422419E+04  0.50400001928E-02 0. -1.
    10030    2    1    2    0    0  0.00000000000E+00  0.00000000000E+00  0.64431360295E+03  0.35603980867E+04  0.35016131307E+04 0.  0.
        4    1    3    3  502    0 -0.12138231698E+04  0.11342466748E+04  0.88410103237E+03  0.18818922538E+04  0.12699999809E+01 0.  1.
       -4    1    3    3    0  502  0.12138231698E+04 -0.11342466748E+04 -0.23978742943E+03  0.16785058329E+04  0.12699999809E+01 0. -1.
</event>
<event>
 5   0  0.3628017E-08  0.3500357E+04  0.7818609E-02  0.8113705E-01
        2   -1    0    0  501    0  0.00000000000E+00  0.00000000000E+00  0.20922190918E+04  0.20922190918E+04  0.25500000920E-02 0. -1.
       -2   -1    0    0    0  501  0.00000000000E+00  0.00000000000E+00 -0.14640551146E+04  0.14640551146E+04  0.25500000920E-02 0.  1.
    10030    2    1    2    0    0  0.00000000000E+00  0.00000000000E+00  0.62816397714E+03  0.35562742064E+04  0.35003565889E+04 0.  0.
        1    1    3    3  502    0 -0.14290862946E+04 -0.67196521880E+03  0.10806544719E+04  0.19135409534E+04  0.50400001928E-02 0. -1.
       -1    1    3    3    0  502  0.14290862946E+04  0.67196521880E+03 -0.45249049475E+03  0.16427332530E+04  0.50400001928E-02 0.  1.
</event>
<event>
 5   0  0.3554451E-08  0.3499955E+04  0.7818609E-02  0.8113800E-01
       -2   -1    0    0    0  501  0.00000000000E+00  0.00000000000E+00  0.19767220743E+04  0.19767220743E+04  0.25500000920E-02 0. -1.
        2   -1    0    0  501    0  0.00000000000E+00  0.00000000000E+00 -0.15492426022E+04  0.15492426022E+04  0.25500000920E-02 0.  1.
    10030    2    1    2    0    0  0.00000000000E+00  0.00000000000E+00  0.42747947207E+03  0.35259646765E+04  0.34999554570E+04 0.  0.
        5    1    3    3  502    0 -0.16664019400E+04  0.40427201689E+03  0.56571938019E+03  0.18056555033E+04  0.46999998093E+01 0. -1.
       -5    1    3    3    0  502  0.16664019400E+04 -0.40427201689E+03 -0.13823990811E+03  0.17203091732E+04  0.46999998093E+01 0.  1.
</event>
<event>
 5   0  0.3700096E-08  0.3498028E+04  0.7818609E-02  0.8114257E-01
       -2   -1    0    0    0  501  0.00000000000E+00  0.00000000000E+00  0.10639132215E+04  0.10639132215E+04  0.25500000920E-02 0. -1.
        2   -1    0    0  501    0  0.00000000000E+00  0.00000000000E+00 -0.28752821321E+04  0.28752821321E+04  0.25500000920E-02 0.  1.
    10030    2    1    2    0    0  0.00000000000E+00  0.00000000000E+00 -0.18113689106E+04  0.39391953536E+04  0.34980284023E+04 0.  0.
        4    1    3    3  502    0  0.10081037853E+04 -0.13368524424E+04 -0.14750166916E+04  0.22313949780E+04  0.12699999809E+01 0.  1.
       -4    1    3    3    0  502 -0.10081037853E+04  0.13368524424E+04 -0.33635221906E+03  0.17078003756E+04  0.12699999809E+01 0. -1.
</event>
<event>
 5   0  0.3554451E-08  0.3501203E+04  0.7818609E-02  0.8113505E-01
        2   -1    0    0  501    0  0.00000000000E+00  0.00000000000E+00  0.21846847997E+04  0.21846847997E+04  0.25500000920E-02 0. -1.
       -2   -1    0    0    0  501  0.00000000000E+00  0.00000000000E+00 -0.14027680602E+04  0.14027680602E+04  0.25500000920E-02 0.  1.
    10030    2    1    2    0    0  0.00000000000E+00  0.00000000000E+00  0.78191673948E+03  0.35874528598E+04  0.35012032552E+04 0.  0.
        5    1    3    3  502    0 -0.70737242144E+03 -0.15838857329E+04  0.63237710239E+03  0.18463457550E+04  0.46999998093E+01 0. -1.
       -5    1    3    3    0  502  0.70737242144E+03  0.15838857329E+04  0.14953963709E+03  0.17411071048E+04  0.46999998093E+01 0.  1.
</event>
<event>
 5   0  0.3554451E-08  0.3499586E+04  0.7818609E-02  0.8113888E-01
        2   -1    0    0  501    0  0.00000000000E+00  0.00000000000E+00  0.18629096927E+04  0.18629096927E+04  0.25500000920E-02 0. -1.
       -2   -1    0    0    0  501  0.00000000000E+00  0.00000000000E+00 -0.16435449202E+04  0.16435449202E+04  0.25500000920E-02 0.  1.
    10030    2    1    2    0    0  0.00000000000E+00  0.00000000000E+00  0.21936477254E+03  0.35064546129E+04  0.34995861254E+04 0.  0.
        5    1    3    3  502    0 -0.13547425852E+04  0.10655230069E+04  0.41208082769E+03  0.17721454368E+04  0.46999998093E+01 0. -1.
       -5    1    3    3    0  502  0.13547425852E+04 -0.10655230069E+04 -0.19271605515E+03  0.17343091762E+04  0.46999998093E+01 0.  1.
</event>
<event>
 5   0  0.1121462E-08  0.3487884E+04  0.7818609E-02  0.8116667E-01
       -1   -1    0    0    0  501  0.00000000000E+00  0.00000000000E+00  0.11732361481E+04  0.11732361481E+04  0.50400001928E-02 0. -1.
        1   -1    0    0  501    0  0.00000000000E+00  0.00000000000E+00 -0.25922597800E+04  0.25922597800E+04  0.50400001928E-02 0.  1.
    10030    2    1    2    0    0  0.00000000000E+00  0.00000000000E+00 -0.14190236319E+04  0.37654959282E+04  0.34878835298E+04 0.  0.
        4    1    3    3  502    0 -0.32346026780E+03 -0.61257421750E+03 -0.24373528730E+04  0.25338832565E+04  0.12699999809E+01 0.  1.
       -4    1    3    3    0  502  0.32346026780E+03  0.61257421750E+03  0.10183292412E+04  0.12316126717E+04  0.12699999809E+01 0. -1.
</event>
<event>
 5   0  0.1140808E-08  0.3502059E+04  0.7818609E-02  0.8113302E-01
        1   -1    0    0  501    0  0.00000000000E+00  0.00000000000E+00  0.19651253134E+04  0.19651253134E+04  0.50400001928E-02 0. -1.
       -1   -1    0    0    0  501  0.00000000000E+00  0.00000000000E+00 -0.15602591156E+04  0.15602591156E+04  0.50400001928E-02 0.  1.
    10030    2    1    2    0    0  0.00000000000E+00  0.00000000000E+00  0.40486619782E+03  0.35253844290E+04  0.35020592133E+04 0.  0.
        3    1    3    3  502    0  0.47830072789E+03 -0.15971789745E+04 -0.33625008517E+03  0.17008281492E+04  0.10100000352E+00 0.  1.
       -3    1    3    3    0  502 -0.47830072789E+03  0.15971789745E+04  0.74111628300E+03  0.18245562798E+04  0.10100000352E+00 0. -1.
</event>
<event>
 5   0  0.1129219E-08  0.3500281E+04  0.7818609E-02  0.8113723E-01
       -1   -1    0    0    0  501  0.00000000000E+00  0.00000000000E+00  0.24561923468E+04  0.24561923468E+04  0.50400001928E-02 0. -1.
        1   -1    0    0  501    0  0.00000000000E+00  0.00000000000E+00 -0.12470490916E+04  0.12470490916E+04  0.50400001928E-02 0.  1.
    10030    2    1    2    0    0  0.00000000000E+00  0.00000000000E+00  0.12091432552E+04  0.37032414384E+04  0.35002813801E+04 0.  0.
        5    1    3    3  502    0 -0.62421415998E+03 -0.62643004505E+03 -0.99326868989E+03  0.13299107862E+04  0.46999998093E+01 0.  1.
       -5    1    3    3    0  502  0.62421415998E+03  0.62643004505E+03  0.22024119451E+04  0.23733306523E+04  0.46999998093E+01 0. -1.
</event>
<event>
 5   0  0.3628017E-08  0.3500013E+04  0.7818609E-02  0.8113787E-01
        2   -1    0    0  501    0  0.00000000000E+00  0.00000000000E+00  0.21618985809E+04  0.21618985809E+04  0.25500000920E-02 0. -1.
       -2   -1    0    0    0  501  0.00000000000E+00  0.00000000000E+00 -0.14165892840E+04  0.14165892840E+04  0.25500000920E-02 0.  1.
    10030    2    1    2    0    0  0.00000000000E+00  0.00000000000E+00  0.74530929693E+03  0.35784878650E+04  0.35000127788E+04 0.  0.
        1    1    3    3  502    0  0.19925768012E+03  0.73028759955E+03  0.19858459668E+04  0.21252312357E+04  0.50400001928E-02 0. -1.
       -1    1    3    3    0  502 -0.19925768012E+03 -0.73028759955E+03 -0.12405366699E+04  0.14532566293E+04  0.50400001928E-02 0.  1.
</event>
<event>
 5   0  0.3554451E-08  0.3500553E+04  0.7818609E-02  0.8113659E-01
       -2   -1    0    0    0  501  0.00000000000E+00  0.00000000000E+00  0.19136906624E+04  0.19136906624E+04  0.25500000920E-02 0.  1.
        2   -1    0    0  501    0  0.00000000000E+00  0.00000000000E+00 -0.16008169779E+04  0.16008169779E+04  0.25500000920E-02 0. -1.
    10030    2    1    2    0    0  0.00000000000E+00  0.00000000000E+00  0.31287368457E+03  0.35145076403E+04  0.35005533864E+04 0.  0.
        5    1    3    3  502    0  0.43530874716E+03  0.12269084382E+04 -0.10181191695E+04  0.16526907619E+04  0.46999998093E+01 0. -1.
       -5    1    3    3    0  502 -0.43530874716E+03 -0.12269084382E+04  0.13309928541E+04  0.18618168784E+04  0.46999998093E+01 0.  1.
</event>
<event>
 5   0  0.1129219E-08  0.3501223E+04  0.7818609E-02  0.8113500E-01
       -1   -1    0    0    0  501  0.00000000000E+00  0.00000000000E+00  0.18401452416E+04  0.18401452416E+04  0.50400001928E-02 0.  1.
        1   -1    0    0  501    0  0.00000000000E+00  0.00000000000E+00 -0.16654338673E+04  0.16654338674E+04  0.50400001928E-02 0. -1.
    10030    2    1    2    0    0  0.00000000000E+00  0.00000000000E+00  0.17471137421E+03  0.35055791089E+04  0.35012227613E+04 0.  0.
        5    1    3    3  502    0  0.11870271076E+04 -0.24239015575E+03  0.13525860684E+04  0.18158462226E+04  0.46999998093E+01 0.  1.
       -5    1    3    3    0  502 -0.11870271076E+04  0.24239015575E+03 -0.11778746942E+04  0.16897328863E+04  0.46999998093E+01 0. -1.
</event>
<event>
 5   0  0.1121462E-08  0.3498131E+04  0.7818609E-02  0.8114233E-01
       -1   -1    0    0    0  501  0.00000000000E+00  0.00000000000E+00  0.26226190748E+04  0.26226190748E+04  0.50400001928E-02 0. -1.
        1   -1    0    0  501    0  0.00000000000E+00  0.00000000000E+00 -0.11664793366E+04  0.11664793366E+04  0.50400001928E-02 0.  1.
    10030    2    1    2    0    0  0.00000000000E+00  0.00000000000E+00  0.14561397382E+04  0.37890984114E+04  0.34981314775E+04 0.  0.
        1    1    3    3  502    0  0.14403563476E+04  0.44746622009E+02  0.18017839352E+04  0.23071744662E+04  0.50400001928E-02 0. -1.
       -1    1    3    3    0  502 -0.14403563476E+04 -0.44746622009E+02 -0.34564419702E+03  0.14819239452E+04  0.50400001928E-02 0.  1.
</event>
<event>
 5   0  0.3700096E-08  0.3500961E+04  0.7818609E-02  0.8113562E-01
       -2   -1    0    0    0  501  0.00000000000E+00  0.00000000000E+00  0.11650430122E+04  0.11650430122E+04  0.25500000920E-02 0.  1.
        2   -1    0    0  501    0  0.00000000000E+00  0.00000000000E+00 -0.26301014976E+04  0.26301014976E+04  0.25500000920E-02 0. -1.
    10030    2    1    2    0    0  0.00000000000E+00  0.00000000000E+00 -0.14650584854E+04  0.37951445097E+04  0.35009606516E+04 0.  0.
        4    1    3    3  502    0 -0.10025682638E+04  0.14265264975E+04 -0.90067191533E+03  0.19624812059E+04  0.12699999809E+01 0.  1.
       -4    1    3    3    0  502  0.10025682638E+04 -0.14265264975E+04 -0.56438657010E+03  0.18326633038E+04  0.12699999809E+01 0. -1.
</event>
<event>
 5   0  0.1121462E-08  0.3499586E+04  0.7818609E-02  0.8113888E-01
        1   -1    0    0  501    0  0.00000000000E+00  0.00000000000E+00  0.25388383800E+04  0.25388383801E+04  0.50400001928E-02 0. -1.
       -1   -1    0    0    0  501  0.00000000000E+00  0.00000000000E+00 -0.12059749653E+04  0.12059749653E+04  0.50400001928E-02 0.  1.
    10030    2    1    2    0    0  0.00000000000E+00  0.00000000000E+00  0.13328634148E+04  0.37448133454E+04  0.34995859911E+04 0.  0.
        1    1    3    3  502    0  0.36974823333E+03 -0.17100270782E+04  0.63488426822E+03  0.18611782285E+04  0.50400001928E-02 0. -1.
       -1    1    3    3    0  502 -0.36974823333E+03  0.17100270782E+04  0.69797914653E+03  0.18836351168E+04  0.50400001928E-02 0.  1.
</event>
<event>
 5   0  0.3700096E-08  0.3496077E+04  0.7818609E-02  0.8114720E-01
       -2   -1    0    0    0  501  0.00000000000E+00  0.00000000000E+00  0.14370108732E+04  0.14370108732E+04  0.25500000920E-02 0. -1.
        2   -1    0    0  501    0  0.00000000000E+00  0.00000000000E+00 -0.21263847094E+04  0.21263847094E+04  0.25500000920E-02 0.  1.
    10030    2    1    2    0    0  0.00000000000E+00  0.00000000000E+00 -0.68937383625E+03  0.35633955826E+04  0.34960766285E+04 0.  0.
        4    1    3    3  502    0  0.17105053511E+04 -0.14426890336E+03 -0.68118679724E+03  0.18467969944E+04  0.12699999809E+01 0.  1.
       -4    1    3    3    0  502 -0.17105053511E+04  0.14426890336E+03 -0.81870390099E+01  0.17165985883E+04  0.12699999809E+01 0. -1.
</event>
<event>
 5   0  0.3628017E-08  0.3501570E+04  0.7818609E-02  0.8113418E-01
        2   -1    0    0  501    0  0.00000000000E+00  0.00000000000E+00  0.17544994727E+04  0.17544994727E+04  0.25500000920E-02 0. -1.
       -2   -1    0    0    0  501  0.00000000000E+00  0.00000000000E+00 -0.17470786845E+04  0.17470786845E+04  0.25500000920E-02 0.  1.
    10030    2    1    2    0    0  0.00000000000E+00  0.00000000000E+00  0.74207881785E+01  0.35015781572E+04  0.35015702939E+04 0.  0.
        1    1    3    3  502    0 -0.93553565234E+03 -0.14708512486E+04  0.16686185094E+03  0.17511348405E+04  0.50400001928E-02 0. -1.
       -1    1    3    3    0  502  0.93553565234E+03  0.14708512486E+04 -0.15944106276E+03  0.17504433167E+04  0.50400001928E-02 0.  1.
</event>
<event>
 5   0  0.1121462E-08  0.3500165E+04  0.7818609E-02  0.8113751E-01
       -1   -1    0    0    0  501  0.00000000000E+00  0.00000000000E+00  0.25344054519E+04  0.25344054519E+04  0.50400001928E-02 0. -1.
        1   -1    0    0  501    0  0.00000000000E+00  0.00000000000E+00 -0.12084841700E+04  0.12084841700E+04  0.50400001928E-02 0.  1.
    10030    2    1    2    0    0  0.00000000000E+00  0.00000000000E+00  0.13259212819E+04  0.37428896219E+04  0.35001650641E+04 0.  0.
        2    1    3    3  502    0  0.94539461199E+03 -0.66242550063E+03 -0.74363072533E+03  0.13731588298E+04  0.25500000920E-02 0.  1.
       -2    1    3    3    0  502 -0.94539461199E+03  0.66242550063E+03  0.20695520072E+04  0.23697307920E+04  0.25500000920E-02 0. -1.
</event>
<event>
 5   0  0.1121462E-08  0.3502030E+04  0.7818609E-02  0.8113309E-01
        1   -1    0    0  501    0  0.00000000000E+00  0.00000000000E+00  0.19356719617E+04  0.19356719617E+04  0.50400001928E-02 0. -1.
       -1   -1    0    0    0  501  0.00000000000E+00  0.00000000000E+00 -0.15839738684E+04  0.15839738684E+04  0.50400001928E-02 0.  1.
    10030    2    1    2    0    0  0.00000000000E+00  0.00000000000E+00  0.35169809334E+03  0.35196458301E+04  0.35020301570E+04 0.  0.
        1    1    3    3  502    0 -0.81235831221E+03  0.51935768808E+03  0.16448426223E+04  0.19066110479E+04  0.50400001928E-02 0. -1.
       -1    1    3    3    0  502  0.81235831221E+03 -0.51935768808E+03 -0.12931445290E+04  0.16130347822E+04  0.50400001928E-02 0.  1.
</event>
<event>
 5   0  0.3700096E-08  0.3493461E+04  0.7818609E-02  0.8115341E-01
       -2   -1    0    0    0  501  0.00000000000E+00  0.00000000000E+00  0.21486820488E+04  0.21486820488E+04  0.25500000920E-02 0.  1.
        2   -1    0    0  501    0  0.00000000000E+00  0.00000000000E+00 -0.14199712623E+04  0.14199712623E+04  0.25500000920E-02 0. -1.
    10030    2    1    2    0    0  0.00000000000E+00  0.00000000000E+00  0.72871078654E+03  0.35686533111E+04  0.34934606115E+04 0.  0.
        4    1    3    3  502    0  0.74762780286E+03  0.57136797458E+03 -0.11389364120E+04  0.14773579314E+04  0.12699999809E+01 0. -1.
       -4    1    3    3    0  502 -0.74762780286E+03 -0.57136797458E+03  0.18676471985E+04  0.20912953797E+04  0.12699999809E+01 0.  1.
</event>
<event>
 5   0  0.1121462E-08  0.3498777E+04  0.7818609E-02  0.8114080E-01
       -1   -1    0    0    0  501  0.00000000000E+00  0.00000000000E+00  0.18330272100E+04  0.18330272100E+04  0.50400001928E-02 0.  1.
        1   -1    0    0  501    0  0.00000000000E+00  0.00000000000E+00 -0.16695661701E+04  0.16695661701E+04  0.50400001928E-02 0. -1.
    10030    2    1    2    0    0  0.00000000000E+00  0.00000000000E+00  0.16346103987E+03  0.35025933801E+04  0.34987770541E+04 0.  0.
        4    1    3    3  502    0  0.15236934156E+04  0.85241669090E+03 -0.28402049951E+02  0.17461569600E+04  0.12699999809E+01 0.  1.
       -4    1    3    3    0  502 -0.15236934156E+04 -0.85241669090E+03  0.19186308982E+03  0.17564364201E+04  0.12699999809E+01 0. -1.
</event>
<event>
 5   0  0.3700096E-08  0.3502740E+04  0.7818609E-02  0.8113141E-01
        2   -1    0    0  501    0  0.00000000000E+00  0.00000000000E+00  0.25117747466E+04  0.25117747466E+04  0.25500000920E-02 0.  1.
       -2   -1    0    0    0  501  0.00000000000E+00  0.00000000000E+00 -0.12211674690E+04  0.12211674690E+04  0.25500000920E-02 0. -1.
    10030    2    1    2    0    0  0.00000000000E+00  0.00000000000E+00  0.12906072776E+04  0.37329422156E+04  0.35027404186E+04 0.  0.
        4    1    3    3  502    0 -0.17342887534E+03  0.17115633176E+04  0.29544620137E+03  0.17455132872E+04  0.12699999809E+01 0. -1.
       -4    1    3    3    0  502  0.17342887534E+03 -0.17115633176E+04  0.99516107623E+03  0.19874289284E+04  0.12699999809E+01 0.  1.
</event>
<event>
 5   0  0.1121462E-08  0.3500380E+04  0.7818609E-02  0.8113700E-01
       -1   -1    0    0    0  501  0.00000000000E+00  0.00000000000E+00  0.95362337017E+03  0.95362337019E+03  0.50400001928E-02 0. -1.
        1   -1    0    0  501    0  0.00000000000E+00  0.00000000000E+00 -0.32121331819E+04  0.32121331819E+04  0.50400001928E-02 0.  1.
    10030    2    1    2    0    0  0.00000000000E+00  0.00000000000E+00 -0.22585098117E+04  0.41657565521E+04  0.35003801339E+04 0.  0.
        2    1    3    3  502    0  0.85527060690E+03 -0.84820981216E+03 -0.26403454959E+04  0.29021323254E+04  0.25500000920E-02 0.  1.
       -2    1    3    3    0  502 -0.85527060690E+03  0.84820981216E+03  0.38183568419E+03  0.12636242267E+04  0.25500000920E-02 0. -1.
</event>
<event>
 5   0  0.3628017E-08  0.3498151E+04  0.7818609E-02  0.8114228E-01
        2   -1    0    0  501    0  0.00000000000E+00  0.00000000000E+00  0.18746714283E+04  0.18746714283E+04  0.25500000920E-02 0. -1.
       -2   -1    0    0    0  501  0.00000000000E+00  0.00000000000E+00 -0.16318938450E+04  0.16318938450E+04  0.25500000920E-02 0.  1.
    10030    2    1    2    0    0  0.00000000000E+00  0.00000000000E+00  0.24277758331E+03  0.35065652733E+04  0.34981508059E+04 0.  0.
        1    1    3    3  502    0 -0.18933639352E+03 -0.17237921750E+04 -0.10710035135E+03  0.17374631558E+04  0.50400001928E-02 0. -1.
       -1    1    3    3    0  502  0.18933639352E+03  0.17237921750E+04  0.34987793466E+03  0.17691021174E+04  0.50400001928E-02 0.  1.
</event>
<event>
 5   0  0.1140808E-08  0.3500592E+04  0.7818609E-02  0.8113650E-01
       -1   -1    0    0    0  501  0.00000000000E+00  0.00000000000E+00  0.20588909839E+04  0.20588909839E+04  0.50400001928E-02 0.  1.
        1   -1    0    0  501    0  0.00000000000E+00  0.00000000000E+00 -0.14879543681E+04  0.14879543681E+04  0.50400001928E-02 0. -1.
    10030    2    1    2    0    0  0.00000000000E+00  0.00000000000E+00  0.57093661578E+03  0.35468453520E+04  0.35005918545E+04 0.  0.
        3    1    3    3  502    0 -0.12533814588E+04  0.93870721353E+03  0.10777202598E+04  0.19009516781E+04  0.10100000352E+00 0.  1.
       -3    1    3    3    0  502  0.12533814588E+04 -0.93870721353E+03 -0.50678364401E+03  0.16458936739E+04  0.10100000352E+00 0. -1.
</event>
<event>
 5   0  0.1121462E-08  0.3498370E+04  0.7818609E-02  0.8114176E-01
        1   -1    0    0  501    0  0.00000000000E+00  0.00000000000E+00  0.95996924417E+03  0.95996924418E+03  0.50400001928E-02 0. -1.
       -1   -1    0    0    0  501  0.00000000000E+00  0.00000000000E+00 -0.31872359646E+04  0.31872359646E+04  0.50400001928E-02 0.  1.
    10030    2    1    2    0    0  0.00000000000E+00  0.00000000000E+00 -0.22272667204E+04  0.41472052088E+04  0.34983701919E+04 0.  0.
        1    1    3    3  502    0 -0.75041492016E+03 -0.13988752927E+04 -0.24275910119E+03  0.16058974494E+04  0.50400001928E-02 0. -1.
       -1    1    3    3    0  502  0.75041492016E+03  0.13988752927E+04 -0.19845076192E+04  0.25413077593E+04  0.50400001928E-02 0.  1.
</event>
<event>
 5   0  0.1140808E-08  0.3500092E+04  0.7818609E-02  0.8113768E-01
        1   -1    0    0  501    0  0.00000000000E+00  0.00000000000E+00  0.17253549511E+04  0.17253549511E+04  0.50400001928E-02 0.  1.
       -1   -1    0    0    0  501  0.00000000000E+00  0.00000000000E+00 -0.17750901109E+04  0.17750901109E+04  0.50400001928E-02 0. -1.
    10030    2    1    2    0    0  0.00000000000E+00  0.00000000000E+00 -0.49735159751E+02  0.35004450620E+04  0.35000917196E+04 0.  0.
        3    1    3    3  502    0  0.51844690483E+03 -0.32277430752E+02  0.16464778032E+04  0.17264756565E+04  0.10100000352E+00 0.  1.
       -3    1    3    3    0  502 -0.51844690483E+03  0.32277430752E+02 -0.16962129630E+04  0.17739694055E+04  0.10100000352E+00 0. -1.
</event>
<event>
 5   0  0.3467834E-08  0.3500723E+04  0.7818609E-02  0.8113619E-01
        2   -1    0    0  501    0  0.00000000000E+00  0.00000000000E+00  0.25219511630E+04  0.25219511630E+04  0.25500000920E-02 0.  1.
       -2   -1    0    0    0  501  0.00000000000E+00  0.00000000000E+00 -0.12148394436E+04  0.12148394436E+04  0.25500000920E-02 0. -1.
    10030    2    1    2    0    0  0.00000000000E+00  0.00000000000E+00  0.13071117194E+04  0.37367906065E+04  0.35007232096E+04 0.  0.
        3    1    3    3  502    0  0.42154421940E+03  0.85659985092E+03 -0.91244748195E+03  0.13206147247E+04  0.10100000352E+00 0. -1.
       -3    1    3    3    0  502 -0.42154421940E+03 -0.85659985092E+03  0.22195592014E+04  0.24161758819E+04  0.10100000352E+00 0.  1.
</event>
<event>
 5   0  0.3553585E-08  0.3500073E+04  0.7818609E-02  0.8113773E-01
        2   -1    0    0  501    0  0.00000000000E+00  0.00000000000E+00  0.21889212815E+04  0.21889212815E+04  0.25500000920E-02 0.  1.
       -2   -1    0    0    0  501  0.00000000000E+00  0.00000000000E+00 -0.13991495558E+04  0.13991495558E+04  0.25500000920E-02 0. -1.
    10030    2    1    2    0    0  0.00000000000E+00  0.00000000000E+00  0.78977172575E+03  0.35880708373E+04  0.35000732785E+04 0.  0.
        2    1    3    3  502    0 -0.27721078906E+03  0.16981634016E+04  0.67444201403E+02  0.17219621019E+04  0.25500000920E-02 0.  1.
       -2    1    3    3    0  502  0.27721078906E+03 -0.16981634016E+04  0.72232752435E+03  0.18661087354E+04  0.25500000920E-02 0. -1.
</event>
<event>
 5   0  0.1121462E-08  0.3498860E+04  0.7818609E-02  0.8114060E-01
       -1   -1    0    0    0  501  0.00000000000E+00  0.00000000000E+00  0.10218455888E+04  0.10218455888E+04  0.50400001928E-02 0.  1.
        1   -1    0    0  501    0  0.00000000000E+00  0.00000000000E+00 -0.29950769018E+04  0.29950769018E+04  0.50400001928E-02 0. -1.
    10030    2    1    2    0    0  0.00000000000E+00  0.00000000000E+00 -0.19732313130E+04  0.40169224906E+04  0.34988604546E+04 0.  0.
        4    1    3    3  502    0 -0.16375464865E+04  0.23163627918E+03 -0.33182478321E+03  0.16868085727E+04  0.12699999809E+01 0.  1.
       -4    1    3    3    0  502  0.16375464865E+04 -0.23163627918E+03 -0.16414065298E+04  0.23301139179E+04  0.12699999809E+01 0. -1.
</event>
<event>
 5   0  0.3628017E-08  0.3499248E+04  0.7818609E-02  0.8113968E-01
        2   -1    0    0  501    0  0.00000000000E+00  0.00000000000E+00  0.28087016472E+04  0.28087016472E+04  0.25500000920E-02 0. -1.
       -2   -1    0    0    0  501  0.00000000000E+00  0.00000000000E+00 -0.10898932640E+04  0.10898932640E+04  0.25500000920E-02 0.  1.
    10030    2    1    2    0    0  0.00000000000E+00  0.00000000000E+00  0.17188083832E+04  0.38985949112E+04  0.34992484941E+04 0.  0.
        1    1    3    3  502    0 -0.11274026748E+04  0.50545886715E+02  0.23489974212E+04  0.26060277364E+04  0.50400001928E-02 0. -1.
       -1    1    3    3    0  502  0.11274026748E+04 -0.50545886715E+02 -0.63018903799E+03  0.12925671748E+04  0.50400001928E-02 0.  1.
</event>
<event>
 5   0  0.1121462E-08  0.3499976E+04  0.7818609E-02  0.8113796E-01
        4   -1    0    0  501    0  0.00000000000E+00  0.00000000000E+00  0.16907184900E+04  0.16907189670E+04  0.12699999809E+01 0.  1.
       -4   -1    0    0    0  501  0.00000000000E+00  0.00000000000E+00 -0.18113345463E+04  0.18113349916E+04  0.12699999809E+01 0. -1.
    10030    2    1    2    0    0  0.00000000000E+00  0.00000000000E+00 -0.12061605631E+03  0.35020539586E+04  0.34999762422E+04 0.  0.
        4    1    3    3  502    0 -0.26675108425E+03  0.88125578230E+03  0.14287585051E+04  0.16997412667E+04  0.12699999809E+01 0.  1.
       -4    1    3    3    0  502  0.26675108425E+03 -0.88125578230E+03 -0.15493745615E+04  0.18023126919E+04  0.12699999809E+01 0. -1.
</event>
<event>
 5   0  0.1121462E-08  0.3499592E+04  0.7818609E-02  0.8113887E-01
       -1   -1    0    0    0  501  0.00000000000E+00  0.00000000000E+00  0.11667271854E+04  0.11667271854E+04  0.50400001928E-02 0.  1.
        1   -1    0    0  501    0  0.00000000000E+00  0.00000000000E+00 -0.26242522231E+04  0.26242522231E+04  0.50400001928E-02 0. -1.
    10030    2    1    2    0    0  0.00000000000E+00  0.00000000000E+00 -0.14575250376E+04  0.37909794085E+04  0.34995922106E+04 0.  0.
        4    1    3    3  502    0  0.13108811014E+04  0.89412537805E+03  0.70150759335E+02  0.15883300022E+04  0.12699999809E+01 0.  1.
       -4    1    3    3    0  502 -0.13108811014E+04 -0.89412537805E+03 -0.15276757970E+04  0.22026494064E+04  0.12699999809E+01 0. -1.
</event>
<event>
 5   0  0.3628017E-08  0.3499919E+04  0.7818609E-02  0.8113809E-01
       -2   -1    0    0    0  501  0.00000000000E+00  0.00000000000E+00  0.14108749029E+04  0.14108749029E+04  0.25500000920E-02 0. -1.
        2   -1    0    0  501    0  0.00000000000E+00  0.00000000000E+00 -0.21705385520E+04  0.21705385520E+04  0.25500000920E-02 0.  1.
    10030    2    1    2    0    0  0.00000000000E+00  0.00000000000E+00 -0.75966364911E+03  0.35814134549E+04  0.34999190669E+04 0.  0.
        1    1    3    3  502    0 -0.12322202707E+04  0.78725902625E+03 -0.13635776859E+04  0.19993718202E+04  0.50400001928E-02 0.  1.
       -1    1    3    3    0  502  0.12322202707E+04 -0.78725902625E+03  0.60391403679E+03  0.15820416347E+04  0.50400001928E-02 0. -1.
</event>
<event>
 5   0  0.1121462E-08  0.3497935E+04  0.7818609E-02  0.8114280E-01
       -1   -1    0    0    0  501  0.00000000000E+00  0.00000000000E+00  0.20686418464E+04  0.20686418464E+04  0.50400001928E-02 0. -1.
        1   -1    0    0  501    0  0.00000000000E+00  0.00000000000E+00 -0.14786934970E+04  0.14786934970E+04  0.50400001928E-02 0.  1.
    10030    2    1    2    0    0  0.00000000000E+00  0.00000000000E+00  0.58994834941E+03  0.35473353435E+04  0.34979349600E+04 0.  0.
        1    1    3    3  502    0  0.52352592361E+03  0.16446272273E+04  0.58182777667E+03  0.18213735672E+04  0.50400001928E-02 0. -1.
       -1    1    3    3    0  502 -0.52352592361E+03 -0.16446272273E+04  0.81205727376E+01  0.17259617763E+04  0.50400001928E-02 0.  1.
</event>
<event>
 5   0  0.3628017E-08  0.3501081E+04  0.7818609E-02  0.8113534E-01
       -2   -1    0    0    0  501  0.00000000000E+00  0.00000000000E+00  0.27029517487E+04  0.27029517487E+04  0.25500000920E-02 0. -1.
        2   -1    0    0  501    0  0.00000000000E+00  0.00000000000E+00 -0.11337204166E+04  0.11337204166E+04  0.25500000920E-02 0.  1.
    10030    2    1    2    0    0  0.00000000000E+00  0.00000000000E+00  0.15692313322E+04  0.38366721653E+04  0.35010807374E+04 0.  0.
        1    1    3    3  502    0 -0.93681443805E+03  0.76215997589E+03  0.21733188874E+04  0.24863274335E+04  0.50400001928E-02 0. -1.
       -1    1    3    3    0  502  0.93681443805E+03 -0.76215997589E+03 -0.60408755525E+03  0.13503447318E+04  0.50400001928E-02 0.  1.
</event>
<event>
 5   0  0.1121462E-08  0.3499803E+04  0.7818609E-02  0.8113837E-01
       -1   -1    0    0    0  501  0.00000000000E+00  0.00000000000E+00  0.16916902862E+04  0.16916902862E+04  0.50400001928E-02 0. -1.
        1   -1    0    0  501    0  0.00000000000E+00  0.00000000000E+00 -0.18101152939E+04  0.18101152939E+04  0.50400001928E-02 0.  1.
    10030    2    1    2    0    0  0.00000000000E+00  0.00000000000E+00 -0.11842500772E+03  0.35018055802E+04  0.34998025428E+04 0.  0.
        4    1    3    3  502    0 -0.11761609038E+04  0.47363087860E+03  0.11474927272E+04  0.17100941064E+04  0.12699999809E+01 0. -1.
       -4    1    3    3    0  502  0.11761609038E+04 -0.47363087860E+03 -0.12659177349E+04  0.17917114738E+04  0.12699999809E+01 0.  1.
</event>
<event>
 5   0  0.3553585E-08  0.3499898E+04  0.7818609E-02  0.8113814E-01
       -2   -1    0    0    0  501  0.00000000000E+00  0.00000000000E+00  0.11146929169E+04  0.11146929169E+04  0.25500000920E-02 0. -1.
        2   -1    0    0  501    0  0.00000000000E+00  0.00000000000E+00 -0.27472330460E+04  0.27472330460E+04  0.25500000920E-02 0.  1.
    10030    2    1    2    0    0  0.00000000000E+00  0.00000000000E+00 -0.16325401291E+04  0.38619259630E+04  0.34998978371E+04 0.  0.
        2    1    3    3  502    0  0.32626879471E+03  0.12587396417E+04  0.47595356986E+03  0.13847052440E+04  0.25500000920E-02 0. -1.
       -2    1    3    3    0  502 -0.32626879471E+03 -0.12587396417E+04 -0.21084936990E+04  0.24772207190E+04  0.25500000920E-02 0.  1.
</event>
<event>
 5   0  0.3553585E-08  0.3502874E+04  0.7818609E-02  0.8113109E-01
       -2   -1    0    0    0  501  0.00000000000E+00  0.00000000000E+00  0.13172966329E+04  0.13172966329E+04  0.25500000920E-02 0. -1.
        2   -1    0    0  501    0  0.00000000000E+00  0.00000000000E+00 -0.23286562428E+04  0.23286562428E+04  0.25500000920E-02 0.  1.
    10030    2    1    2    0    0  0.00000000000E+00  0.00000000000E+00 -0.10113596099E+04  0.36459528757E+04  0.35028736933E+04 0.  0.
        2    1    3    3  502    0 -0.22441798520E+03  0.10886120255E+04 -0.19145148546E+04  0.22137765702E+04  0.25500000920E-02 0.  1.
       -2    1    3    3    0  502  0.22441798520E+03 -0.10886120255E+04  0.90315524464E+03  0.14321763055E+04  0.25500000920E-02 0. -1.
</event>
<event>
 5   0  0.1121462E-08  0.3500327E+04  0.7818609E-02  0.8113713E-01
        1   -1    0    0  501    0  0.00000000000E+00  0.00000000000E+00  0.16117653900E+04  0.16117653900E+04  0.50400001928E-02 0. -1.
       -1   -1    0    0    0  501  0.00000000000E+00  0.00000000000E+00 -0.19004451324E+04  0.19004451324E+04  0.50400001928E-02 0.  1.
    10030    2    1    2    0    0  0.00000000000E+00  0.00000000000E+00 -0.28867974247E+03  0.35122105224E+04  0.35003266647E+04 0.  0.
        4    1    3    3  502    0  0.24535112237E+03  0.16309807167E+04 -0.73179731337E+03  0.18043902549E+04  0.12699999809E+01 0. -1.
       -4    1    3    3    0  502 -0.24535112237E+03 -0.16309807167E+04  0.44311757090E+03  0.17078202675E+04  0.12699999809E+01 0.  1.
</event>
<event>
 5   0  0.1129219E-08  0.3500066E+04  0.7818609E-02  0.8113774E-01
        1   -1    0    0  501    0  0.00000000000E+00  0.00000000000E+00  0.26441751094E+04  0.26441751094E+04  0.50400001928E-02 0. -1.
       -1   -1    0    0    0  501  0.00000000000E+00  0.00000000000E+00 -0.11582500873E+04  0.11582500873E+04  0.50400001928E-02 0.  1.
    10030    2    1    2    0    0  0.00000000000E+00  0.00000000000E+00  0.14859250221E+04  0.38024251966E+04  0.35000663143E+04 0.  0.
        5    1    3    3  502    0  0.76788183649E+03 -0.56863439521E+03  0.23357721552E+04  0.25236563239E+04  0.46999998093E+01 0. -1.
       -5    1    3    3    0  502 -0.76788183649E+03  0.56863439521E+03 -0.84984713309E+03  0.12787688727E+04  0.46999998093E+01 0.  1.
</event>
<event>
 5   0  0.1121462E-08  0.3499989E+04  0.7818609E-02  0.8113793E-01
        1   -1    0    0  501    0  0.00000000000E+00  0.00000000000E+00  0.15844365222E+04  0.15844365222E+04  0.50400001928E-02 0.  1.
       -1   -1    0    0    0  501  0.00000000000E+00  0.00000000000E+00 -0.19328513482E+04  0.19328513482E+04  0.50400001928E-02 0. -1.
    10030    2    1    2    0    0  0.00000000000E+00  0.00000000000E+00 -0.34841482605E+03  0.35172878704E+04  0.34999887246E+04 0.  0.
        2    1    3    3  502    0 -0.16059781050E+04 -0.68815330361E+03 -0.27348651444E+03  0.17684783054E+04  0.25500000920E-02 0.  1.
       -2    1    3    3    0  502  0.16059781050E+04  0.68815330361E+03 -0.74928311603E+02  0.17488095651E+04  0.25500000920E-02 0. -1.
</event>
<event>
 5   0  0.3467834E-08  0.3503063E+04  0.7818609E-02  0.8113065E-01
       -2   -1    0    0    0  501  0.00000000000E+00  0.00000000000E+00  0.16161485024E+04  0.16161485024E+04  0.25500000920E-02 0.  1.
        2   -1    0    0  501    0  0.00000000000E+00  0.00000000000E+00 -0.18982548627E+04  0.18982548627E+04  0.25500000920E-02 0. -1.
    10030    2    1    2    0    0  0.00000000000E+00  0.00000000000E+00 -0.28210636030E+03  0.35144033652E+04  0.35030625194E+04 0.  0.
        3    1    3    3  502    0  0.17223421400E+04 -0.31419774196E+03 -0.19298053127E+03  0.17613699679E+04  0.10100000352E+00 0. -1.
       -3    1    3    3    0  502 -0.17223421400E+04  0.31419774196E+03 -0.89125829026E+02  0.17530333973E+04  0.10100000352E+00 0.  1.
</event>
<event>
 5   0  0.1121462E-08  0.3497557E+04  0.7818609E-02  0.8114369E-01
       -1   -1    0    0    0  501  0.00000000000E+00  0.00000000000E+00  0.16297975498E+04  0.16297975498E+04  0.50400001928E-02 0.  1.
        1   -1    0    0  501    0  0.00000000000E+00  0.00000000000E+00 -0.18764456337E+04  0.18764456337E+04  0.50400001928E-02 0. -1.
    10030    2    1    2    0    0  0.00000000000E+00  0.00000000000E+00 -0.24664808395E+03  0.35062431835E+04  0.34975571453E+04 0.  0.
        2    1    3    3  502    0  0.17009490278E+04 -0.41265921920E+02  0.28177854968E+03  0.17246244874E+04  0.25500000920E-02 0.  1.
       -2    1    3    3    0  502 -0.17009490278E+04  0.41265921920E+02 -0.52842663363E+03  0.17816186962E+04  0.25500000920E-02 0. -1.
</event>
<event>
 5   0  0.1121462E-08  0.3499917E+04  0.7818609E-02  0.8113810E-01
        1   -1    0    0  501    0  0.00000000000E+00  0.00000000000E+00  0.26197548988E+04  0.26197548988E+04  0.50400001928E-02 0.  1.
       -1   -1    0    0    0  501  0.00000000000E+00  0.00000000000E+00 -0.11689470048E+04  0.11689470048E+04  0.50400001928E-02 0. -1.
    10030    2    1    2    0    0  0.00000000000E+00  0.00000000000E+00  0.14508078940E+04  0.37887019036E+04  0.34999169374E+04 0.  0.
        1    1    3    3  502    0 -0.10543953693E+04 -0.12350785429E+04  0.19538054487E+02  0.16240536745E+04  0.50400001928E-02 0. -1.
       -1    1    3    3    0  502  0.10543953693E+04  0.12350785429E+04  0.14312698395E+04  0.21646482291E+04  0.50400001928E-02 0.  1.
</event>
<event>
 5   0  0.3628017E-08  0.3522578E+04  0.7818609E-02  0.8108460E-01
        2   -1    0    0  501    0  0.00000000000E+00  0.00000000000E+00  0.18966611011E+04  0.18966611011E+04  0.25500000920E-02 0.  1.
       -2   -1    0    0    0  501  0.00000000000E+00  0.00000000000E+00 -0.16355793720E+04  0.16355793720E+04  0.25500000920E-02 0. -1.
    10030    2    1    2    0    0  0.00000000000E+00  0.00000000000E+00  0.26108172916E+03  0.35322404731E+04  0.35225784719E+04 0.  0.
        1    1    3    3  502    0 -0.23321205402E+03  0.50164974596E+02  0.18803876326E+04  0.18954582653E+04  0.50400001928E-02 0.  1.
       -1    1    3    3    0  502  0.23321205402E+03 -0.50164974596E+02 -0.16193059034E+04  0.16367822078E+04  0.50400001928E-02 0. -1.
</event>
<event>
 5   0  0.1121462E-08  0.3498194E+04  0.7818609E-02  0.8114218E-01
        3   -1    0    0  501    0  0.00000000000E+00  0.00000000000E+00  0.19475619543E+04  0.19475619569E+04  0.10100000352E+00 0.  1.
       -3   -1    0    0    0  501  0.00000000000E+00  0.00000000000E+00 -0.15708561294E+04  0.15708561326E+04  0.10100000352E+00 0. -1.
    10030    2    1    2    0    0  0.00000000000E+00  0.00000000000E+00  0.37670582497E+03  0.35184180896E+04  0.34981936159E+04 0.  0.
        1    1    3    3  502    0 -0.10388929579E+03 -0.92018682318E+03  0.16807789543E+04  0.19189983504E+04  0.50400001928E-02 0.  1.
       -1    1    3    3    0  502  0.10388929579E+03  0.92018682318E+03 -0.13040731294E+04  0.15994197392E+04  0.50400001928E-02 0. -1.
</event>
<event>
 5   0  0.1129219E-08  0.3501309E+04  0.7818609E-02  0.8113480E-01
       -1   -1    0    0    0  501  0.00000000000E+00  0.00000000000E+00  0.12735659229E+04  0.12735659229E+04  0.50400001928E-02 0.  1.
        1   -1    0    0  501    0  0.00000000000E+00  0.00000000000E+00 -0.24064644315E+04  0.24064644315E+04  0.50400001928E-02 0. -1.
    10030    2    1    2    0    0  0.00000000000E+00  0.00000000000E+00 -0.11328985085E+04  0.36800303544E+04  0.35013089522E+04 0.  0.
        5    1    3    3  502    0  0.17242528353E+04 -0.61975536775E+01 -0.88469660317E+03  0.19379877242E+04  0.46999998093E+01 0.  1.
       -5    1    3    3    0  502 -0.17242528353E+04  0.61975536775E+01 -0.24820190536E+03  0.17420426302E+04  0.46999998093E+01 0. -1.
</event>
<event>
 5   0  0.3553585E-08  0.3499135E+04  0.7818609E-02  0.8113995E-01
       -2   -1    0    0    0  501  0.00000000000E+00  0.00000000000E+00  0.19568453846E+04  0.19568453846E+04  0.25500000920E-02 0. -1.
        2   -1    0    0  501    0  0.00000000000E+00  0.00000000000E+00 -0.15642449797E+04  0.15642449797E+04  0.25500000920E-02 0.  1.
    10030    2    1    2    0    0  0.00000000000E+00  0.00000000000E+00  0.39260040489E+03  0.35210903642E+04  0.34991345037E+04 0.  0.
        2    1    3    3  502    0  0.17075821991E+04  0.42677961302E+01 -0.18705001370E+03  0.17178017605E+04  0.25500000920E-02 0.  1.
       -2    1    3    3    0  502 -0.17075821991E+04 -0.42677961302E+01  0.57965041859E+03  0.18032886037E+04  0.25500000920E-02 0. -1.
</event>
<event>
 5   0  0.3553585E-08  0.3499858E+04  0.7818609E-02  0.8113824E-01
        2   -1    0    0  501    0  0.00000000000E+00  0.00000000000E+00  0.27645401122E+04  0.27645401122E+04  0.25500000920E-02 0. -1.
       -2   -1    0    0    0  501  0.00000000000E+00  0.00000000000E+00 -0.11076891494E+04  0.11076891494E+04  0.25500000920E-02 0.  1.
    10030    2    1    2    0    0  0.00000000000E+00  0.00000000000E+00  0.16568509628E+04  0.38722292616E+04  0.34998577602E+04 0.  0.
        2    1    3    3  502    0  0.37392901421E+02 -0.75977974570E+03 -0.91518876634E+03  0.11900562882E+04  0.25500000920E-02 0.  1.
       -2    1    3    3    0  502 -0.37392901421E+02  0.75977974570E+03  0.25720397291E+04  0.26821729734E+04  0.25500000920E-02 0. -1.
</event>
<event>
 5   0  0.1140808E-08  0.3500993E+04  0.7818609E-02  0.8113555E-01
        1   -1    0    0  501    0  0.00000000000E+00  0.00000000000E+00  0.19709366319E+04  0.19709366319E+04  0.50400001928E-02 0.  1.
       -1   -1    0    0    0  501  0.00000000000E+00  0.00000000000E+00 -0.15547117056E+04  0.15547117056E+04  0.50400001928E-02 0. -1.
    10030    2    1    2    0    0  0.00000000000E+00  0.00000000000E+00  0.41622492628E+03  0.35256483375E+04  0.35009931463E+04 0.  0.
        3    1    3    3  502    0 -0.76176366688E+03  0.15188162467E+04  0.63197031263E+03  0.18128632496E+04  0.10100000352E+00 0.  1.
       -3    1    3    3    0  502  0.76176366688E+03 -0.15188162467E+04 -0.21574538634E+03  0.17127850879E+04  0.10100000352E+00 0. -1.
</event>
<event>
 5   0  0.3554451E-08  0.3500360E+04  0.7818609E-02  0.8113705E-01
       -2   -1    0    0    0  501  0.00000000000E+00  0.00000000000E+00  0.13564208517E+04  0.13564208517E+04  0.25500000920E-02 0. -1.
        2   -1    0    0  501    0  0.00000000000E+00  0.00000000000E+00 -0.22582448692E+04  0.22582448692E+04  0.25500000920E-02 0.  1.
    10030    2    1    2    0    0  0.00000000000E+00  0.00000000000E+00 -0.90182401752E+03  0.36146657209E+04  0.35003602265E+04 0.  0.
        5    1    3    3  502    0  0.61879624230E+01 -0.17577260609E+02  0.13563118876E+04  0.13564480372E+04  0.46999998093E+01 0. -1.
       -5    1    3    3    0  502 -0.61879624230E+01  0.17577260609E+02 -0.22581359052E+04  0.22582176837E+04  0.46999998093E+01 0.  1.
</event>
<event>
 5   0  0.1121462E-08  0.3494143E+04  0.7818609E-02  0.8115179E-01
       -1   -1    0    0    0  501  0.00000000000E+00  0.00000000000E+00  0.17288258901E+04  0.17288258901E+04  0.50400001928E-02 0.  1.
        1   -1    0    0  501    0  0.00000000000E+00  0.00000000000E+00 -0.17655093600E+04  0.17655093600E+04  0.50400001928E-02 0. -1.
    10030    2    1    2    0    0  0.00000000000E+00  0.00000000000E+00 -0.36683469950E+02  0.34943352501E+04  0.34941426936E+04 0.  0.
        4    1    3    3  502    0 -0.61322349547E+02 -0.16804510555E+04 -0.49226709902E+03  0.17521428852E+04  0.12699999809E+01 0. -1.
       -4    1    3    3    0  502  0.61322349547E+02  0.16804510555E+04  0.45558362907E+03  0.17421923649E+04  0.12699999809E+01 0.  1.
</event>
<event>
 5   0  0.3553585E-08  0.3500584E+04  0.7818609E-02  0.8113652E-01
       -2   -1    0    0    0  501  0.00000000000E+00  0.00000000000E+00  0.14353782410E+04  0.14353782410E+04  0.25500000920E-02 0. -1.
        2   -1    0    0  501    0  0.00000000000E+00  0.00000000000E+00 -0.21342961936E+04  0.21342961936E+04  0.25500000920E-02 0.  1.
    10030    2    1    2    0    0  0.00000000000E+00  0.00000000000E+00 -0.69891795264E+03  0.35696744346E+04  0.35005841319E+04 0.  0.
        2    1    3    3  502    0  0.97013690135E+03 -0.13407320847E+04 -0.93061428909E+03  0.18986234712E+04  0.25500000920E-02 0. -1.
       -2    1    3    3    0  502 -0.97013690135E+03  0.13407320847E+04  0.23169633644E+03  0.16710509635E+04  0.25500000920E-02 0.  1.
</event>
<event>
 5   0  0.1129219E-08  0.3493913E+04  0.7818609E-02  0.8115234E-01
       -1   -1    0    0    0  501  0.00000000000E+00  0.00000000000E+00  0.16072417733E+04  0.16072417733E+04  0.50400001928E-02 0. -1.
        1   -1    0    0  501    0  0.00000000000E+00  0.00000000000E+00 -0.18988165338E+04  0.18988165338E+04  0.50400001928E-02 0.  1.
    10030    2    1    2    0    0  0.00000000000E+00  0.00000000000E+00 -0.29157476045E+03  0.35060583071E+04  0.34939131374E+04 0.  0.
        5    1    3    3  502    0  0.62683307809E+03  0.87015306919E+02  0.14881674746E+04  0.16171443639E+04  0.46999998093E+01 0. -1.
       -5    1    3    3    0  502 -0.62683307809E+03 -0.87015306919E+02 -0.17797422350E+04  0.18889139431E+04  0.46999998093E+01 0.  1.
</event>
<event>
 5   0  0.1121462E-08  0.3499261E+04  0.7818609E-02  0.8113965E-01
       -3   -1    0    0    0  501  0.00000000000E+00  0.00000000000E+00  0.15122870865E+04  0.15122870898E+04  0.10100000352E+00 0. -1.
        3   -1    0    0  501    0  0.00000000000E+00  0.00000000000E+00 -0.20242232914E+04  0.20242232939E+04  0.10100000352E+00 0.  1.
    10030    2    1    2    0    0  0.00000000000E+00  0.00000000000E+00 -0.51193620488E+03  0.35365103837E+04  0.34992609243E+04 0.  0.
        1    1    3    3  502    0  0.93031344794E+02 -0.21451546713E+03 -0.20083620525E+04  0.20219272615E+04  0.50400001928E-02 0.  1.
       -1    1    3    3    0  502 -0.93031344794E+02  0.21451546713E+03  0.14964258476E+04  0.15145831222E+04  0.50400001928E-02 0. -1.
</event>
<event>
 5   0  0.1121462E-08  0.3501440E+04  0.7818609E-02  0.8113449E-01
       -1   -1    0    0    0  501  0.00000000000E+00  0.00000000000E+00  0.15774887195E+04  0.15774887195E+04  0.50400001928E-02 0.  1.
        1   -1    0    0  501    0  0.00000000000E+00  0.00000000000E+00 -0.19429740850E+04  0.19429740850E+04  0.50400001928E-02 0. -1.
    10030    2    1    2    0    0  0.00000000000E+00  0.00000000000E+00 -0.36548536556E+03  0.35204628045E+04  0.35014395333E+04 0.  0.
        2    1    3    3  502    0 -0.24049840111E+02  0.14796985392E+04  0.75771803855E+03  0.16625951966E+04  0.25500000920E-02 0.  1.
       -2    1    3    3    0  502  0.24049840111E+02 -0.14796985392E+04 -0.11232034041E+04  0.18578676080E+04  0.25500000920E-02 0. -1.
</event>
<event>
 5   0  0.1129219E-08  0.3499424E+04  0.7818609E-02  0.8113926E-01
       -1   -1    0    0    0  501  0.00000000000E+00  0.00000000000E+00  0.26716792461E+04  0.26716792461E+04  0.50400001928E-02 0. -1.
        1   -1    0    0  501    0  0.00000000000E+00  0.00000000000E+00 -0.11459056217E+04  0.11459056218E+04  0.50400001928E-02 0.  1.
    10030    2    1    2    0    0  0.00000000000E+00  0.00000000000E+00  0.15257736243E+04  0.38175848678E+04  0.34994241055E+04 0.  0.
        5    1    3    3  502    0 -0.16301751482E+03  0.16615920930E+04  0.19183817941E+03  0.16805615046E+04  0.46999998093E+01 0. -1.
       -5    1    3    3    0  502  0.16301751482E+03 -0.16615920930E+04  0.13339354449E+04  0.21370233632E+04  0.46999998093E+01 0.  1.
</event>
<event>
 5   0  0.3553585E-08  0.3496035E+04  0.7818609E-02  0.8114730E-01
        2   -1    0    0  501    0  0.00000000000E+00  0.00000000000E+00  0.19061141360E+04  0.19061141360E+04  0.25500000920E-02 0. -1.
       -2   -1    0    0    0  501  0.00000000000E+00  0.00000000000E+00 -0.16030340302E+04  0.16030340302E+04  0.25500000920E-02 0.  1.
    10030    2    1    2    0    0  0.00000000000E+00  0.00000000000E+00  0.30308010583E+03  0.35091481662E+04  0.34960353691E+04 0.  0.
        2    1    3    3  502    0 -0.24858905635E+03 -0.19849979948E+03 -0.15737341153E+04  0.16055646219E+04  0.25500000920E-02 0.  1.
       -2    1    3    3    0  502  0.24858905635E+03  0.19849979948E+03  0.18768142212E+04  0.19035835443E+04  0.25500000920E-02 0. -1.
</event>
<event>
 5   0  0.3553585E-08  0.3500504E+04  0.7818609E-02  0.8113671E-01
        2   -1    0    0  501    0  0.00000000000E+00  0.00000000000E+00  0.17427443712E+04  0.17427443712E+04  0.25500000920E-02 0.  1.
       -2   -1    0    0    0  501  0.00000000000E+00  0.00000000000E+00 -0.17577918207E+04  0.17577918207E+04  0.25500000920E-02 0. -1.
    10030    2    1    2    0    0  0.00000000000E+00  0.00000000000E+00 -0.15047449493E+02  0.35005361920E+04  0.35005038503E+04 0.  0.
        2    1    3    3  502    0 -0.16644061386E+04  0.51278145220E+03 -0.18127569527E+03  0.17510149884E+04  0.25500000920E-02 0. -1.
       -2    1    3    3    0  502  0.16644061386E+04 -0.51278145220E+03  0.16622824578E+03  0.17495212036E+04  0.25500000920E-02 0.  1.
</event>
<event>
 5   0  0.1121462E-08  0.3501711E+04  0.7818609E-02  0.8113385E-01
        1   -1    0    0  501    0  0.00000000000E+00  0.00000000000E+00  0.17540107626E+04  0.17540107626E+04  0.50400001928E-02 0.  1.
       -1   -1    0    0    0  501  0.00000000000E+00  0.00000000000E+00 -0.17477060518E+04  0.17477060518E+04  0.50400001928E-02 0. -1.
    10030    2    1    2    0    0  0.00000000000E+00  0.00000000000E+00  0.63047107625E+01  0.35017168144E+04  0.35017111387E+04 0.  0.
        4    1    3    3  502    0 -0.10236188930E+04 -0.69697899673E+03  0.12408612136E+04  0.17530868559E+04  0.12699999809E+01 0.  1.
       -4    1    3    3    0  502  0.10236188930E+04  0.69697899673E+03 -0.12345565029E+04  0.17486299585E+04  0.12699999809E+01 0. -1.
</event>
<event>
 5   0  0.3700096E-08  0.3497860E+04  0.7818609E-02  0.8114297E-01
       -2   -1    0    0    0  501  0.00000000000E+00  0.00000000000E+00  0.12060086153E+04  0.12060086153E+04  0.25500000920E-02 0.  1.
        2   -1    0    0  501    0  0.00000000000E+00  0.00000000000E+00 -0.25362643021E+04  0.25362643021E+04  0.25500000920E-02 0. -1.
    10030    2    1    2    0    0  0.00000000000E+00  0.00000000000E+00 -0.13302556868E+04  0.37422729174E+04  0.34978602597E+04 0.  0.
        4    1    3    3  502    0 -0.15986087686E+04 -0.59633742015E+03 -0.25411388416E+03  0.17250344323E+04  0.12699999809E+01 0. -1.
       -4    1    3    3    0  502  0.15986087686E+04  0.59633742015E+03 -0.10761418027E+04  0.20172384851E+04  0.12699999809E+01 0.  1.
</event>
<event>
 5   0  0.1121462E-08  0.3500874E+04  0.7818609E-02  0.8113583E-01
       -3   -1    0    0    0  501  0.00000000000E+00  0.00000000000E+00  0.13437483846E+04  0.13437483884E+04  0.10100000352E+00 0. -1.
        3   -1    0    0  501    0  0.00000000000E+00  0.00000000000E+00 -0.22802113811E+04  0.22802113833E+04  0.10100000352E+00 0.  1.
    10030    2    1    2    0    0  0.00000000000E+00  0.00000000000E+00 -0.93646299650E+03  0.36239597717E+04  0.35008743884E+04 0.  0.
        1    1    3    3  502    0  0.11959887220E+04  0.75933240970E+03  0.59604816441E+03  0.15369606846E+04  0.50400001928E-02 0. -1.
       -1    1    3    3    0  502 -0.11959887220E+04 -0.75933240970E+03 -0.15325111609E+04  0.20869990872E+04  0.50400001928E-02 0.  1.
</event>
<event>
 5   0  0.1129219E-08  0.3500136E+04  0.7818609E-02  0.8113758E-01
        1   -1    0    0  501    0  0.00000000000E+00  0.00000000000E+00  0.14340039483E+04  0.14340039483E+04  0.50400001928E-02 0. -1.
       -1   -1    0    0    0  501  0.00000000000E+00  0.00000000000E+00 -0.21357945947E+04  0.21357945947E+04  0.50400001928E-02 0.  1.
    10030    2    1    2    0    0  0.00000000000E+00  0.00000000000E+00 -0.70179064642E+03  0.35697985430E+04  0.35001359297E+04 0.  0.
        5    1    3    3  502    0 -0.13219900702E+04 -0.11093403784E+04 -0.54557872633E+02  0.17266419641E+04  0.46999998093E+01 0.  1.
       -5    1    3    3    0  502  0.13219900702E+04  0.11093403784E+04 -0.64723277379E+03  0.18431565789E+04  0.46999998093E+01 0. -1.
</event>
<event>
 5   0  0.3553585E-08  0.3524548E+04  0.7818609E-02  0.8107997E-01
        2   -1    0    0  501    0  0.00000000000E+00  0.00000000000E+00  0.18243248315E+04  0.18243248316E+04  0.25500000920E-02 0.  1.
       -2   -1    0    0    0  501  0.00000000000E+00  0.00000000000E+00 -0.17023339146E+04  0.17023339146E+04  0.25500000920E-02 0. -1.
    10030    2    1    2    0    0  0.00000000000E+00  0.00000000000E+00  0.12199091699E+03  0.35266587461E+04  0.35245482161E+04 0.  0.
        2    1    3    3  502    0 -0.48378391801E+03 -0.92362281785E+03 -0.13605889175E+04  0.17141552414E+04  0.25500000920E-02 0. -1.
       -2    1    3    3    0  502  0.48378391801E+03  0.92362281785E+03  0.14825798345E+04  0.18125035047E+04  0.25500000920E-02 0.  1.
</event>
<event>
 5   0  0.1121462E-08  0.3501030E+04  0.7818609E-02  0.8113546E-01
       -1   -1    0    0    0  501  0.00000000000E+00  0.00000000000E+00  0.17643302131E+04  0.17643302131E+04  0.50400001928E-02 0.  1.
        1   -1    0    0  501    0  0.00000000000E+00  0.00000000000E+00 -0.17368076198E+04  0.17368076198E+04  0.50400001928E-02 0. -1.
    10030    2    1    2    0    0  0.00000000000E+00  0.00000000000E+00  0.27522593299E+02  0.35011378329E+04  0.35010296531E+04 0.  0.
        1    1    3    3  502    0  0.23107442114E+03  0.10156944827E+04  0.14206706065E+04  0.17616286903E+04  0.50400001928E-02 0.  1.
       -1    1    3    3    0  502 -0.23107442114E+03 -0.10156944827E+04 -0.13931480132E+04  0.17395091426E+04  0.50400001928E-02 0. -1.
</event>
<event>
 5   0  0.3553585E-08  0.3500891E+04  0.7818609E-02  0.8113579E-01
        2   -1    0    0  501    0  0.00000000000E+00  0.00000000000E+00  0.13780708099E+04  0.13780708099E+04  0.25500000920E-02 0. -1.
       -2   -1    0    0    0  501  0.00000000000E+00  0.00000000000E+00 -0.22234416063E+04  0.22234416063E+04  0.25500000920E-02 0.  1.
    10030    2    1    2    0    0  0.00000000000E+00  0.00000000000E+00 -0.84537079640E+03  0.36015124161E+04  0.35008913008E+04 0.  0.
        2    1    3    3  502    0 -0.36328306481E+03 -0.25877319522E+03 -0.21640023828E+04  0.22094896389E+04  0.25500000920E-02 0.  1.
       -2    1    3    3    0  502  0.36328306481E+03  0.25877319522E+03  0.13186315864E+04  0.13920227772E+04  0.25500000920E-02 0. -1.
</event>
<event>
 5   0  0.3553585E-08  0.3499568E+04  0.7818609E-02  0.8113892E-01
       -2   -1    0    0    0  501  0.00000000000E+00  0.00000000000E+00  0.17082848030E+04  0.17082848030E+04  0.25500000920E-02 0.  1.
        2   -1    0    0  501    0  0.00000000000E+00  0.00000000000E+00 -0.17922908923E+04  0.17922908923E+04  0.25500000920E-02 0. -1.
    10030    2    1    2    0    0  0.00000000000E+00  0.00000000000E+00 -0.84006089326E+02  0.35005756953E+04  0.34995675698E+04 0.  0.
        2    1    3    3  502    0 -0.36658091472E+02 -0.48981393099E+03 -0.17219158477E+04  0.17906020466E+04  0.25500000920E-02 0. -1.
       -2    1    3    3    0  502  0.36658091472E+02  0.48981393099E+03  0.16379097584E+04  0.17099736487E+04  0.25500000920E-02 0.  1.
</event>
<event>
 5   0  0.1140808E-08  0.3500121E+04  0.7818609E-02  0.8113761E-01
        1   -1    0    0  501    0  0.00000000000E+00  0.00000000000E+00  0.11078389001E+04  0.11078389002E+04  0.50400001928E-02 0.  1.
       -1   -1    0    0    0  501  0.00000000000E+00  0.00000000000E+00 -0.27645815287E+04  0.27645815287E+04  0.50400001928E-02 0. -1.
    10030    2    1    2    0    0  0.00000000000E+00  0.00000000000E+00 -0.16567426286E+04  0.38724204289E+04  0.35001205466E+04 0.  0.
        3    1    3    3  502    0  0.13056987850E+04  0.34588735264E+03 -0.20594874807E+04  0.24629202324E+04  0.10100000352E+00 0. -1.
       -3    1    3    3    0  502 -0.13056987850E+04 -0.34588735264E+03  0.40274485211E+03  0.14095001965E+04  0.10100000352E+00 0.  1.
</event>
<event>
 5   0  0.1121462E-08  0.3498648E+04  0.7818609E-02  0.8114110E-01
       -1   -1    0    0    0  501  0.00000000000E+00  0.00000000000E+00  0.31290173859E+04  0.31290173859E+04  0.50400001928E-02 0. -1.
        1   -1    0    0  501    0  0.00000000000E+00  0.00000000000E+00 -0.97798599692E+03  0.97798599693E+03  0.50400001928E-02 0.  1.
    10030    2    1    2    0    0  0.00000000000E+00  0.00000000000E+00  0.21510313890E+04  0.41070033828E+04  0.34986484176E+04 0.  0.
        1    1    3    3  502    0 -0.43069380076E+03  0.16930755453E+04  0.96964971242E+03  0.19980546832E+04  0.50400001928E-02 0. -1.
       -1    1    3    3    0  502  0.43069380076E+03 -0.16930755453E+04  0.11813816766E+04  0.21089486997E+04  0.50400001928E-02 0.  1.
</event>
<event>
 5   0  0.1140808E-08  0.3500699E+04  0.7818609E-02  0.8113624E-01
       -1   -1    0    0    0  501  0.00000000000E+00  0.00000000000E+00  0.23994132810E+04  0.23994132810E+04  0.50400001928E-02 0. -1.
        1   -1    0    0  501    0  0.00000000000E+00  0.00000000000E+00 -0.12768634399E+04  0.12768634399E+04  0.50400001928E-02 0.  1.
    10030    2    1    2    0    0  0.00000000000E+00  0.00000000000E+00  0.11225498411E+04  0.36762767209E+04  0.35006988421E+04 0.  0.
        3    1    3    3  502    0  0.11127100583E+04  0.13190035945E+04  0.86893439303E+03  0.19320820753E+04  0.10100000352E+00 0.  1.
       -3    1    3    3    0  502 -0.11127100583E+04 -0.13190035945E+04  0.25361544811E+03  0.17441946456E+04  0.10100000352E+00 0. -1.
</event>
<event>
 5   0  0.1121462E-08  0.3499064E+04  0.7818609E-02  0.8114012E-01
       -3   -1    0    0    0  501  0.00000000000E+00  0.00000000000E+00  0.13625714022E+04  0.13625714059E+04  0.10100000352E+00 0.  1.
        3   -1    0    0  501    0  0.00000000000E+00  0.00000000000E+00 -0.22463868879E+04  0.22463868901E+04  0.10100000352E+00 0. -1.
    10030    2    1    2    0    0  0.00000000000E+00  0.00000000000E+00 -0.88381548568E+03  0.36089582960E+04  0.34990641849E+04 0.  0.
        5    1    3    3  502    0  0.46524671084E+01  0.17007268839E+04 -0.18720582999E+02  0.17008427703E+04  0.46999998093E+01 0.  1.
       -5    1    3    3    0  502 -0.46524671084E+01 -0.17007268839E+04 -0.86509490268E+03  0.19081155258E+04  0.46999998093E+01 0. -1.
</event>
<event>
 5   0  0.1121462E-08  0.3500533E+04  0.7818609E-02  0.8113664E-01
        1   -1    0    0  501    0  0.00000000000E+00  0.00000000000E+00  0.24639063259E+04  0.24639063259E+04  0.50400001928E-02 0. -1.
       -1   -1    0    0    0  501  0.00000000000E+00  0.00000000000E+00 -0.12433236215E+04  0.12433236216E+04  0.50400001928E-02 0.  1.
    10030    2    1    2    0    0  0.00000000000E+00  0.00000000000E+00  0.12205827044E+04  0.37072299475E+04  0.35005330659E+04 0.  0.
        4    1    3    3  502    0 -0.38998481675E+03  0.12904171494E+04  0.17925252825E+04  0.22428582385E+04  0.12699999809E+01 0. -1.
       -4    1    3    3    0  502  0.38998481675E+03 -0.12904171494E+04 -0.57194257806E+03  0.14643717090E+04  0.12699999809E+01 0.  1.
</event>
<event>
 5   0  0.1121462E-08  0.3498941E+04  0.7818609E-02  0.8114041E-01
        1   -1    0    0  501    0  0.00000000000E+00  0.00000000000E+00  0.17834005230E+04  0.17834005230E+04  0.50400001928E-02 0.  1.
       -1   -1    0    0    0  501  0.00000000000E+00  0.00000000000E+00 -0.17161859883E+04  0.17161859883E+04  0.50400001928E-02 0. -1.
    10030    2    1    2    0    0  0.00000000000E+00  0.00000000000E+00  0.67214534681E+02  0.34995865113E+04  0.34989409764E+04 0.  0.
        4    1    3    3  502    0 -0.96834787766E+03  0.11981500994E+04  0.86284653540E+03  0.17657199748E+04  0.12699999809E+01 0.  1.
       -4    1    3    3    0  502  0.96834787766E+03 -0.11981500994E+04 -0.79563200072E+03  0.17338665365E+04  0.12699999809E+01 0. -1.
</event>
<event>
 5   0  0.3628017E-08  0.3499698E+04  0.7818609E-02  0.8113861E-01
        2   -1    0    0  501    0  0.00000000000E+00  0.00000000000E+00  0.13847816694E+04  0.13847816694E+04  0.25500000920E-02 0. -1.
       -2   -1    0    0    0  501  0.00000000000E+00  0.00000000000E+00 -0.22111586419E+04  0.22111586419E+04  0.25500000920E-02 0.  1.
    10030    2    1    2    0    0  0.00000000000E+00  0.00000000000E+00 -0.82637697254E+03  0.35959403113E+04  0.34996982472E+04 0.  0.
        1    1    3    3  502    0 -0.12032517481E+04  0.63729677596E+01 -0.17186056617E+04  0.20979658730E+04  0.50400001928E-02 0.  1.
       -1    1    3    3    0  502  0.12032517481E+04 -0.63729677596E+01  0.89222868915E+03  0.14979744383E+04  0.50400001928E-02 0. -1.
</event>
<event>
 5   0  0.3467834E-08  0.3499129E+04  0.7818609E-02  0.8113996E-01
       -2   -1    0    0    0  501  0.00000000000E+00  0.00000000000E+00  0.27569837364E+04  0.27569837364E+04  0.25500000920E-02 0.  1.
        2   -1    0    0  501    0  0.00000000000E+00  0.00000000000E+00 -0.11102626915E+04  0.11102626915E+04  0.25500000920E-02 0. -1.
    10030    2    1    2    0    0  0.00000000000E+00  0.00000000000E+00  0.16467210449E+04  0.38672464279E+04  0.34991291394E+04 0.  0.
        3    1    3    3  502    0 -0.35156681436E+03  0.58343175521E+03  0.26044122833E+04  0.26920169371E+04  0.10100000352E+00 0.  1.
       -3    1    3    3    0  502  0.35156681436E+03 -0.58343175521E+03 -0.95769123834E+03  0.11752294908E+04  0.10100000352E+00 0. -1.
</event>
<event>
 5   0  0.1121462E-08  0.3500319E+04  0.7818609E-02  0.8113714E-01
       -3   -1    0    0    0  501  0.00000000000E+00  0.00000000000E+00  0.11729232259E+04  0.11729232303E+04  0.10100000352E+00 0.  1.
        3   -1    0    0  501    0  0.00000000000E+00  0.00000000000E+00 -0.26114730797E+04  0.26114730816E+04  0.10100000352E+00 0. -1.
    10030    2    1    2    0    0  0.00000000000E+00  0.00000000000E+00 -0.14385498538E+04  0.37843963119E+04  0.35003185232E+04 0.  0.
        1    1    3    3  502    0 -0.58713232915E+03 -0.84547863112E+03 -0.22495996843E+04  0.24739153638E+04  0.50400001928E-02 0. -1.
       -1    1    3    3    0  502  0.58713232915E+03  0.84547863112E+03  0.81104983054E+03  0.13104809481E+04  0.50400001928E-02 0.  1.
</event>
<event>
 5   0  0.3553585E-08  0.3499994E+04  0.7818609E-02  0.8113791E-01
        2   -1    0    0  501    0  0.00000000000E+00  0.00000000000E+00  0.24422228688E+04  0.24422228688E+04  0.25500000920E-02 0.  1.
       -2   -1    0    0    0  501  0.00000000000E+00  0.00000000000E+00 -0.12539765271E+04  0.12539765271E+04  0.25500000920E-02 0. -1.
    10030    2    1    2    0    0  0.00000000000E+00  0.00000000000E+00  0.11882463417E+04  0.36961993958E+04  0.34999943722E+04 0.  0.
        2    1    3    3  502    0  0.30785177922E+03 -0.14969913224E+04 -0.30615331886E+03  0.15586807216E+04  0.25500000920E-02 0. -1.
       -2    1    3    3    0  502 -0.30785177922E+03  0.14969913224E+04  0.14943996606E+04  0.21375186742E+04  0.25500000920E-02 0.  1.
</event>
<event>
 5   0  0.3700096E-08  0.3500416E+04  0.7818609E-02  0.8113691E-01
        2   -1    0    0  501    0  0.00000000000E+00  0.00000000000E+00  0.11254988661E+04  0.11254988661E+04  0.25500000920E-02 0. -1.
       -2   -1    0    0    0  501  0.00000000000E+00  0.00000000000E+00 -0.27216621693E+04  0.27216621693E+04  0.25500000920E-02 0.  1.
    10030    2    1    2    0    0  0.00000000000E+00  0.00000000000E+00 -0.15961633031E+04  0.38471610354E+04  0.35004157956E+04 0.  0.
        4    1    3    3  502    0  0.84294473320E+03 -0.37411412815E+03 -0.24329503124E+04  0.26018774067E+04  0.12699999809E+01 0.  1.
       -4    1    3    3    0  502 -0.84294473320E+03  0.37411412815E+03  0.83678700923E+03  0.12452836287E+04  0.12699999809E+01 0. -1.
</event>
<event>
 5   0  0.1121462E-08  0.3496234E+04  0.7818609E-02  0.8114683E-01
        1   -1    0    0  501    0  0.00000000000E+00  0.00000000000E+00  0.17222209385E+04  0.17222209385E+04  0.50400001928E-02 0. -1.
       -1   -1    0    0    0  501  0.00000000000E+00  0.00000000000E+00 -0.17744028937E+04  0.17744028937E+04  0.50400001928E-02 0.  1.
    10030    2    1    2    0    0  0.00000000000E+00  0.00000000000E+00 -0.52181955230E+02  0.34966238322E+04  0.34962344412E+04 0.  0.
        4    1    3    3  502    0  0.80399737662E+03 -0.15296353040E+04  0.23797679643E+03  0.17443710939E+04  0.12699999809E+01 0. -1.
       -4    1    3    3    0  502 -0.80399737662E+03  0.15296353040E+04 -0.29015875166E+03  0.17522527383E+04  0.12699999809E+01 0.  1.
</event>
<event>
 5   0  0.3554451E-08  0.3511455E+04  0.7818609E-02  0.8111081E-01
       -2   -1    0    0    0  501  0.00000000000E+00  0.00000000000E+00  0.18455600816E+04  0.18455600816E+04  0.25500000920E-02 0. -1.
        2   -1    0    0  501    0  0.00000000000E+00  0.00000000000E+00 -0.16702675071E+04  0.16702675071E+04  0.25500000920E-02 0.  1.
    10030    2    1    2    0    0  0.00000000000E+00  0.00000000000E+00  0.17529257451E+03  0.35158275886E+04  0.35114549899E+04 0.  0.
        5    1    3    3  502    0 -0.95457204240E+03 -0.10942118087E+04  0.10758148147E+04  0.18071820251E+04  0.46999998093E+01 0. -1.
       -5    1    3    3    0  502  0.95457204240E+03  0.10942118087E+04 -0.90052224017E+03  0.17086455635E+04  0.46999998093E+01 0.  1.
</event>
<event>
 5   0  0.3467834E-08  0.3500299E+04  0.7818609E-02  0.8113719E-01
        2   -1    0    0  501    0  0.00000000000E+00  0.00000000000E+00  0.22272773613E+04  0.22272773613E+04  0.25500000920E-02 0.  1.
       -2   -1    0    0    0  501  0.00000000000E+00  0.00000000000E+00 -0.13752321389E+04  0.13752321389E+04  0.25500000920E-02 0. -1.
    10030    2    1    2    0    0  0.00000000000E+00  0.00000000000E+00  0.85204522245E+03  0.36025095002E+04  0.35002990784E+04 0.  0.
        3    1    3    3  502    0  0.15237350566E+03 -0.17307614613E+04  0.64257206257E+03  0.18524718046E+04  0.10100000352E+00 0.  1.
       -3    1    3    3    0  502 -0.15237350566E+03  0.17307614613E+04  0.20947315988E+03  0.17500376956E+04  0.10100000352E+00 0. -1.
</event>
<event>
 5   0  0.1121462E-08  0.3504680E+04  0.7818609E-02  0.8112682E-01
       -1   -1    0    0    0  501  0.00000000000E+00  0.00000000000E+00  0.27502652508E+04  0.27502652508E+04  0.50400001928E-02 0. -1.
        1   -1    0    0  501    0  0.00000000000E+00  0.00000000000E+00 -0.11165088068E+04  0.11165088068E+04  0.50400001928E-02 0.  1.
    10030    2    1    2    0    0  0.00000000000E+00  0.00000000000E+00  0.16337564441E+04  0.38667740576E+04  0.35046799417E+04 0.  0.
        4    1    3    3  502    0 -0.13752458702E+04  0.33314529190E+03 -0.32355208229E+03  0.14515421289E+04  0.12699999809E+01 0.  1.
       -4    1    3    3    0  502  0.13752458702E+04 -0.33314529190E+03  0.19573085264E+04  0.24152319287E+04  0.12699999809E+01 0. -1.
</event>
<event>
 5   0  0.1140808E-08  0.3505222E+04  0.7818609E-02  0.8112554E-01
        1   -1    0    0  501    0  0.00000000000E+00  0.00000000000E+00  0.14829951071E+04  0.14829951071E+04  0.50400001928E-02 0.  1.
       -1   -1    0    0    0  501  0.00000000000E+00  0.00000000000E+00 -0.20712442435E+04  0.20712442435E+04  0.50400001928E-02 0. -1.
    10030    2    1    2    0    0  0.00000000000E+00  0.00000000000E+00 -0.58824913647E+03  0.35542393506E+04  0.35052218639E+04 0.  0.
        3    1    3    3  502    0  0.13321432840E+04 -0.24800896568E+03 -0.14212129246E+04  0.19636599409E+04  0.10100000352E+00 0. -1.
       -3    1    3    3    0  502 -0.13321432840E+04  0.24800896568E+03  0.83296378812E+03  0.15905794097E+04  0.10100000352E+00 0.  1.
</event>
<event>
 5   0  0.3700096E-08  0.3501125E+04  0.7818609E-02  0.8113523E-01
        2   -1    0    0  501    0  0.00000000000E+00  0.00000000000E+00  0.19274667582E+04  0.19274667582E+04  0.25500000920E-02 0. -1.
       -2   -1    0    0    0  501  0.00000000000E+00  0.00000000000E+00 -0.15898948013E+04  0.15898948013E+04  0.25500000920E-02 0.  1.
    10030    2    1    2    0    0  0.00000000000E+00  0.00000000000E+00  0.33757195686E+03  0.35173615595E+04  0.35011251783E+04 0.  0.
        4    1    3    3  502    0  0.11284655452E+04  0.54191801216E+03  0.13981265627E+04  0.18766643591E+04  0.12699999809E+01 0. -1.
       -4    1    3    3    0  502 -0.11284655452E+04 -0.54191801216E+03 -0.10605546058E+04  0.16406972004E+04  0.12699999809E+01 0.  1.
</event>
<event>
 5   0  0.3467834E-08  0.3489745E+04  0.7818609E-02  0.8116225E-01
        2   -1    0    0  501    0  0.00000000000E+00  0.00000000000E+00  0.21451682992E+04  0.21451682992E+04  0.25500000920E-02 0. -1.
       -2   -1    0    0    0  501  0.00000000000E+00  0.00000000000E+00 -0.14192731974E+04  0.14192731974E+04  0.25500000920E-02 0.  1.
    10030    2    1    2    0    0  0.00000000000E+00  0.00000000000E+00  0.72589510177E+03  0.35644414966E+04  0.34897449024E+04 0.  0.
        3    1    3    3  502    0  0.31781398787E+03 -0.16009385227E+04  0.99305566345E+03  0.19105416628E+04  0.10100000352E+00 0.  1.
       -3    1    3    3    0  502 -0.31781398787E+03  0.16009385227E+04 -0.26716056168E+03  0.16538998338E+04  0.10100000352E+00 0. -1.
</event>
<event>
 5   0  0.3553585E-08  0.3499909E+04  0.7818609E-02  0.8113811E-01
       -2   -1    0    0    0  501  0.00000000000E+00  0.00000000000E+00  0.16004149825E+04  0.16004149825E+04  0.25500000920E-02 0.  1.
        2   -1    0    0  501    0  0.00000000000E+00  0.00000000000E+00 -0.19134668076E+04  0.19134668076E+04  0.25500000920E-02 0. -1.
    10030    2    1    2    0    0  0.00000000000E+00  0.00000000000E+00 -0.31305182511E+03  0.35138817902E+04  0.34999091117E+04 0.  0.
        2    1    3    3  502    0  0.25164999288E+02 -0.19791365796E+03  0.15889596272E+04  0.16014355405E+04  0.25500000920E-02 0.  1.
       -2    1    3    3    0  502 -0.25164999288E+02  0.19791365796E+03 -0.19020114524E+04  0.19124462497E+04  0.25500000920E-02 0. -1.
</event>
<event>
 5   0  0.3553585E-08  0.3499749E+04  0.7818609E-02  0.8113849E-01
       -2   -1    0    0    0  501  0.00000000000E+00  0.00000000000E+00  0.25198389561E+04  0.25198389561E+04  0.25500000920E-02 0. -1.
        2   -1    0    0  501    0  0.00000000000E+00  0.00000000000E+00 -0.12151812445E+04  0.12151812445E+04  0.25500000920E-02 0.  1.
    10030    2    1    2    0    0  0.00000000000E+00  0.00000000000E+00  0.13046577117E+04  0.37350202006E+04  0.34997491559E+04 0.  0.
        2    1    3    3  502    0  0.11994081816E+04  0.10897466547E+04 -0.52309128613E+02  0.16213771931E+04  0.25500000920E-02 0. -1.
       -2    1    3    3    0  502 -0.11994081816E+04 -0.10897466547E+04  0.13569668403E+04  0.21136430075E+04  0.25500000920E-02 0.  1.
</event>
<event>
 5   0  0.3700096E-08  0.3499405E+04  0.7818609E-02  0.8113931E-01
       -2   -1    0    0    0  501  0.00000000000E+00  0.00000000000E+00  0.11803724567E+04  0.11803724567E+04  0.25500000920E-02 0.  1.
        2   -1    0    0  501    0  0.00000000000E+00  0.00000000000E+00 -0.25936380881E+04  0.25936380881E+04  0.25500000920E-02 0. -1.
    10030    2    1    2    0    0  0.00000000000E+00  0.00000000000E+00 -0.14132656315E+04  0.37740105448E+04  0.34994050705E+04 0.  0.
        4    1    3    3  502    0 -0.10315001698E+04  0.97074955885E+03  0.40115802706E+03  0.14721673417E+04  0.12699999809E+01 0.  1.
       -4    1    3    3    0  502  0.10315001698E+04 -0.97074955885E+03 -0.18144236585E+04  0.23018432031E+04  0.12699999809E+01 0. -1.
</event>
<event>
 5   0  0.3554451E-08  0.3503382E+04  0.7818609E-02  0.8112989E-01
        2   -1    0    0  501    0  0.00000000000E+00  0.00000000000E+00  0.19748633732E+04  0.19748633732E+04  0.25500000920E-02 0.  1.
       -2   -1    0    0    0  501  0.00000000000E+00  0.00000000000E+00 -0.15537388851E+04  0.15537388851E+04  0.25500000920E-02 0. -1.
    10030    2    1    2    0    0  0.00000000000E+00  0.00000000000E+00  0.42112448815E+03  0.35286022583E+04  0.35033823746E+04 0.  0.
        5    1    3    3  502    0  0.84019933508E+03  0.13097300092E+04 -0.59963651461E+03  0.16676071658E+04  0.46999998093E+01 0.  1.
       -5    1    3    3    0  502 -0.84019933508E+03 -0.13097300092E+04  0.10207610028E+04  0.18609950925E+04  0.46999998093E+01 0. -1.
</event>
<event>
 5   0  0.3554451E-08  0.3502586E+04  0.7818609E-02  0.8113177E-01
       -2   -1    0    0    0  501  0.00000000000E+00  0.00000000000E+00  0.15600639173E+04  0.15600639173E+04  0.25500000920E-02 0.  1.
        2   -1    0    0  501    0  0.00000000000E+00  0.00000000000E+00 -0.19659627345E+04  0.19659627345E+04  0.25500000920E-02 0. -1.
    10030    2    1    2    0    0  0.00000000000E+00  0.00000000000E+00 -0.40589881723E+03  0.35260266518E+04  0.35025862015E+04 0.  0.
        5    1    3    3  502    0 -0.87740914350E+03 -0.37876451739E+03  0.12744195373E+04  0.15929458911E+04  0.46999998093E+01 0.  1.
       -5    1    3    3    0  502  0.87740914350E+03  0.37876451739E+03 -0.16803183546E+04  0.19330807607E+04  0.46999998093E+01 0. -1.
</event>
<event>
 5   0  0.3467834E-08  0.3501355E+04  0.7818609E-02  0.8113469E-01
        2   -1    0    0  501    0  0.00000000000E+00  0.00000000000E+00  0.10998170396E+04  0.10998170396E+04  0.25500000920E-02 0.  1.
       -2   -1    0    0    0  501  0.00000000000E+00  0.00000000000E+00 -0.27867103518E+04  0.27867103518E+04  0.25500000920E-02 0. -1.
    10030    2    1    2    0    0  0.00000000000E+00  0.00000000000E+00 -0.16868933122E+04  0.38865273914E+04  0.35013548974E+04 0.  0.
        3    1    3    3  502    0  0.18957190763E+03  0.62141895798E+03 -0.26479408475E+04  0.27264793731E+04  0.10100000352E+00 0. -1.
       -3    1    3    3    0  502 -0.18957190763E+03 -0.62141895798E+03  0.96104753533E+03  0.11600480183E+04  0.10100000352E+00 0.  1.
</event>
<event>
 5   0  0.1121462E-08  0.3500288E+04  0.7818609E-02  0.8113722E-01
        1   -1    0    0  501    0  0.00000000000E+00  0.00000000000E+00  0.22974232203E+04  0.22974232203E+04  0.50400001928E-02 0. -1.
       -1   -1    0    0    0  501  0.00000000000E+00  0.00000000000E+00 -0.13332344368E+04  0.13332344368E+04  0.50400001928E-02 0.  1.
    10030    2    1    2    0    0  0.00000000000E+00  0.00000000000E+00  0.96418878351E+03  0.36306576570E+04  0.35002878471E+04 0.  0.
        1    1    3    3  502    0 -0.65539891182E+03  0.64222944326E+03  0.20279024304E+04  0.22258469531E+04  0.50400001928E-02 0. -1.
       -1    1    3    3    0  502  0.65539891182E+03 -0.64222944326E+03 -0.10637136469E+04  0.14048107040E+04  0.50400001928E-02 0.  1.
</event>
<event>
 5   0  0.1121462E-08  0.3500225E+04  0.7818609E-02  0.8113737E-01
        1   -1    0    0  501    0  0.00000000000E+00  0.00000000000E+00  0.21205188055E+04  0.21205188055E+04  0.50400001928E-02 0.  1.
       -1   -1    0    0    0  501  0.00000000000E+00  0.00000000000E+00 -0.14444073779E+04  0.14444073779E+04  0.50400001928E-02 0. -1.
    10030    2    1    2    0    0  0.00000000000E+00  0.00000000000E+00  0.67611142760E+03  0.35649261834E+04  0.35002245686E+04 0.  0.
        1    1    3    3  502    0  0.10926585255E+04 -0.44482934591E+03  0.16546685604E+04  0.20321672779E+04  0.50400001928E-02 0.  1.
       -1    1    3    3    0  502 -0.10926585255E+04  0.44482934591E+03 -0.97855713283E+03  0.15327589055E+04  0.50400001928E-02 0. -1.
</event>
<event>
 5   0  0.3553585E-08  0.3496915E+04  0.7818609E-02  0.8114521E-01
        2   -1    0    0  501    0  0.00000000000E+00  0.00000000000E+00  0.22937932531E+04  0.22937932531E+04  0.25500000920E-02 0. -1.
       -2   -1    0    0    0  501  0.00000000000E+00  0.00000000000E+00 -0.13327722565E+04  0.13327722565E+04  0.25500000920E-02 0.  1.
    10030    2    1    2    0    0  0.00000000000E+00  0.00000000000E+00  0.96102099661E+03  0.36265655095E+04  0.34969152176E+04 0.  0.
        2    1    3    3  502    0  0.10267148580E+04  0.14087921942E+04  0.62066989069E+03  0.18504242647E+04  0.25500000920E-02 0. -1.
       -2    1    3    3    0  502 -0.10267148580E+04 -0.14087921942E+04  0.34035110592E+03  0.17761412448E+04  0.25500000920E-02 0.  1.
</event>
<event>
 5   0  0.3700096E-08  0.3501733E+04  0.7818609E-02  0.8113379E-01
       -2   -1    0    0    0  501  0.00000000000E+00  0.00000000000E+00  0.17097793982E+04  0.17097793982E+04  0.25500000920E-02 0. -1.
        2   -1    0    0  501    0  0.00000000000E+00  0.00000000000E+00 -0.17929413235E+04  0.17929413235E+04  0.25500000920E-02 0.  1.
    10030    2    1    2    0    0  0.00000000000E+00  0.00000000000E+00 -0.83161925272E+02  0.35027207217E+04  0.35017333634E+04 0.  0.
        4    1    3    3  502    0  0.51020645870E+03  0.15420414189E+04 -0.69547022871E+03  0.17668850614E+04  0.12699999809E+01 0. -1.
       -4    1    3    3    0  502 -0.51020645870E+03 -0.15420414189E+04  0.61230830344E+03  0.17358356603E+04  0.12699999809E+01 0.  1.
</event>
<event>
 5   0  0.1129219E-08  0.3500213E+04  0.7818609E-02  0.8113739E-01
       -1   -1    0    0    0  501  0.00000000000E+00  0.00000000000E+00  0.21766671155E+04  0.21766671155E+04  0.50400001928E-02 0. -1.
        1   -1    0    0  501    0  0.00000000000E+00  0.00000000000E+00 -0.14071391460E+04  0.14071391460E+04  0.50400001928E-02 0.  1.
    10030    2    1    2    0    0  0.00000000000E+00  0.00000000000E+00  0.76952796953E+03  0.35838062616E+04  0.35002134256E+04 0.  0.
        5    1    3    3  502    0  0.50621169195E+03  0.14254792428E+04  0.12859025292E+04  0.19853988902E+04  0.46999998093E+01 0. -1.
       -5    1    3    3    0  502 -0.50621169195E+03 -0.14254792428E+04 -0.51637455965E+03  0.15984073713E+04  0.46999998093E+01 0.  1.
</event>
<event>
 5   0  0.3628017E-08  0.3500321E+04  0.7818609E-02  0.8113714E-01
        2   -1    0    0  501    0  0.00000000000E+00  0.00000000000E+00  0.19956887580E+04  0.19956887580E+04  0.25500000920E-02 0.  1.
       -2   -1    0    0    0  501  0.00000000000E+00  0.00000000000E+00 -0.15348389858E+04  0.15348389858E+04  0.25500000920E-02 0. -1.
    10030    2    1    2    0    0  0.00000000000E+00  0.00000000000E+00  0.46084977227E+03  0.35305277438E+04  0.35003205049E+04 0.  0.
        1    1    3    3  502    0 -0.62204458855E+03 -0.65671517065E+03 -0.12807862784E+04  0.15680012042E+04  0.50400001928E-02 0. -1.
       -1    1    3    3    0  502  0.62204458855E+03  0.65671517065E+03  0.17416360507E+04  0.19625265396E+04  0.50400001928E-02 0.  1.
</event>
<event>
 5   0  0.1129219E-08  0.3498144E+04  0.7818609E-02  0.8114230E-01
       -1   -1    0    0    0  501  0.00000000000E+00  0.00000000000E+00  0.28743694599E+04  0.28743694600E+04  0.50400001928E-02 0. -1.
        1   -1    0    0  501    0  0.00000000000E+00  0.00000000000E+00 -0.10643211972E+04  0.10643211973E+04  0.50400001928E-02 0.  1.
    10030    2    1    2    0    0  0.00000000000E+00  0.00000000000E+00  0.18100482627E+04  0.39386906572E+04  0.34981437049E+04 0.  0.
        5    1    3    3  502    0 -0.14041269648E+04  0.38302710168E+03 -0.18716293467E+03  0.14674243926E+04  0.46999998093E+01 0.  1.
       -5    1    3    3    0  502  0.14041269648E+04 -0.38302710168E+03  0.19972111974E+04  0.24712662646E+04  0.46999998093E+01 0. -1.
</event>
<event>
 5   0  0.1121462E-08  0.3497802E+04  0.7818609E-02  0.8114311E-01
       -1   -1    0    0    0  501  0.00000000000E+00  0.00000000000E+00  0.10280688099E+04  0.10280688099E+04  0.50400001928E-02 0. -1.
        1   -1    0    0  501    0  0.00000000000E+00  0.00000000000E+00 -0.29751456202E+04  0.29751456202E+04  0.50400001928E-02 0.  1.
    10030    2    1    2    0    0  0.00000000000E+00  0.00000000000E+00 -0.19470768103E+04  0.40032144301E+04  0.34978018338E+04 0.  0.
        4    1    3    3  502    0 -0.26664823745E+03  0.14056502639E+04 -0.21247079252E+04  0.25615111414E+04  0.12699999809E+01 0.  1.
       -4    1    3    3    0  502  0.26664823745E+03 -0.14056502639E+04  0.17763111492E+03  0.14417032887E+04  0.12699999809E+01 0. -1.
</event>
<event>
 5   0  0.1121462E-08  0.3501917E+04  0.7818609E-02  0.8113336E-01
       -1   -1    0    0    0  501  0.00000000000E+00  0.00000000000E+00  0.25120534203E+04  0.25120534203E+04  0.50400001928E-02 0. -1.
        1   -1    0    0  501    0  0.00000000000E+00  0.00000000000E+00 -0.12204577844E+04  0.12204577844E+04  0.50400001928E-02 0.  1.
    10030    2    1    2    0    0  0.00000000000E+00  0.00000000000E+00  0.12915956360E+04  0.37325112047E+04  0.35019167047E+04 0.  0.
        1    1    3    3  502    0 -0.15002777369E+04 -0.22121283776E+03  0.15786960758E+04  0.21890750803E+04  0.50400001928E-02 0. -1.
       -1    1    3    3    0  502  0.15002777369E+04  0.22121283776E+03 -0.28710043984E+03  0.15434361244E+04  0.50400001928E-02 0.  1.
</event>
<event>
 5   0  0.1121462E-08  0.3500197E+04  0.7818609E-02  0.8113743E-01
        1   -1    0    0  501    0  0.00000000000E+00  0.00000000000E+00  0.15319327535E+04  0.15319327535E+04  0.50400001928E-02 0. -1.
       -1   -1    0    0    0  501  0.00000000000E+00  0.00000000000E+00 -0.19993336752E+04  0.19993336752E+04  0.50400001928E-02 0.  1.
    10030    2    1    2    0    0  0.00000000000E+00  0.00000000000E+00 -0.46740092175E+03  0.35312664287E+04  0.35001969900E+04 0.  0.
        1    1    3    3  502    0  0.85552523681E+03  0.23981886313E+03  0.12874658972E+04  0.15642905595E+04  0.50400001928E-02 0. -1.
       -1    1    3    3    0  502 -0.85552523681E+03 -0.23981886313E+03 -0.17548668190E+04  0.19669758693E+04  0.50400001928E-02 0.  1.
</event>
<event>
 5   0  0.1121462E-08  0.3500033E+04  0.7818609E-02  0.8113782E-01
        1   -1    0    0  501    0  0.00000000000E+00  0.00000000000E+00  0.18541129908E+04  0.18541129908E+04  0.50400001928E-02 0. -1.
       -1   -1    0    0    0  501  0.00000000000E+00  0.00000000000E+00 -0.16517643630E+04  0.16517643630E+04  0.50400001928E-02 0.  1.
    10030    2    1    2    0    0  0.00000000000E+00  0.00000000000E+00  0.20234862772E+03  0.35058773538E+04  0.35000330074E+04 0.  0.
        1    1    3    3  502    0  0.14695265504E+04 -0.86936641954E+03  0.48554871528E+03  0.17751236038E+04  0.50400001928E-02 0. -1.
       -1    1    3    3    0  502 -0.14695265504E+04  0.86936641954E+03 -0.28320008756E+03  0.17307537500E+04  0.50400001928E-02 0.  1.
</event>
<event>
 5   0  0.1121462E-08  0.3498624E+04  0.7818609E-02  0.8114116E-01
       -1   -1    0    0    0  501  0.00000000000E+00  0.00000000000E+00  0.11432450784E+04  0.11432450784E+04  0.50400001928E-02 0. -1.
        1   -1    0    0  501    0  0.00000000000E+00  0.00000000000E+00 -0.26766719165E+04  0.26766719165E+04  0.50400001928E-02 0.  1.
    10030    2    1    2    0    0  0.00000000000E+00  0.00000000000E+00 -0.15334268381E+04  0.38199169949E+04  0.34986237265E+04 0.  0.
        2    1    3    3  502    0 -0.77688430278E+02 -0.16750321130E+04 -0.13107974373E+04  0.21283697972E+04  0.25500000920E-02 0.  1.
       -2    1    3    3    0  502  0.77688430278E+02  0.16750321130E+04 -0.22262940081E+03  0.16915471977E+04  0.25500000920E-02 0. -1.
</event>
<event>
 5   0  0.1129219E-08  0.3498179E+04  0.7818609E-02  0.8114222E-01
       -1   -1    0    0    0  501  0.00000000000E+00  0.00000000000E+00  0.17824484835E+04  0.17824484836E+04  0.50400001928E-02 0. -1.
        1   -1    0    0  501    0  0.00000000000E+00  0.00000000000E+00 -0.17163548579E+04  0.17163548579E+04  0.50400001928E-02 0.  1.
    10030    2    1    2    0    0  0.00000000000E+00  0.00000000000E+00  0.66093625639E+02  0.34988033415E+04  0.34981790199E+04 0.  0.
        5    1    3    3  502    0  0.12034120998E+02 -0.14169940078E+04 -0.99245329058E+03  0.17300296131E+04  0.46999998093E+01 0.  1.
       -5    1    3    3    0  502 -0.12034120998E+02  0.14169940078E+04  0.10585469162E+04  0.17687737284E+04  0.46999998093E+01 0. -1.
</event>
<event>
 5   0  0.3467834E-08  0.3500515E+04  0.7818609E-02  0.8113668E-01
        2   -1    0    0  501    0  0.00000000000E+00  0.00000000000E+00  0.21456398876E+04  0.21456398876E+04  0.25500000920E-02 0. -1.
       -2   -1    0    0    0  501  0.00000000000E+00  0.00000000000E+00 -0.14277332935E+04  0.14277332935E+04  0.25500000920E-02 0.  1.
    10030    2    1    2    0    0  0.00000000000E+00  0.00000000000E+00  0.71790659409E+03  0.35733731811E+04  0.35005151068E+04 0.  0.
        3    1    3    3  502    0  0.11357776854E+04  0.64106692449E+03 -0.83257869219E+03  0.15473025047E+04  0.10100000352E+00 0.  1.
       -3    1    3    3    0  502 -0.11357776854E+04 -0.64106692449E+03  0.15504852863E+04  0.20260706763E+04  0.10100000352E+00 0. -1.
</event>
<event>
 5   0  0.1140808E-08  0.3501865E+04  0.7818609E-02  0.8113348E-01
       -1   -1    0    0    0  501  0.00000000000E+00  0.00000000000E+00  0.14625862022E+04  0.14625862022E+04  0.50400001928E-02 0.  1.
        1   -1    0    0  501    0  0.00000000000E+00  0.00000000000E+00 -0.20961258532E+04  0.20961258533E+04  0.50400001928E-02 0. -1.
    10030    2    1    2    0    0  0.00000000000E+00  0.00000000000E+00 -0.63353965107E+03  0.35587120554E+04  0.35018650751E+04 0.  0.
        3    1    3    3  502    0 -0.11912456601E+04 -0.37054618561E+03 -0.15652876770E+04  0.20016233963E+04  0.10100000352E+00 0. -1.
       -3    1    3    3    0  502  0.11912456601E+04  0.37054618561E+03  0.93174802595E+03  0.15570886592E+04  0.10100000352E+00 0.  1.
</event>
<event>
 5   0  0.1121462E-08  0.3498618E+04  0.7818609E-02  0.8114117E-01
       -1   -1    0    0    0  501  0.00000000000E+00  0.00000000000E+00  0.14066168319E+04  0.14066168319E+04  0.50400001928E-02 0.  1.
        1   -1    0    0  501    0  0.00000000000E+00  0.00000000000E+00 -0.21754913236E+04  0.21754913236E+04  0.50400001928E-02 0. -1.
    10030    2    1    2    0    0  0.00000000000E+00  0.00000000000E+00 -0.76887449169E+03  0.35821081555E+04  0.34986184207E+04 0.  0.
        2    1    3    3  502    0  0.77842634246E+03 -0.15575028175E+04 -0.55673897345E+03  0.18280374399E+04  0.25500000920E-02 0.  1.
       -2    1    3    3    0  502 -0.77842634246E+03  0.15575028175E+04 -0.21213551824E+03  0.17540707156E+04  0.25500000920E-02 0. -1.
</event>
<event>
 5   0  0.3554451E-08  0.3499432E+04  0.7818609E-02  0.8113925E-01
        2   -1    0    0  501    0  0.00000000000E+00  0.00000000000E+00  0.16754637931E+04  0.16754637931E+04  0.25500000920E-02 0. -1.
       -2   -1    0    0    0  501  0.00000000000E+00  0.00000000000E+00 -0.18272587410E+04  0.18272587410E+04  0.25500000920E-02 0.  1.
    10030    2    1    2    0    0  0.00000000000E+00  0.00000000000E+00 -0.15179494793E+03  0.35027225342E+04  0.34994318746E+04 0.  0.
        5    1    3    3  502    0  0.80951872865E+03 -0.14975237200E+04 -0.48073534902E+03  0.17689054327E+04  0.46999998093E+01 0. -1.
       -5    1    3    3    0  502 -0.80951872865E+03  0.14975237200E+04  0.32894040110E+03  0.17338171015E+04  0.46999998093E+01 0.  1.
</event>
<event>
 5   0  0.3467834E-08  0.3500447E+04  0.7818609E-02  0.8113684E-01
        2   -1    0    0  501    0  0.00000000000E+00  0.00000000000E+00  0.12373383553E+04  0.12373383553E+04  0.25500000920E-02 0. -1.
       -2   -1    0    0    0  501  0.00000000000E+00  0.00000000000E+00 -0.24757036448E+04  0.24757036448E+04  0.25500000920E-02 0.  1.
    10030    2    1    2    0    0  0.00000000000E+00  0.00000000000E+00 -0.12383652895E+04  0.37130420001E+04  0.35004474435E+04 0.  0.
        3    1    3    3  502    0  0.16009876354E+04 -0.70709074296E+03 -0.63192639913E+03  0.18607712679E+04  0.10100000352E+00 0.  1.
       -3    1    3    3    0  502 -0.16009876354E+04  0.70709074296E+03 -0.60643889034E+03  0.18522707322E+04  0.10100000352E+00 0. -1.
</event>
<event>
 5   0  0.1121462E-08  0.3497388E+04  0.7818609E-02  0.8114409E-01
       -1   -1    0    0    0  501  0.00000000000E+00  0.00000000000E+00  0.12829677355E+04  0.12829677355E+04  0.50400001928E-02 0.  1.
        1   -1    0    0  501    0  0.00000000000E+00  0.00000000000E+00 -0.23834824633E+04  0.23834824633E+04  0.50400001928E-02 0. -1.
    10030    2    1    2    0    0  0.00000000000E+00  0.00000000000E+00 -0.11005147278E+04  0.36664501989E+04  0.34973882248E+04 0.  0.
        1    1    3    3  502    0 -0.13515660985E+04 -0.33631066575E+03 -0.16587718197E+04  0.21659546930E+04  0.50400001928E-02 0. -1.
       -1    1    3    3    0  502  0.13515660985E+04  0.33631066575E+03  0.55825709191E+03  0.15004955059E+04  0.50400001928E-02 0.  1.
</event>
<event>
 5   0  0.3700096E-08  0.3503487E+04  0.7818609E-02  0.8112964E-01
       -2   -1    0    0    0  501  0.00000000000E+00  0.00000000000E+00  0.17690404575E+04  0.17690404575E+04  0.25500000920E-02 0.  1.
        2   -1    0    0  501    0  0.00000000000E+00  0.00000000000E+00 -0.17346153954E+04  0.17346153954E+04  0.25500000920E-02 0. -1.
    10030    2    1    2    0    0  0.00000000000E+00  0.00000000000E+00  0.34425062066E+02  0.35036558529E+04  0.35034867276E+04 0.  0.
        4    1    3    3  502    0 -0.79916957364E+03 -0.11828941199E+04  0.10324919043E+04  0.17618035225E+04  0.12699999809E+01 0.  1.
       -4    1    3    3    0  502  0.79916957364E+03  0.11828941199E+04 -0.99806684228E+03  0.17418523304E+04  0.12699999809E+01 0. -1.
</event>
<event>
 5   0  0.3628017E-08  0.3501248E+04  0.7818609E-02  0.8113494E-01
        2   -1    0    0  501    0  0.00000000000E+00  0.00000000000E+00  0.22944333935E+04  0.22944333935E+04  0.25500000920E-02 0.  1.
       -2   -1    0    0    0  501  0.00000000000E+00  0.00000000000E+00 -0.13357045408E+04  0.13357045408E+04  0.25500000920E-02 0. -1.
    10030    2    1    2    0    0  0.00000000000E+00  0.00000000000E+00  0.95872885270E+03  0.36301379343E+04  0.35012484072E+04 0.  0.
        1    1    3    3  502    0 -0.36956166701E+03  0.14610913741E+04  0.14028385973E+04  0.20589608931E+04  0.50400001928E-02 0.  1.
       -1    1    3    3    0  502  0.36956166701E+03 -0.14610913741E+04 -0.44410974459E+03  0.15711770411E+04  0.50400001928E-02 0. -1.
</event>
<event>
 5   0  0.3467834E-08  0.3503980E+04  0.7818609E-02  0.8112847E-01
       -2   -1    0    0    0  501  0.00000000000E+00  0.00000000000E+00  0.22424540475E+04  0.22424540475E+04  0.25500000920E-02 0. -1.
        2   -1    0    0  501    0  0.00000000000E+00  0.00000000000E+00 -0.13687994136E+04  0.13687994136E+04  0.25500000920E-02 0.  1.
    10030    2    1    2    0    0  0.00000000000E+00  0.00000000000E+00  0.87365463389E+03  0.36112534610E+04  0.35039804709E+04 0.  0.
        3    1    3    3  502    0  0.14187343814E+03 -0.12070863403E+04 -0.86366142336E+03  0.14910052212E+04  0.10100000352E+00 0.  1.
       -3    1    3    3    0  502 -0.14187343814E+03  0.12070863403E+04  0.17373160572E+04  0.21202482398E+04  0.10100000352E+00 0. -1.
</event>
<event>
 5   0  0.1129219E-08  0.3495781E+04  0.7818609E-02  0.8114790E-01
       -1   -1    0    0    0  501  0.00000000000E+00  0.00000000000E+00  0.12045508555E+04  0.12045508555E+04  0.50400001928E-02 0. -1.
        1   -1    0    0  501    0  0.00000000000E+00  0.00000000000E+00 -0.25363161808E+04  0.25363161808E+04  0.50400001928E-02 0.  1.
    10030    2    1    2    0    0  0.00000000000E+00  0.00000000000E+00 -0.13317653253E+04  0.37408670362E+04  0.34957813577E+04 0.  0.
        5    1    3    3  502    0  0.52130793149E+03  0.13380799866E+04 -0.17321751056E+04  0.22500383767E+04  0.46999998093E+01 0.  1.
       -5    1    3    3    0  502 -0.52130793149E+03 -0.13380799866E+04  0.40040978026E+03  0.14908286596E+04  0.46999998093E+01 0. -1.
</event>
<event>
 5   0  0.1121462E-08  0.3499954E+04  0.7818609E-02  0.8113801E-01
       -1   -1    0    0    0  501  0.00000000000E+00  0.00000000000E+00  0.17930700191E+04  0.17930700191E+04  0.50400001928E-02 0.  1.
        1   -1    0    0  501    0  0.00000000000E+00  0.00000000000E+00 -0.17079198648E+04  0.17079198648E+04  0.50400001928E-02 0. -1.
    10030    2    1    2    0    0  0.00000000000E+00  0.00000000000E+00  0.85150154245E+02  0.35009898839E+04  0.34999542309E+04 0.  0.
        2    1    3    3  502    0  0.16520745189E+04 -0.13507686656E+03 -0.51868268188E+03  0.17368441785E+04  0.25500000920E-02 0.  1.
       -2    1    3    3    0  502 -0.16520745189E+04  0.13507686656E+03  0.60383283612E+03  0.17641457054E+04  0.25500000920E-02 0. -1.
</event>
<event>
 5   0  0.1140808E-08  0.3499878E+04  0.7818609E-02  0.8113819E-01
        1   -1    0    0  501    0  0.00000000000E+00  0.00000000000E+00  0.14781776660E+04  0.14781776660E+04  0.50400001928E-02 0. -1.
       -1   -1    0    0    0  501  0.00000000000E+00  0.00000000000E+00 -0.20716631831E+04  0.20716631831E+04  0.50400001928E-02 0.  1.
    10030    2    1    2    0    0  0.00000000000E+00  0.00000000000E+00 -0.59348551710E+03  0.35498408491E+04  0.34998778543E+04 0.  0.
        3    1    3    3  502    0  0.16319476099E+04  0.35696277707E+03 -0.82534563555E+03  0.18632956969E+04  0.10100000352E+00 0.  1.
       -3    1    3    3    0  502 -0.16319476099E+04 -0.35696277707E+03  0.23186011845E+03  0.16865451522E+04  0.10100000352E+00 0. -1.
</event>
<event>
 5   0  0.3553585E-08  0.3501628E+04  0.7818609E-02  0.8113404E-01
        2   -1    0    0  501    0  0.00000000000E+00  0.00000000000E+00  0.23735439408E+04  0.23735439408E+04  0.25500000920E-02 0. -1.
       -2   -1    0    0    0  501  0.00000000000E+00  0.00000000000E+00 -0.12914653952E+04  0.12914653952E+04  0.25500000920E-02 0.  1.
    10030    2    1    2    0    0  0.00000000000E+00  0.00000000000E+00  0.10820785456E+04  0.36650093360E+04  0.35016281148E+04 0.  0.
        2    1    3    3  502    0 -0.11282611728E+04  0.13347559909E+04  0.64982650890E+03  0.18646236405E+04  0.25500000920E-02 0.  1.
       -2    1    3    3    0  502  0.11282611728E+04 -0.13347559909E+04  0.43225203672E+03  0.18003856955E+04  0.25500000920E-02 0. -1.
</event>
<event>
 5   0  0.3700096E-08  0.3499504E+04  0.7818609E-02  0.8113908E-01
        2   -1    0    0  501    0  0.00000000000E+00  0.00000000000E+00  0.23169096859E+04  0.23169096859E+04  0.25500000920E-02 0.  1.
       -2   -1    0    0    0  501  0.00000000000E+00  0.00000000000E+00 -0.13214289419E+04  0.13214289419E+04  0.25500000920E-02 0. -1.
    10030    2    1    2    0    0  0.00000000000E+00  0.00000000000E+00  0.99548074399E+03  0.36383386279E+04  0.34995036876E+04 0.  0.
        4    1    3    3  502    0  0.14466961411E+04  0.44768448287E+03  0.14090292738E+04  0.20685057960E+04  0.12699999809E+01 0.  1.
       -4    1    3    3    0  502 -0.14466961411E+04 -0.44768448287E+03 -0.41354852978E+03  0.15698328319E+04  0.12699999809E+01 0. -1.
</event>
<event>
 5   0  0.1121462E-08  0.3499428E+04  0.7818609E-02  0.8113926E-01
       -1   -1    0    0    0  501  0.00000000000E+00  0.00000000000E+00  0.26160066226E+04  0.26160066226E+04  0.50400001928E-02 0. -1.
        1   -1    0    0  501    0  0.00000000000E+00  0.00000000000E+00 -0.11702947203E+04  0.11702947203E+04  0.50400001928E-02 0.  1.
    10030    2    1    2    0    0  0.00000000000E+00  0.00000000000E+00  0.14457119023E+04  0.37863013430E+04  0.34994278040E+04 0.  0.
        2    1    3    3  502    0 -0.81770858017E+03  0.15464228309E+04  0.68197145614E+03  0.18775398694E+04  0.25500000920E-02 0.  1.
       -2    1    3    3    0  502  0.81770858017E+03 -0.15464228309E+04  0.76374044617E+03  0.19087614736E+04  0.25500000920E-02 0. -1.
</event>
<event>
 5   0  0.1129219E-08  0.3499266E+04  0.7818609E-02  0.8113964E-01
        1   -1    0    0  501    0  0.00000000000E+00  0.00000000000E+00  0.21385058011E+04  0.21385058011E+04  0.50400001928E-02 0.  1.
       -1   -1    0    0    0  501  0.00000000000E+00  0.00000000000E+00 -0.14314742276E+04  0.14314742276E+04  0.50400001928E-02 0. -1.
    10030    2    1    2    0    0  0.00000000000E+00  0.00000000000E+00  0.70703157348E+03  0.35699800287E+04  0.34992661744E+04 0.  0.
        5    1    3    3  502    0 -0.10863561110E+03  0.86383246417E+03  0.19018092448E+04  0.20916282451E+04  0.46999998093E+01 0.  1.
       -5    1    3    3    0  502  0.10863561110E+03 -0.86383246417E+03 -0.11947776713E+04  0.14783517836E+04  0.46999998093E+01 0. -1.
</event>
<event>
 5   0  0.1121462E-08  0.3521310E+04  0.7818609E-02  0.8108758E-01
       -1   -1    0    0    0  501  0.00000000000E+00  0.00000000000E+00  0.16212610587E+04  0.16212610587E+04  0.50400001928E-02 0.  1.
        1   -1    0    0  501    0  0.00000000000E+00  0.00000000000E+00 -0.19120338268E+04  0.19120338268E+04  0.50400001928E-02 0. -1.
    10030    2    1    2    0    0  0.00000000000E+00  0.00000000000E+00 -0.29077276812E+03  0.35332948855E+04  0.35213099757E+04 0.  0.
        2    1    3    3  502    0  0.17431778068E+03 -0.17273777186E+04 -0.43910355275E+03  0.17908189192E+04  0.25500000920E-02 0.  1.
       -2    1    3    3    0  502 -0.17431778068E+03  0.17273777186E+04  0.14833078464E+03  0.17424759663E+04  0.25500000920E-02 0. -1.
</event>
<event>
 5   0  0.3553585E-08  0.3499732E+04  0.7818609E-02  0.8113853E-01
       -2   -1    0    0    0  501  0.00000000000E+00  0.00000000000E+00  0.11324729687E+04  0.11324729687E+04  0.25500000920E-02 0.  1.
        2   -1    0    0  501    0  0.00000000000E+00  0.00000000000E+00 -0.27038447512E+04  0.27038447512E+04  0.25500000920E-02 0. -1.
    10030    2    1    2    0    0  0.00000000000E+00  0.00000000000E+00 -0.15713717825E+04  0.38363177199E+04  0.34997320425E+04 0.  0.
        2    1    3    3  502    0 -0.63241315522E+03  0.11201453206E+04 -0.20861017141E+04  0.24508146197E+04  0.25500000920E-02 0. -1.
       -2    1    3    3    0  502  0.63241315522E+03 -0.11201453206E+04  0.51472993163E+03  0.13855031002E+04  0.25500000920E-02 0.  1.
</event>
<event>
 5   0  0.3467834E-08  0.3497604E+04  0.7818609E-02  0.8114358E-01
        2   -1    0    0  501    0  0.00000000000E+00  0.00000000000E+00  0.21928524084E+04  0.21928524084E+04  0.25500000920E-02 0. -1.
       -2   -1    0    0    0  501  0.00000000000E+00  0.00000000000E+00 -0.13946714279E+04  0.13946714279E+04  0.25500000920E-02 0.  1.
    10030    2    1    2    0    0  0.00000000000E+00  0.00000000000E+00  0.79818098053E+03  0.35875238363E+04  0.34976040940E+04 0.  0.
        3    1    3    3  502    0 -0.15801118543E+04 -0.44857325978E+03 -0.21662299436E+03  0.16567730603E+04  0.10100000352E+00 0.  1.
       -3    1    3    3    0  502  0.15801118543E+04  0.44857325978E+03  0.10148039749E+04  0.19307507760E+04  0.10100000352E+00 0. -1.
</event>
<event>
 5   0  0.3553585E-08  0.3502201E+04  0.7818609E-02  0.8113269E-01
       -2   -1    0    0    0  501  0.00000000000E+00  0.00000000000E+00  0.13750070689E+04  0.13750070689E+04  0.25500000920E-02 0.  1.
        2   -1    0    0  501    0  0.00000000000E+00  0.00000000000E+00 -0.22300635417E+04  0.22300635417E+04  0.25500000920E-02 0. -1.
    10030    2    1    2    0    0  0.00000000000E+00  0.00000000000E+00 -0.85505647287E+03  0.36050706106E+04  0.35022010987E+04 0.  0.
        2    1    3    3  502    0 -0.11895133540E+04  0.11521044731E+04 -0.10135175503E+04  0.19415211977E+04  0.25500000920E-02 0. -1.
       -2    1    3    3    0  502  0.11895133540E+04 -0.11521044731E+04  0.15846107743E+03  0.16635494129E+04  0.25500000920E-02 0.  1.
</event>
<event>
 5   0  0.1140808E-08  0.3496463E+04  0.7818609E-02  0.8114629E-01
       -1   -1    0    0    0  501  0.00000000000E+00  0.00000000000E+00  0.12915683947E+04  0.12915683947E+04  0.50400001928E-02 0. -1.
        1   -1    0    0  501    0  0.00000000000E+00  0.00000000000E+00 -0.23663574922E+04  0.23663574922E+04  0.50400001928E-02 0.  1.
    10030    2    1    2    0    0  0.00000000000E+00  0.00000000000E+00 -0.10747890975E+04  0.36579258869E+04  0.34964625251E+04 0.  0.
        3    1    3    3  502    0 -0.16174171675E+04 -0.41511412384E+03 -0.10789420520E+04  0.19880829940E+04  0.10100000352E+00 0.  1.
       -3    1    3    3    0  502  0.16174171675E+04  0.41511412384E+03  0.41529544395E+01  0.16698428928E+04  0.10100000352E+00 0. -1.
</event>
<event>
 5   0  0.1129219E-08  0.3501527E+04  0.7818609E-02  0.8113428E-01
        1   -1    0    0  501    0  0.00000000000E+00  0.00000000000E+00  0.22390479371E+04  0.22390479371E+04  0.50400001928E-02 0. -1.
       -1   -1    0    0    0  501  0.00000000000E+00  0.00000000000E+00 -0.13689625306E+04  0.13689625306E+04  0.50400001928E-02 0.  1.
    10030    2    1    2    0    0  0.00000000000E+00  0.00000000000E+00  0.87008540647E+03  0.36080104677E+04  0.35015269412E+04 0.  0.
        5    1    3    3  502    0  0.46455560345E+03  0.97308955025E+03 -0.98619029570E+03  0.14612695066E+04  0.46999998093E+01 0.  1.
       -5    1    3    3    0  502 -0.46455560345E+03 -0.97308955025E+03  0.18562757022E+04  0.21467409611E+04  0.46999998093E+01 0. -1.
</event>
<event>
 5   0  0.3554451E-08  0.3501290E+04  0.7818609E-02  0.8113484E-01
        2   -1    0    0  501    0  0.00000000000E+00  0.00000000000E+00  0.19352532146E+04  0.19352532146E+04  0.25500000920E-02 0. -1.
       -2   -1    0    0    0  501  0.00000000000E+00  0.00000000000E+00 -0.15836468301E+04  0.15836468301E+04  0.25500000920E-02 0.  1.
    10030    2    1    2    0    0  0.00000000000E+00  0.00000000000E+00  0.35160638454E+03  0.35189000447E+04  0.35012898301E+04 0.  0.
        5    1    3    3  502    0  0.48658939210E+03  0.60483056125E+03  0.17528180846E+04  0.19170244057E+04  0.46999998093E+01 0. -1.
       -5    1    3    3    0  502 -0.48658939210E+03 -0.60483056125E+03 -0.14012117001E+04  0.16018756390E+04  0.46999998093E+01 0.  1.
</event>
<event>
 5   0  0.1129219E-08  0.3507860E+04  0.7818609E-02  0.8111930E-01
       -1   -1    0    0    0  501  0.00000000000E+00  0.00000000000E+00  0.20758421017E+04  0.20758421017E+04  0.50400001928E-02 0. -1.
        1   -1    0    0  501    0  0.00000000000E+00  0.00000000000E+00 -0.14819389450E+04  0.14819389450E+04  0.50400001928E-02 0.  1.
    10030    2    1    2    0    0  0.00000000000E+00  0.00000000000E+00  0.59390315675E+03  0.35577810467E+04  0.35078604614E+04 0.  0.
        5    1    3    3  502    0  0.14628738792E+03 -0.16436465811E+04 -0.30587641308E+03  0.16782599780E+04  0.46999998093E+01 0.  1.
       -5    1    3    3    0  502 -0.14628738792E+03  0.16436465811E+04  0.89977956983E+03  0.18795210687E+04  0.46999998093E+01 0. -1.
</event>
<event>
 5   0  0.1121462E-08  0.3494818E+04  0.7818609E-02  0.8115019E-01
        1   -1    0    0  501    0  0.00000000000E+00  0.00000000000E+00  0.16745971416E+04  0.16745971416E+04  0.50400001928E-02 0. -1.
       -1   -1    0    0    0  501  0.00000000000E+00  0.00000000000E+00 -0.18233865880E+04  0.18233865880E+04  0.50400001928E-02 0.  1.
    10030    2    1    2    0    0  0.00000000000E+00  0.00000000000E+00 -0.14878944644E+03  0.34979837296E+04  0.34948178598E+04 0.  0.
        2    1    3    3  502    0 -0.48681268966E+03  0.28278874266E+03  0.15813353181E+04  0.16785641055E+04  0.25500000920E-02 0. -1.
       -2    1    3    3    0  502  0.48681268966E+03 -0.28278874266E+03 -0.17301247646E+04  0.18194196242E+04  0.25500000920E-02 0.  1.
</event>
<event>
 5   0  0.3554451E-08  0.3498671E+04  0.7818609E-02  0.8114105E-01
       -2   -1    0    0    0  501  0.00000000000E+00  0.00000000000E+00  0.17150823882E+04  0.17150823882E+04  0.25500000920E-02 0.  1.
        2   -1    0    0  501    0  0.00000000000E+00  0.00000000000E+00 -0.17842729847E+04  0.17842729847E+04  0.25500000920E-02 0. -1.
    10030    2    1    2    0    0  0.00000000000E+00  0.00000000000E+00 -0.69190596463E+02  0.34993553729E+04  0.34986712745E+04 0.  0.
        5    1    3    3  502    0  0.69074834963E+03  0.88283616941E+03  0.13086565371E+04  0.17231183960E+04  0.46999998093E+01 0.  1.
       -5    1    3    3    0  502 -0.69074834963E+03 -0.88283616941E+03 -0.13778471336E+04  0.17762369769E+04  0.46999998093E+01 0. -1.
</event>
<event>
 5   0  0.1121462E-08  0.3498734E+04  0.7818609E-02  0.8114090E-01
        1   -1    0    0  501    0  0.00000000000E+00  0.00000000000E+00  0.22905398129E+04  0.22905398129E+04  0.50400001928E-02 0. -1.
       -1   -1    0    0    0  501  0.00000000000E+00  0.00000000000E+00 -0.13360537588E+04  0.13360537588E+04  0.50400001928E-02 0.  1.
    10030    2    1    2    0    0  0.00000000000E+00  0.00000000000E+00  0.95448605410E+03  0.36265935717E+04  0.34987336719E+04 0.  0.
        1    1    3    3  502    0  0.14379884560E+03  0.17422632625E+04  0.41067020618E+03  0.17957754320E+04  0.50400001928E-02 0. -1.
       -1    1    3    3    0  502 -0.14379884560E+03 -0.17422632625E+04  0.54381584792E+03  0.18308181396E+04  0.50400001928E-02 0.  1.
</event>
<event>
 5   0  0.3467834E-08  0.3501563E+04  0.7818609E-02  0.8113420E-01
       -2   -1    0    0    0  501  0.00000000000E+00  0.00000000000E+00  0.18310084206E+04  0.18310084206E+04  0.25500000920E-02 0. -1.
        2   -1    0    0  501    0  0.00000000000E+00  0.00000000000E+00 -0.16740696958E+04  0.16740696958E+04  0.25500000920E-02 0.  1.
    10030    2    1    2    0    0  0.00000000000E+00  0.00000000000E+00  0.15693872483E+03  0.35050781164E+04  0.35015629138E+04 0.  0.
        3    1    3    3  502    0  0.15238836366E+04 -0.40958963142E+03  0.83768359984E+03  0.17865326271E+04  0.10100000352E+00 0. -1.
       -3    1    3    3    0  502 -0.15238836366E+04  0.40958963142E+03 -0.68074487501E+03  0.17185454894E+04  0.10100000352E+00 0.  1.
</event>
<event>
 5   0  0.3628017E-08  0.3499990E+04  0.7818609E-02  0.8113792E-01
        2   -1    0    0  501    0  0.00000000000E+00  0.00000000000E+00  0.18966281665E+04  0.18966281665E+04  0.25500000920E-02 0.  1.
       -2   -1    0    0    0  501  0.00000000000E+00  0.00000000000E+00 -0.16146981594E+04  0.16146981594E+04  0.25500000920E-02 0. -1.
    10030    2    1    2    0    0  0.00000000000E+00  0.00000000000E+00  0.28193000716E+03  0.35113263259E+04  0.34999897197E+04 0.  0.
        1    1    3    3  502    0  0.14371228617E+04 -0.45287843148E+03 -0.75189576969E+03  0.16839739433E+04  0.50400001928E-02 0. -1.
       -1    1    3    3    0  502 -0.14371228617E+04  0.45287843148E+03  0.10338257769E+04  0.18273523826E+04  0.50400001928E-02 0.  1.
</event>
<event>
 5   0  0.3467834E-08  0.3499988E+04  0.7818609E-02  0.8113793E-01
       -2   -1    0    0    0  501  0.00000000000E+00  0.00000000000E+00  0.11814026058E+04  0.11814026058E+04  0.25500000920E-02 0. -1.
        2   -1    0    0  501    0  0.00000000000E+00  0.00000000000E+00 -0.25922397481E+04  0.25922397481E+04  0.25500000920E-02 0.  1.
    10030    2    1    2    0    0  0.00000000000E+00  0.00000000000E+00 -0.14108371423E+04  0.37736423539E+04  0.34999878818E+04 0.  0.
        3    1    3    3  502    0 -0.90891890250E+03  0.64668552355E+03 -0.21592304781E+04  0.24303522389E+04  0.10100000352E+00 0.  1.
       -3    1    3    3    0  502  0.90891890250E+03 -0.64668552355E+03  0.74839333577E+03  0.13432901149E+04  0.10100000352E+00 0. -1.
</event>
<event>
 5   0  0.1121462E-08  0.3499548E+04  0.7818609E-02  0.8113897E-01
        1   -1    0    0  501    0  0.00000000000E+00  0.00000000000E+00  0.23214048939E+04  0.23214048939E+04  0.50400001928E-02 0. -1.
       -1   -1    0    0    0  501  0.00000000000E+00  0.00000000000E+00 -0.13189035780E+04  0.13189035780E+04  0.50400001928E-02 0.  1.
    10030    2    1    2    0    0  0.00000000000E+00  0.00000000000E+00  0.10025013158E+04  0.36403084719E+04  0.34995480969E+04 0.  0.
        2    1    3    3  502    0  0.14944546442E+04  0.18271019621E+03  0.14287018821E+04  0.20755642046E+04  0.25500000920E-02 0. -1.
       -2    1    3    3    0  502 -0.14944546442E+04 -0.18271019621E+03 -0.42620056621E+03  0.15647442673E+04  0.25500000920E-02 0.  1.
</event>
<event>
 5   0  0.3700096E-08  0.3502195E+04  0.7818609E-02  0.8113270E-01
       -2   -1    0    0    0  501  0.00000000000E+00  0.00000000000E+00  0.19730435878E+04  0.19730435878E+04  0.25500000920E-02 0.  1.
        2   -1    0    0  501    0  0.00000000000E+00  0.00000000000E+00 -0.15541179863E+04  0.15541179863E+04  0.25500000920E-02 0. -1.
    10030    2    1    2    0    0  0.00000000000E+00  0.00000000000E+00  0.41892560146E+03  0.35271615741E+04  0.35021950418E+04 0.  0.
        4    1    3    3  502    0  0.23774361305E+03 -0.10360076170E+04  0.16109675482E+04  0.19300393422E+04  0.12699999809E+01 0.  1.
       -4    1    3    3    0  502 -0.23774361305E+03  0.10360076170E+04 -0.11920419467E+04  0.15971222320E+04  0.12699999809E+01 0. -1.
</event>
<event>
 5   0  0.1129219E-08  0.3499266E+04  0.7818609E-02  0.8113964E-01
        1   -1    0    0  501    0  0.00000000000E+00  0.00000000000E+00  0.22227193626E+04  0.22227193626E+04  0.50400001928E-02 0. -1.
       -1   -1    0    0    0  501  0.00000000000E+00  0.00000000000E+00 -0.13772387469E+04  0.13772387469E+04  0.50400001928E-02 0.  1.
    10030    2    1    2    0    0  0.00000000000E+00  0.00000000000E+00  0.84548061564E+03  0.35999581095E+04  0.34992657685E+04 0.  0.
        5    1    3    3  502    0 -0.72050225318E+02  0.11433951051E+04 -0.93767624527E+03  0.14804737189E+04  0.46999998093E+01 0.  1.
       -5    1    3    3    0  502  0.72050225318E+02 -0.11433951051E+04  0.17831568609E+04  0.21194843906E+04  0.46999998093E+01 0. -1.
</event>
<event>
 5   0  0.1121462E-08  0.3490794E+04  0.7818609E-02  0.8115975E-01
        1   -1    0    0  501    0  0.00000000000E+00  0.00000000000E+00  0.25599277338E+04  0.25599277338E+04  0.50400001928E-02 0.  1.
       -1   -1    0    0    0  501  0.00000000000E+00  0.00000000000E+00 -0.11900376165E+04  0.11900376165E+04  0.50400001928E-02 0. -1.
    10030    2    1    2    0    0  0.00000000000E+00  0.00000000000E+00  0.13698901173E+04  0.37499653503E+04  0.34907937772E+04 0.  0.
        2    1    3    3  502    0  0.32278064838E+03  0.11956721711E+04 -0.63624050420E+03  0.13923438034E+04  0.25500000920E-02 0. -1.
       -2    1    3    3    0  502 -0.32278064838E+03 -0.11956721711E+04  0.20061306215E+04  0.23576215469E+04  0.25500000920E-02 0.  1.
</event>
<event>
 5   0  0.1121462E-08  0.3498435E+04  0.7818609E-02  0.8114161E-01
        1   -1    0    0  501    0  0.00000000000E+00  0.00000000000E+00  0.21968941389E+04  0.21968941389E+04  0.50400001928E-02 0.  1.
       -1   -1    0    0    0  501  0.00000000000E+00  0.00000000000E+00 -0.13927670213E+04  0.13927670213E+04  0.50400001928E-02 0. -1.
    10030    2    1    2    0    0  0.00000000000E+00  0.00000000000E+00  0.80412711759E+03  0.35896611603E+04  0.34984349107E+04 0.  0.
        2    1    3    3  502    0  0.17094702861E+03 -0.16997594117E+04  0.78784199798E+03  0.18812495736E+04  0.25500000920E-02 0.  1.
       -2    1    3    3    0  502 -0.17094702861E+03  0.16997594117E+04  0.16285119616E+02  0.17084115867E+04  0.25500000920E-02 0. -1.
</event>
<event>
 5   0  0.1140808E-08  0.3500638E+04  0.7818609E-02  0.8113639E-01
        1   -1    0    0  501    0  0.00000000000E+00  0.00000000000E+00  0.15768031586E+04  0.15768031586E+04  0.50400001928E-02 0. -1.
       -1   -1    0    0    0  501  0.00000000000E+00  0.00000000000E+00 -0.19429292096E+04  0.19429292096E+04  0.50400001928E-02 0.  1.
    10030    2    1    2    0    0  0.00000000000E+00  0.00000000000E+00 -0.36612605100E+03  0.35197323682E+04  0.35006381787E+04 0.  0.
        3    1    3    3  502    0 -0.77086309892E+03 -0.11252254650E+03 -0.17590069067E+04  0.19237974293E+04  0.10100000352E+00 0.  1.
       -3    1    3    3    0  502  0.77086309892E+03  0.11252254650E+03  0.13928808557E+04  0.15959349389E+04  0.10100000352E+00 0. -1.
</event>
<event>
 5   0  0.1129219E-08  0.3499580E+04  0.7818609E-02  0.8113889E-01
        1   -1    0    0  501    0  0.00000000000E+00  0.00000000000E+00  0.13688655460E+04  0.13688655460E+04  0.50400001928E-02 0. -1.
       -1   -1    0    0    0  501  0.00000000000E+00  0.00000000000E+00 -0.22367171228E+04  0.22367171228E+04  0.50400001928E-02 0.  1.
    10030    2    1    2    0    0  0.00000000000E+00  0.00000000000E+00 -0.86785157674E+03  0.36055826688E+04  0.34995799780E+04 0.  0.
        5    1    3    3  502    0  0.39674151578E+03  0.91659735874E+03 -0.19141728153E+04  0.21590817968E+04  0.46999998093E+01 0.  1.
       -5    1    3    3    0  502 -0.39674151578E+03 -0.91659735874E+03  0.10463212386E+04  0.14465008720E+04  0.46999998093E+01 0. -1.
</event>
<event>
 5   0  0.3554451E-08  0.3500858E+04  0.7818609E-02  0.8113587E-01
       -2   -1    0    0    0  501  0.00000000000E+00  0.00000000000E+00  0.16471896105E+04  0.16471896105E+04  0.25500000920E-02 0. -1.
        2   -1    0    0  501    0  0.00000000000E+00  0.00000000000E+00 -0.18601393331E+04  0.18601393331E+04  0.25500000920E-02 0.  1.
    10030    2    1    2    0    0  0.00000000000E+00  0.00000000000E+00 -0.21294972266E+03  0.35073289436E+04  0.35008582854E+04 0.  0.
        5    1    3    3  502    0  0.68139311759E+02 -0.19870079898E+03 -0.18474598328E+04  0.18593694892E+04  0.46999998093E+01 0.  1.
       -5    1    3    3    0  502 -0.68139311759E+02  0.19870079898E+03  0.16345101102E+04  0.16479594545E+04  0.46999998093E+01 0. -1.
</event>
<event>
 5   0  0.1140808E-08  0.3499368E+04  0.7818609E-02  0.8113940E-01
        1   -1    0    0  501    0  0.00000000000E+00  0.00000000000E+00  0.13393731604E+04  0.13393731604E+04  0.50400001928E-02 0. -1.
       -1   -1    0    0    0  501  0.00000000000E+00  0.00000000000E+00 -0.22856920986E+04  0.22856920986E+04  0.50400001928E-02 0.  1.
    10030    2    1    2    0    0  0.00000000000E+00  0.00000000000E+00 -0.94631893826E+03  0.36250652590E+04  0.34993683143E+04 0.  0.
        3    1    3    3  502    0 -0.54277089936E+03  0.11199904369E+04 -0.17471370300E+04  0.21451029438E+04  0.10100000352E+00 0.  1.
       -3    1    3    3    0  502  0.54277089936E+03 -0.11199904369E+04  0.80081809170E+03  0.14799623151E+04  0.10100000352E+00 0. -1.
</event>
<event>
 5   0  0.1129219E-08  0.3500613E+04  0.7818609E-02  0.8113645E-01
        1   -1    0    0  501    0  0.00000000000E+00  0.00000000000E+00  0.20354602411E+04  0.20354602411E+04  0.50400001928E-02 0.  1.
       -1   -1    0    0    0  501  0.00000000000E+00  0.00000000000E+00 -0.15051011807E+04  0.15051011808E+04  0.50400001928E-02 0. -1.
    10030    2    1    2    0    0  0.00000000000E+00  0.00000000000E+00  0.53035906037E+03  0.35405614219E+04  0.35006134390E+04 0.  0.
        5    1    3    3  502    0 -0.45519729144E+03 -0.14674031392E+04 -0.58288480058E+03  0.16432447559E+04  0.46999998093E+01 0.  1.
       -5    1    3    3    0  502  0.45519729144E+03  0.14674031392E+04  0.11132438609E+04  0.18973166660E+04  0.46999998093E+01 0. -1.
</event>
<event>
 5   0  0.1121462E-08  0.3500290E+04  0.7818609E-02  0.8113721E-01
       -1   -1    0    0    0  501  0.00000000000E+00  0.00000000000E+00  0.18253890943E+04  0.18253890943E+04  0.50400001928E-02 0. -1.
        1   -1    0    0  501    0  0.00000000000E+00  0.00000000000E+00 -0.16780029721E+04  0.16780029722E+04  0.50400001928E-02 0.  1.
    10030    2    1    2    0    0  0.00000000000E+00  0.00000000000E+00  0.14738612211E+03  0.35033920664E+04  0.35002904597E+04 0.  0.
        4    1    3    3  502    0 -0.66473351927E+03 -0.50846495243E+03 -0.14647439075E+04  0.16869746847E+04  0.12699999809E+01 0.  1.
       -4    1    3    3    0  502  0.66473351927E+03  0.50846495243E+03  0.16121300296E+04  0.18164173817E+04  0.12699999809E+01 0. -1.
</event>
<event>
 5   0  0.1121462E-08  0.3499843E+04  0.7818609E-02  0.8113827E-01
        1   -1    0    0  501    0  0.00000000000E+00  0.00000000000E+00  0.21659918821E+04  0.21659918821E+04  0.50400001928E-02 0. -1.
       -1   -1    0    0    0  501  0.00000000000E+00  0.00000000000E+00 -0.14137750130E+04  0.14137750130E+04  0.50400001928E-02 0.  1.
    10030    2    1    2    0    0  0.00000000000E+00  0.00000000000E+00  0.75221686911E+03  0.35797668950E+04  0.34998429686E+04 0.  0.
        2    1    3    3  502    0  0.15926772370E+03 -0.23747569041E+03 -0.13897185532E+04  0.14188299999E+04  0.25500000920E-02 0.  1.
       -2    1    3    3    0  502 -0.15926772370E+03  0.23747569041E+03  0.21419354223E+04  0.21609368952E+04  0.25500000920E-02 0. -1.
</event>
<event>
 5   0  0.3553585E-08  0.3484146E+04  0.7818609E-02  0.8117557E-01
        2   -1    0    0  501    0  0.00000000000E+00  0.00000000000E+00  0.27810481863E+04  0.27810481863E+04  0.25500000920E-02 0.  1.
       -2   -1    0    0    0  501  0.00000000000E+00  0.00000000000E+00 -0.10912497251E+04  0.10912497251E+04  0.25500000920E-02 0. -1.
    10030    2    1    2    0    0  0.00000000000E+00  0.00000000000E+00  0.16897984612E+04  0.38722979114E+04  0.34841458458E+04 0.  0.
        2    1    3    3  502    0 -0.93893699004E+03 -0.90653649121E+03 -0.43751359165E+03  0.13765279598E+04  0.25500000920E-02 0. -1.
       -2    1    3    3    0  502  0.93893699004E+03  0.90653649121E+03  0.21273120529E+04  0.24957699516E+04  0.25500000920E-02 0.  1.
</event>
<event>
 5   0  0.3467834E-08  0.3500005E+04  0.7818609E-02  0.8113789E-01
       -2   -1    0    0    0  501  0.00000000000E+00  0.00000000000E+00  0.12256288028E+04  0.12256288028E+04  0.25500000920E-02 0. -1.
        2   -1    0    0  501    0  0.00000000000E+00  0.00000000000E+00 -0.24987239915E+04  0.24987239915E+04  0.25500000920E-02 0.  1.
    10030    2    1    2    0    0  0.00000000000E+00  0.00000000000E+00 -0.12730951887E+04  0.37243527943E+04  0.35000046252E+04 0.  0.
        3    1    3    3  502    0  0.56051463397E+03 -0.16215938126E+04 -0.10032606019E+04  0.19875298723E+04  0.10100000352E+00 0.  1.
       -3    1    3    3    0  502 -0.56051463397E+03  0.16215938126E+04 -0.26983458686E+03  0.17368229220E+04  0.10100000352E+00 0. -1.
</event>
<event>
 5   0  0.3700096E-08  0.3499582E+04  0.7818609E-02  0.8113889E-01
        2   -1    0    0  501    0  0.00000000000E+00  0.00000000000E+00  0.25200676282E+04  0.25200676282E+04  0.25500000920E-02 0. -1.
       -2   -1    0    0    0  501  0.00000000000E+00  0.00000000000E+00 -0.12149551721E+04  0.12149551721E+04  0.25500000920E-02 0.  1.
    10030    2    1    2    0    0  0.00000000000E+00  0.00000000000E+00  0.13051124561E+04  0.37350228003E+04  0.34995823744E+04 0.  0.
        4    1    3    3  502    0  0.34811790517E+03  0.14527241816E+04 -0.31988103135E+03  0.15277169604E+04  0.12699999809E+01 0.  1.
       -4    1    3    3    0  502 -0.34811790517E+03 -0.14527241816E+04  0.16249934874E+04  0.22073058399E+04  0.12699999809E+01 0. -1.
</event>
<event>
 5   0  0.1129219E-08  0.3499483E+04  0.7818609E-02  0.8113912E-01
       -1   -1    0    0    0  501  0.00000000000E+00  0.00000000000E+00  0.21553342073E+04  0.21553342073E+04  0.50400001928E-02 0. -1.
        1   -1    0    0  501    0  0.00000000000E+00  0.00000000000E+00 -0.14204738376E+04  0.14204738376E+04  0.50400001928E-02 0.  1.
    10030    2    1    2    0    0  0.00000000000E+00  0.00000000000E+00  0.73486036973E+03  0.35758080448E+04  0.34994833062E+04 0.  0.
        5    1    3    3  502    0  0.88674651568E+03  0.27338841517E+03  0.18831965139E+04  0.20994074899E+04  0.46999998093E+01 0. -1.
       -5    1    3    3    0  502 -0.88674651568E+03 -0.27338841517E+03 -0.11483361442E+04  0.14764005550E+04  0.46999998093E+01 0.  1.
</event>
<event>
 5   0  0.3628017E-08  0.3502112E+04  0.7818609E-02  0.8113290E-01
       -2   -1    0    0    0  501  0.00000000000E+00  0.00000000000E+00  0.16722530706E+04  0.16722530706E+04  0.25500000920E-02 0. -1.
        2   -1    0    0  501    0  0.00000000000E+00  0.00000000000E+00 -0.18335722704E+04  0.18335722704E+04  0.25500000920E-02 0.  1.
    10030    2    1    2    0    0  0.00000000000E+00  0.00000000000E+00 -0.16131919982E+03  0.35058253410E+04  0.35021118539E+04 0.  0.
        1    1    3    3  502    0  0.58236144852E+03  0.53129539019E+03  0.14845766859E+04  0.16808889270E+04  0.50400001928E-02 0. -1.
       -1    1    3    3    0  502 -0.58236144852E+03 -0.53129539019E+03 -0.16458958858E+04  0.18249364140E+04  0.50400001928E-02 0.  1.
</event>
<event>
 5   0  0.3554451E-08  0.3500216E+04  0.7818609E-02  0.8113739E-01
        2   -1    0    0  501    0  0.00000000000E+00  0.00000000000E+00  0.15075788332E+04  0.15075788332E+04  0.25500000920E-02 0.  1.
       -2   -1    0    0    0  501  0.00000000000E+00  0.00000000000E+00 -0.20316532070E+04  0.20316532070E+04  0.25500000920E-02 0. -1.
    10030    2    1    2    0    0  0.00000000000E+00  0.00000000000E+00 -0.52407437384E+03  0.35392320402E+04  0.35002156341E+04 0.  0.
        5    1    3    3  502    0 -0.38370059860E+03 -0.11629709021E+04  0.10021502843E+04  0.15824205354E+04  0.46999998093E+01 0.  1.
       -5    1    3    3    0  502  0.38370059860E+03  0.11629709021E+04 -0.15262246581E+04  0.19568115049E+04  0.46999998093E+01 0. -1.
</event>
<event>
 5   0  0.1121462E-08  0.3524660E+04  0.7818609E-02  0.8107971E-01
        1   -1    0    0  501    0  0.00000000000E+00  0.00000000000E+00  0.16466580974E+04  0.16466580974E+04  0.50400001928E-02 0.  1.
       -1   -1    0    0    0  501  0.00000000000E+00  0.00000000000E+00 -0.18861273413E+04  0.18861273413E+04  0.50400001928E-02 0. -1.
    10030    2    1    2    0    0  0.00000000000E+00  0.00000000000E+00 -0.23946924388E+03  0.35327854388E+04  0.35246599038E+04 0.  0.
        4    1    3    3  502    0  0.84996759450E+03 -0.88138447848E+03  0.11506737484E+04  0.16802783099E+04  0.12699999809E+01 0.  1.
       -4    1    3    3    0  502 -0.84996759450E+03  0.88138447848E+03 -0.13901429923E+04  0.18525071289E+04  0.12699999809E+01 0. -1.
</event>
<event>
 5   0  0.1121462E-08  0.3500108E+04  0.7818609E-02  0.8113764E-01
       -1   -1    0    0    0  501  0.00000000000E+00  0.00000000000E+00  0.15240730416E+04  0.15240730416E+04  0.50400001928E-02 0. -1.
        1   -1    0    0  501    0  0.00000000000E+00  0.00000000000E+00 -0.20095427023E+04  0.20095427023E+04  0.50400001928E-02 0.  1.
    10030    2    1    2    0    0  0.00000000000E+00  0.00000000000E+00 -0.48546966068E+03  0.35336157439E+04  0.35001084889E+04 0.  0.
        2    1    3    3  502    0  0.32261401457E+03 -0.15643347562E+04 -0.96475037999E+03  0.18660027673E+04  0.25500000920E-02 0.  1.
       -2    1    3    3    0  502 -0.32261401457E+03  0.15643347562E+04  0.47928071931E+03  0.16676129766E+04  0.25500000920E-02 0. -1.
</event>
<event>
 5   0  0.1121462E-08  0.3501237E+04  0.7818609E-02  0.8113497E-01
        1   -1    0    0  501    0  0.00000000000E+00  0.00000000000E+00  0.20205774302E+04  0.20205774302E+04  0.50400001928E-02 0.  1.
       -1   -1    0    0    0  501  0.00000000000E+00  0.00000000000E+00 -0.15167272127E+04  0.15167272127E+04  0.50400001928E-02 0. -1.
    10030    2    1    2    0    0  0.00000000000E+00  0.00000000000E+00  0.50385021745E+03  0.35373046429E+04  0.35012367950E+04 0.  0.
        2    1    3    3  502    0  0.35387850885E+03  0.15026011372E+04 -0.58218542785E+03  0.16498424315E+04  0.25500000920E-02 0. -1.
       -2    1    3    3    0  502 -0.35387850885E+03 -0.15026011372E+04  0.10860356453E+04  0.18874622114E+04  0.25500000920E-02 0.  1.
</event>
<event>
 5   0  0.1129219E-08  0.3501225E+04  0.7818609E-02  0.8113500E-01
        1   -1    0    0  501    0  0.00000000000E+00  0.00000000000E+00  0.20453657629E+04  0.20453657629E+04  0.50400001928E-02 0.  1.
       -1   -1    0    0    0  501  0.00000000000E+00  0.00000000000E+00 -0.14983355461E+04  0.14983355461E+04  0.50400001928E-02 0. -1.
    10030    2    1    2    0    0  0.00000000000E+00  0.00000000000E+00  0.54703021684E+03  0.35437013090E+04  0.35012250584E+04 0.  0.
        5    1    3    3  502    0  0.13478380287E+04 -0.91252021316E+03  0.92574093482E+03  0.18725327392E+04  0.46999998093E+01 0.  1.
       -5    1    3    3    0  502 -0.13478380287E+04  0.91252021316E+03 -0.37871071798E+03  0.16711685698E+04  0.46999998093E+01 0. -1.
</event>
<event>
 5   0  0.1121462E-08  0.3499257E+04  0.7818609E-02  0.8113966E-01
       -1   -1    0    0    0  501  0.00000000000E+00  0.00000000000E+00  0.33424660940E+04  0.33424660940E+04  0.50400001928E-02 0.  1.
        1   -1    0    0  501    0  0.00000000000E+00  0.00000000000E+00 -0.91585054571E+03  0.91585054573E+03  0.50400001928E-02 0. -1.
    10030    2    1    2    0    0  0.00000000000E+00  0.00000000000E+00  0.24266155483E+04  0.42583166398E+04  0.34992567190E+04 0.  0.
        4    1    3    3  502    0 -0.15596889167E+04 -0.16380198781E+03  0.26932174280E+03  0.15912248182E+04  0.12699999809E+01 0. -1.
       -4    1    3    3    0  502  0.15596889167E+04  0.16380198781E+03  0.21572938055E+04  0.26670918215E+04  0.12699999809E+01 0.  1.
</event>
<event>
 5   0  0.3553585E-08  0.3500282E+04  0.7818609E-02  0.8113723E-01
        2   -1    0    0  501    0  0.00000000000E+00  0.00000000000E+00  0.19439770224E+04  0.19439770224E+04  0.25500000920E-02 0.  1.
       -2   -1    0    0    0  501  0.00000000000E+00  0.00000000000E+00 -0.15756323561E+04  0.15756323561E+04  0.25500000920E-02 0. -1.
    10030    2    1    2    0    0  0.00000000000E+00  0.00000000000E+00  0.36834466635E+03  0.35196093785E+04  0.35002817578E+04 0.  0.
        2    1    3    3  502    0  0.10373168086E+04 -0.13924047461E+04  0.40487452132E+03  0.17829022734E+04  0.25500000920E-02 0.  1.
       -2    1    3    3    0  502 -0.10373168086E+04  0.13924047461E+04 -0.36529854966E+02  0.17367071051E+04  0.25500000920E-02 0. -1.
</event>
<event>
 5   0  0.3553585E-08  0.3500319E+04  0.7818609E-02  0.8113714E-01
        2   -1    0    0  501    0  0.00000000000E+00  0.00000000000E+00  0.21657621924E+04  0.21657621924E+04  0.25500000920E-02 0.  1.
       -2   -1    0    0    0  501  0.00000000000E+00  0.00000000000E+00 -0.14143095092E+04  0.14143095092E+04  0.25500000920E-02 0. -1.
    10030    2    1    2    0    0  0.00000000000E+00  0.00000000000E+00  0.75145268318E+03  0.35800717016E+04  0.35003188789E+04 0.  0.
        2    1    3    3  502    0  0.43300307516E+03 -0.14284820731E+03 -0.13524951430E+04  0.14272842693E+04  0.25500000920E-02 0. -1.
       -2    1    3    3    0  502 -0.43300307516E+03  0.14284820731E+03  0.21039478262E+04  0.21527874323E+04  0.25500000920E-02 0.  1.
</event>
<event>
 5   0  0.3467834E-08  0.3496057E+04  0.7818609E-02  0.8114725E-01
        2   -1    0    0  501    0  0.00000000000E+00  0.00000000000E+00  0.20007961206E+04  0.20007961206E+04  0.25500000920E-02 0. -1.
       -2   -1    0    0    0  501  0.00000000000E+00  0.00000000000E+00 -0.15271942911E+04  0.15271942911E+04  0.25500000920E-02 0.  1.
    10030    2    1    2    0    0  0.00000000000E+00  0.00000000000E+00  0.47360182951E+03  0.35279904116E+04  0.34960574440E+04 0.  0.
        3    1    3    3  502    0  0.63000383812E+03  0.50623946563E+03 -0.13273311144E+04  0.15540241730E+04  0.10100000352E+00 0.  1.
       -3    1    3    3    0  502 -0.63000383812E+03 -0.50623946563E+03  0.18009329439E+04  0.19739662387E+04  0.10100000352E+00 0. -1.
</event>
<event>
 5   0  0.1121462E-08  0.3501057E+04  0.7818609E-02  0.8113540E-01
        1   -1    0    0  501    0  0.00000000000E+00  0.00000000000E+00  0.25242807727E+04  0.25242807727E+04  0.50400001928E-02 0. -1.
       -1   -1    0    0    0  501  0.00000000000E+00  0.00000000000E+00 -0.12139495530E+04  0.12139495530E+04  0.50400001928E-02 0.  1.
    10030    2    1    2    0    0  0.00000000000E+00  0.00000000000E+00  0.13103312197E+04  0.37382303257E+04  0.35010567066E+04 0.  0.
        1    1    3    3  502    0 -0.11344166104E+04 -0.11420678113E+04 -0.79275475105E+02  0.16116775523E+04  0.50400001928E-02 0. -1.
       -1    1    3    3    0  502  0.11344166104E+04  0.11420678113E+04  0.13896066949E+04  0.21265527734E+04  0.50400001928E-02 0.  1.
</event>
<event>
 5   0  0.1121462E-08  0.3499782E+04  0.7818609E-02  0.8113842E-01
        1   -1    0    0  501    0  0.00000000000E+00  0.00000000000E+00  0.24838277522E+04  0.24838277522E+04  0.50400001928E-02 0.  1.
       -1   -1    0    0    0  501  0.00000000000E+00  0.00000000000E+00 -0.12328220780E+04  0.12328220780E+04  0.50400001928E-02 0. -1.
    10030    2    1    2    0    0  0.00000000000E+00  0.00000000000E+00  0.12510056742E+04  0.37166498303E+04  0.34997815309E+04 0.  0.
        2    1    3    3  502    0 -0.57976221415E+03 -0.15360335364E+04  0.12684919922E+04  0.20747518367E+04  0.25500000920E-02 0.  1.
       -2    1    3    3    0  502  0.57976221415E+03  0.15360335364E+04 -0.17486317985E+02  0.16418979935E+04  0.25500000920E-02 0. -1.
</event>
<event>
 5   0  0.1121462E-08  0.3504238E+04  0.7818609E-02  0.8112786E-01
       -1   -1    0    0    0  501  0.00000000000E+00  0.00000000000E+00  0.21102270114E+04  0.21102270114E+04  0.50400001928E-02 0.  1.
        1   -1    0    0  501    0  0.00000000000E+00  0.00000000000E+00 -0.14547821501E+04  0.14547821501E+04  0.50400001928E-02 0. -1.
    10030    2    1    2    0    0  0.00000000000E+00  0.00000000000E+00  0.65544486128E+03  0.35650091615E+04  0.35042377710E+04 0.  0.
        2    1    3    3  502    0  0.34017307601E+03 -0.11972028526E+04  0.15823608552E+04  0.20131761642E+04  0.25500000920E-02 0.  1.
       -2    1    3    3    0  502 -0.34017307601E+03  0.11972028526E+04 -0.92691599389E+03  0.15518329974E+04  0.25500000920E-02 0. -1.
</event>
<event>
 5   0  0.3467834E-08  0.3499899E+04  0.7818609E-02  0.8113814E-01
        2   -1    0    0  501    0  0.00000000000E+00  0.00000000000E+00  0.11928518648E+04  0.11928518648E+04  0.25500000920E-02 0.  1.
       -2   -1    0    0    0  501  0.00000000000E+00  0.00000000000E+00 -0.25672283715E+04  0.25672283715E+04  0.25500000920E-02 0. -1.
    10030    2    1    2    0    0  0.00000000000E+00  0.00000000000E+00 -0.13743765067E+04  0.37600802362E+04  0.34998989415E+04 0.  0.
        3    1    3    3  502    0 -0.50910558155E+03  0.82389862548E+03 -0.22530454757E+04  0.24523889097E+04  0.10100000352E+00 0. -1.
       -3    1    3    3    0  502  0.50910558155E+03 -0.82389862548E+03  0.87866896905E+03  0.13076913266E+04  0.10100000352E+00 0.  1.
</event>
<event>
 5   0  0.3553585E-08  0.3500234E+04  0.7818609E-02  0.8113734E-01
        2   -1    0    0  501    0  0.00000000000E+00  0.00000000000E+00  0.19133235060E+04  0.19133235060E+04  0.25500000920E-02 0. -1.
       -2   -1    0    0    0  501  0.00000000000E+00  0.00000000000E+00 -0.16008322864E+04  0.16008322864E+04  0.25500000920E-02 0.  1.
    10030    2    1    2    0    0  0.00000000000E+00  0.00000000000E+00  0.31249121954E+03  0.35141557924E+04  0.35002343023E+04 0.  0.
        2    1    3    3  502    0  0.23907582826E+03 -0.10285899149E+04  0.15574165541E+04  0.18816749952E+04  0.25500000920E-02 0. -1.
       -2    1    3    3    0  502 -0.23907582826E+03  0.10285899149E+04 -0.12449253345E+04  0.16324807972E+04  0.25500000920E-02 0.  1.
</event>
<event>
 5   0  0.3553585E-08  0.3500561E+04  0.7818609E-02  0.8113657E-01
       -2   -1    0    0    0  501  0.00000000000E+00  0.00000000000E+00  0.16041019458E+04  0.16041019458E+04  0.25500000920E-02 0. -1.
        2   -1    0    0  501    0  0.00000000000E+00  0.00000000000E+00 -0.19097800688E+04  0.19097800688E+04  0.25500000920E-02 0.  1.
    10030    2    1    2    0    0  0.00000000000E+00  0.00000000000E+00 -0.30567812300E+03  0.35138820146E+04  0.35005610547E+04 0.  0.
        2    1    3    3  502    0  0.16043436951E+04 -0.19782250468E+03 -0.82653344407E+03  0.18155467412E+04  0.25500000920E-02 0.  1.
       -2    1    3    3    0  502 -0.16043436951E+04  0.19782250468E+03  0.52085532107E+03  0.16983352734E+04  0.25500000920E-02 0. -1.
</event>
<event>
 5   0  0.1121462E-08  0.3499582E+04  0.7818609E-02  0.8113889E-01
       -1   -1    0    0    0  501  0.00000000000E+00  0.00000000000E+00  0.19476444891E+04  0.19476444891E+04  0.50400001928E-02 0.  1.
        1   -1    0    0  501    0  0.00000000000E+00  0.00000000000E+00 -0.15720362152E+04  0.15720362152E+04  0.50400001928E-02 0. -1.
    10030    2    1    2    0    0  0.00000000000E+00  0.00000000000E+00  0.37560827391E+03  0.35196807043E+04  0.34995815013E+04 0.  0.
        4    1    3    3  502    0 -0.13355069571E+04  0.10416046038E+04 -0.25431938364E+03  0.17126584438E+04  0.12699999809E+01 0. -1.
       -4    1    3    3    0  502  0.13355069571E+04 -0.10416046038E+04  0.62992765756E+03  0.18070222605E+04  0.12699999809E+01 0.  1.
</event>
<event>
 5   0  0.3628017E-08  0.3499540E+04  0.7818609E-02  0.8113899E-01
       -2   -1    0    0    0  501  0.00000000000E+00  0.00000000000E+00  0.12963944254E+04  0.12963944254E+04  0.25500000920E-02 0. -1.
        2   -1    0    0  501    0  0.00000000000E+00  0.00000000000E+00 -0.23616999598E+04  0.23616999598E+04  0.25500000920E-02 0.  1.
    10030    2    1    2    0    0  0.00000000000E+00  0.00000000000E+00 -0.10653055344E+04  0.36580943852E+04  0.34995397768E+04 0.  0.
        1    1    3    3  502    0 -0.13449261662E+04 -0.67279447082E+02  0.63526084346E+03  0.14889288955E+04  0.50400001928E-02 0. -1.
       -1    1    3    3    0  502  0.13449261662E+04  0.67279447082E+02 -0.17005663778E+04  0.21691654897E+04  0.50400001928E-02 0.  1.
</event>
<event>
 5   0  0.3467834E-08  0.3500601E+04  0.7818609E-02  0.8113648E-01
       -2   -1    0    0    0  501  0.00000000000E+00  0.00000000000E+00  0.13300718679E+04  0.13300718679E+04  0.25500000920E-02 0.  1.
        2   -1    0    0  501    0  0.00000000000E+00  0.00000000000E+00 -0.23032975061E+04  0.23032975061E+04  0.25500000920E-02 0. -1.
    10030    2    1    2    0    0  0.00000000000E+00  0.00000000000E+00 -0.97322563817E+03  0.36333693740E+04  0.35006006435E+04 0.  0.
        3    1    3    3  502    0  0.31995785450E+03  0.15120422925E+04 -0.13392980064E+04  0.20450829037E+04  0.10100000352E+00 0. -1.
       -3    1    3    3    0  502 -0.31995785450E+03 -0.15120422925E+04  0.36607236823E+03  0.15882864703E+04  0.10100000352E+00 0.  1.
</event>
<event>
 5   0  0.1121462E-08  0.3501158E+04  0.7818609E-02  0.8113516E-01
        1   -1    0    0  501    0  0.00000000000E+00  0.00000000000E+00  0.30682594499E+04  0.30682594499E+04  0.50400001928E-02 0. -1.
       -1   -1    0    0    0  501  0.00000000000E+00  0.00000000000E+00 -0.99878336685E+03  0.99878336686E+03  0.50400001928E-02 0.  1.
    10030    2    1    2    0    0  0.00000000000E+00  0.00000000000E+00  0.20694760831E+04  0.40670428168E+04  0.35011578107E+04 0.  0.
        2    1    3    3  502    0  0.15312244659E+04 -0.32687977569E+03  0.19442473025E+04  0.24963165516E+04  0.25500000920E-02 0. -1.
       -2    1    3    3    0  502 -0.15312244659E+04  0.32687977569E+03  0.12522878057E+03  0.15707262652E+04  0.25500000920E-02 0.  1.
</event>
<event>
 5   0  0.3467834E-08  0.3500031E+04  0.7818609E-02  0.8113783E-01
        2   -1    0    0  501    0  0.00000000000E+00  0.00000000000E+00  0.30523932940E+04  0.30523932940E+04  0.25500000920E-02 0. -1.
       -2   -1    0    0    0  501  0.00000000000E+00  0.00000000000E+00 -0.10033290179E+04  0.10033290179E+04  0.25500000920E-02 0.  1.
    10030    2    1    2    0    0  0.00000000000E+00  0.00000000000E+00  0.20490642761E+04  0.40557223119E+04  0.35000312946E+04 0.  0.
        3    1    3    3  502    0 -0.11364657251E+04 -0.94328107521E+03  0.21123063503E+04  0.25774350930E+04  0.10100000352E+00 0. -1.
       -3    1    3    3    0  502  0.11364657251E+04  0.94328107521E+03 -0.63242074139E+02  0.14782872188E+04  0.10100000352E+00 0.  1.
</event>
<event>
 5   0  0.3553585E-08  0.3501846E+04  0.7818609E-02  0.8113353E-01
       -2   -1    0    0    0  501  0.00000000000E+00  0.00000000000E+00  0.19857997177E+04  0.19857997177E+04  0.25500000920E-02 0. -1.
        2   -1    0    0  501    0  0.00000000000E+00  0.00000000000E+00 -0.15438273974E+04  0.15438273974E+04  0.25500000920E-02 0.  1.
    10030    2    1    2    0    0  0.00000000000E+00  0.00000000000E+00  0.44197232025E+03  0.35296271151E+04  0.35018463758E+04 0.  0.
        2    1    3    3  502    0 -0.27987724039E+03  0.17139886187E+04 -0.35902058385E+01  0.17366925877E+04  0.25500000920E-02 0.  1.
       -2    1    3    3    0  502  0.27987724039E+03 -0.17139886187E+04  0.44556252609E+03  0.17929345274E+04  0.25500000920E-02 0. -1.
</event>
<event>
 5   0  0.3554451E-08  0.3525910E+04  0.7818609E-02  0.8107677E-01
       -2   -1    0    0    0  501  0.00000000000E+00  0.00000000000E+00  0.20867957953E+04  0.20867957953E+04  0.25500000920E-02 0.  1.
        2   -1    0    0  501    0  0.00000000000E+00  0.00000000000E+00 -0.14893692776E+04  0.14893692776E+04  0.25500000920E-02 0. -1.
    10030    2    1    2    0    0  0.00000000000E+00  0.00000000000E+00  0.59742651768E+03  0.35761650729E+04  0.35259095543E+04 0.  0.
        5    1    3    3  502    0 -0.93258874833E+02  0.14050890450E+04  0.13744984182E+04  0.19678009131E+04  0.46999998093E+01 0.  1.
       -5    1    3    3    0  502  0.93258874833E+02 -0.14050890450E+04 -0.77707190049E+03  0.16083641598E+04  0.46999998093E+01 0. -1.
</event>
<event>
 5   0  0.1129219E-08  0.3503013E+04  0.7818609E-02  0.8113076E-01
        1   -1    0    0  501    0  0.00000000000E+00  0.00000000000E+00  0.96128227636E+03  0.96128227638E+03  0.50400001928E-02 0.  1.
       -1   -1    0    0    0  501  0.00000000000E+00  0.00000000000E+00 -0.31913359896E+04  0.31913359896E+04  0.50400001928E-02 0. -1.
    10030    2    1    2    0    0  0.00000000000E+00  0.00000000000E+00 -0.22300537133E+04  0.41526182660E+04  0.35030128317E+04 0.  0.
        5    1    3    3  502    0 -0.14500160554E+04 -0.47936109728E+03 -0.98432467586E+02  0.15303740273E+04  0.46999998093E+01 0.  1.
       -5    1    3    3    0  502  0.14500160554E+04  0.47936109728E+03 -0.21316212457E+04  0.26222442387E+04  0.46999998093E+01 0. -1.
</event>
<event>
 5   0  0.1129219E-08  0.3500206E+04  0.7818609E-02  0.8113741E-01
        1   -1    0    0  501    0  0.00000000000E+00  0.00000000000E+00  0.24035950318E+04  0.24035950318E+04  0.50400001928E-02 0.  1.
       -1   -1    0    0    0  501  0.00000000000E+00  0.00000000000E+00 -0.12742831699E+04  0.12742831700E+04  0.50400001928E-02 0. -1.
    10030    2    1    2    0    0  0.00000000000E+00  0.00000000000E+00  0.11293118619E+04  0.36778782018E+04  0.35002061062E+04 0.  0.
        5    1    3    3  502    0  0.17211112291E+04 -0.12106521469E+03  0.87272405760E+03  0.19335330408E+04  0.46999998093E+01 0. -1.
       -5    1    3    3    0  502 -0.17211112291E+04  0.12106521469E+03  0.25658780429E+03  0.17443451610E+04  0.46999998093E+01 0.  1.
</event>
<event>
 5   0  0.3628017E-08  0.3500727E+04  0.7818609E-02  0.8113618E-01
        2   -1    0    0  501    0  0.00000000000E+00  0.00000000000E+00  0.25697170450E+04  0.25697170450E+04  0.25500000920E-02 0.  1.
       -2   -1    0    0    0  501  0.00000000000E+00  0.00000000000E+00 -0.11922605116E+04  0.11922605116E+04  0.25500000920E-02 0. -1.
    10030    2    1    2    0    0  0.00000000000E+00  0.00000000000E+00  0.13774565334E+04  0.37619775565E+04  0.35007268723E+04 0.  0.
        1    1    3    3  502    0 -0.75525048950E+03  0.47445682070E+03 -0.92974059791E+03  0.12883827677E+04  0.50400001928E-02 0. -1.
       -1    1    3    3    0  502  0.75525048950E+03 -0.47445682070E+03  0.23071971313E+04  0.24735947889E+04  0.50400001928E-02 0.  1.
</event>
<event>
 5   0  0.1121462E-08  0.3498622E+04  0.7818609E-02  0.8114117E-01
        1   -1    0    0  501    0  0.00000000000E+00  0.00000000000E+00  0.21338557355E+04  0.21338557355E+04  0.50400001928E-02 0. -1.
       -1   -1    0    0    0  501  0.00000000000E+00  0.00000000000E+00 -0.14340654079E+04  0.14340654079E+04  0.50400001928E-02 0.  1.
    10030    2    1    2    0    0  0.00000000000E+00  0.00000000000E+00  0.69979032763E+03  0.35679211433E+04  0.34986218405E+04 0.  0.
        4    1    3    3  502    0  0.13633547601E+04  0.94721990390E+03  0.91229416932E+03  0.18942660881E+04  0.12699999809E+01 0. -1.
       -4    1    3    3    0  502 -0.13633547601E+04 -0.94721990390E+03 -0.21250384169E+03  0.16736550552E+04  0.12699999809E+01 0.  1.
</event>
<event>
 5   0  0.3553585E-08  0.3501365E+04  0.7818609E-02  0.8113467E-01
       -2   -1    0    0    0  501  0.00000000000E+00  0.00000000000E+00  0.13930527150E+04  0.13930527150E+04  0.25500000920E-02 0.  1.
        2   -1    0    0  501    0  0.00000000000E+00  0.00000000000E+00 -0.22001245053E+04  0.22001245053E+04  0.25500000920E-02 0. -1.
    10030    2    1    2    0    0  0.00000000000E+00  0.00000000000E+00 -0.80707179029E+03  0.35931772204E+04  0.35013651141E+04 0.  0.
        2    1    3    3  502    0  0.11839158818E+04  0.51461406147E+03 -0.16170860122E+04  0.20691668899E+04  0.25500000920E-02 0. -1.
       -2    1    3    3    0  502 -0.11839158818E+04 -0.51461406147E+03  0.81001422196E+03  0.15240103304E+04  0.25500000920E-02 0.  1.
</event>
<event>
 5   0  0.1121462E-08  0.3500182E+04  0.7818609E-02  0.8113747E-01
        1   -1    0    0  501    0  0.00000000000E+00  0.00000000000E+00  0.12793983640E+04  0.12793983640E+04  0.50400001928E-02 0.  1.
       -1   -1    0    0    0  501  0.00000000000E+00  0.00000000000E+00 -0.23939520498E+04  0.23939520498E+04  0.50400001928E-02 0. -1.
    10030    2    1    2    0    0  0.00000000000E+00  0.00000000000E+00 -0.11145536857E+04  0.36733504138E+04  0.35001819016E+04 0.  0.
        1    1    3    3  502    0  0.13650942344E+04  0.10610874149E+04 -0.27289149136E+03  0.17503881104E+04  0.50400001928E-02 0. -1.
       -1    1    3    3    0  502 -0.13650942344E+04 -0.10610874149E+04 -0.84166219436E+03  0.19229623034E+04  0.50400001928E-02 0.  1.
</event>
<event>
 5   0  0.3700096E-08  0.3499298E+04  0.7818609E-02  0.8113956E-01
        2   -1    0    0  501    0  0.00000000000E+00  0.00000000000E+00  0.10456734107E+04  0.10456734107E+04  0.25500000920E-02 0.  1.
       -2   -1    0    0    0  501  0.00000000000E+00  0.00000000000E+00 -0.29275598618E+04  0.29275598618E+04  0.25500000920E-02 0. -1.
    10030    2    1    2    0    0  0.00000000000E+00  0.00000000000E+00 -0.18818864511E+04  0.39732332726E+04  0.34992979329E+04 0.  0.
        4    1    3    3  502    0 -0.10787364427E+04 -0.85609426154E+03  0.28443516587E+03  0.14062271061E+04  0.12699999809E+01 0.  1.
       -4    1    3    3    0  502  0.10787364427E+04  0.85609426154E+03 -0.21663216170E+04  0.25670061664E+04  0.12699999809E+01 0. -1.
</event>
<event>
 5   0  0.1121462E-08  0.3500719E+04  0.7818609E-02  0.8113620E-01
        1   -1    0    0  501    0  0.00000000000E+00  0.00000000000E+00  0.18556040464E+04  0.18556040464E+04  0.50400001928E-02 0. -1.
       -1   -1    0    0    0  501  0.00000000000E+00  0.00000000000E+00 -0.16510840475E+04  0.16510840475E+04  0.50400001928E-02 0.  1.
    10030    2    1    2    0    0  0.00000000000E+00  0.00000000000E+00  0.20451999897E+03  0.35066880939E+04  0.35007189202E+04 0.  0.
        4    1    3    3  502    0  0.12242463226E+04  0.26971331275E+03 -0.11213925369E+04  0.16819771592E+04  0.12699999809E+01 0.  1.
       -4    1    3    3    0  502 -0.12242463226E+04 -0.26971331275E+03  0.13259125358E+04  0.18247109347E+04  0.12699999809E+01 0. -1.
</event>
<event>
 5   0  0.1121462E-08  0.3484328E+04  0.7818609E-02  0.8117514E-01
        1   -1    0    0  501    0  0.00000000000E+00  0.00000000000E+00  0.17555952401E+04  0.17555952401E+04  0.50400001928E-02 0.  1.
       -1   -1    0    0    0  501  0.00000000000E+00  0.00000000000E+00 -0.17288358630E+04  0.17288358630E+04  0.50400001928E-02 0. -1.
    10030    2    1    2    0    0  0.00000000000E+00  0.00000000000E+00  0.26759377165E+02  0.34844311031E+04  0.34843283496E+04 0.  0.
        2    1    3    3  502    0  0.10065297846E+04  0.12875189176E+04 -0.59023469998E+03  0.17375799756E+04  0.25500000920E-02 0. -1.
       -2    1    3    3    0  502 -0.10065297846E+04 -0.12875189176E+04  0.61699407715E+03  0.17468511275E+04  0.25500000920E-02 0.  1.
</event>
<event>
 5   0  0.1121462E-08  0.3498773E+04  0.7818609E-02  0.8114081E-01
       -1   -1    0    0    0  501  0.00000000000E+00  0.00000000000E+00  0.20047278914E+04  0.20047278914E+04  0.50400001928E-02 0.  1.
        1   -1    0    0  501    0  0.00000000000E+00  0.00000000000E+00 -0.15265680301E+04  0.15265680301E+04  0.50400001928E-02 0. -1.
    10030    2    1    2    0    0  0.00000000000E+00  0.00000000000E+00  0.47815986127E+03  0.35312959215E+04  0.34987732182E+04 0.  0.
        4    1    3    3  502    0 -0.18058057892E+03  0.15724250540E+04  0.99113847903E+03  0.18674814573E+04  0.12699999809E+01 0.  1.
       -4    1    3    3    0  502  0.18058057892E+03 -0.15724250540E+04 -0.51297861777E+03  0.16638144642E+04  0.12699999809E+01 0. -1.
</event>
<event>
 5   0  0.1129219E-08  0.3500546E+04  0.7818609E-02  0.8113661E-01
       -1   -1    0    0    0  501  0.00000000000E+00  0.00000000000E+00  0.17347154203E+04  0.17347154203E+04  0.50400001928E-02 0.  1.
        1   -1    0    0  501    0  0.00000000000E+00  0.00000000000E+00 -0.17659703580E+04  0.17659703580E+04  0.50400001928E-02 0. -1.
    10030    2    1    2    0    0  0.00000000000E+00  0.00000000000E+00 -0.31254937776E+02  0.35006857783E+04  0.35005462499E+04 0.  0.
        5    1    3    3  502    0  0.93743689772E+03 -0.14757217033E+04  0.67390530899E+02  0.17496016851E+04  0.46999998093E+01 0. -1.
       -5    1    3    3    0  502 -0.93743689772E+03  0.14757217033E+04 -0.98645468675E+02  0.17510840932E+04  0.46999998093E+01 0.  1.
</event>
<event>
 5   0  0.3628017E-08  0.3500303E+04  0.7818609E-02  0.8113718E-01
       -2   -1    0    0    0  501  0.00000000000E+00  0.00000000000E+00  0.15312588477E+04  0.15312588477E+04  0.25500000920E-02 0.  1.
        2   -1    0    0  501    0  0.00000000000E+00  0.00000000000E+00 -0.20003349948E+04  0.20003349948E+04  0.25500000920E-02 0. -1.
    10030    2    1    2    0    0  0.00000000000E+00  0.00000000000E+00 -0.46907614706E+03  0.35315938425E+04  0.35003032206E+04 0.  0.
        1    1    3    3  502    0  0.94065875266E+03  0.75335436225E+03  0.10459205037E+04  0.15957228406E+04  0.50400001928E-02 0.  1.
       -1    1    3    3    0  502 -0.94065875266E+03 -0.75335436225E+03 -0.15149966507E+04  0.19358710018E+04  0.50400001928E-02 0. -1.
</event>
<event>
 5   0  0.1129219E-08  0.3500677E+04  0.7818609E-02  0.8113629E-01
        1   -1    0    0  501    0  0.00000000000E+00  0.00000000000E+00  0.13488192288E+04  0.13488192288E+04  0.50400001928E-02 0.  1.
       -1   -1    0    0    0  501  0.00000000000E+00  0.00000000000E+00 -0.22713834875E+04  0.22713834875E+04  0.50400001928E-02 0. -1.
    10030    2    1    2    0    0  0.00000000000E+00  0.00000000000E+00 -0.92256425875E+03  0.36202027163E+04  0.35006774910E+04 0.  0.
        5    1    3    3  502    0 -0.75654411291E+03  0.19405061847E+03 -0.20811776539E+04  0.22229118638E+04  0.46999998093E+01 0. -1.
       -5    1    3    3    0  502  0.75654411291E+03 -0.19405061847E+03  0.11586133951E+04  0.13972908525E+04  0.46999998093E+01 0.  1.
</event>
<event>
 5   0  0.3628017E-08  0.3501228E+04  0.7818609E-02  0.8113499E-01
        2   -1    0    0  501    0  0.00000000000E+00  0.00000000000E+00  0.19688974641E+04  0.19688974641E+04  0.25500000920E-02 0. -1.
       -2   -1    0    0    0  501  0.00000000000E+00  0.00000000000E+00 -0.15565303556E+04  0.15565303556E+04  0.25500000920E-02 0.  1.
    10030    2    1    2    0    0  0.00000000000E+00  0.00000000000E+00  0.41236710850E+03  0.35254278197E+04  0.35012275961E+04 0.  0.
        1    1    3    3  502    0 -0.92675081569E+03 -0.31343196489E+03 -0.12555883267E+04  0.15917313583E+04  0.50400001928E-02 0.  1.
       -1    1    3    3    0  502  0.92675081569E+03  0.31343196489E+03  0.16679554352E+04  0.19336964614E+04  0.50400001928E-02 0. -1.
</event>
<event>
 5   0  0.1140808E-08  0.3503082E+04  0.7818609E-02  0.8113060E-01
       -1   -1    0    0    0  501  0.00000000000E+00  0.00000000000E+00  0.12911405482E+04  0.12911405482E+04  0.50400001928E-02 0. -1.
        1   -1    0    0  501    0  0.00000000000E+00  0.00000000000E+00 -0.23761133385E+04  0.23761133385E+04  0.50400001928E-02 0.  1.
    10030    2    1    2    0    0  0.00000000000E+00  0.00000000000E+00 -0.10849727903E+04  0.36672538866E+04  0.35030822305E+04 0.  0.
        3    1    3    3  502    0 -0.12058529412E+04 -0.11450969512E+03  0.78199528225E+03  0.14417733587E+04  0.10100000352E+00 0. -1.
       -3    1    3    3    0  502  0.12058529412E+04  0.11450969512E+03 -0.18669680726E+04  0.22254805280E+04  0.10100000352E+00 0.  1.
</event>
<event>
 5   0  0.1129219E-08  0.3498303E+04  0.7818609E-02  0.8114192E-01
       -1   -1    0    0    0  501  0.00000000000E+00  0.00000000000E+00  0.12646054144E+04  0.12646054144E+04  0.50400001928E-02 0. -1.
        1   -1    0    0  501    0  0.00000000000E+00  0.00000000000E+00 -0.24193556531E+04  0.24193556531E+04  0.50400001928E-02 0.  1.
    10030    2    1    2    0    0  0.00000000000E+00  0.00000000000E+00 -0.11547502387E+04  0.36839610675E+04  0.34983025931E+04 0.  0.
        5    1    3    3  502    0 -0.91830451619E+03  0.19784823317E+03 -0.21311745562E+04  0.23290242993E+04  0.46999998093E+01 0.  1.
       -5    1    3    3    0  502  0.91830451619E+03 -0.19784823317E+03  0.97642431752E+03  0.13549367681E+04  0.46999998093E+01 0. -1.
</event>
<event>
 5   0  0.3700096E-08  0.3500082E+04  0.7818609E-02  0.8113771E-01
        2   -1    0    0  501    0  0.00000000000E+00  0.00000000000E+00  0.26050126205E+04  0.26050126205E+04  0.25500000920E-02 0. -1.
       -2   -1    0    0    0  501  0.00000000000E+00  0.00000000000E+00 -0.11756730978E+04  0.11756730978E+04  0.25500000920E-02 0.  1.
    10030    2    1    2    0    0  0.00000000000E+00  0.00000000000E+00  0.14293395227E+04  0.37806857183E+04  0.35000818603E+04 0.  0.
        4    1    3    3  502    0 -0.31045212657E+03 -0.14865422605E+04  0.16541408411E+04  0.22455226452E+04  0.12699999809E+01 0. -1.
       -4    1    3    3    0  502  0.31045212657E+03  0.14865422605E+04 -0.22480131836E+03  0.15351630730E+04  0.12699999809E+01 0.  1.
</event>
<event>
 5   0  0.3553585E-08  0.3499824E+04  0.7818609E-02  0.8113832E-01
        2   -1    0    0  501    0  0.00000000000E+00  0.00000000000E+00  0.12724999404E+04  0.12724999404E+04  0.25500000920E-02 0. -1.
       -2   -1    0    0    0  501  0.00000000000E+00  0.00000000000E+00 -0.24064372082E+04  0.24064372082E+04  0.25500000920E-02 0.  1.
    10030    2    1    2    0    0  0.00000000000E+00  0.00000000000E+00 -0.11339372678E+04  0.36789371487E+04  0.34998235408E+04 0.  0.
        2    1    3    3  502    0 -0.16438800449E+04  0.49188401646E+03 -0.20603063958E+03  0.17282187686E+04  0.25500000920E-02 0.  1.
       -2    1    3    3    0  502  0.16438800449E+04 -0.49188401646E+03 -0.92790662821E+03  0.19507183801E+04  0.25500000920E-02 0. -1.
</event>
<event>
 5   0  0.1121462E-08  0.3506867E+04  0.7818609E-02  0.8112165E-01
        1   -1    0    0  501    0  0.00000000000E+00  0.00000000000E+00  0.16558879613E+04  0.16558879614E+04  0.50400001928E-02 0. -1.
       -1   -1    0    0    0  501  0.00000000000E+00  0.00000000000E+00 -0.18567248781E+04  0.18567248781E+04  0.50400001928E-02 0.  1.
    10030    2    1    2    0    0  0.00000000000E+00  0.00000000000E+00 -0.20083691672E+03  0.35126128394E+04  0.35068666203E+04 0.  0.
        1    1    3    3  502    0 -0.12993949567E+04  0.86983489534E+03  0.69428461593E+03  0.17108685299E+04  0.50400001928E-02 0. -1.
       -1    1    3    3    0  502  0.12993949567E+04 -0.86983489534E+03 -0.89512153265E+03  0.18017443095E+04  0.50400001928E-02 0.  1.
</event>
<event>
 5   0  0.3554451E-08  0.3500270E+04  0.7818609E-02  0.8113726E-01
        2   -1    0    0  501    0  0.00000000000E+00  0.00000000000E+00  0.24023061668E+04  0.24023061668E+04  0.25500000920E-02 0. -1.
       -2   -1    0    0    0  501  0.00000000000E+00  0.00000000000E+00 -0.12750134050E+04  0.12750134050E+04  0.25500000920E-02 0.  1.
    10030    2    1    2    0    0  0.00000000000E+00  0.00000000000E+00  0.11272927619E+04  0.36773195718E+04  0.35002700271E+04 0.  0.
        5    1    3    3  502    0 -0.88606424137E+03 -0.19670746658E+03  0.21357135878E+04  0.23205814544E+04  0.46999998093E+01 0. -1.
       -5    1    3    3    0  502  0.88606424137E+03  0.19670746658E+03 -0.10084208259E+04  0.13567381175E+04  0.46999998093E+01 0.  1.
</event>
<event>
 5   0  0.1121462E-08  0.3500880E+04  0.7818609E-02  0.8113581E-01
       -1   -1    0    0    0  501  0.00000000000E+00  0.00000000000E+00  0.14002881394E+04  0.14002881394E+04  0.50400001928E-02 0.  1.
        1   -1    0    0  501    0  0.00000000000E+00  0.00000000000E+00 -0.21881494829E+04  0.21881494829E+04  0.50400001928E-02 0. -1.
    10030    2    1    2    0    0  0.00000000000E+00  0.00000000000E+00 -0.78786134353E+03  0.35884376224E+04  0.35008797570E+04 0.  0.
        1    1    3    3  502    0 -0.62740298185E+03 -0.65059363008E+02 -0.20676103109E+04  0.21616844405E+04  0.50400001928E-02 0. -1.
       -1    1    3    3    0  502  0.62740298185E+03  0.65059363008E+02  0.12797489674E+04  0.14267531819E+04  0.50400001928E-02 0.  1.
</event>
<event>
 5   0  0.3700096E-08  0.3500355E+04  0.7818609E-02  0.8113706E-01
       -2   -1    0    0    0  501  0.00000000000E+00  0.00000000000E+00  0.13374984538E+04  0.13374984538E+04  0.25500000920E-02 0.  1.
        2   -1    0    0  501    0  0.00000000000E+00  0.00000000000E+00 -0.22901868193E+04  0.22901868193E+04  0.25500000920E-02 0. -1.
    10030    2    1    2    0    0  0.00000000000E+00  0.00000000000E+00 -0.95268836552E+03  0.36276852730E+04  0.35003550275E+04 0.  0.
        4    1    3    3  502    0 -0.62657630836E+03 -0.15682470912E+04 -0.95253957160E+03  0.19388991871E+04  0.12699999809E+01 0.  1.
       -4    1    3    3    0  502  0.62657630836E+03  0.15682470912E+04 -0.14879392438E+00  0.16887860860E+04  0.12699999809E+01 0. -1.
</event>
<event>
 5   0  0.1121462E-08  0.3500597E+04  0.7818609E-02  0.8113649E-01
       -1   -1    0    0    0  501  0.00000000000E+00  0.00000000000E+00  0.15954349021E+04  0.15954349021E+04  0.50400001928E-02 0.  1.
        1   -1    0    0  501    0  0.00000000000E+00  0.00000000000E+00 -0.19201940189E+04  0.19201940189E+04  0.50400001928E-02 0. -1.
    10030    2    1    2    0    0  0.00000000000E+00  0.00000000000E+00 -0.32475911679E+03  0.35156289210E+04  0.35005968386E+04 0.  0.
        4    1    3    3  502    0  0.11173919223E+04 -0.10910265572E+04  0.63135553156E+03  0.16844925279E+04  0.12699999809E+01 0.  1.
       -4    1    3    3    0  502 -0.11173919223E+04  0.10910265572E+04 -0.95611464835E+03  0.18311363931E+04  0.12699999809E+01 0. -1.
</event>
<event>
 5   0  0.1121462E-08  0.3499497E+04  0.7818609E-02  0.8113909E-01
        1   -1    0    0  501    0  0.00000000000E+00  0.00000000000E+00  0.19276666014E+04  0.19276666014E+04  0.50400001928E-02 0.  1.
       -1   -1    0    0    0  501  0.00000000000E+00  0.00000000000E+00 -0.15882518050E+04  0.15882518050E+04  0.50400001928E-02 0. -1.
    10030    2    1    2    0    0  0.00000000000E+00  0.00000000000E+00  0.33941479644E+03  0.35159184064E+04  0.34994970833E+04 0.  0.
        2    1    3    3  502    0  0.15886844792E+04 -0.70425040082E+03  0.37495246810E+03  0.17777728637E+04  0.25500000920E-02 0.  1.
       -2    1    3    3    0  502 -0.15886844792E+04  0.70425040082E+03 -0.35537671655E+02  0.17381455427E+04  0.25500000920E-02 0. -1.
</event>
<event>
 5   0  0.3553585E-08  0.3500740E+04  0.7818609E-02  0.8113615E-01
        2   -1    0    0  501    0  0.00000000000E+00  0.00000000000E+00  0.15270566306E+04  0.15270566306E+04  0.25500000920E-02 0.  1.
       -2   -1    0    0    0  501  0.00000000000E+00  0.00000000000E+00 -0.20063397963E+04  0.20063397963E+04  0.25500000920E-02 0. -1.
    10030    2    1    2    0    0  0.00000000000E+00  0.00000000000E+00 -0.47928316564E+03  0.35333964269E+04  0.35007396299E+04 0.  0.
        2    1    3    3  502    0 -0.12300211537E+04 -0.51891306906E+03  0.90298416187E+03  0.16117081648E+04  0.25500000920E-02 0.  1.
       -2    1    3    3    0  502  0.12300211537E+04  0.51891306906E+03 -0.13822673275E+04  0.19216882621E+04  0.25500000920E-02 0. -1.
</event>
<event>
 5   0  0.1129219E-08  0.3499943E+04  0.7818609E-02  0.8113803E-01
       -1   -1    0    0    0  501  0.00000000000E+00  0.00000000000E+00  0.15953531938E+04  0.15953531938E+04  0.50400001928E-02 0. -1.
        1   -1    0    0  501    0  0.00000000000E+00  0.00000000000E+00 -0.19195753433E+04  0.19195753433E+04  0.50400001928E-02 0.  1.
    10030    2    1    2    0    0  0.00000000000E+00  0.00000000000E+00 -0.32422214952E+03  0.35149285372E+04  0.34999432309E+04 0.  0.
        5    1    3    3  502    0 -0.13957212219E+04  0.47814979178E+03 -0.11072641661E+04  0.18446465722E+04  0.46999998093E+01 0.  1.
       -5    1    3    3    0  502  0.13957212219E+04 -0.47814979178E+03  0.78304201659E+03  0.16702819650E+04  0.46999998093E+01 0. -1.
</event>
<event>
 5   0  0.1121462E-08  0.3499950E+04  0.7818609E-02  0.8113802E-01
        1   -1    0    0  501    0  0.00000000000E+00  0.00000000000E+00  0.21853951791E+04  0.21853951791E+04  0.50400001928E-02 0.  1.
       -1   -1    0    0    0  501  0.00000000000E+00  0.00000000000E+00 -0.14013084591E+04  0.14013084591E+04  0.50400001928E-02 0. -1.
    10030    2    1    2    0    0  0.00000000000E+00  0.00000000000E+00  0.78408672002E+03  0.35867036381E+04  0.34999501430E+04 0.  0.
        1    1    3    3  502    0  0.83865294996E+03  0.13761695513E+04 -0.30694206480E+03  0.16405471147E+04  0.50400001928E-02 0. -1.
       -1    1    3    3    0  502 -0.83865294996E+03 -0.13761695513E+04  0.10910287848E+04  0.19461565234E+04  0.50400001928E-02 0.  1.
</event>
<event>
 5   0  0.1129219E-08  0.3502314E+04  0.7818609E-02  0.8113242E-01
        1   -1    0    0  501    0  0.00000000000E+00  0.00000000000E+00  0.22598356534E+04  0.22598356534E+04  0.50400001928E-02 0. -1.
       -1   -1    0    0    0  501  0.00000000000E+00  0.00000000000E+00 -0.13569797957E+04  0.13569797957E+04  0.50400001928E-02 0.  1.
    10030    2    1    2    0    0  0.00000000000E+00  0.00000000000E+00  0.90285585765E+03  0.36168154491E+04  0.35023142768E+04 0.  0.
        5    1    3    3  502    0 -0.35371516175E+03 -0.46435896160E+03  0.21563992524E+04  0.22340151044E+04  0.46999998093E+01 0. -1.
       -5    1    3    3    0  502  0.35371516175E+03  0.46435896160E+03 -0.12535433948E+04  0.13828003447E+04  0.46999998093E+01 0.  1.
</event>
<event>
 5   0  0.3553585E-08  0.3502616E+04  0.7818609E-02  0.8113170E-01
        2   -1    0    0  501    0  0.00000000000E+00  0.00000000000E+00  0.15696029029E+04  0.15696029029E+04  0.25500000920E-02 0.  1.
       -2   -1    0    0    0  501  0.00000000000E+00  0.00000000000E+00 -0.19540483055E+04  0.19540483055E+04  0.25500000920E-02 0. -1.
    10030    2    1    2    0    0  0.00000000000E+00  0.00000000000E+00 -0.38444540263E+03  0.35236512084E+04  0.35026161038E+04 0.  0.
        2    1    3    3  502    0 -0.12066110190E+04 -0.12232008078E+04 -0.53330090254E+03  0.17990386933E+04  0.25500000920E-02 0. -1.
       -2    1    3    3    0  502  0.12066110190E+04  0.12232008078E+04  0.14885549991E+03  0.17246125151E+04  0.25500000920E-02 0.  1.
</event>
<event>
 5   0  0.3553585E-08  0.3500530E+04  0.7818609E-02  0.8113664E-01
       -2   -1    0    0    0  501  0.00000000000E+00  0.00000000000E+00  0.16350433550E+04  0.16350433550E+04  0.25500000920E-02 0. -1.
        2   -1    0    0  501    0  0.00000000000E+00  0.00000000000E+00 -0.18736062163E+04  0.18736062163E+04  0.25500000920E-02 0.  1.
    10030    2    1    2    0    0  0.00000000000E+00  0.00000000000E+00 -0.23856286133E+03  0.35086495712E+04  0.35005298992E+04 0.  0.
        2    1    3    3  502    0  0.46884849683E+03  0.11255275655E+04 -0.13778995598E+04  0.18399017394E+04  0.25500000920E-02 0.  1.
       -2    1    3    3    0  502 -0.46884849683E+03 -0.11255275655E+04  0.11393366985E+04  0.16687478318E+04  0.25500000920E-02 0. -1.
</event>
<event>
 5   0  0.1121462E-08  0.3499296E+04  0.7818609E-02  0.8113957E-01
       -1   -1    0    0    0  501  0.00000000000E+00  0.00000000000E+00  0.25410914342E+04  0.25410914342E+04  0.50400001928E-02 0. -1.
        1   -1    0    0  501    0  0.00000000000E+00  0.00000000000E+00 -0.12047062890E+04  0.12047062890E+04  0.50400001928E-02 0.  1.
    10030    2    1    2    0    0  0.00000000000E+00  0.00000000000E+00  0.13363851453E+04  0.37457977232E+04  0.34992964045E+04 0.  0.
        1    1    3    3  502    0 -0.10883723402E+04  0.34097429302E+03 -0.75209263239E+03  0.13661848876E+04  0.50400001928E-02 0.  1.
       -1    1    3    3    0  502  0.10883723402E+04 -0.34097429302E+03  0.20884777777E+04  0.23796128356E+04  0.50400001928E-02 0. -1.
</event>
<event>
 5   0  0.3467834E-08  0.3499227E+04  0.7818609E-02  0.8113973E-01
       -2   -1    0    0    0  501  0.00000000000E+00  0.00000000000E+00  0.27092004281E+04  0.27092004281E+04  0.25500000920E-02 0.  1.
        2   -1    0    0  501    0  0.00000000000E+00  0.00000000000E+00 -0.11299083217E+04  0.11299083217E+04  0.25500000920E-02 0. -1.
    10030    2    1    2    0    0  0.00000000000E+00  0.00000000000E+00  0.15792921064E+04  0.38391087498E+04  0.34992274056E+04 0.  0.
        3    1    3    3  502    0 -0.94097842908E+02 -0.17182084047E+04  0.11366820685E+04  0.20623143943E+04  0.10100000352E+00 0.  1.
       -3    1    3    3    0  502  0.94097842908E+02  0.17182084047E+04  0.44261003792E+03  0.17767943555E+04  0.10100000352E+00 0. -1.
</event>
<event>
 5   0  0.3467834E-08  0.3500003E+04  0.7818609E-02  0.8113789E-01
        2   -1    0    0  501    0  0.00000000000E+00  0.00000000000E+00  0.22641484417E+04  0.22641484417E+04  0.25500000920E-02 0. -1.
       -2   -1    0    0    0  501  0.00000000000E+00  0.00000000000E+00 -0.13526080292E+04  0.13526080292E+04  0.25500000920E-02 0.  1.
    10030    2    1    2    0    0  0.00000000000E+00  0.00000000000E+00  0.91154041249E+03  0.36167564709E+04  0.35000030637E+04 0.  0.
        3    1    3    3  502    0 -0.15678511844E+04 -0.45058247734E+03 -0.19886311753E+03  0.16433893193E+04  0.10100000352E+00 0. -1.
       -3    1    3    3    0  502  0.15678511844E+04  0.45058247734E+03  0.11104035300E+04  0.19733671516E+04  0.10100000352E+00 0.  1.
</event>
<event>
 5   0  0.3700096E-08  0.3499787E+04  0.7818609E-02  0.8113840E-01
        2   -1    0    0  501    0  0.00000000000E+00  0.00000000000E+00  0.17201397782E+04  0.17201397782E+04  0.25500000920E-02 0.  1.
       -2   -1    0    0    0  501  0.00000000000E+00  0.00000000000E+00 -0.17801615478E+04  0.17801615478E+04  0.25500000920E-02 0. -1.
    10030    2    1    2    0    0  0.00000000000E+00  0.00000000000E+00 -0.60021769567E+02  0.35003013260E+04  0.34997866735E+04 0.  0.
        4    1    3    3  502    0 -0.83552411475E+03 -0.88097199673E+03  0.12302985690E+04  0.17285393797E+04  0.12699999809E+01 0.  1.
       -4    1    3    3    0  502  0.83552411475E+03  0.88097199673E+03 -0.12903203386E+04  0.17717619463E+04  0.12699999809E+01 0. -1.
</event>
<event>
 5   0  0.1121462E-08  0.3497817E+04  0.7818609E-02  0.8114308E-01
        1   -1    0    0  501    0  0.00000000000E+00  0.00000000000E+00  0.25220183466E+04  0.25220183466E+04  0.50400001928E-02 0. -1.
       -1   -1    0    0    0  501  0.00000000000E+00  0.00000000000E+00 -0.12127907120E+04  0.12127907120E+04  0.50400001928E-02 0.  1.
    10030    2    1    2    0    0  0.00000000000E+00  0.00000000000E+00  0.13092276346E+04  0.37348090586E+04  0.34978167055E+04 0.  0.
        4    1    3    3  502    0 -0.60129676476E+03  0.10798738469E+04  0.19757817614E+04  0.23305365275E+04  0.12699999809E+01 0. -1.
       -4    1    3    3    0  502  0.60129676476E+03 -0.10798738469E+04 -0.66655412684E+03  0.14042725311E+04  0.12699999809E+01 0.  1.
</event>
<event>
 5   0  0.1121462E-08  0.3500094E+04  0.7818609E-02  0.8113768E-01
        1   -1    0    0  501    0  0.00000000000E+00  0.00000000000E+00  0.13205057964E+04  0.13205057964E+04  0.50400001928E-02 0.  1.
       -1   -1    0    0    0  501  0.00000000000E+00  0.00000000000E+00 -0.23193119270E+04  0.23193119270E+04  0.50400001928E-02 0. -1.
    10030    2    1    2    0    0  0.00000000000E+00  0.00000000000E+00 -0.99880613060E+03  0.36398177233E+04  0.35000941948E+04 0.  0.
        4    1    3    3  502    0  0.30383396484E+02  0.17383086544E+04 -0.70744710228E+03  0.18769984401E+04  0.12699999809E+01 0.  1.
       -4    1    3    3    0  502 -0.30383396484E+02 -0.17383086544E+04 -0.29135902832E+03  0.17628192832E+04  0.12699999809E+01 0. -1.
</event>
<event>
 5   0  0.3554451E-08  0.3494051E+04  0.7818609E-02  0.8115201E-01
       -2   -1    0    0    0  501  0.00000000000E+00  0.00000000000E+00  0.22789012610E+04  0.22789012610E+04  0.25500000920E-02 0. -1.
        2   -1    0    0  501    0  0.00000000000E+00  0.00000000000E+00 -0.13392846334E+04  0.13392846334E+04  0.25500000920E-02 0.  1.
    10030    2    1    2    0    0  0.00000000000E+00  0.00000000000E+00  0.93961662759E+03  0.36181858945E+04  0.34940506236E+04 0.  0.
        5    1    3    3  502    0  0.22140090269E+03  0.11702158668E+04  0.17933616073E+04  0.21528101355E+04  0.46999998093E+01 0. -1.
       -5    1    3    3    0  502 -0.22140090269E+03 -0.11702158668E+04 -0.85374497975E+03  0.14653757590E+04  0.46999998093E+01 0.  1.
</event>
<event>
 5   0  0.1121462E-08  0.3500568E+04  0.7818609E-02  0.8113655E-01
       -1   -1    0    0    0  501  0.00000000000E+00  0.00000000000E+00  0.14561692569E+04  0.14561692569E+04  0.50400001928E-02 0.  1.
        1   -1    0    0  501    0  0.00000000000E+00  0.00000000000E+00 -0.21038039767E+04  0.21038039768E+04  0.50400001928E-02 0. -1.
    10030    2    1    2    0    0  0.00000000000E+00  0.00000000000E+00 -0.64763471982E+03  0.35599732337E+04  0.35005683388E+04 0.  0.
        4    1    3    3  502    0 -0.25836127122E+03 -0.14318749247E+04  0.66556266755E+03  0.15999973824E+04  0.12699999809E+01 0.  1.
       -4    1    3    3    0  502  0.25836127122E+03  0.14318749247E+04 -0.13131973874E+04  0.19599758513E+04  0.12699999809E+01 0. -1.
</event>
<event>
 5   0  0.3467834E-08  0.3500361E+04  0.7818609E-02  0.8113705E-01
       -2   -1    0    0    0  501  0.00000000000E+00  0.00000000000E+00  0.14407111886E+04  0.14407111886E+04  0.25500000920E-02 0. -1.
        2   -1    0    0  501    0  0.00000000000E+00  0.00000000000E+00 -0.21261242140E+04  0.21261242140E+04  0.25500000920E-02 0.  1.
    10030    2    1    2    0    0  0.00000000000E+00  0.00000000000E+00 -0.68541302539E+03  0.35668354026E+04  0.35003605206E+04 0.  0.
        3    1    3    3  502    0 -0.13996959830E+04  0.66034608163E+03  0.49008096664E+03  0.16233869398E+04  0.10100000352E+00 0. -1.
       -3    1    3    3    0  502  0.13996959830E+04 -0.66034608163E+03 -0.11754939920E+04  0.19434484628E+04  0.10100000352E+00 0.  1.
</event>
<event>
 5   0  0.3554451E-08  0.3498445E+04  0.7818609E-02  0.8114158E-01
       -2   -1    0    0    0  501  0.00000000000E+00  0.00000000000E+00  0.26715340123E+04  0.26715340123E+04  0.25500000920E-02 0. -1.
        2   -1    0    0  501    0  0.00000000000E+00  0.00000000000E+00 -0.11453270279E+04  0.11453270279E+04  0.25500000920E-02 0.  1.
    10030    2    1    2    0    0  0.00000000000E+00  0.00000000000E+00  0.15262069844E+04  0.38168610402E+04  0.34984454320E+04 0.  0.
        5    1    3    3  502    0  0.59839291397E+03 -0.80680853822E+03 -0.79927755262E+03  0.12836980926E+04  0.46999998093E+01 0.  1.
       -5    1    3    3    0  502 -0.59839291397E+03  0.80680853822E+03  0.23254845371E+04  0.25331629476E+04  0.46999998093E+01 0. -1.
</event>
<event>
 5   0  0.1121462E-08  0.3497191E+04  0.7818609E-02  0.8114456E-01
        1   -1    0    0  501    0  0.00000000000E+00  0.00000000000E+00  0.20946294469E+04  0.20946294469E+04  0.50400001928E-02 0. -1.
       -1   -1    0    0    0  501  0.00000000000E+00  0.00000000000E+00 -0.14597261853E+04  0.14597261853E+04  0.50400001928E-02 0.  1.
    10030    2    1    2    0    0  0.00000000000E+00  0.00000000000E+00  0.63490326162E+03  0.35543556322E+04  0.34971905594E+04 0.  0.
        4    1    3    3  502    0 -0.11005380039E+04 -0.10930144653E+04 -0.50303570031E+03  0.16306167692E+04  0.12699999809E+01 0.  1.
       -4    1    3    3    0  502  0.11005380039E+04  0.10930144653E+04  0.11379389619E+04  0.19237388631E+04  0.12699999809E+01 0. -1.
</event>
<event>
 5   0  0.1140808E-08  0.3498762E+04  0.7818609E-02  0.8114083E-01
       -1   -1    0    0    0  501  0.00000000000E+00  0.00000000000E+00  0.19003542033E+04  0.19003542033E+04  0.50400001928E-02 0.  1.
        1   -1    0    0  501    0  0.00000000000E+00  0.00000000000E+00 -0.16104022038E+04  0.16104022038E+04  0.50400001928E-02 0. -1.
    10030    2    1    2    0    0  0.00000000000E+00  0.00000000000E+00  0.28995199948E+03  0.35107564071E+04  0.34987624081E+04 0.  0.
        3    1    3    3  502    0  0.16823645714E+04  0.35799286708E+03  0.46517041985E+03  0.17818229356E+04  0.10100000352E+00 0.  1.
       -3    1    3    3    0  502 -0.16823645714E+04 -0.35799286708E+03 -0.17521842037E+03  0.17289334716E+04  0.10100000352E+00 0. -1.
</event>
<event>
 5   0  0.1121462E-08  0.3504138E+04  0.7818609E-02  0.8112810E-01
       -1   -1    0    0    0  501  0.00000000000E+00  0.00000000000E+00  0.12295174140E+04  0.12295174140E+04  0.50400001928E-02 0.  1.
        1   -1    0    0  501    0  0.00000000000E+00  0.00000000000E+00 -0.24967078209E+04  0.24967078209E+04  0.50400001928E-02 0. -1.
    10030    2    1    2    0    0  0.00000000000E+00  0.00000000000E+00 -0.12671904069E+04  0.37262252349E+04  0.35041379787E+04 0.  0.
        4    1    3    3  502    0 -0.80332028774E+03  0.49910591225E+02 -0.22884834050E+04  0.24258962178E+04  0.12699999809E+01 0. -1.
       -4    1    3    3    0  502  0.80332028774E+03 -0.49910591225E+02  0.10212929981E+04  0.13003290171E+04  0.12699999809E+01 0.  1.
</event>
<event>
 5   0  0.3554451E-08  0.3501276E+04  0.7818609E-02  0.8113488E-01
        2   -1    0    0  501    0  0.00000000000E+00  0.00000000000E+00  0.22108391252E+04  0.22108391252E+04  0.25500000920E-02 0. -1.
       -2   -1    0    0    0  501  0.00000000000E+00  0.00000000000E+00 -0.13862306913E+04  0.13862306913E+04  0.25500000920E-02 0.  1.
    10030    2    1    2    0    0  0.00000000000E+00  0.00000000000E+00  0.82460843390E+03  0.35970698166E+04  0.35012757955E+04 0.  0.
        5    1    3    3  502    0  0.82689785104E+03  0.85100388139E+03  0.17346655963E+04  0.21016789677E+04  0.46999998093E+01 0. -1.
       -5    1    3    3    0  502 -0.82689785104E+03 -0.85100388139E+03 -0.91005716240E+03  0.14953908489E+04  0.46999998093E+01 0.  1.
</event>
<event>
 5   0  0.1121462E-08  0.3498920E+04  0.7818609E-02  0.8114046E-01
       -1   -1    0    0    0  501  0.00000000000E+00  0.00000000000E+00  0.24872783862E+04  0.24872783862E+04  0.50400001928E-02 0. -1.
        1   -1    0    0  501    0  0.00000000000E+00  0.00000000000E+00 -0.12305059035E+04  0.12305059035E+04  0.50400001928E-02 0.  1.
    10030    2    1    2    0    0  0.00000000000E+00  0.00000000000E+00  0.12567724827E+04  0.37177842897E+04  0.34989202551E+04 0.  0.
        4    1    3    3  502    0  0.67609956256E+02 -0.38087186293E+03  0.24412674803E+04  0.24717247026E+04  0.12699999809E+01 0. -1.
       -4    1    3    3    0  502 -0.67609956256E+02  0.38087186293E+03 -0.11844949977E+04  0.12460595871E+04  0.12699999809E+01 0.  1.
</event>
<event>
 5   0  0.1121462E-08  0.3500079E+04  0.7818609E-02  0.8113771E-01
        1   -1    0    0  501    0  0.00000000000E+00  0.00000000000E+00  0.17407209853E+04  0.17407209853E+04  0.50400001928E-02 0.  1.
       -1   -1    0    0    0  501  0.00000000000E+00  0.00000000000E+00 -0.17594075208E+04  0.17594075208E+04  0.50400001928E-02 0. -1.
    10030    2    1    2    0    0  0.00000000000E+00  0.00000000000E+00 -0.18686535484E+02  0.35001285062E+04  0.35000786238E+04 0.  0.
        2    1    3    3  502    0  0.11149673419E+04  0.11739178688E+03 -0.13531274980E+04  0.17572384673E+04  0.25500000920E-02 0. -1.
       -2    1    3    3    0  502 -0.11149673419E+04 -0.11739178688E+03  0.13344409625E+04  0.17428900389E+04  0.25500000920E-02 0.  1.
</event>
<event>
 5   0  0.1129219E-08  0.3500203E+04  0.7818609E-02  0.8113742E-01
       -1   -1    0    0    0  501  0.00000000000E+00  0.00000000000E+00  0.16923440227E+04  0.16923440227E+04  0.50400001928E-02 0. -1.
        1   -1    0    0  501    0  0.00000000000E+00  0.00000000000E+00 -0.18098303851E+04  0.18098303851E+04  0.50400001928E-02 0.  1.
    10030    2    1    2    0    0  0.00000000000E+00  0.00000000000E+00 -0.11748636237E+03  0.35021744078E+04  0.35002032137E+04 0.  0.
        5    1    3    3  502    0 -0.35510777918E+03 -0.17065016165E+04 -0.21562511129E+03  0.17563500735E+04  0.46999998093E+01 0.  1.
       -5    1    3    3    0  502  0.35510777918E+03  0.17065016165E+04  0.98138748927E+02  0.17458243343E+04  0.46999998093E+01 0. -1.
</event>
<event>
 5   0  0.3553585E-08  0.3501043E+04  0.7818609E-02  0.8113543E-01
       -2   -1    0    0    0  501  0.00000000000E+00  0.00000000000E+00  0.15352590476E+04  0.15352590476E+04  0.25500000920E-02 0.  1.
        2   -1    0    0  501    0  0.00000000000E+00  0.00000000000E+00 -0.19959660425E+04  0.19959660425E+04  0.25500000920E-02 0. -1.
    10030    2    1    2    0    0  0.00000000000E+00  0.00000000000E+00 -0.46070699490E+03  0.35312250900E+04  0.35010426592E+04 0.  0.
        2    1    3    3  502    0  0.11980639491E+04 -0.54468879031E+03  0.93384236110E+03  0.16137238487E+04  0.25500000920E-02 0.  1.
       -2    1    3    3    0  502 -0.11980639491E+04  0.54468879031E+03 -0.13945493560E+04  0.19175012414E+04  0.25500000920E-02 0. -1.
</event>
<event>
 5   0  0.3700096E-08  0.3500649E+04  0.7818609E-02  0.8113636E-01
        2   -1    0    0  501    0  0.00000000000E+00  0.00000000000E+00  0.25385766786E+04  0.25385766786E+04  0.25500000920E-02 0. -1.
       -2   -1    0    0    0  501  0.00000000000E+00  0.00000000000E+00 -0.12068322596E+04  0.12068322596E+04  0.25500000920E-02 0.  1.
    10030    2    1    2    0    0  0.00000000000E+00  0.00000000000E+00  0.13317444190E+04  0.37454089383E+04  0.35006492137E+04 0.  0.
        4    1    3    3  502    0 -0.12522669024E+04 -0.31667754485E+02 -0.64208249857E+03  0.14076387283E+04  0.12699999809E+01 0.  1.
       -4    1    3    3    0  502  0.12522669024E+04  0.31667754485E+02  0.19738269176E+04  0.23377702100E+04  0.12699999809E+01 0. -1.
</event>
<event>
 5   0  0.3467834E-08  0.3497636E+04  0.7818609E-02  0.8114350E-01
        2   -1    0    0  501    0  0.00000000000E+00  0.00000000000E+00  0.13762328343E+04  0.13762328343E+04  0.25500000920E-02 0. -1.
       -2   -1    0    0    0  501  0.00000000000E+00  0.00000000000E+00 -0.22222725040E+04  0.22222725040E+04  0.25500000920E-02 0.  1.
    10030    2    1    2    0    0  0.00000000000E+00  0.00000000000E+00 -0.84603966967E+03  0.35985053383E+04  0.34976359940E+04 0.  0.
        3    1    3    3  502    0 -0.10816777484E+04  0.11251712880E+04  0.38860799938E+03  0.16084319588E+04  0.10100000352E+00 0. -1.
       -3    1    3    3    0  502  0.10816777484E+04 -0.11251712880E+04 -0.12346476691E+04  0.19900733795E+04  0.10100000352E+00 0.  1.
</event>
<event>
 5   0  0.1121462E-08  0.3499063E+04  0.7818609E-02  0.8114012E-01
        1   -1    0    0  501    0  0.00000000000E+00  0.00000000000E+00  0.17411224962E+04  0.17411224962E+04  0.50400001928E-02 0.  1.
       -1   -1    0    0    0  501  0.00000000000E+00  0.00000000000E+00 -0.17579813298E+04  0.17579813298E+04  0.50400001928E-02 0. -1.
    10030    2    1    2    0    0  0.00000000000E+00  0.00000000000E+00 -0.16858833596E+02  0.34991038260E+04  0.34990632125E+04 0.  0.
        1    1    3    3  502    0 -0.19600994264E+03 -0.69432817791E+03 -0.16022952508E+04  0.17572312275E+04  0.50400001928E-02 0. -1.
       -1    1    3    3    0  502  0.19600994264E+03  0.69432817791E+03  0.15854364172E+04  0.17418725985E+04  0.50400001928E-02 0.  1.
</event>
<event>
 5   0  0.1140808E-08  0.3500292E+04  0.7818609E-02  0.8113721E-01
        1   -1    0    0  501    0  0.00000000000E+00  0.00000000000E+00  0.22913981774E+04  0.22913981774E+04  0.50400001928E-02 0.  1.
       -1   -1    0    0    0  501  0.00000000000E+00  0.00000000000E+00 -0.13367429189E+04  0.13367429189E+04  0.50400001928E-02 0. -1.
    10030    2    1    2    0    0  0.00000000000E+00  0.00000000000E+00  0.95465525844E+03  0.36281410963E+04  0.35002915810E+04 0.  0.
        3    1    3    3  502    0 -0.23492143575E+02 -0.95762213853E+03  0.19955518959E+04  0.22135535730E+04  0.10100000352E+00 0.  1.
       -3    1    3    3    0  502  0.23492143575E+02  0.95762213853E+03 -0.10408966375E+04  0.14145875233E+04  0.10100000352E+00 0. -1.
</event>
<event>
 5   0  0.1129219E-08  0.3499832E+04  0.7818609E-02  0.8113830E-01
        1   -1    0    0  501    0  0.00000000000E+00  0.00000000000E+00  0.90414572218E+03  0.90414572219E+03  0.50400001928E-02 0. -1.
       -1   -1    0    0    0  501  0.00000000000E+00  0.00000000000E+00 -0.33868496586E+04  0.33868496586E+04  0.50400001928E-02 0.  1.
    10030    2    1    2    0    0  0.00000000000E+00  0.00000000000E+00 -0.24827039364E+04  0.42909953808E+04  0.34998317848E+04 0.  0.
        5    1    3    3  502    0 -0.98453791930E+03  0.14170385013E+04 -0.15985337396E+04  0.23521575702E+04  0.46999998093E+01 0.  1.
       -5    1    3    3    0  502  0.98453791930E+03 -0.14170385013E+04 -0.88417019687E+03  0.19388378106E+04  0.46999998093E+01 0. -1.
</event>
<event>
 5   0  0.1129219E-08  0.3499750E+04  0.7818609E-02  0.8113849E-01
        1   -1    0    0  501    0  0.00000000000E+00  0.00000000000E+00  0.20600564440E+04  0.20600564440E+04  0.50400001928E-02 0. -1.
       -1   -1    0    0    0  501  0.00000000000E+00  0.00000000000E+00 -0.14863974164E+04  0.14863974164E+04  0.50400001928E-02 0.  1.
    10030    2    1    2    0    0  0.00000000000E+00  0.00000000000E+00  0.57365902759E+03  0.35464538604E+04  0.34997500345E+04 0.  0.
        5    1    3    3  502    0 -0.11078297000E+04  0.90421172231E+02  0.16563747493E+04  0.19947586402E+04  0.46999998093E+01 0. -1.
       -5    1    3    3    0  502  0.11078297000E+04 -0.90421172231E+02 -0.10827157217E+04  0.15516952202E+04  0.46999998093E+01 0.  1.
</event>
<event>
 5   0  0.3553585E-08  0.3501125E+04  0.7818609E-02  0.8113523E-01
        2   -1    0    0  501    0  0.00000000000E+00  0.00000000000E+00  0.24673314919E+04  0.24673314919E+04  0.25500000920E-02 0. -1.
       -2   -1    0    0    0  501  0.00000000000E+00  0.00000000000E+00 -0.12420174221E+04  0.12420174221E+04  0.25500000920E-02 0.  1.
    10030    2    1    2    0    0  0.00000000000E+00  0.00000000000E+00  0.12253140698E+04  0.37093489141E+04  0.35011247902E+04 0.  0.
        2    1    3    3  502    0  0.13809752528E+03  0.63230227438E+03  0.23359197751E+04  0.24239220879E+04  0.25500000920E-02 0. -1.
       -2    1    3    3    0  502 -0.13809752528E+03 -0.63230227438E+03 -0.11106057053E+04  0.12854268261E+04  0.25500000920E-02 0.  1.
</event>
<event>
 5   0  0.3553585E-08  0.3501101E+04  0.7818609E-02  0.8113529E-01
       -2   -1    0    0    0  501  0.00000000000E+00  0.00000000000E+00  0.12294567053E+04  0.12294567053E+04  0.25500000920E-02 0. -1.
        2   -1    0    0  501    0  0.00000000000E+00  0.00000000000E+00 -0.24925044931E+04  0.24925044931E+04  0.25500000920E-02 0.  1.
    10030    2    1    2    0    0  0.00000000000E+00  0.00000000000E+00 -0.12630477878E+04  0.37219611985E+04  0.35011006053E+04 0.  0.
        2    1    3    3  502    0  0.13543109341E+04 -0.10609719126E+04 -0.97535671209E+03  0.19776602896E+04  0.25500000920E-02 0.  1.
       -2    1    3    3    0  502 -0.13543109341E+04  0.10609719126E+04 -0.28769107574E+03  0.17443009088E+04  0.25500000920E-02 0. -1.
</event>
<event>
 5   0  0.1140808E-08  0.3497409E+04  0.7818609E-02  0.8114404E-01
       -1   -1    0    0    0  501  0.00000000000E+00  0.00000000000E+00  0.17503746037E+04  0.17503746037E+04  0.50400001928E-02 0. -1.
        1   -1    0    0  501    0  0.00000000000E+00  0.00000000000E+00 -0.17470357352E+04  0.17470357352E+04  0.50400001928E-02 0.  1.
    10030    2    1    2    0    0  0.00000000000E+00  0.00000000000E+00  0.33388684567E+01  0.34974103389E+04  0.34974087452E+04 0.  0.
        3    1    3    3  502    0  0.58908650081E+03 -0.16258791075E+04  0.26140248249E+03  0.17489531285E+04  0.10100000352E+00 0. -1.
       -3    1    3    3    0  502 -0.58908650081E+03  0.16258791075E+04 -0.25806361403E+03  0.17484572104E+04  0.10100000352E+00 0.  1.
</event>
<event>
 5   0  0.1121462E-08  0.3500341E+04  0.7818609E-02  0.8113709E-01
        1   -1    0    0  501    0  0.00000000000E+00  0.00000000000E+00  0.15859263615E+04  0.15859263615E+04  0.50400001928E-02 0.  1.
       -1   -1    0    0    0  501  0.00000000000E+00  0.00000000000E+00 -0.19314242891E+04  0.19314242891E+04  0.50400001928E-02 0. -1.
    10030    2    1    2    0    0  0.00000000000E+00  0.00000000000E+00 -0.34549792763E+03  0.35173506506E+04  0.35003409521E+04 0.  0.
        1    1    3    3  502    0  0.17430378270E+04  0.10312130782E+03 -0.52661639949E+02  0.17468795376E+04  0.50400001928E-02 0.  1.
       -1    1    3    3    0  502 -0.17430378270E+04 -0.10312130782E+03 -0.29283628768E+03  0.17704711130E+04  0.50400001928E-02 0. -1.
</event>
<event>
 5   0  0.3467834E-08  0.3499433E+04  0.7818609E-02  0.8113924E-01
        2   -1    0    0  501    0  0.00000000000E+00  0.00000000000E+00  0.26320136848E+04  0.26320136848E+04  0.25500000920E-02 0. -1.
       -2   -1    0    0    0  501  0.00000000000E+00  0.00000000000E+00 -0.11631805353E+04  0.11631805353E+04  0.25500000920E-02 0.  1.
    10030    2    1    2    0    0  0.00000000000E+00  0.00000000000E+00  0.14688331494E+04  0.37951942201E+04  0.34994325751E+04 0.  0.
        3    1    3    3  502    0 -0.11881158445E+04  0.12327870647E+04  0.34320214871E+03  0.17461875420E+04  0.10100000352E+00 0. -1.
       -3    1    3    3    0  502  0.11881158445E+04 -0.12327870647E+04  0.11256310007E+04  0.20490066781E+04  0.10100000352E+00 0.  1.
</event>
<event>
 5   0  0.3554451E-08  0.3498821E+04  0.7818609E-02  0.8114069E-01
       -2   -1    0    0    0  501  0.00000000000E+00  0.00000000000E+00  0.15906046464E+04  0.15906046464E+04  0.25500000920E-02 0. -1.
        2   -1    0    0  501    0  0.00000000000E+00  0.00000000000E+00 -0.19240714918E+04  0.19240714918E+04  0.25500000920E-02 0.  1.
    10030    2    1    2    0    0  0.00000000000E+00  0.00000000000E+00 -0.33346684533E+03  0.35146761382E+04  0.34988209756E+04 0.  0.
        5    1    3    3  502    0  0.15415065018E+04  0.53656242624E+03 -0.79908858701E+03  0.18173349147E+04  0.46999998093E+01 0.  1.
       -5    1    3    3    0  502 -0.15415065018E+04 -0.53656242624E+03  0.46562174168E+03  0.16973412234E+04  0.46999998093E+01 0. -1.
</event>
<event>
 5   0  0.1121462E-08  0.3501034E+04  0.7818609E-02  0.8113545E-01
        1   -1    0    0  501    0  0.00000000000E+00  0.00000000000E+00  0.22736356821E+04  0.22736356821E+04  0.50400001928E-02 0.  1.
       -1   -1    0    0    0  501  0.00000000000E+00  0.00000000000E+00 -0.13477576557E+04  0.13477576557E+04  0.50400001928E-02 0. -1.
    10030    2    1    2    0    0  0.00000000000E+00  0.00000000000E+00  0.92587802645E+03  0.36213933378E+04  0.35010340740E+04 0.  0.
        2    1    3    3  502    0  0.11724448221E+04  0.11221387898E+04 -0.21573257742E+03  0.16371813795E+04  0.25500000920E-02 0. -1.
       -2    1    3    3    0  502 -0.11724448221E+04 -0.11221387898E+04  0.11416106039E+04  0.19842119583E+04  0.25500000920E-02 0.  1.
</event>
<event>
 5   0  0.1121462E-08  0.3500522E+04  0.7818609E-02  0.8113666E-01
       -1   -1    0    0    0  501  0.00000000000E+00  0.00000000000E+00  0.25085949075E+04  0.25085949075E+04  0.50400001928E-02 0. -1.
        1   -1    0    0  501    0  0.00000000000E+00  0.00000000000E+00 -0.12211669451E+04  0.12211669452E+04  0.50400001928E-02 0.  1.
    10030    2    1    2    0    0  0.00000000000E+00  0.00000000000E+00  0.12874279623E+04  0.37297618526E+04  0.35005217781E+04 0.  0.
        2    1    3    3  502    0  0.69230112080E+03 -0.28107435736E+03  0.23301249302E+04  0.24469911782E+04  0.25500000920E-02 0. -1.
       -2    1    3    3    0  502 -0.69230112080E+03  0.28107435736E+03 -0.10426969679E+04  0.12827706744E+04  0.25500000920E-02 0.  1.
</event>
<event>
 5   0  0.1140808E-08  0.3497453E+04  0.7818609E-02  0.8114394E-01
       -1   -1    0    0    0  501  0.00000000000E+00  0.00000000000E+00  0.13977114261E+04  0.13977114261E+04  0.50400001928E-02 0.  1.
        1   -1    0    0  501    0  0.00000000000E+00  0.00000000000E+00 -0.21878933721E+04  0.21878933721E+04  0.50400001928E-02 0. -1.
    10030    2    1    2    0    0  0.00000000000E+00  0.00000000000E+00 -0.79018194597E+03  0.35856047983E+04  0.34974525389E+04 0.  0.
        3    1    3    3  502    0  0.53013854243E+02 -0.34709975849E+03 -0.21513820898E+04  0.21798471546E+04  0.10100000352E+00 0. -1.
       -3    1    3    3    0  502 -0.53013854243E+02  0.34709975849E+03  0.13612001438E+04  0.14057576437E+04  0.10100000352E+00 0.  1.
</event>
<event>
 5   0  0.3467834E-08  0.3503359E+04  0.7818609E-02  0.8112994E-01
       -2   -1    0    0    0  501  0.00000000000E+00  0.00000000000E+00  0.19449839576E+04  0.19449839576E+04  0.25500000920E-02 0. -1.
        2   -1    0    0  501    0  0.00000000000E+00  0.00000000000E+00 -0.15775864258E+04  0.15775864258E+04  0.25500000920E-02 0.  1.
    10030    2    1    2    0    0  0.00000000000E+00  0.00000000000E+00  0.36739753176E+03  0.35225703835E+04  0.35033585543E+04 0.  0.
        3    1    3    3  502    0  0.82678909596E+03 -0.23682097210E+03 -0.13506827058E+04  0.16012520613E+04  0.10100000352E+00 0.  1.
       -3    1    3    3    0  502 -0.82678909596E+03  0.23682097210E+03  0.17180802375E+04  0.19213183221E+04  0.10100000352E+00 0. -1.
</event>
<event>
 5   0  0.1129219E-08  0.3495562E+04  0.7818609E-02  0.8114843E-01
        1   -1    0    0  501    0  0.00000000000E+00  0.00000000000E+00  0.24569662589E+04  0.24569662589E+04  0.50400001928E-02 0. -1.
       -1   -1    0    0    0  501  0.00000000000E+00  0.00000000000E+00 -0.12432966084E+04  0.12432966084E+04  0.50400001928E-02 0.  1.
    10030    2    1    2    0    0  0.00000000000E+00  0.00000000000E+00  0.12136696505E+04  0.37002628674E+04  0.34955616526E+04 0.  0.
        5    1    3    3  502    0 -0.10969107867E+04 -0.11609098676E+04 -0.14451241932E+03  0.16036929020E+04  0.46999998093E+01 0.  1.
       -5    1    3    3    0  502  0.10969107867E+04  0.11609098676E+04  0.13581820698E+04  0.20965699653E+04  0.46999998093E+01 0. -1.
</event>
<event>
 5   0  0.1121462E-08  0.3500836E+04  0.7818609E-02  0.8113592E-01
       -1   -1    0    0    0  501  0.00000000000E+00  0.00000000000E+00  0.19756266014E+04  0.19756266014E+04  0.50400001928E-02 0. -1.
        1   -1    0    0  501    0  0.00000000000E+00  0.00000000000E+00 -0.15508816038E+04  0.15508816038E+04  0.50400001928E-02 0.  1.
    10030    2    1    2    0    0  0.00000000000E+00  0.00000000000E+00  0.42474499759E+03  0.35265082052E+04  0.35008358728E+04 0.  0.
        4    1    3    3  502    0 -0.56294862374E+03  0.15701036428E+04 -0.32239216656E+03  0.16988451736E+04  0.12699999809E+01 0. -1.
       -4    1    3    3    0  502  0.56294862374E+03 -0.15701036428E+04  0.74713716415E+03  0.18276630316E+04  0.12699999809E+01 0.  1.
</event>
<event>
 5   0  0.3467834E-08  0.3497909E+04  0.7818609E-02  0.8114286E-01
       -2   -1    0    0    0  501  0.00000000000E+00  0.00000000000E+00  0.16813846982E+04  0.16813846982E+04  0.25500000920E-02 0.  1.
        2   -1    0    0  501    0  0.00000000000E+00  0.00000000000E+00 -0.18192394362E+04  0.18192394362E+04  0.25500000920E-02 0. -1.
    10030    2    1    2    0    0  0.00000000000E+00  0.00000000000E+00 -0.13785473806E+03  0.35006241344E+04  0.34979087183E+04 0.  0.
        3    1    3    3  502    0  0.24222452779E+03  0.96732524969E+03 -0.15068623388E+04  0.18069380119E+04  0.10100000352E+00 0. -1.
       -3    1    3    3    0  502 -0.24222452779E+03 -0.96732524969E+03  0.13690076007E+04  0.16936861225E+04  0.10100000352E+00 0.  1.
</event>
<event>
 5   0  0.3554451E-08  0.3498965E+04  0.7818609E-02  0.8114035E-01
        2   -1    0    0  501    0  0.00000000000E+00  0.00000000000E+00  0.11083079702E+04  0.11083079702E+04  0.25500000920E-02 0. -1.
       -2   -1    0    0    0  501  0.00000000000E+00  0.00000000000E+00 -0.27615866534E+04  0.27615866534E+04  0.25500000920E-02 0.  1.
    10030    2    1    2    0    0  0.00000000000E+00  0.00000000000E+00 -0.16532786832E+04  0.38698946236E+04  0.34989647031E+04 0.  0.
        5    1    3    3  502    0 -0.11566821028E+03  0.14051838966E+04 -0.19721731911E+04  0.24243370442E+04  0.46999998093E+01 0.  1.
       -5    1    3    3    0  502  0.11566821028E+03 -0.14051838966E+04  0.31889450792E+03  0.14455575794E+04  0.46999998093E+01 0. -1.
</event>
<event>
 5   0  0.3554451E-08  0.3499531E+04  0.7818609E-02  0.8113901E-01
        2   -1    0    0  501    0  0.00000000000E+00  0.00000000000E+00  0.20976996240E+04  0.20976996240E+04  0.25500000920E-02 0. -1.
       -2   -1    0    0    0  501  0.00000000000E+00  0.00000000000E+00 -0.14595409306E+04  0.14595409307E+04  0.25500000920E-02 0.  1.
    10030    2    1    2    0    0  0.00000000000E+00  0.00000000000E+00  0.63815869332E+03  0.35572405546E+04  0.34995305179E+04 0.  0.
        5    1    3    3  502    0 -0.63681618579E+03  0.10891889466E+04 -0.91326177201E+03  0.15575418358E+04  0.46999998093E+01 0.  1.
       -5    1    3    3    0  502  0.63681618579E+03 -0.10891889466E+04  0.15514204653E+04  0.19996987189E+04  0.46999998093E+01 0. -1.
</event>
<event>
 5   0  0.3554451E-08  0.3507970E+04  0.7818609E-02  0.8111904E-01
        2   -1    0    0  501    0  0.00000000000E+00  0.00000000000E+00  0.24386047529E+04  0.24386047529E+04  0.25500000920E-02 0. -1.
       -2   -1    0    0    0  501  0.00000000000E+00  0.00000000000E+00 -0.12615672269E+04  0.12615672269E+04  0.25500000920E-02 0.  1.
    10030    2    1    2    0    0  0.00000000000E+00  0.00000000000E+00  0.11770375260E+04  0.37001719797E+04  0.35079702596E+04 0.  0.
        5    1    3    3  502    0 -0.30348208226E+03 -0.33269713909E+03  0.23765832126E+04  0.24188754860E+04  0.46999998093E+01 0. -1.
       -5    1    3    3    0  502  0.30348208226E+03  0.33269713909E+03 -0.11995456866E+04  0.12812964937E+04  0.46999998093E+01 0.  1.
</event>
<event>
 5   0  0.3553585E-08  0.3500368E+04  0.7818609E-02  0.8113703E-01
       -2   -1    0    0    0  501  0.00000000000E+00  0.00000000000E+00  0.29278426273E+04  0.29278426273E+04  0.25500000920E-02 0.  1.
        2   -1    0    0  501    0  0.00000000000E+00  0.00000000000E+00 -0.10462120310E+04  0.10462120310E+04  0.25500000920E-02 0. -1.
    10030    2    1    2    0    0  0.00000000000E+00  0.00000000000E+00  0.18816305963E+04  0.39740546582E+04  0.35003680843E+04 0.  0.
        2    1    3    3  502    0  0.14473886180E+04 -0.70987217767E+03  0.17144138641E+04  0.23533098431E+04  0.25500000920E-02 0. -1.
       -2    1    3    3    0  502 -0.14473886180E+04  0.70987217767E+03  0.16721673219E+03  0.16207448151E+04  0.25500000920E-02 0.  1.
</event>
<event>
 5   0  0.3700096E-08  0.3500454E+04  0.7818609E-02  0.8113682E-01
        2   -1    0    0  501    0  0.00000000000E+00  0.00000000000E+00  0.14122675012E+04  0.14122675012E+04  0.25500000920E-02 0.  1.
       -2   -1    0    0    0  501  0.00000000000E+00  0.00000000000E+00 -0.21690615313E+04  0.21690615314E+04  0.25500000920E-02 0. -1.
    10030    2    1    2    0    0  0.00000000000E+00  0.00000000000E+00 -0.75679403017E+03  0.35813290325E+04  0.35004543184E+04 0.  0.
        4    1    3    3  502    0 -0.97760895479E+03 -0.11227544106E+04 -0.13199845137E+04  0.19896375208E+04  0.12699999809E+01 0. -1.
       -4    1    3    3    0  502  0.97760895479E+03  0.11227544106E+04  0.56319048351E+03  0.15916915117E+04  0.12699999809E+01 0.  1.
</event>
<event>
 5   0  0.3554451E-08  0.3499259E+04  0.7818609E-02  0.8113966E-01
       -2   -1    0    0    0  501  0.00000000000E+00  0.00000000000E+00  0.13045864190E+04  0.13045864190E+04  0.25500000920E-02 0.  1.
        2   -1    0    0  501    0  0.00000000000E+00  0.00000000000E+00 -0.23464936666E+04  0.23464936666E+04  0.25500000920E-02 0. -1.
    10030    2    1    2    0    0  0.00000000000E+00  0.00000000000E+00 -0.10419072477E+04  0.36510800856E+04  0.34992592186E+04 0.  0.
        5    1    3    3  502    0  0.82582365535E+03 -0.91591250603E+03 -0.18158889477E+04  0.21950752125E+04  0.46999998093E+01 0. -1.
       -5    1    3    3    0  502 -0.82582365535E+03  0.91591250603E+03  0.77398170000E+03  0.14560048731E+04  0.46999998093E+01 0.  1.
</event>
<event>
 5   0  0.3554451E-08  0.3498012E+04  0.7818609E-02  0.8114261E-01
        2   -1    0    0  501    0  0.00000000000E+00  0.00000000000E+00  0.15844082161E+04  0.15844082161E+04  0.25500000920E-02 0.  1.
       -2   -1    0    0    0  501  0.00000000000E+00  0.00000000000E+00 -0.19307027115E+04  0.19307027115E+04  0.25500000920E-02 0. -1.
    10030    2    1    2    0    0  0.00000000000E+00  0.00000000000E+00 -0.34629449537E+03  0.35151109275E+04  0.34980115717E+04 0.  0.
        5    1    3    3  502    0  0.11030405939E+04  0.42446417135E+03  0.11223914411E+04  0.16299242380E+04  0.46999998093E+01 0.  1.
       -5    1    3    3    0  502 -0.11030405939E+04 -0.42446417135E+03 -0.14686859364E+04  0.18851866896E+04  0.46999998093E+01 0. -1.
</event>
<event>
 5   0  0.3628017E-08  0.3499470E+04  0.7818609E-02  0.8113916E-01
        2   -1    0    0  501    0  0.00000000000E+00  0.00000000000E+00  0.19196327346E+04  0.19196327346E+04  0.25500000920E-02 0. -1.
       -2   -1    0    0    0  501  0.00000000000E+00  0.00000000000E+00 -0.15948742307E+04  0.15948742307E+04  0.25500000920E-02 0.  1.
    10030    2    1    2    0    0  0.00000000000E+00  0.00000000000E+00  0.32475850397E+03  0.35145069653E+04  0.34994701204E+04 0.  0.
        1    1    3    3  502    0 -0.16176831685E+04  0.58139929703E+03  0.49035377924E+03  0.17875600144E+04  0.50400001928E-02 0. -1.
       -1    1    3    3    0  502  0.16176831685E+04 -0.58139929703E+03 -0.16559527527E+03  0.17269469509E+04  0.50400001928E-02 0.  1.
</event>
<event>
 5   0  0.3628017E-08  0.3496833E+04  0.7818609E-02  0.8114541E-01
       -2   -1    0    0    0  501  0.00000000000E+00  0.00000000000E+00  0.23204160759E+04  0.23204160759E+04  0.25500000920E-02 0.  1.
        2   -1    0    0  501    0  0.00000000000E+00  0.00000000000E+00 -0.13174190395E+04  0.13174190395E+04  0.25500000920E-02 0. -1.
    10030    2    1    2    0    0  0.00000000000E+00  0.00000000000E+00  0.10029970363E+04  0.36378351154E+04  0.34968330346E+04 0.  0.
        1    1    3    3  502    0 -0.92643620574E+03 -0.99678600719E+01 -0.10410504034E+04  0.13936173592E+04  0.50400001928E-02 0. -1.
       -1    1    3    3    0  502  0.92643620574E+03  0.99678600719E+01  0.20440474397E+04  0.22442177562E+04  0.50400001928E-02 0.  1.
</event>
<event>
 5   0  0.1121462E-08  0.3499068E+04  0.7818609E-02  0.8114011E-01
        1   -1    0    0  501    0  0.00000000000E+00  0.00000000000E+00  0.19592199994E+04  0.19592199994E+04  0.50400001928E-02 0. -1.
       -1   -1    0    0    0  501  0.00000000000E+00  0.00000000000E+00 -0.15622895249E+04  0.15622895249E+04  0.50400001928E-02 0.  1.
    10030    2    1    2    0    0  0.00000000000E+00  0.00000000000E+00  0.39693047450E+03  0.35215095242E+04  0.34990678084E+04 0.  0.
        2    1    3    3  502    0 -0.13866621506E+03  0.15101411286E+03  0.19470883660E+04  0.19578525701E+04  0.25500000920E-02 0. -1.
       -2    1    3    3    0  502  0.13866621506E+03 -0.15101411286E+03 -0.15501578915E+04  0.15636569541E+04  0.25500000920E-02 0.  1.
</event>
<event>
 5   0  0.3467834E-08  0.3500020E+04  0.7818609E-02  0.8113785E-01
       -2   -1    0    0    0  501  0.00000000000E+00  0.00000000000E+00  0.14074671479E+04  0.14074671480E+04  0.25500000920E-02 0. -1.
        2   -1    0    0  501    0  0.00000000000E+00  0.00000000000E+00 -0.21759192683E+04  0.21759192683E+04  0.25500000920E-02 0.  1.
    10030    2    1    2    0    0  0.00000000000E+00  0.00000000000E+00 -0.76845212036E+03  0.35833864163E+04  0.35000199352E+04 0.  0.
        3    1    3    3  502    0 -0.39224506569E+03 -0.15628947728E+04  0.31470457406E+03  0.16418085277E+04  0.10100000352E+00 0.  1.
       -3    1    3    3    0  502  0.39224506569E+03  0.15628947728E+04 -0.10831566944E+04  0.19415778886E+04  0.10100000352E+00 0. -1.
</event>
<event>
 5   0  0.1121462E-08  0.3498248E+04  0.7818609E-02  0.8114205E-01
       -1   -1    0    0    0  501  0.00000000000E+00  0.00000000000E+00  0.12373258832E+04  0.12373258832E+04  0.50400001928E-02 0.  1.
        1   -1    0    0  501    0  0.00000000000E+00  0.00000000000E+00 -0.24726188582E+04  0.24726188582E+04  0.50400001928E-02 0. -1.
    10030    2    1    2    0    0  0.00000000000E+00  0.00000000000E+00 -0.12352929750E+04  0.37099447414E+04  0.34982483117E+04 0.  0.
        4    1    3    3  502    0  0.41482775578E+03 -0.46675534839E+03  0.11150841104E+04  0.12780284850E+04  0.12699999809E+01 0.  1.
       -4    1    3    3    0  502 -0.41482775578E+03  0.46675534839E+03 -0.23503770854E+04  0.24319162565E+04  0.12699999809E+01 0. -1.
</event>
<event>
 5   0  0.1121462E-08  0.3500254E+04  0.7818609E-02  0.8113730E-01
        1   -1    0    0  501    0  0.00000000000E+00  0.00000000000E+00  0.17910744920E+04  0.17910744920E+04  0.50400001928E-02 0.  1.
       -1   -1    0    0    0  501  0.00000000000E+00  0.00000000000E+00 -0.17101161202E+04  0.17101161202E+04  0.50400001928E-02 0. -1.
    10030    2    1    2    0    0  0.00000000000E+00  0.00000000000E+00  0.80958371786E+02  0.35011906123E+04  0.35002544830E+04 0.  0.
        1    1    3    3  502    0 -0.38783834513E+03  0.11596450714E+04 -0.12119539569E+04  0.17216351725E+04  0.50400001928E-02 0. -1.
       -1    1    3    3    0  502  0.38783834513E+03 -0.11596450714E+04  0.12929123286E+04  0.17795554398E+04  0.50400001928E-02 0.  1.
</event>
<event>
 5   0  0.1129219E-08  0.3498653E+04  0.7818609E-02  0.8114109E-01
        1   -1    0    0  501    0  0.00000000000E+00  0.00000000000E+00  0.20096176346E+04  0.20096176346E+04  0.50400001928E-02 0. -1.
       -1   -1    0    0    0  501  0.00000000000E+00  0.00000000000E+00 -0.15227487848E+04  0.15227487848E+04  0.50400001928E-02 0.  1.
    10030    2    1    2    0    0  0.00000000000E+00  0.00000000000E+00  0.48686884980E+03  0.35323664194E+04  0.34986527756E+04 0.  0.
        5    1    3    3  502    0 -0.12851945974E+04  0.11764229035E+04  0.40122450641E+03  0.17879315411E+04  0.46999998093E+01 0. -1.
       -5    1    3    3    0  502  0.12851945974E+04 -0.11764229035E+04  0.85644343391E+02  0.17444348783E+04  0.46999998093E+01 0.  1.
</event>
<event>
 5   0  0.3700096E-08  0.3501572E+04  0.7818609E-02  0.8113418E-01
       -2   -1    0    0    0  501  0.00000000000E+00  0.00000000000E+00  0.12965592887E+04  0.12965592887E+04  0.25500000920E-02 0. -1.
        2   -1    0    0  501    0  0.00000000000E+00  0.00000000000E+00 -0.23641428661E+04  0.23641428661E+04  0.25500000920E-02 0.  1.
    10030    2    1    2    0    0  0.00000000000E+00  0.00000000000E+00 -0.10675835774E+04  0.36607021547E+04  0.35015718714E+04 0.  0.
        4    1    3    3  502    0  0.98690618254E+03 -0.37991336059E+03  0.92494427479E+03  0.14049346957E+04  0.12699999809E+01 0. -1.
       -4    1    3    3    0  502 -0.98690618254E+03  0.37991336059E+03 -0.19925278522E+04  0.22557674591E+04  0.12699999809E+01 0.  1.
</event>
<event>
 5   0  0.1121462E-08  0.3489910E+04  0.7818609E-02  0.8116185E-01
        1   -1    0    0  501    0  0.00000000000E+00  0.00000000000E+00  0.19338874798E+04  0.19338874798E+04  0.50400001928E-02 0. -1.
       -1   -1    0    0    0  501  0.00000000000E+00  0.00000000000E+00 -0.15744807864E+04  0.15744807864E+04  0.50400001928E-02 0.  1.
    10030    2    1    2    0    0  0.00000000000E+00  0.00000000000E+00  0.35940669338E+03  0.35083682662E+04  0.34899104172E+04 0.  0.
        4    1    3    3  502    0  0.54299429135E+03  0.16030274431E+04 -0.24719219077E+03  0.17104518046E+04  0.12699999809E+01 0.  1.
       -4    1    3    3    0  502 -0.54299429135E+03 -0.16030274431E+04  0.60659888415E+03  0.17979164616E+04  0.12699999809E+01 0. -1.
</event>
<event>
 5   0  0.3553585E-08  0.3500531E+04  0.7818609E-02  0.8113664E-01
       -2   -1    0    0    0  501  0.00000000000E+00  0.00000000000E+00  0.14005603634E+04  0.14005603634E+04  0.25500000920E-02 0.  1.
        2   -1    0    0  501    0  0.00000000000E+00  0.00000000000E+00 -0.21872886080E+04  0.21872886080E+04  0.25500000920E-02 0. -1.
    10030    2    1    2    0    0  0.00000000000E+00  0.00000000000E+00 -0.78672824461E+03  0.35878489714E+04  0.35005312327E+04 0.  0.
        2    1    3    3  502    0 -0.74225134258E+03  0.57068124529E+03  0.11223115398E+04  0.14615735806E+04  0.25500000920E-02 0.  1.
       -2    1    3    3    0  502  0.74225134258E+03 -0.57068124529E+03 -0.19090397844E+04  0.21262753908E+04  0.25500000920E-02 0. -1.
</event>
<event>
 5   0  0.3467834E-08  0.3495570E+04  0.7818609E-02  0.8114841E-01
       -2   -1    0    0    0  501  0.00000000000E+00  0.00000000000E+00  0.13894270263E+04  0.13894270263E+04  0.25500000920E-02 0.  1.
        2   -1    0    0  501    0  0.00000000000E+00  0.00000000000E+00 -0.21985695051E+04  0.21985695051E+04  0.25500000920E-02 0. -1.
    10030    2    1    2    0    0  0.00000000000E+00  0.00000000000E+00 -0.80914247877E+03  0.35879965314E+04  0.34955697044E+04 0.  0.
        3    1    3    3  502    0 -0.60173785326E+03 -0.73988957165E+03 -0.19079577894E+04  0.21330325733E+04  0.10100000352E+00 0. -1.
       -3    1    3    3    0  502  0.60173785326E+03  0.73988957165E+03  0.10988153106E+04  0.14549639581E+04  0.10100000352E+00 0.  1.
</event>
<event>
 5   0  0.3554451E-08  0.3501619E+04  0.7818609E-02  0.8113406E-01
       -2   -1    0    0    0  501  0.00000000000E+00  0.00000000000E+00  0.16860573244E+04  0.16860573244E+04  0.25500000920E-02 0.  1.
        2   -1    0    0  501    0  0.00000000000E+00  0.00000000000E+00 -0.18180489352E+04  0.18180489352E+04  0.25500000920E-02 0. -1.
    10030    2    1    2    0    0  0.00000000000E+00  0.00000000000E+00 -0.13199161076E+03  0.35041062596E+04  0.35016194672E+04 0.  0.
        5    1    3    3  502    0 -0.15645729491E+04  0.53957989985E+03 -0.63760865561E+03  0.17735844691E+04  0.46999998093E+01 0. -1.
       -5    1    3    3    0  502  0.15645729491E+04 -0.53957989985E+03  0.50561704485E+03  0.17305217905E+04  0.46999998093E+01 0.  1.
</event>
<event>
 5   0  0.1121462E-08  0.3500797E+04  0.7818609E-02  0.8113601E-01
        1   -1    0    0  501    0  0.00000000000E+00  0.00000000000E+00  0.18509773334E+04  0.18509773334E+04  0.50400001928E-02 0.  1.
       -1   -1    0    0    0  501  0.00000000000E+00  0.00000000000E+00 -0.16552849190E+04  0.16552849190E+04  0.50400001928E-02 0. -1.
    10030    2    1    2    0    0  0.00000000000E+00  0.00000000000E+00  0.19569241435E+03  0.35062622524E+04  0.35007969752E+04 0.  0.
        2    1    3    3  502    0 -0.69288506995E+03 -0.15982658000E+04 -0.73744275483E+02  0.17435542739E+04  0.25500000920E-02 0.  1.
       -2    1    3    3    0  502  0.69288506995E+03  0.15982658000E+04  0.26943668984E+03  0.17627079785E+04  0.25500000920E-02 0. -1.
</event>
<event>
 5   0  0.1121462E-08  0.3489363E+04  0.7818609E-02  0.8116315E-01
        1   -1    0    0  501    0  0.00000000000E+00  0.00000000000E+00  0.17346881001E+04  0.17346881001E+04  0.50400001928E-02 0. -1.
       -1   -1    0    0    0  501  0.00000000000E+00  0.00000000000E+00 -0.17547321984E+04  0.17547321984E+04  0.50400001928E-02 0.  1.
    10030    2    1    2    0    0  0.00000000000E+00  0.00000000000E+00 -0.20044098288E+02  0.34894202985E+04  0.34893627289E+04 0.  0.
        4    1    3    3  502    0  0.43479742871E+03  0.18576243535E+03  0.16693969066E+04  0.17350631490E+04  0.12699999809E+01 0. -1.
       -4    1    3    3    0  502 -0.43479742871E+03 -0.18576243535E+03 -0.16894410048E+04  0.17543571495E+04  0.12699999809E+01 0.  1.
</event>
<event>
 5   0  0.3700096E-08  0.3499358E+04  0.7818609E-02  0.8113942E-01
       -2   -1    0    0    0  501  0.00000000000E+00  0.00000000000E+00  0.11043422934E+04  0.11043422934E+04  0.25500000920E-02 0.  1.
        2   -1    0    0  501    0  0.00000000000E+00  0.00000000000E+00 -0.27721263852E+04  0.27721263852E+04  0.25500000920E-02 0. -1.
    10030    2    1    2    0    0  0.00000000000E+00  0.00000000000E+00 -0.16677840918E+04  0.38764686787E+04  0.34993578896E+04 0.  0.
        4    1    3    3  502    0  0.99098092225E+03 -0.12815587758E+03 -0.24249566502E+04  0.26227625675E+04  0.12699999809E+01 0. -1.
       -4    1    3    3    0  502 -0.99098092225E+03  0.12815587758E+03  0.75717255834E+03  0.12537061112E+04  0.12699999809E+01 0.  1.
</event>
<event>
 5   0  0.3467834E-08  0.3498748E+04  0.7818609E-02  0.8114087E-01
        2   -1    0    0  501    0  0.00000000000E+00  0.00000000000E+00  0.28114242588E+04  0.28114242588E+04  0.25500000920E-02 0.  1.
       -2   -1    0    0    0  501  0.00000000000E+00  0.00000000000E+00 -0.10885263798E+04  0.10885263798E+04  0.25500000920E-02 0. -1.
    10030    2    1    2    0    0  0.00000000000E+00  0.00000000000E+00  0.17228978790E+04  0.38999506387E+04  0.34987480450E+04 0.  0.
        3    1    3    3  502    0  0.14267689871E+04 -0.54128710064E+03  0.18148980856E+04  0.23711846278E+04  0.10100000352E+00 0.  1.
       -3    1    3    3    0  502 -0.14267689871E+04  0.54128710064E+03 -0.92000206587E+02  0.15287660109E+04  0.10100000352E+00 0. -1.
</event>
<event>
 5   0  0.1121462E-08  0.3499397E+04  0.7818609E-02  0.8113933E-01
       -1   -1    0    0    0  501  0.00000000000E+00  0.00000000000E+00  0.16960029064E+04  0.16960029064E+04  0.50400001928E-02 0. -1.
        1   -1    0    0  501    0  0.00000000000E+00  0.00000000000E+00 -0.18050944140E+04  0.18050944140E+04  0.50400001928E-02 0.  1.
    10030    2    1    2    0    0  0.00000000000E+00  0.00000000000E+00 -0.10909150764E+03  0.35010973204E+04  0.34993973038E+04 0.  0.
        1    1    3    3  502    0 -0.54078800684E+02  0.13748735783E+04  0.10268324626E+04  0.17168537442E+04  0.50400001928E-02 0. -1.
       -1    1    3    3    0  502  0.54078800684E+02 -0.13748735783E+04 -0.11359239702E+04  0.17842435761E+04  0.50400001928E-02 0.  1.
</event>
<event>
 5   0  0.1140808E-08  0.3502547E+04  0.7818609E-02  0.8113186E-01
        1   -1    0    0  501    0  0.00000000000E+00  0.00000000000E+00  0.13309003502E+04  0.13309003502E+04  0.50400001928E-02 0. -1.
       -1   -1    0    0    0  501  0.00000000000E+00  0.00000000000E+00 -0.23044247678E+04  0.23044247678E+04  0.50400001928E-02 0.  1.
    10030    2    1    2    0    0  0.00000000000E+00  0.00000000000E+00 -0.97352441758E+03  0.36353251181E+04  0.35025474904E+04 0.  0.
        3    1    3    3  502    0  0.18638623197E+03 -0.15751240544E+04 -0.12573381525E+04  0.20240194797E+04  0.10100000352E+00 0.  1.
       -3    1    3    3    0  502 -0.18638623197E+03  0.15751240544E+04  0.28381373493E+03  0.16113056384E+04  0.10100000352E+00 0. -1.
</event>
<event>
 5   0  0.1121462E-08  0.3501647E+04  0.7818609E-02  0.8113400E-01
        1   -1    0    0  501    0  0.00000000000E+00  0.00000000000E+00  0.15888281797E+04  0.15888281797E+04  0.50400001928E-02 0. -1.
       -1   -1    0    0    0  501  0.00000000000E+00  0.00000000000E+00 -0.19293355727E+04  0.19293355727E+04  0.50400001928E-02 0.  1.
    10030    2    1    2    0    0  0.00000000000E+00  0.00000000000E+00 -0.34050739298E+03  0.35181637524E+04  0.35016468845E+04 0.  0.
        2    1    3    3  502    0 -0.91054363917E+03 -0.27754637213E+03  0.13061199129E+04  0.16161902531E+04  0.25500000920E-02 0. -1.
       -2    1    3    3    0  502  0.91054363917E+03  0.27754637213E+03 -0.16466273058E+04  0.19019734993E+04  0.25500000920E-02 0.  1.
</event>
<event>
 5   0  0.1121462E-08  0.3498700E+04  0.7818609E-02  0.8114098E-01
        1   -1    0    0  501    0  0.00000000000E+00  0.00000000000E+00  0.97920951848E+03  0.97920951849E+03  0.50400001928E-02 0.  1.
       -1   -1    0    0    0  501  0.00000000000E+00  0.00000000000E+00 -0.31252003863E+04  0.31252003863E+04  0.50400001928E-02 0. -1.
    10030    2    1    2    0    0  0.00000000000E+00  0.00000000000E+00 -0.21459908678E+04  0.41044099048E+04  0.34987003104E+04 0.  0.
        2    1    3    3  502    0  0.78175088330E+03 -0.90532437700E+03  0.42450999872E+03  0.12692341825E+04  0.25500000920E-02 0.  1.
       -2    1    3    3    0  502 -0.78175088330E+03  0.90532437700E+03 -0.25705008665E+04  0.28351757223E+04  0.25500000920E-02 0. -1.
</event>
<event>
 5   0  0.3554451E-08  0.3500401E+04  0.7818609E-02  0.8113695E-01
       -2   -1    0    0    0  501  0.00000000000E+00  0.00000000000E+00  0.17162399385E+04  0.17162399385E+04  0.25500000920E-02 0. -1.
        2   -1    0    0  501    0  0.00000000000E+00  0.00000000000E+00 -0.17848334873E+04  0.17848334873E+04  0.25500000920E-02 0.  1.
    10030    2    1    2    0    0  0.00000000000E+00  0.00000000000E+00 -0.68593548762E+02  0.35010734258E+04  0.35004014138E+04 0.  0.
        5    1    3    3  502    0 -0.11770967912E+04 -0.31834381630E+03 -0.12900380194E+04  0.17751393812E+04  0.46999998093E+01 0.  1.
       -5    1    3    3    0  502  0.11770967912E+04  0.31834381630E+03  0.12214444706E+04  0.17259340445E+04  0.46999998093E+01 0. -1.
</event>
<event>
 5   0  0.1129219E-08  0.3496869E+04  0.7818609E-02  0.8114532E-01
        1   -1    0    0  501    0  0.00000000000E+00  0.00000000000E+00  0.17539484426E+04  0.17539484426E+04  0.50400001928E-02 0.  1.
       -1   -1    0    0    0  501  0.00000000000E+00  0.00000000000E+00 -0.17429378562E+04  0.17429378562E+04  0.50400001928E-02 0. -1.
    10030    2    1    2    0    0  0.00000000000E+00  0.00000000000E+00  0.11010586370E+02  0.34968862989E+04  0.34968689644E+04 0.  0.
        5    1    3    3  502    0  0.66749182313E+03  0.38099052185E+03 -0.15649489050E+04  0.17434982870E+04  0.46999998093E+01 0. -1.
       -5    1    3    3    0  502 -0.66749182313E+03 -0.38099052185E+03  0.15759594913E+04  0.17533880118E+04  0.46999998093E+01 0.  1.
</event>
<event>
 5   0  0.1140808E-08  0.3499560E+04  0.7818609E-02  0.8113894E-01
       -1   -1    0    0    0  501  0.00000000000E+00  0.00000000000E+00  0.22275037755E+04  0.22275037755E+04  0.50400001928E-02 0.  1.
        1   -1    0    0  501    0  0.00000000000E+00  0.00000000000E+00 -0.13745113542E+04  0.13745113542E+04  0.50400001928E-02 0. -1.
    10030    2    1    2    0    0  0.00000000000E+00  0.00000000000E+00  0.85299242125E+03  0.36020151297E+04  0.34995595328E+04 0.  0.
        3    1    3    3  502    0  0.40290176786E+03  0.65366956186E+03  0.20448241227E+04  0.21842434465E+04  0.10100000352E+00 0.  1.
       -3    1    3    3    0  502 -0.40290176786E+03 -0.65366956186E+03 -0.11918317015E+04  0.14177716831E+04  0.10100000352E+00 0. -1.
</event>
<event>
 5   0  0.1129219E-08  0.3501112E+04  0.7818609E-02  0.8113526E-01
       -1   -1    0    0    0  501  0.00000000000E+00  0.00000000000E+00  0.15577517526E+04  0.15577517526E+04  0.50400001928E-02 0.  1.
        1   -1    0    0  501    0  0.00000000000E+00  0.00000000000E+00 -0.19672243415E+04  0.19672243415E+04  0.50400001928E-02 0. -1.
    10030    2    1    2    0    0  0.00000000000E+00  0.00000000000E+00 -0.40947258888E+03  0.35249760941E+04  0.35011124893E+04 0.  0.
        5    1    3    3  502    0 -0.12109782481E+04 -0.97757035879E+03 -0.10116432350E+04  0.18562209590E+04  0.46999998093E+01 0. -1.
       -5    1    3    3    0  502  0.12109782481E+04  0.97757035879E+03  0.60217064613E+03  0.16687551351E+04  0.46999998093E+01 0.  1.
</event>
<event>
 5   0  0.1121462E-08  0.3498171E+04  0.7818609E-02  0.8114224E-01
       -1   -1    0    0    0  501  0.00000000000E+00  0.00000000000E+00  0.17484505920E+04  0.17484505920E+04  0.50400001928E-02 0. -1.
        1   -1    0    0  501    0  0.00000000000E+00  0.00000000000E+00 -0.17497202133E+04  0.17497202133E+04  0.50400001928E-02 0.  1.
    10030    2    1    2    0    0  0.00000000000E+00  0.00000000000E+00 -0.12696212990E+01  0.34981708053E+04  0.34981705749E+04 0.  0.
        1    1    3    3  502    0 -0.69265414327E+03  0.14656408436E+04  0.65619587908E+03  0.17488470134E+04  0.50400001928E-02 0.  1.
       -1    1    3    3    0  502  0.69265414327E+03 -0.14656408436E+04 -0.65746550037E+03  0.17493237919E+04  0.50400001928E-02 0. -1.
</event>
<event>
 5   0  0.3553585E-08  0.3501341E+04  0.7818609E-02  0.8113472E-01
       -2   -1    0    0    0  501  0.00000000000E+00  0.00000000000E+00  0.13013684512E+04  0.13013684512E+04  0.25500000920E-02 0.  1.
        2   -1    0    0  501    0  0.00000000000E+00  0.00000000000E+00 -0.23550953979E+04  0.23550953979E+04  0.25500000920E-02 0. -1.
    10030    2    1    2    0    0  0.00000000000E+00  0.00000000000E+00 -0.10537269467E+04  0.36564638491E+04  0.35013408006E+04 0.  0.
        2    1    3    3  502    0 -0.13252816651E+04 -0.89577397610E+03 -0.12697624639E+04  0.20423220174E+04  0.25500000920E-02 0. -1.
       -2    1    3    3    0  502  0.13252816651E+04  0.89577397610E+03  0.21603551714E+03  0.16141418317E+04  0.25500000920E-02 0.  1.
</event>
<event>
 5   0  0.3628017E-08  0.3510896E+04  0.7818609E-02  0.8111213E-01
        2   -1    0    0  501    0  0.00000000000E+00  0.00000000000E+00  0.18480308492E+04  0.18480308492E+04  0.25500000920E-02 0.  1.
       -2   -1    0    0    0  501  0.00000000000E+00  0.00000000000E+00 -0.16675031851E+04  0.16675031851E+04  0.25500000920E-02 0. -1.
    10030    2    1    2    0    0  0.00000000000E+00  0.00000000000E+00  0.18052766414E+03  0.35155340343E+04  0.35108957986E+04 0.  0.
        1    1    3    3  502    0 -0.10588696015E+04  0.53288660000E+03  0.13867424211E+04  0.18243430335E+04  0.50400001928E-02 0.  1.
       -1    1    3    3    0  502  0.10588696015E+04 -0.53288660000E+03 -0.12062147569E+04  0.16911910008E+04  0.50400001928E-02 0. -1.
</event>
<event>
 5   0  0.1121462E-08  0.3500163E+04  0.7818609E-02  0.8113751E-01
       -3   -1    0    0    0  501  0.00000000000E+00  0.00000000000E+00  0.11977240454E+04  0.11977240497E+04  0.10100000352E+00 0. -1.
        3   -1    0    0  501    0  0.00000000000E+00  0.00000000000E+00 -0.25571708614E+04  0.25571708634E+04  0.10100000352E+00 0.  1.
    10030    2    1    2    0    0  0.00000000000E+00  0.00000000000E+00 -0.13594468160E+04  0.37548949131E+04  0.35001628766E+04 0.  0.
        4    1    3    3  502    0  0.74899273819E+03 -0.21493574096E+03  0.10013550598E+04  0.12688187669E+04  0.12699999809E+01 0. -1.
       -4    1    3    3    0  502 -0.74899273819E+03  0.21493574096E+03 -0.23608018758E+04  0.24860761461E+04  0.12699999809E+01 0.  1.
</event>
<event>
 5   0  0.1121462E-08  0.3494424E+04  0.7818609E-02  0.8115113E-01
       -1   -1    0    0    0  501  0.00000000000E+00  0.00000000000E+00  0.13831165008E+04  0.13831165008E+04  0.50400001928E-02 0. -1.
        1   -1    0    0  501    0  0.00000000000E+00  0.00000000000E+00 -0.22071530001E+04  0.22071530001E+04  0.50400001928E-02 0.  1.
    10030    2    1    2    0    0  0.00000000000E+00  0.00000000000E+00 -0.82403649929E+03  0.35902695009E+04  0.34944239778E+04 0.  0.
        2    1    3    3  502    0 -0.77408949181E+03  0.96504925900E+03 -0.16796393768E+04  0.20860783901E+04  0.25500000920E-02 0.  1.
       -2    1    3    3    0  502  0.77408949181E+03 -0.96504925900E+03  0.85560287752E+03  0.15041911107E+04  0.25500000920E-02 0. -1.
</event>
<event>
 5   0  0.1140808E-08  0.3500757E+04  0.7818609E-02  0.8113611E-01
        1   -1    0    0  501    0  0.00000000000E+00  0.00000000000E+00  0.15286694136E+04  0.15286694136E+04  0.50400001928E-02 0.  1.
       -1   -1    0    0    0  501  0.00000000000E+00  0.00000000000E+00 -0.20042431432E+04  0.20042431432E+04  0.50400001928E-02 0. -1.
    10030    2    1    2    0    0  0.00000000000E+00  0.00000000000E+00 -0.47557372961E+03  0.35329125568E+04  0.35007571698E+04 0.  0.
        3    1    3    3  502    0  0.38831386623E+02 -0.94246268019E+03 -0.17258069785E+04  0.19667621914E+04  0.10100000352E+00 0. -1.
       -3    1    3    3    0  502 -0.38831386623E+02  0.94246268019E+03  0.12502332489E+04  0.15661503654E+04  0.10100000352E+00 0.  1.
</event>
<event>
 5   0  0.3553585E-08  0.3503445E+04  0.7818609E-02  0.8112974E-01
       -2   -1    0    0    0  501  0.00000000000E+00  0.00000000000E+00  0.16101928387E+04  0.16101928387E+04  0.25500000920E-02 0.  1.
        2   -1    0    0  501    0  0.00000000000E+00  0.00000000000E+00 -0.19056923013E+04  0.19056923013E+04  0.25500000920E-02 0. -1.
    10030    2    1    2    0    0  0.00000000000E+00  0.00000000000E+00 -0.29549946259E+03  0.35158851400E+04  0.35034452165E+04 0.  0.
        2    1    3    3  502    0 -0.99061013253E+03  0.12606979077E+04  0.56035077501E+03  0.16984288741E+04  0.25500000920E-02 0.  1.
       -2    1    3    3    0  502  0.99061013253E+03 -0.12606979077E+04 -0.85585023761E+03  0.18174562659E+04  0.25500000920E-02 0. -1.
</event>
<event>
 5   0  0.3467834E-08  0.3500403E+04  0.7818609E-02  0.8113694E-01
       -2   -1    0    0    0  501  0.00000000000E+00  0.00000000000E+00  0.15274934870E+04  0.15274934870E+04  0.25500000920E-02 0. -1.
        2   -1    0    0  501    0  0.00000000000E+00  0.00000000000E+00 -0.20053806060E+04  0.20053806060E+04  0.25500000920E-02 0.  1.
    10030    2    1    2    0    0  0.00000000000E+00  0.00000000000E+00 -0.47788711897E+03  0.35328740930E+04  0.35004032994E+04 0.  0.
        3    1    3    3  502    0 -0.45625070547E+03 -0.72366662992E+03  0.13020953380E+04  0.15579827910E+04  0.10100000352E+00 0. -1.
       -3    1    3    3    0  502  0.45625070547E+03  0.72366662992E+03 -0.17799824570E+04  0.19748913020E+04  0.10100000352E+00 0.  1.
</event>
<event>
 5   0  0.1121462E-08  0.3500422E+04  0.7818609E-02  0.8113690E-01
       -1   -1    0    0    0  501  0.00000000000E+00  0.00000000000E+00  0.10852470414E+04  0.10852470414E+04  0.50400001928E-02 0. -1.
        1   -1    0    0  501    0  0.00000000000E+00  0.00000000000E+00 -0.28226192562E+04  0.28226192562E+04  0.50400001928E-02 0.  1.
    10030    2    1    2    0    0  0.00000000000E+00  0.00000000000E+00 -0.17373722147E+04  0.39078662976E+04  0.35004223727E+04 0.  0.
        1    1    3    3  502    0  0.89382373374E+03  0.65790736678E+03  0.64215881172E+03  0.12822366824E+04  0.50400001928E-02 0. -1.
       -1    1    3    3    0  502 -0.89382373374E+03 -0.65790736678E+03 -0.23795310265E+04  0.26256296152E+04  0.50400001928E-02 0.  1.
</event>
<event>
 5   0  0.3553585E-08  0.3498761E+04  0.7818609E-02  0.8114084E-01
       -2   -1    0    0    0  501  0.00000000000E+00  0.00000000000E+00  0.16943768345E+04  0.16943768345E+04  0.25500000920E-02 0.  1.
        2   -1    0    0  501    0  0.00000000000E+00  0.00000000000E+00 -0.18061700936E+04  0.18061700936E+04  0.25500000920E-02 0. -1.
    10030    2    1    2    0    0  0.00000000000E+00  0.00000000000E+00 -0.11179325906E+03  0.35005469281E+04  0.34987613612E+04 0.  0.
        2    1    3    3  502    0  0.15102682791E+04  0.61585701864E+03  0.57699447272E+03  0.17300614913E+04  0.25500000920E-02 0.  1.
       -2    1    3    3    0  502 -0.15102682791E+04 -0.61585701864E+03 -0.68878773179E+03  0.17704854367E+04  0.25500000920E-02 0. -1.
</event>
<event>
 5   0  0.1121462E-08  0.3487233E+04  0.7818609E-02  0.8116822E-01
       -1   -1    0    0    0  501  0.00000000000E+00  0.00000000000E+00  0.12688264859E+04  0.12688264859E+04  0.50400001928E-02 0.  1.
        1   -1    0    0  501    0  0.00000000000E+00  0.00000000000E+00 -0.23960714520E+04  0.23960714520E+04  0.50400001928E-02 0. -1.
    10030    2    1    2    0    0  0.00000000000E+00  0.00000000000E+00 -0.11272449661E+04  0.36648979379E+04  0.34872332417E+04 0.  0.
        4    1    3    3  502    0  0.28402633217E+03 -0.34287126300E+02  0.12439916164E+04  0.12764651656E+04  0.12699999809E+01 0.  1.
       -4    1    3    3    0  502 -0.28402633217E+03  0.34287126300E+02 -0.23712365825E+04  0.23884327723E+04  0.12699999809E+01 0. -1.
</event>
<event>
 5   0  0.1140808E-08  0.3499593E+04  0.7818609E-02  0.8113886E-01
       -1   -1    0    0    0  501  0.00000000000E+00  0.00000000000E+00  0.22228124988E+04  0.22228124988E+04  0.50400001928E-02 0. -1.
        1   -1    0    0  501    0  0.00000000000E+00  0.00000000000E+00 -0.13774385689E+04  0.13774385689E+04  0.50400001928E-02 0.  1.
    10030    2    1    2    0    0  0.00000000000E+00  0.00000000000E+00  0.84537392990E+03  0.36002510678E+04  0.34995929291E+04 0.  0.
        3    1    3    3  502    0 -0.87336314646E+03  0.37325902650E+03  0.19345490990E+04  0.21551254519E+04  0.10100000352E+00 0. -1.
       -3    1    3    3    0  502  0.87336314646E+03 -0.37325902650E+03 -0.10891751691E+04  0.14451256159E+04  0.10100000352E+00 0.  1.
</event>
<event>
 5   0  0.3554451E-08  0.3515237E+04  0.7818609E-02  0.8110188E-01
       -2   -1    0    0    0  501  0.00000000000E+00  0.00000000000E+00  0.13098823468E+04  0.13098823468E+04  0.25500000920E-02 0. -1.
        2   -1    0    0  501    0  0.00000000000E+00  0.00000000000E+00 -0.23583969634E+04  0.23583969634E+04  0.25500000920E-02 0.  1.
    10030    2    1    2    0    0  0.00000000000E+00  0.00000000000E+00 -0.10485146166E+04  0.36682793102E+04  0.35152368621E+04 0.  0.
        5    1    3    3  502    0 -0.15743294391E+04  0.77592023564E+03 -0.62122802158E+03  0.18618570675E+04  0.46999998093E+01 0.  1.
       -5    1    3    3    0  502  0.15743294391E+04 -0.77592023564E+03 -0.42728659500E+03  0.18064222428E+04  0.46999998093E+01 0. -1.
</event>
<event>
 5   0  0.3553585E-08  0.3504120E+04  0.7818609E-02  0.8112814E-01
       -2   -1    0    0    0  501  0.00000000000E+00  0.00000000000E+00  0.15936513321E+04  0.15936513321E+04  0.25500000920E-02 0. -1.
        2   -1    0    0  501    0  0.00000000000E+00  0.00000000000E+00 -0.19262139932E+04  0.19262139932E+04  0.25500000920E-02 0.  1.
    10030    2    1    2    0    0  0.00000000000E+00  0.00000000000E+00 -0.33256266104E+03  0.35198653253E+04  0.35041195734E+04 0.  0.
        2    1    3    3  502    0 -0.59594107651E+03 -0.18796386720E+03 -0.18104740514E+04  0.19152786933E+04  0.25500000920E-02 0.  1.
       -2    1    3    3    0  502  0.59594107651E+03  0.18796386720E+03  0.14779113904E+04  0.16045866321E+04  0.25500000920E-02 0. -1.
</event>
<event>
 5   0  0.1121462E-08  0.3498774E+04  0.7818609E-02  0.8114081E-01
        3   -1    0    0  501    0  0.00000000000E+00  0.00000000000E+00  0.15529937215E+04  0.15529937247E+04  0.10100000352E+00 0. -1.
       -3   -1    0    0    0  501  0.00000000000E+00  0.00000000000E+00 -0.19706164277E+04  0.19706164303E+04  0.10100000352E+00 0.  1.
    10030    2    1    2    0    0  0.00000000000E+00  0.00000000000E+00 -0.41762270627E+03  0.35236101551E+04  0.34987740425E+04 0.  0.
        2    1    3    3  502    0  0.43892580570E+03 -0.14773686840E+04 -0.10423828843E+04  0.18606010236E+04  0.25500000920E-02 0.  1.
       -2    1    3    3    0  502 -0.43892580570E+03  0.14773686840E+04  0.62476017804E+03  0.16630091315E+04  0.25500000920E-02 0. -1.
</event>
<event>
 5   0  0.1121462E-08  0.3498668E+04  0.7818609E-02  0.8114106E-01
        1   -1    0    0  501    0  0.00000000000E+00  0.00000000000E+00  0.27540603223E+04  0.27540603223E+04  0.50400001928E-02 0. -1.
       -1   -1    0    0    0  501  0.00000000000E+00  0.00000000000E+00 -0.11111480266E+04  0.11111480266E+04  0.50400001928E-02 0.  1.
    10030    2    1    2    0    0  0.00000000000E+00  0.00000000000E+00  0.16429122956E+04  0.38652083489E+04  0.34986675705E+04 0.  0.
        2    1    3    3  502    0  0.46355021639E+03  0.82920058300E+03  0.24442651150E+04  0.26223814297E+04  0.25500000920E-02 0. -1.
       -2    1    3    3    0  502 -0.46355021639E+03 -0.82920058300E+03 -0.80135281940E+03  0.12428269192E+04  0.25500000920E-02 0.  1.
</event>
<event>
 5   0  0.1121462E-08  0.3499686E+04  0.7818609E-02  0.8113864E-01
       -1   -1    0    0    0  501  0.00000000000E+00  0.00000000000E+00  0.14756813608E+04  0.14756813608E+04  0.50400001928E-02 0.  1.
        1   -1    0    0  501    0  0.00000000000E+00  0.00000000000E+00 -0.20749404061E+04  0.20749404062E+04  0.50400001928E-02 0. -1.
    10030    2    1    2    0    0  0.00000000000E+00  0.00000000000E+00 -0.59925904536E+03  0.35506217670E+04  0.34996862043E+04 0.  0.
        1    1    3    3  502    0 -0.14718189231E+04 -0.93351682074E+03 -0.14165105087E+03  0.17486479398E+04  0.50400001928E-02 0.  1.
       -1    1    3    3    0  502  0.14718189231E+04  0.93351682074E+03 -0.45760799449E+03  0.18019738272E+04  0.50400001928E-02 0. -1.
</event>
<event>
 5   0  0.3553585E-08  0.3500821E+04  0.7818609E-02  0.8113595E-01
       -2   -1    0    0    0  501  0.00000000000E+00  0.00000000000E+00  0.12686666662E+04  0.12686666662E+04  0.25500000920E-02 0.  1.
        2   -1    0    0  501    0  0.00000000000E+00  0.00000000000E+00 -0.24150840645E+04  0.24150840645E+04  0.25500000920E-02 0. -1.
    10030    2    1    2    0    0  0.00000000000E+00  0.00000000000E+00 -0.11464173983E+04  0.36837507308E+04  0.35008208459E+04 0.  0.
        2    1    3    3  502    0  0.82925406959E+03  0.16373575153E+03  0.10396816118E+04  0.13399289393E+04  0.25500000920E-02 0.  1.
       -2    1    3    3    0  502 -0.82925406959E+03 -0.16373575153E+03 -0.21860990101E+04  0.23438217915E+04  0.25500000920E-02 0. -1.
</event>
<event>
 5   0  0.1121462E-08  0.3501507E+04  0.7818609E-02  0.8113433E-01
       -1   -1    0    0    0  501  0.00000000000E+00  0.00000000000E+00  0.10742485697E+04  0.10742485697E+04  0.50400001928E-02 0. -1.
        1   -1    0    0  501    0  0.00000000000E+00  0.00000000000E+00 -0.28532855243E+04  0.28532855243E+04  0.50400001928E-02 0.  1.
    10030    2    1    2    0    0  0.00000000000E+00  0.00000000000E+00 -0.17790369545E+04  0.39275340940E+04  0.35015070433E+04 0.  0.
        1    1    3    3  502    0  0.14669859766E+04  0.79048584391E+03 -0.28733525662E+03  0.16909988985E+04  0.50400001928E-02 0. -1.
       -1    1    3    3    0  502 -0.14669859766E+04 -0.79048584391E+03 -0.14917016979E+04  0.22365351955E+04  0.50400001928E-02 0.  1.
</event>
<event>
 5   0  0.1121462E-08  0.3499202E+04  0.7818609E-02  0.8113979E-01
       -4   -1    0    0    0  501  0.00000000000E+00  0.00000000000E+00  0.20540097868E+04  0.20540101794E+04  0.12699999809E+01 0.  1.
        4   -1    0    0  501    0  0.00000000000E+00  0.00000000000E+00 -0.14903057530E+04  0.14903062941E+04  0.12699999809E+01 0. -1.
    10030    2    1    2    0    0  0.00000000000E+00  0.00000000000E+00  0.56370403379E+03  0.35443164735E+04  0.34992023415E+04 0.  0.
        1    1    3    3  502    0 -0.10809217624E+04  0.55824410307E+03  0.15554718090E+04  0.19747204571E+04  0.50400001928E-02 0.  1.
       -1    1    3    3    0  502  0.10809217624E+04 -0.55824410307E+03 -0.99176777517E+03  0.15695960165E+04  0.50400001928E-02 0. -1.
</event>
<event>
 5   0  0.1140808E-08  0.3500937E+04  0.7818609E-02  0.8113568E-01
        1   -1    0    0  501    0  0.00000000000E+00  0.00000000000E+00  0.18521166527E+04  0.18521166527E+04  0.50400001928E-02 0. -1.
       -1   -1    0    0    0  501  0.00000000000E+00  0.00000000000E+00 -0.16543992629E+04  0.16543992629E+04  0.50400001928E-02 0.  1.
    10030    2    1    2    0    0  0.00000000000E+00  0.00000000000E+00  0.19771738984E+03  0.35065159156E+04  0.35009372602E+04 0.  0.
        3    1    3    3  502    0  0.16211839685E+03  0.11932140682E+04  0.13713548151E+04  0.18250085551E+04  0.10100000352E+00 0. -1.
       -3    1    3    3    0  502 -0.16211839685E+03 -0.11932140682E+04 -0.11736374253E+04  0.16815073605E+04  0.10100000352E+00 0.  1.
</event>
<event>
 5   0  0.1121462E-08  0.3496043E+04  0.7818609E-02  0.8114728E-01
        3   -1    0    0  501    0  0.00000000000E+00  0.00000000000E+00  0.29398381207E+04  0.29398381224E+04  0.10100000352E+00 0. -1.
       -3   -1    0    0    0  501  0.00000000000E+00  0.00000000000E+00 -0.10393699170E+04  0.10393699219E+04  0.10100000352E+00 0.  1.
    10030    2    1    2    0    0  0.00000000000E+00  0.00000000000E+00  0.19004682037E+04  0.39792080443E+04  0.34960430870E+04 0.  0.
        5    1    3    3  502    0 -0.92756732131E+03 -0.13152539159E+04  0.17266216622E+04  0.23604064169E+04  0.46999998093E+01 0.  1.
       -5    1    3    3    0  502  0.92756732131E+03  0.13152539159E+04  0.17384654150E+03  0.16188016274E+04  0.46999998093E+01 0. -1.
</event>
<event>
 5   0  0.1129219E-08  0.3498252E+04  0.7818609E-02  0.8114204E-01
       -1   -1    0    0    0  501  0.00000000000E+00  0.00000000000E+00  0.21967824455E+04  0.21967824455E+04  0.50400001928E-02 0.  1.
        1   -1    0    0  501    0  0.00000000000E+00  0.00000000000E+00 -0.13926917994E+04  0.13926917994E+04  0.50400001928E-02 0. -1.
    10030    2    1    2    0    0  0.00000000000E+00  0.00000000000E+00  0.80409064607E+03  0.35894742449E+04  0.34982515043E+04 0.  0.
        5    1    3    3  502    0  0.88042267336E+03  0.11711001620E+04 -0.57827368065E+03  0.15751324430E+04  0.46999998093E+01 0. -1.
       -5    1    3    3    0  502 -0.88042267336E+03 -0.11711001620E+04  0.13823643267E+04  0.20143418019E+04  0.46999998093E+01 0.  1.
</event>
<event>
 5   0  0.3553585E-08  0.3500109E+04  0.7818609E-02  0.8113764E-01
       -2   -1    0    0    0  501  0.00000000000E+00  0.00000000000E+00  0.17245690261E+04  0.17245690261E+04  0.25500000920E-02 0. -1.
        2   -1    0    0  501    0  0.00000000000E+00  0.00000000000E+00 -0.17759163946E+04  0.17759163946E+04  0.25500000920E-02 0.  1.
    10030    2    1    2    0    0  0.00000000000E+00  0.00000000000E+00 -0.51347368477E+02  0.35004854207E+04  0.35001088024E+04 0.  0.
        2    1    3    3  502    0 -0.16607743275E+04 -0.51127528314E+03 -0.23334145848E+03  0.17532889147E+04  0.25500000920E-02 0. -1.
       -2    1    3    3    0  502  0.16607743275E+04  0.51127528314E+03  0.18199409000E+03  0.17471965061E+04  0.25500000920E-02 0.  1.
</event>
<event>
 5   0  0.1121462E-08  0.3500810E+04  0.7818609E-02  0.8113598E-01
       -1   -1    0    0    0  501  0.00000000000E+00  0.00000000000E+00  0.19450581764E+04  0.19450581764E+04  0.50400001928E-02 0.  1.
        1   -1    0    0  501    0  0.00000000000E+00  0.00000000000E+00 -0.15752315335E+04  0.15752315335E+04  0.50400001928E-02 0. -1.
    10030    2    1    2    0    0  0.00000000000E+00  0.00000000000E+00  0.36982664286E+03  0.35202897099E+04  0.35008096058E+04 0.  0.
        1    1    3    3  502    0  0.12946154642E+04 -0.53425223478E+02  0.13683364591E+04  0.18844702492E+04  0.50400001928E-02 0.  1.
       -1    1    3    3    0  502 -0.12946154642E+04  0.53425223478E+02 -0.99850981626E+03  0.16358194607E+04  0.50400001928E-02 0. -1.
</event>
<event>
 5   0  0.3553585E-08  0.3500222E+04  0.7818609E-02  0.8113737E-01
       -2   -1    0    0    0  501  0.00000000000E+00  0.00000000000E+00  0.20808748807E+04  0.20808748807E+04  0.25500000920E-02 0. -1.
        2   -1    0    0  501    0  0.00000000000E+00  0.00000000000E+00 -0.14719231354E+04  0.14719231354E+04  0.25500000920E-02 0.  1.
    10030    2    1    2    0    0  0.00000000000E+00  0.00000000000E+00  0.60895174530E+03  0.35527980161E+04  0.35002216380E+04 0.  0.
        2    1    3    3  502    0 -0.10794248233E+04  0.76193034329E+03  0.14694050637E+04  0.19760685814E+04  0.25500000920E-02 0. -1.
       -2    1    3    3    0  502  0.10794248233E+04 -0.76193034329E+03 -0.86045331839E+03  0.15767294347E+04  0.25500000920E-02 0.  1.
</event>
<event>
 5   0  0.1121462E-08  0.3499685E+04  0.7818609E-02  0.8113865E-01
        1   -1    0    0  501    0  0.00000000000E+00  0.00000000000E+00  0.16489227661E+04  0.16489227661E+04  0.50400001928E-02 0. -1.
       -1   -1    0    0    0  501  0.00000000000E+00  0.00000000000E+00 -0.18569386120E+04  0.18569386120E+04  0.50400001928E-02 0.  1.
    10030    2    1    2    0    0  0.00000000000E+00  0.00000000000E+00 -0.20801584586E+03  0.35058613782E+04  0.34996847588E+04 0.  0.
        2    1    3    3  502    0  0.10448228053E+04 -0.74327270683E+03 -0.12968400436E+04  0.18237058726E+04  0.25500000920E-02 0.  1.
       -2    1    3    3    0  502 -0.10448228053E+04  0.74327270683E+03  0.10888241978E+04  0.16821555055E+04  0.25500000920E-02 0. -1.
</event>
<event>
 5   0  0.1121462E-08  0.3495899E+04  0.7818609E-02  0.8114762E-01
        1   -1    0    0  501    0  0.00000000000E+00  0.00000000000E+00  0.18554831946E+04  0.18554831947E+04  0.50400001928E-02 0. -1.
       -1   -1    0    0    0  501  0.00000000000E+00  0.00000000000E+00 -0.16466480560E+04  0.16466480560E+04  0.50400001928E-02 0.  1.
    10030    2    1    2    0    0  0.00000000000E+00  0.00000000000E+00  0.20883513865E+03  0.35021312507E+04  0.34958991950E+04 0.  0.
        2    1    3    3  502    0  0.24321403389E+03 -0.81280179433E+03 -0.14265502206E+04  0.16597726818E+04  0.25500000920E-02 0.  1.
       -2    1    3    3    0  502 -0.24321403389E+03  0.81280179433E+03  0.16353853593E+04  0.18423585689E+04  0.25500000920E-02 0. -1.
</event>
<event>
 5   0  0.1121462E-08  0.3500414E+04  0.7818609E-02  0.8113692E-01
        1   -1    0    0  501    0  0.00000000000E+00  0.00000000000E+00  0.25615326581E+04  0.25615326581E+04  0.50400001928E-02 0. -1.
       -1   -1    0    0    0  501  0.00000000000E+00  0.00000000000E+00 -0.11958561080E+04  0.11958561081E+04  0.50400001928E-02 0.  1.
    10030    2    1    2    0    0  0.00000000000E+00  0.00000000000E+00  0.13656765500E+04  0.37573887661E+04  0.35004139613E+04 0.  0.
        4    1    3    3  502    0  0.14703243864E+04  0.13638993767E+03 -0.32569384018E+03  0.15121289981E+04  0.12699999809E+01 0. -1.
       -4    1    3    3    0  502 -0.14703243864E+04 -0.13638993767E+03  0.16913703902E+04  0.22452597681E+04  0.12699999809E+01 0.  1.
</event>
<event>
 5   0  0.1121462E-08  0.3500461E+04  0.7818609E-02  0.8113681E-01
       -1   -1    0    0    0  501  0.00000000000E+00  0.00000000000E+00  0.17586155226E+04  0.17586155227E+04  0.50400001928E-02 0.  1.
        1   -1    0    0  501    0  0.00000000000E+00  0.00000000000E+00 -0.17418858397E+04  0.17418858397E+04  0.50400001928E-02 0. -1.
    10030    2    1    2    0    0  0.00000000000E+00  0.00000000000E+00  0.16729682939E+02  0.35005013624E+04  0.35004613847E+04 0.  0.
        4    1    3    3  502    0  0.10518009266E+04  0.91777526066E+03  0.10641748182E+04  0.17552966344E+04  0.12699999809E+01 0.  1.
       -4    1    3    3    0  502 -0.10518009266E+04 -0.91777526066E+03 -0.10474451352E+04  0.17452047280E+04  0.12699999809E+01 0. -1.
</event>
<event>
 5   0  0.1129219E-08  0.3499825E+04  0.7818609E-02  0.8113832E-01
       -1   -1    0    0    0  501  0.00000000000E+00  0.00000000000E+00  0.25567576911E+04  0.25567576911E+04  0.50400001928E-02 0.  1.
        1   -1    0    0  501    0  0.00000000000E+00  0.00000000000E+00 -0.11976860744E+04  0.11976860744E+04  0.50400001928E-02 0. -1.
    10030    2    1    2    0    0  0.00000000000E+00  0.00000000000E+00  0.13590716167E+04  0.37544437654E+04  0.34998246140E+04 0.  0.
        5    1    3    3  502    0  0.13283299388E+04  0.92215749133E+03  0.13970265631E+04  0.21369464601E+04  0.46999998093E+01 0.  1.
       -5    1    3    3    0  502 -0.13283299388E+04 -0.92215749133E+03 -0.37954946412E+02  0.16174973054E+04  0.46999998093E+01 0. -1.
</event>
<event>
 5   0  0.1140808E-08  0.3493666E+04  0.7818609E-02  0.8115293E-01
       -1   -1    0    0    0  501  0.00000000000E+00  0.00000000000E+00  0.13716067342E+04  0.13716067342E+04  0.50400001928E-02 0. -1.
        1   -1    0    0  501    0  0.00000000000E+00  0.00000000000E+00 -0.22247092902E+04  0.22247092902E+04  0.50400001928E-02 0.  1.
    10030    2    1    2    0    0  0.00000000000E+00  0.00000000000E+00 -0.85310255604E+03  0.35963160244E+04  0.34936664088E+04 0.  0.
        3    1    3    3  502    0 -0.15634442173E+04  0.45182645282E+03 -0.10799623826E+04  0.19531573726E+04  0.10100000352E+00 0. -1.
       -3    1    3    3    0  502  0.15634442173E+04 -0.45182645282E+03  0.22685982660E+03  0.16431586518E+04  0.10100000352E+00 0.  1.
</event>
<event>
 5   0  0.3554451E-08  0.3499882E+04  0.7818609E-02  0.8113818E-01
        2   -1    0    0  501    0  0.00000000000E+00  0.00000000000E+00  0.17295697517E+04  0.17295697517E+04  0.25500000920E-02 0. -1.
       -2   -1    0    0    0  501  0.00000000000E+00  0.00000000000E+00 -0.17705526222E+04  0.17705526222E+04  0.25500000920E-02 0.  1.
    10030    2    1    2    0    0  0.00000000000E+00  0.00000000000E+00 -0.40982870490E+02  0.35001223739E+04  0.34998824318E+04 0.  0.
        5    1    3    3  502    0  0.14878796974E+04  0.21485886398E+03  0.87529417370E+03  0.17395724492E+04  0.46999998093E+01 0.  1.
       -5    1    3    3    0  502 -0.14878796974E+04 -0.21485886398E+03 -0.91627704419E+03  0.17605499247E+04  0.46999998093E+01 0. -1.
</event>
<event>
 5   0  0.1129219E-08  0.3498506E+04  0.7818609E-02  0.8114144E-01
        1   -1    0    0  501    0  0.00000000000E+00  0.00000000000E+00  0.23029240237E+04  0.23029240237E+04  0.50400001928E-02 0.  1.
       -1   -1    0    0    0  501  0.00000000000E+00  0.00000000000E+00 -0.13286961731E+04  0.13286961731E+04  0.50400001928E-02 0. -1.
    10030    2    1    2    0    0  0.00000000000E+00  0.00000000000E+00  0.97422785060E+03  0.36316201969E+04  0.34985061597E+04 0.  0.
        5    1    3    3  502    0  0.59797430535E+03 -0.16386459862E+04  0.62297667026E+03  0.18522569907E+04  0.46999998093E+01 0.  1.
       -5    1    3    3    0  502 -0.59797430535E+03  0.16386459862E+04  0.35125118034E+03  0.17793632062E+04  0.46999998093E+01 0. -1.
</event>
<event>
 5   0  0.3628017E-08  0.3479278E+04  0.7818609E-02  0.8118718E-01
       -2   -1    0    0    0  501  0.00000000000E+00  0.00000000000E+00  0.18754312151E+04  0.18754312151E+04  0.25500000920E-02 0.  1.
        2   -1    0    0  501    0  0.00000000000E+00  0.00000000000E+00 -0.16136787380E+04  0.16136787380E+04  0.25500000920E-02 0. -1.
    10030    2    1    2    0    0  0.00000000000E+00  0.00000000000E+00  0.26175247710E+03  0.34891099532E+04  0.34792777851E+04 0.  0.
        1    1    3    3  502    0 -0.14378310583E+04 -0.89483583076E+03 -0.26805966089E+03  0.17146268685E+04  0.50400001928E-02 0. -1.
       -1    1    3    3    0  502  0.14378310583E+04  0.89483583076E+03  0.52981213800E+03  0.17744830847E+04  0.50400001928E-02 0.  1.
</event>
<event>
 5   0  0.1140808E-08  0.3499799E+04  0.7818609E-02  0.8113838E-01
       -1   -1    0    0    0  501  0.00000000000E+00  0.00000000000E+00  0.12129334853E+04  0.12129334853E+04  0.50400001928E-02 0.  1.
        1   -1    0    0  501    0  0.00000000000E+00  0.00000000000E+00 -0.25245809966E+04  0.25245809966E+04  0.50400001928E-02 0. -1.
    10030    2    1    2    0    0  0.00000000000E+00  0.00000000000E+00 -0.13116475113E+04  0.37375144820E+04  0.34997993241E+04 0.  0.
        3    1    3    3  502    0  0.64238173844E+03 -0.88809647674E+03  0.80093339570E+03  0.13575212574E+04  0.10100000352E+00 0.  1.
       -3    1    3    3    0  502 -0.64238173844E+03  0.88809647674E+03 -0.21125809070E+04  0.23799932245E+04  0.10100000352E+00 0. -1.
</event>
<event>
 5   0  0.1121462E-08  0.3500392E+04  0.7818609E-02  0.8113697E-01
        1   -1    0    0  501    0  0.00000000000E+00  0.00000000000E+00  0.18820603874E+04  0.18820603874E+04  0.50400001928E-02 0.  1.
       -1   -1    0    0    0  501  0.00000000000E+00  0.00000000000E+00 -0.16275707228E+04  0.16275707228E+04  0.50400001928E-02 0. -1.
    10030    2    1    2    0    0  0.00000000000E+00  0.00000000000E+00  0.25448966458E+03  0.35096311102E+04  0.35003921981E+04 0.  0.
        4    1    3    3  502    0 -0.12306641177E+04 -0.11868399072E+04  0.50248071496E+03  0.17820245839E+04  0.12699999809E+01 0.  1.
       -4    1    3    3    0  502  0.12306641177E+04  0.11868399072E+04 -0.24799105038E+03  0.17276065263E+04  0.12699999809E+01 0. -1.
</event>
<event>
 5   0  0.3628017E-08  0.3499809E+04  0.7818609E-02  0.8113835E-01
        2   -1    0    0  501    0  0.00000000000E+00  0.00000000000E+00  0.21531228564E+04  0.21531228564E+04  0.25500000920E-02 0.  1.
       -2   -1    0    0    0  501  0.00000000000E+00  0.00000000000E+00 -0.14221975486E+04  0.14221975486E+04  0.25500000920E-02 0. -1.
    10030    2    1    2    0    0  0.00000000000E+00  0.00000000000E+00  0.73092530783E+03  0.35753204049E+04  0.34998091651E+04 0.  0.
        1    1    3    3  502    0  0.15421680586E+04 -0.59062670384E+03 -0.22585577145E+03  0.16667732460E+04  0.50400001928E-02 0. -1.
       -1    1    3    3    0  502 -0.15421680586E+04  0.59062670384E+03  0.95678107928E+03  0.19085471589E+04  0.50400001928E-02 0.  1.
</event>
<event>
 5   0  0.3467834E-08  0.3500207E+04  0.7818609E-02  0.8113741E-01
        2   -1    0    0  501    0  0.00000000000E+00  0.00000000000E+00  0.25055755994E+04  0.25055755994E+04  0.25500000920E-02 0. -1.
       -2   -1    0    0    0  501  0.00000000000E+00  0.00000000000E+00 -0.12224185488E+04  0.12224185488E+04  0.25500000920E-02 0.  1.
    10030    2    1    2    0    0  0.00000000000E+00  0.00000000000E+00  0.12831570506E+04  0.37279941483E+04  0.35002069015E+04 0.  0.
        3    1    3    3  502    0  0.10338728194E+04  0.68998567330E+03  0.19537829246E+04  0.23156513042E+04  0.10100000352E+00 0. -1.
       -3    1    3    3    0  502 -0.10338728194E+04 -0.68998567330E+03 -0.67062587401E+03  0.14123428441E+04  0.10100000352E+00 0.  1.
</event>
<event>
 5   0  0.3628017E-08  0.3500880E+04  0.7818609E-02  0.8113582E-01
        2   -1    0    0  501    0  0.00000000000E+00  0.00000000000E+00  0.29351668881E+04  0.29351668881E+04  0.25500000920E-02 0.  1.
       -2   -1    0    0    0  501  0.00000000000E+00  0.00000000000E+00 -0.10439064156E+04  0.10439064156E+04  0.25500000920E-02 0. -1.
    10030    2    1    2    0    0  0.00000000000E+00  0.00000000000E+00  0.18912604726E+04  0.39790733037E+04  0.35008796296E+04 0.  0.
        1    1    3    3  502    0 -0.13526918593E+04  0.43410112087E+03  0.21079706432E+04  0.25419990720E+04  0.50400001928E-02 0.  1.
       -1    1    3    3    0  502  0.13526918593E+04 -0.43410112087E+03 -0.21671017059E+03  0.14370742317E+04  0.50400001928E-02 0. -1.
</event>
<event>
 5   0  0.3467834E-08  0.3498943E+04  0.7818609E-02  0.8114040E-01
        2   -1    0    0  501    0  0.00000000000E+00  0.00000000000E+00  0.24034874577E+04  0.24034874577E+04  0.25500000920E-02 0. -1.
       -2   -1    0    0    0  501  0.00000000000E+00  0.00000000000E+00 -0.12734209293E+04  0.12734209293E+04  0.25500000920E-02 0.  1.
    10030    2    1    2    0    0  0.00000000000E+00  0.00000000000E+00  0.11300665284E+04  0.36769083870E+04  0.34989434016E+04 0.  0.
        3    1    3    3  502    0 -0.13694713251E+04  0.98651043641E+03  0.81183636125E+02  0.16897471244E+04  0.10100000352E+00 0.  1.
       -3    1    3    3    0  502  0.13694713251E+04 -0.98651043641E+03  0.10488828923E+04  0.19871612625E+04  0.10100000352E+00 0. -1.
</event>
<event>
 5   0  0.3553585E-08  0.3501246E+04  0.7818609E-02  0.8113495E-01
       -2   -1    0    0    0  501  0.00000000000E+00  0.00000000000E+00  0.11505539956E+04  0.11505539957E+04  0.25500000920E-02 0.  1.
        2   -1    0    0  501    0  0.00000000000E+00  0.00000000000E+00 -0.26636564403E+04  0.26636564403E+04  0.25500000920E-02 0. -1.
    10030    2    1    2    0    0  0.00000000000E+00  0.00000000000E+00 -0.15131024446E+04  0.38142104359E+04  0.35012458128E+04 0.  0.
        2    1    3    3  502    0 -0.54865518158E+03  0.37929170752E+03  0.10067064116E+04  0.12076185270E+04  0.25500000920E-02 0.  1.
       -2    1    3    3    0  502  0.54865518158E+03 -0.37929170752E+03 -0.25198088562E+04  0.26065919089E+04  0.25500000920E-02 0. -1.
</event>
<event>
 5   0  0.3628017E-08  0.3500497E+04  0.7818609E-02  0.8113672E-01
        2   -1    0    0  501    0  0.00000000000E+00  0.00000000000E+00  0.16242839854E+04  0.16242839854E+04  0.25500000920E-02 0.  1.
       -2   -1    0    0    0  501  0.00000000000E+00  0.00000000000E+00 -0.18859816771E+04  0.18859816771E+04  0.25500000920E-02 0. -1.
    10030    2    1    2    0    0  0.00000000000E+00  0.00000000000E+00 -0.26169769174E+03  0.35102656625E+04  0.35004970132E+04 0.  0.
        1    1    3    3  502    0 -0.12776829227E+04 -0.85975262362E+03  0.70317015744E+03  0.16929549596E+04  0.50400001928E-02 0.  1.
       -1    1    3    3    0  502  0.12776829227E+04  0.85975262362E+03 -0.96486784917E+03  0.18173107030E+04  0.50400001928E-02 0. -1.
</event>
<event>
 5   0  0.1129219E-08  0.3502983E+04  0.7818609E-02  0.8113083E-01
       -1   -1    0    0    0  501  0.00000000000E+00  0.00000000000E+00  0.18849047134E+04  0.18849047134E+04  0.50400001928E-02 0.  1.
        1   -1    0    0  501    0  0.00000000000E+00  0.00000000000E+00 -0.16275210465E+04  0.16275210465E+04  0.50400001928E-02 0. -1.
    10030    2    1    2    0    0  0.00000000000E+00  0.00000000000E+00  0.25738366690E+03  0.35124257600E+04  0.35029827815E+04 0.  0.
        5    1    3    3  502    0  0.14483763443E+04  0.37931621570E+03  0.10400011139E+04  0.18229918357E+04  0.46999998093E+01 0.  1.
       -5    1    3    3    0  502 -0.14483763443E+04 -0.37931621570E+03 -0.78261744696E+03  0.16894339243E+04  0.46999998093E+01 0. -1.
</event>
<event>
 5   0  0.1129219E-08  0.3499284E+04  0.7818609E-02  0.8113960E-01
        1   -1    0    0  501    0  0.00000000000E+00  0.00000000000E+00  0.16452722554E+04  0.16452722555E+04  0.50400001928E-02 0.  1.
       -1   -1    0    0    0  501  0.00000000000E+00  0.00000000000E+00 -0.18606327296E+04  0.18606327296E+04  0.50400001928E-02 0. -1.
    10030    2    1    2    0    0  0.00000000000E+00  0.00000000000E+00 -0.21536047419E+03  0.35059049851E+04  0.34992841598E+04 0.  0.
        5    1    3    3  502    0 -0.92068336214E+03  0.13077646773E+04 -0.81847234870E+03  0.17966149782E+04  0.46999998093E+01 0.  1.
       -5    1    3    3    0  502  0.92068336214E+03 -0.13077646773E+04  0.60311187451E+03  0.17092900069E+04  0.46999998093E+01 0. -1.
</event>
<event>
 5   0  0.3553585E-08  0.3503246E+04  0.7818609E-02  0.8113021E-01
        2   -1    0    0  501    0  0.00000000000E+00  0.00000000000E+00  0.17210907005E+04  0.17210907005E+04  0.25500000920E-02 0. -1.
       -2   -1    0    0    0  501  0.00000000000E+00  0.00000000000E+00 -0.17826965489E+04  0.17826965489E+04  0.25500000920E-02 0.  1.
    10030    2    1    2    0    0  0.00000000000E+00  0.00000000000E+00 -0.61605848406E+02  0.35037872494E+04  0.35032456106E+04 0.  0.
        2    1    3    3  502    0 -0.27412966248E+03  0.11004045928E+04 -0.13659794039E+04  0.17753695592E+04  0.25500000920E-02 0.  1.
       -2    1    3    3    0  502  0.27412966248E+03 -0.11004045928E+04  0.13043735555E+04  0.17284176902E+04  0.25500000920E-02 0. -1.
</event>
<event>
 5   0  0.1140808E-08  0.3500685E+04  0.7818609E-02  0.8113628E-01
       -1   -1    0    0    0  501  0.00000000000E+00  0.00000000000E+00  0.11478128213E+04  0.11478128213E+04  0.50400001928E-02 0.  1.
        1   -1    0    0  501    0  0.00000000000E+00  0.00000000000E+00 -0.26691620566E+04  0.26691620566E+04  0.50400001928E-02 0. -1.
    10030    2    1    2    0    0  0.00000000000E+00  0.00000000000E+00 -0.15213492352E+04  0.38169748779E+04  0.35006847506E+04 0.  0.
        3    1    3    3  502    0 -0.60257703159E+03  0.22634510495E+03  0.10140761773E+04  0.12011168507E+04  0.10100000352E+00 0.  1.
       -3    1    3    3    0  502  0.60257703159E+03 -0.22634510495E+03 -0.25354254125E+04  0.26158580272E+04  0.10100000352E+00 0. -1.
</event>
<event>
 5   0  0.1129219E-08  0.3500080E+04  0.7818609E-02  0.8113771E-01
       -1   -1    0    0    0  501  0.00000000000E+00  0.00000000000E+00  0.13878274332E+04  0.13878274332E+04  0.50400001928E-02 0. -1.
        1   -1    0    0  501    0  0.00000000000E+00  0.00000000000E+00 -0.22067877346E+04  0.22067877346E+04  0.50400001928E-02 0.  1.
    10030    2    1    2    0    0  0.00000000000E+00  0.00000000000E+00 -0.81896030137E+03  0.35946151679E+04  0.35000803176E+04 0.  0.
        5    1    3    3  502    0 -0.47558913975E+03  0.73635609361E+03 -0.19650562925E+04  0.21517141188E+04  0.46999998093E+01 0.  1.
       -5    1    3    3    0  502  0.47558913975E+03 -0.73635609361E+03  0.11460959911E+04  0.14429010490E+04  0.46999998093E+01 0. -1.
</event>
<event>
 5   0  0.1121462E-08  0.3499739E+04  0.7818609E-02  0.8113852E-01
        1   -1    0    0  501    0  0.00000000000E+00  0.00000000000E+00  0.15194080448E+04  0.15194080448E+04  0.50400001928E-02 0. -1.
       -1   -1    0    0    0  501  0.00000000000E+00  0.00000000000E+00 -0.20152864208E+04  0.20152864208E+04  0.50400001928E-02 0.  1.
    10030    2    1    2    0    0  0.00000000000E+00  0.00000000000E+00 -0.49587837592E+03  0.35346944656E+04  0.34997385047E+04 0.  0.
        2    1    3    3  502    0  0.17092834866E+03  0.17082523650E+04  0.94117065122E+02  0.17193605395E+04  0.25500000920E-02 0. -1.
       -2    1    3    3    0  502 -0.17092834866E+03 -0.17082523650E+04 -0.58999544104E+03  0.18153339261E+04  0.25500000920E-02 0.  1.
</event>
<event>
 5   0  0.3467834E-08  0.3500163E+04  0.7818609E-02  0.8113751E-01
        2   -1    0    0  501    0  0.00000000000E+00  0.00000000000E+00  0.19591519903E+04  0.19591519903E+04  0.25500000920E-02 0.  1.
       -2   -1    0    0    0  501  0.00000000000E+00  0.00000000000E+00 -0.15633215432E+04  0.15633215432E+04  0.25500000920E-02 0. -1.
    10030    2    1    2    0    0  0.00000000000E+00  0.00000000000E+00  0.39583044710E+03  0.35224735336E+04  0.35001625751E+04 0.  0.
        3    1    3    3  502    0  0.14087085234E+04  0.10325630754E+04  0.30879142800E+03  0.17736962437E+04  0.10100000352E+00 0. -1.
       -3    1    3    3    0  502 -0.14087085234E+04 -0.10325630754E+04  0.87039019099E+02  0.17487772899E+04  0.10100000352E+00 0.  1.
</event>
<event>
 5   0  0.1121462E-08  0.3501152E+04  0.7818609E-02  0.8113517E-01
        3   -1    0    0  501    0  0.00000000000E+00  0.00000000000E+00  0.15771747867E+04  0.15771747899E+04  0.10100000352E+00 0. -1.
       -3   -1    0    0    0  501  0.00000000000E+00  0.00000000000E+00 -0.19430421386E+04  0.19430421412E+04  0.10100000352E+00 0.  1.
    10030    2    1    2    0    0  0.00000000000E+00  0.00000000000E+00 -0.36586735191E+03  0.35202169311E+04  0.35011524278E+04 0.  0.
        4    1    3    3  502    0 -0.76546058648E+03 -0.70323423155E+03 -0.15991656840E+04  0.19073019666E+04  0.12699999809E+01 0.  1.
       -4    1    3    3    0  502  0.76546058648E+03  0.70323423155E+03  0.12332983321E+04  0.16129149645E+04  0.12699999809E+01 0. -1.
</event>
<event>
 5   0  0.3553585E-08  0.3525992E+04  0.7818609E-02  0.8107658E-01
       -2   -1    0    0    0  501  0.00000000000E+00  0.00000000000E+00  0.16030089344E+04  0.16030089344E+04  0.25500000920E-02 0.  1.
        2   -1    0    0  501    0  0.00000000000E+00  0.00000000000E+00 -0.19389503418E+04  0.19389503418E+04  0.25500000920E-02 0. -1.
    10030    2    1    2    0    0  0.00000000000E+00  0.00000000000E+00 -0.33594140737E+03  0.35419592763E+04  0.35259919009E+04 0.  0.
        2    1    3    3  502    0  0.23133872758E+03  0.16797766189E+04  0.31690305452E+03  0.17249912007E+04  0.25500000920E-02 0. -1.
       -2    1    3    3    0  502 -0.23133872758E+03 -0.16797766189E+04 -0.65284446188E+03  0.18169680756E+04  0.25500000920E-02 0.  1.
</event>
<event>
 5   0  0.1121462E-08  0.3515904E+04  0.7818609E-02  0.8110031E-01
        1   -1    0    0  501    0  0.00000000000E+00  0.00000000000E+00  0.13823143656E+04  0.13823143656E+04  0.50400001928E-02 0.  1.
       -1   -1    0    0    0  501  0.00000000000E+00  0.00000000000E+00 -0.22356675162E+04  0.22356675162E+04  0.50400001928E-02 0. -1.
    10030    2    1    2    0    0  0.00000000000E+00  0.00000000000E+00 -0.85335315061E+03  0.36179818818E+04  0.35159040512E+04 0.  0.
        1    1    3    3  502    0 -0.40496232141E+03 -0.15775966698E+04 -0.11073877246E+04  0.19695464724E+04  0.50400001928E-02 0. -1.
       -1    1    3    3    0  502  0.40496232141E+03  0.15775966698E+04  0.25403457397E+03  0.16484354094E+04  0.50400001928E-02 0.  1.
</event>
<event>
 5   0  0.3467834E-08  0.3500103E+04  0.7818609E-02  0.8113766E-01
        2   -1    0    0  501    0  0.00000000000E+00  0.00000000000E+00  0.21882396115E+04  0.21882396115E+04  0.25500000920E-02 0. -1.
       -2   -1    0    0    0  501  0.00000000000E+00  0.00000000000E+00 -0.13996091589E+04  0.13996091589E+04  0.25500000920E-02 0.  1.
    10030    2    1    2    0    0  0.00000000000E+00  0.00000000000E+00  0.78863045257E+03  0.35878487705E+04  0.35001029712E+04 0.  0.
        3    1    3    3  502    0  0.86357626666E+02 -0.13975262766E+04  0.14704638466E+04  0.20304682386E+04  0.10100000352E+00 0. -1.
       -3    1    3    3    0  502 -0.86357626666E+02  0.13975262766E+04 -0.68183339406E+03  0.15573805318E+04  0.10100000352E+00 0.  1.
</event>
<event>
 5   0  0.1121462E-08  0.3502463E+04  0.7818609E-02  0.8113206E-01
        1   -1    0    0  501    0  0.00000000000E+00  0.00000000000E+00  0.17780635571E+04  0.17780635571E+04  0.50400001928E-02 0.  1.
       -1   -1    0    0    0  501  0.00000000000E+00  0.00000000000E+00 -0.17248043364E+04  0.17248043364E+04  0.50400001928E-02 0. -1.
    10030    2    1    2    0    0  0.00000000000E+00  0.00000000000E+00  0.53259220691E+02  0.35028678936E+04  0.35024629813E+04 0.  0.
        2    1    3    3  502    0 -0.30996131417E+03 -0.42800875966E+03  0.16964166568E+04  0.17768221600E+04  0.25500000920E-02 0.  1.
       -2    1    3    3    0  502  0.30996131417E+03  0.42800875966E+03 -0.16431574361E+04  0.17260457336E+04  0.25500000920E-02 0. -1.
</event>
<event>
 5   0  0.1140808E-08  0.3499109E+04  0.7818609E-02  0.8114001E-01
        1   -1    0    0  501    0  0.00000000000E+00  0.00000000000E+00  0.10729741569E+04  0.10729741569E+04  0.50400001928E-02 0.  1.
       -1   -1    0    0    0  501  0.00000000000E+00  0.00000000000E+00 -0.28527622348E+04  0.28527622348E+04  0.50400001928E-02 0. -1.
    10030    2    1    2    0    0  0.00000000000E+00  0.00000000000E+00 -0.17797880779E+04  0.39257363917E+04  0.34991085457E+04 0.  0.
        3    1    3    3  502    0 -0.11201743673E+03 -0.24584748329E+03  0.10494304112E+04  0.10836480468E+04  0.10100000352E+00 0.  1.
       -3    1    3    3    0  502  0.11201743673E+03  0.24584748329E+03 -0.28292184891E+04  0.28420883449E+04  0.10100000352E+00 0. -1.
</event>
<event>
 5   0  0.1129219E-08  0.3499368E+04  0.7818609E-02  0.8113940E-01
       -1   -1    0    0    0  501  0.00000000000E+00  0.00000000000E+00  0.16204286793E+04  0.16204286793E+04  0.50400001928E-02 0. -1.
        1   -1    0    0  501    0  0.00000000000E+00  0.00000000000E+00 -0.18892496305E+04  0.18892496305E+04  0.50400001928E-02 0.  1.
    10030    2    1    2    0    0  0.00000000000E+00  0.00000000000E+00 -0.26882095118E+03  0.35096783098E+04  0.34993681050E+04 0.  0.
        5    1    3    3  502    0  0.22942670424E+03  0.74093626630E+03 -0.17073900441E+04  0.18753202436E+04  0.46999998093E+01 0.  1.
       -5    1    3    3    0  502 -0.22942670424E+03 -0.74093626630E+03  0.14385690929E+04  0.16343580662E+04  0.46999998093E+01 0. -1.
</event>
<event>
 5   0  0.1121462E-08  0.3500297E+04  0.7818609E-02  0.8113719E-01
       -1   -1    0    0    0  501  0.00000000000E+00  0.00000000000E+00  0.13686136543E+04  0.13686136543E+04  0.50400001928E-02 0.  1.
        1   -1    0    0  501    0  0.00000000000E+00  0.00000000000E+00 -0.22380459707E+04  0.22380459707E+04  0.50400001928E-02 0. -1.
    10030    2    1    2    0    0  0.00000000000E+00  0.00000000000E+00 -0.86943231643E+03  0.36066596250E+04  0.35002972871E+04 0.  0.
        2    1    3    3  502    0  0.11337276081E+04  0.13102214339E+04 -0.68920660085E+03  0.18646780510E+04  0.25500000920E-02 0.  1.
       -2    1    3    3    0  502 -0.11337276081E+04 -0.13102214339E+04 -0.18022571558E+03  0.17419815739E+04  0.25500000920E-02 0. -1.
</event>
<event>
 5   0  0.3700096E-08  0.3500204E+04  0.7818609E-02  0.8113742E-01
        2   -1    0    0  501    0  0.00000000000E+00  0.00000000000E+00  0.23744346785E+04  0.23744346785E+04  0.25500000920E-02 0.  1.
       -2   -1    0    0    0  501  0.00000000000E+00  0.00000000000E+00 -0.12899308641E+04  0.12899308641E+04  0.25500000920E-02 0. -1.
    10030    2    1    2    0    0  0.00000000000E+00  0.00000000000E+00  0.10845038144E+04  0.36643655426E+04  0.35002037522E+04 0.  0.
        4    1    3    3  502    0 -0.13175894028E+04  0.11061349665E+04  0.87869418359E+03  0.19317560611E+04  0.12699999809E+01 0.  1.
       -4    1    3    3    0  502  0.13175894028E+04 -0.11061349665E+04  0.20580963078E+03  0.17326094815E+04  0.12699999809E+01 0. -1.
</event>
<event>
 5   0  0.1121462E-08  0.3498592E+04  0.7818609E-02  0.8114124E-01
        1   -1    0    0  501    0  0.00000000000E+00  0.00000000000E+00  0.23350471023E+04  0.23350471023E+04  0.50400001928E-02 0.  1.
       -1   -1    0    0    0  501  0.00000000000E+00  0.00000000000E+00 -0.13104816282E+04  0.13104816283E+04  0.50400001928E-02 0. -1.
    10030    2    1    2    0    0  0.00000000000E+00  0.00000000000E+00  0.10245654741E+04  0.36455287306E+04  0.34985919046E+04 0.  0.
        4    1    3    3  502    0 -0.16568082836E+04  0.46976926701E+03  0.19223832021E+03  0.17328167928E+04  0.12699999809E+01 0. -1.
       -4    1    3    3    0  502  0.16568082836E+04 -0.46976926701E+03  0.83232715388E+03  0.19127119378E+04  0.12699999809E+01 0.  1.
</event>
<event>
 5   0  0.1129219E-08  0.3499642E+04  0.7818609E-02  0.8113875E-01
       -1   -1    0    0    0  501  0.00000000000E+00  0.00000000000E+00  0.12388568816E+04  0.12388568816E+04  0.50400001928E-02 0. -1.
        1   -1    0    0  501    0  0.00000000000E+00  0.00000000000E+00 -0.24715308400E+04  0.24715308401E+04  0.50400001928E-02 0.  1.
    10030    2    1    2    0    0  0.00000000000E+00  0.00000000000E+00 -0.12326739584E+04  0.37103877217E+04  0.34996416898E+04 0.  0.
        5    1    3    3  502    0 -0.74843749517E+03  0.58799429037E+02  0.10594250408E+04  0.12984681606E+04  0.46999998093E+01 0. -1.
       -5    1    3    3    0  502  0.74843749517E+03 -0.58799429037E+02 -0.22920989992E+04  0.24119195611E+04  0.46999998093E+01 0.  1.
</event>
<event>
 5   0  0.1121462E-08  0.3504191E+04  0.7818609E-02  0.8112797E-01
        1   -1    0    0  501    0  0.00000000000E+00  0.00000000000E+00  0.22113548327E+04  0.22113548327E+04  0.50400001928E-02 0.  1.
       -1   -1    0    0    0  501  0.00000000000E+00  0.00000000000E+00 -0.13882160646E+04  0.13882160646E+04  0.50400001928E-02 0. -1.
    10030    2    1    2    0    0  0.00000000000E+00  0.00000000000E+00  0.82313876806E+03  0.35995708973E+04  0.35041908072E+04 0.  0.
        2    1    3    3  502    0  0.21713471737E+03 -0.69417597796E+03 -0.12258092769E+04  0.14253547478E+04  0.25500000920E-02 0. -1.
       -2    1    3    3    0  502 -0.21713471737E+03  0.69417597796E+03  0.20489480449E+04  0.21742161495E+04  0.25500000920E-02 0.  1.
</event>
<event>
 5   0  0.3628017E-08  0.3500321E+04  0.7818609E-02  0.8113714E-01
       -2   -1    0    0    0  501  0.00000000000E+00  0.00000000000E+00  0.27106683399E+04  0.27106683399E+04  0.25500000920E-02 0. -1.
        2   -1    0    0  501    0  0.00000000000E+00  0.00000000000E+00 -0.11300026451E+04  0.11300026451E+04  0.25500000920E-02 0.  1.
    10030    2    1    2    0    0  0.00000000000E+00  0.00000000000E+00  0.15806656948E+04  0.38406709850E+04  0.35003213533E+04 0.  0.
        1    1    3    3  502    0  0.55776404110E+02  0.24906462040E+03  0.26901380672E+04  0.27022189055E+04  0.50400001928E-02 0. -1.
       -1    1    3    3    0  502 -0.55776404110E+02 -0.24906462040E+03 -0.11094723724E+04  0.11384520796E+04  0.50400001928E-02 0.  1.
</event>
<event>
 5   0  0.3467834E-08  0.3500067E+04  0.7818609E-02  0.8113774E-01
       -2   -1    0    0    0  501  0.00000000000E+00  0.00000000000E+00  0.20215968138E+04  0.20215968138E+04  0.25500000920E-02 0.  1.
        2   -1    0    0  501    0  0.00000000000E+00  0.00000000000E+00 -0.15149492593E+04  0.15149492593E+04  0.25500000920E-02 0. -1.
    10030    2    1    2    0    0  0.00000000000E+00  0.00000000000E+00  0.50664755455E+03  0.35365460731E+04  0.35000666254E+04 0.  0.
        3    1    3    3  502    0 -0.62755803917E+03  0.16282794768E+04  0.38696504857E+03  0.17874185593E+04  0.10100000352E+00 0. -1.
       -3    1    3    3    0  502  0.62755803917E+03 -0.16282794768E+04  0.11968250597E+03  0.17491275138E+04  0.10100000352E+00 0.  1.
</event>
<event>
 5   0  0.3467834E-08  0.3497450E+04  0.7818609E-02  0.8114394E-01
        2   -1    0    0  501    0  0.00000000000E+00  0.00000000000E+00  0.17391184384E+04  0.17391184384E+04  0.25500000920E-02 0.  1.
       -2   -1    0    0    0  501  0.00000000000E+00  0.00000000000E+00 -0.17583849600E+04  0.17583849600E+04  0.25500000920E-02 0. -1.
    10030    2    1    2    0    0  0.00000000000E+00  0.00000000000E+00 -0.19266521531E+02  0.34975033984E+04  0.34974503317E+04 0.  0.
        3    1    3    3  502    0 -0.11725341063E+04 -0.91540237327E+03  0.90975110392E+03  0.17436871327E+04  0.10100000352E+00 0.  1.
       -3    1    3    3    0  502  0.11725341063E+04  0.91540237327E+03 -0.92901762545E+03  0.17538162657E+04  0.10100000352E+00 0. -1.
</event>
<event>
 5   0  0.1121462E-08  0.3501315E+04  0.7818609E-02  0.8113478E-01
       -1   -1    0    0    0  501  0.00000000000E+00  0.00000000000E+00  0.17263944417E+04  0.17263944417E+04  0.50400001928E-02 0.  1.
        1   -1    0    0  501    0  0.00000000000E+00  0.00000000000E+00 -0.17752613357E+04  0.17752613357E+04  0.50400001928E-02 0. -1.
    10030    2    1    2    0    0  0.00000000000E+00  0.00000000000E+00 -0.48866894003E+02  0.35016557774E+04  0.35013147831E+04 0.  0.
        4    1    3    3  502    0  0.11157947348E+04 -0.10911452353E+04  0.76886752852E+03  0.17397570819E+04  0.12699999809E+01 0.  1.
       -4    1    3    3    0  502 -0.11157947348E+04  0.10911452353E+04 -0.81773442252E+03  0.17618986955E+04  0.12699999809E+01 0. -1.
</event>
<event>
 5   0  0.3628017E-08  0.3499539E+04  0.7818609E-02  0.8113899E-01
       -2   -1    0    0    0  501  0.00000000000E+00  0.00000000000E+00  0.12892463645E+04  0.12892463645E+04  0.25500000920E-02 0.  1.
        2   -1    0    0  501    0  0.00000000000E+00  0.00000000000E+00 -0.23747932461E+04  0.23747932461E+04  0.25500000920E-02 0. -1.
    10030    2    1    2    0    0  0.00000000000E+00  0.00000000000E+00 -0.10855468816E+04  0.36640396106E+04  0.34995391462E+04 0.  0.
        1    1    3    3  502    0  0.13983577687E+03 -0.14427722970E+04  0.48337160507E+03  0.15280032899E+04  0.50400001928E-02 0.  1.
       -1    1    3    3    0  502 -0.13983577687E+03  0.14427722970E+04 -0.15689184867E+04  0.21360363207E+04  0.50400001928E-02 0. -1.
</event>
<event>
 5   0  0.1121462E-08  0.3502507E+04  0.7818609E-02  0.8113196E-01
       -1   -1    0    0    0  501  0.00000000000E+00  0.00000000000E+00  0.19288833286E+04  0.19288833286E+04  0.50400001928E-02 0. -1.
        1   -1    0    0  501    0  0.00000000000E+00  0.00000000000E+00 -0.15899814474E+04  0.15899814474E+04  0.50400001928E-02 0.  1.
    10030    2    1    2    0    0  0.00000000000E+00  0.00000000000E+00  0.33890188125E+03  0.35188647760E+04  0.35025069346E+04 0.  0.
        2    1    3    3  502    0  0.78746757589E+03  0.27497782443E+03 -0.13776013240E+04  0.16104357779E+04  0.25500000920E-02 0.  1.
       -2    1    3    3    0  502 -0.78746757589E+03 -0.27497782443E+03  0.17165032052E+04  0.19084289981E+04  0.25500000920E-02 0. -1.
</event>
<event>
 5   0  0.1140808E-08  0.3501027E+04  0.7818609E-02  0.8113546E-01
       -1   -1    0    0    0  501  0.00000000000E+00  0.00000000000E+00  0.17553794003E+04  0.17553794003E+04  0.50400001928E-02 0.  1.
        1   -1    0    0  501    0  0.00000000000E+00  0.00000000000E+00 -0.17456615567E+04  0.17456615567E+04  0.50400001928E-02 0. -1.
    10030    2    1    2    0    0  0.00000000000E+00  0.00000000000E+00  0.97178435925E+01  0.35010409570E+04  0.35010274700E+04 0.  0.
        3    1    3    3  502    0 -0.61090514112E+03  0.55693162625E+03  0.15478880020E+04  0.17548034662E+04  0.10100000352E+00 0.  1.
       -3    1    3    3    0  502  0.61090514112E+03 -0.55693162625E+03 -0.15381701584E+04  0.17462374908E+04  0.10100000352E+00 0. -1.
</event>
<event>
 5   0  0.1129219E-08  0.3501567E+04  0.7818609E-02  0.8113419E-01
        1   -1    0    0  501    0  0.00000000000E+00  0.00000000000E+00  0.11199703150E+04  0.11199703150E+04  0.50400001928E-02 0.  1.
       -1   -1    0    0    0  501  0.00000000000E+00  0.00000000000E+00 -0.27368963819E+04  0.27368963819E+04  0.50400001928E-02 0. -1.
    10030    2    1    2    0    0  0.00000000000E+00  0.00000000000E+00 -0.16169260669E+04  0.38568666969E+04  0.35015669080E+04 0.  0.
        5    1    3    3  502    0 -0.85753575916E+03  0.12263929640E+04  0.19248871976E+03  0.15088012717E+04  0.46999998093E+01 0.  1.
       -5    1    3    3    0  502  0.85753575916E+03 -0.12263929640E+04 -0.18094147867E+04  0.23480654251E+04  0.46999998093E+01 0. -1.
</event>
<event>
 5   0  0.3553585E-08  0.3500561E+04  0.7818609E-02  0.8113657E-01
        2   -1    0    0  501    0  0.00000000000E+00  0.00000000000E+00  0.15319305407E+04  0.15319305407E+04  0.25500000920E-02 0.  1.
       -2   -1    0    0    0  501  0.00000000000E+00  0.00000000000E+00 -0.19997520753E+04  0.19997520753E+04  0.25500000920E-02 0. -1.
    10030    2    1    2    0    0  0.00000000000E+00  0.00000000000E+00 -0.46782153458E+03  0.35316826160E+04  0.35005606853E+04 0.  0.
        2    1    3    3  502    0  0.10138942673E+04  0.11809853436E+04 -0.10415106812E+04  0.18728193896E+04  0.25500000920E-02 0. -1.
       -2    1    3    3    0  502 -0.10138942673E+04 -0.11809853436E+04  0.57368914663E+03  0.16588632264E+04  0.25500000920E-02 0.  1.
</event>
<event>
 5   0  0.3628017E-08  0.3500023E+04  0.7818609E-02  0.8113785E-01
        2   -1    0    0  501    0  0.00000000000E+00  0.00000000000E+00  0.22424924963E+04  0.22424924963E+04  0.25500000920E-02 0.  1.
       -2   -1    0    0    0  501  0.00000000000E+00  0.00000000000E+00 -0.13656856818E+04  0.13656856818E+04  0.25500000920E-02 0. -1.
    10030    2    1    2    0    0  0.00000000000E+00  0.00000000000E+00  0.87680681444E+03  0.36081781781E+04  0.35000227964E+04 0.  0.
        1    1    3    3  502    0 -0.14452983253E+04  0.78840995626E+03 -0.17328030502E+03  0.16554466383E+04  0.50400001928E-02 0. -1.
       -1    1    3    3    0  502  0.14452983253E+04 -0.78840995626E+03  0.10500871195E+04  0.19527315398E+04  0.50400001928E-02 0.  1.
</event>
<event>
 5   0  0.3554451E-08  0.3500187E+04  0.7818609E-02  0.8113746E-01
       -2   -1    0    0    0  501  0.00000000000E+00  0.00000000000E+00  0.10777598271E+04  0.10777598271E+04  0.25500000920E-02 0. -1.
        2   -1    0    0  501    0  0.00000000000E+00  0.00000000000E+00 -0.28418460876E+04  0.28418460876E+04  0.25500000920E-02 0.  1.
    10030    2    1    2    0    0  0.00000000000E+00  0.00000000000E+00 -0.17640862605E+04  0.39196059147E+04  0.35001871654E+04 0.  0.
        5    1    3    3  502    0  0.52224453686E+03 -0.16657206558E+04 -0.10211940287E+04  0.20224302198E+04  0.46999998093E+01 0. -1.
       -5    1    3    3    0  502 -0.52224453686E+03  0.16657206558E+04 -0.74289223177E+03  0.18971756950E+04  0.46999998093E+01 0.  1.
</event>
<event>
 5   0  0.1121462E-08  0.3497146E+04  0.7818609E-02  0.8114467E-01
        1   -1    0    0  501    0  0.00000000000E+00  0.00000000000E+00  0.16261122445E+04  0.16261122445E+04  0.50400001928E-02 0. -1.
       -1   -1    0    0    0  501  0.00000000000E+00  0.00000000000E+00 -0.18802561636E+04  0.18802561636E+04  0.50400001928E-02 0.  1.
    10030    2    1    2    0    0  0.00000000000E+00  0.00000000000E+00 -0.25414391912E+03  0.35063684082E+04  0.34971460196E+04 0.  0.
        2    1    3    3  502    0 -0.15731608272E+04  0.54979239008E+03  0.40385342210E+03  0.17147023786E+04  0.25500000920E-02 0.  1.
       -2    1    3    3    0  502  0.15731608272E+04 -0.54979239008E+03 -0.65799734121E+03  0.17916660296E+04  0.25500000920E-02 0. -1.
</event>
<event>
 5   0  0.3700096E-08  0.3500736E+04  0.7818609E-02  0.8113616E-01
       -2   -1    0    0    0  501  0.00000000000E+00  0.00000000000E+00  0.12401574131E+04  0.12401574132E+04  0.25500000920E-02 0.  1.
        2   -1    0    0  501    0  0.00000000000E+00  0.00000000000E+00 -0.24704826310E+04  0.24704826310E+04  0.25500000920E-02 0. -1.
    10030    2    1    2    0    0  0.00000000000E+00  0.00000000000E+00 -0.12303252179E+04  0.37106400442E+04  0.35007355507E+04 0.  0.
        4    1    3    3  502    0 -0.88255279186E+03 -0.56896446234E+03 -0.20995480009E+04  0.23474930055E+04  0.12699999809E+01 0. -1.
       -4    1    3    3    0  502  0.88255279186E+03  0.56896446234E+03  0.86922278299E+03  0.13631470387E+04  0.12699999809E+01 0.  1.
</event>
<event>
 5   0  0.3628017E-08  0.3499423E+04  0.7818609E-02  0.8113927E-01
       -2   -1    0    0    0  501  0.00000000000E+00  0.00000000000E+00  0.12310419762E+04  0.12310419762E+04  0.25500000920E-02 0. -1.
        2   -1    0    0  501    0  0.00000000000E+00  0.00000000000E+00 -0.24869099934E+04  0.24869099934E+04  0.25500000920E-02 0.  1.
    10030    2    1    2    0    0  0.00000000000E+00  0.00000000000E+00 -0.12558680173E+04  0.37179519696E+04  0.34994231484E+04 0.  0.
        1    1    3    3  502    0  0.22660612147E+03 -0.16881147583E+04 -0.10534554404E+04  0.20027106972E+04  0.50400001928E-02 0.  1.
       -1    1    3    3    0  502 -0.22660612147E+03  0.16881147583E+04 -0.20241257684E+03  0.17152412725E+04  0.50400001928E-02 0. -1.
</event>
<event>
 5   0  0.1121462E-08  0.3499958E+04  0.7818609E-02  0.8113800E-01
        1   -1    0    0  501    0  0.00000000000E+00  0.00000000000E+00  0.24462405159E+04  0.24462405159E+04  0.50400001928E-02 0. -1.
       -1   -1    0    0    0  501  0.00000000000E+00  0.00000000000E+00 -0.12518912152E+04  0.12518912152E+04  0.50400001928E-02 0.  1.
    10030    2    1    2    0    0  0.00000000000E+00  0.00000000000E+00  0.11943493007E+04  0.36981317311E+04  0.34999582924E+04 0.  0.
        1    1    3    3  502    0  0.20126890755E+02  0.38498048070E+03  0.24008163522E+04  0.24315703197E+04  0.50400001928E-02 0. -1.
       -1    1    3    3    0  502 -0.20126890755E+02 -0.38498048070E+03 -0.12064670516E+04  0.12665614114E+04  0.50400001928E-02 0.  1.
</event>
<event>
 5   0  0.1129219E-08  0.3498567E+04  0.7818609E-02  0.8114130E-01
        1   -1    0    0  501    0  0.00000000000E+00  0.00000000000E+00  0.15723840162E+04  0.15723840162E+04  0.50400001928E-02 0. -1.
       -1   -1    0    0    0  501  0.00000000000E+00  0.00000000000E+00 -0.19460848390E+04  0.19460848390E+04  0.50400001928E-02 0.  1.
    10030    2    1    2    0    0  0.00000000000E+00  0.00000000000E+00 -0.37370082284E+03  0.35184688552E+04  0.34985669609E+04 0.  0.
        5    1    3    3  502    0  0.40559852313E+03  0.23168542016E+03  0.15084978441E+04  0.15791694436E+04  0.46999998093E+01 0. -1.
       -5    1    3    3    0  502 -0.40559852313E+03 -0.23168542016E+03 -0.18821986670E+04  0.19392994116E+04  0.46999998093E+01 0.  1.
</event>
<event>
 5   0  0.3554451E-08  0.3501258E+04  0.7818609E-02  0.8113492E-01
       -2   -1    0    0    0  501  0.00000000000E+00  0.00000000000E+00  0.16026141363E+04  0.16026141363E+04  0.25500000920E-02 0. -1.
        2   -1    0    0  501    0  0.00000000000E+00  0.00000000000E+00 -0.19123137706E+04  0.19123137706E+04  0.25500000920E-02 0.  1.
    10030    2    1    2    0    0  0.00000000000E+00  0.00000000000E+00 -0.30969963431E+03  0.35149279069E+04  0.35012575351E+04 0.  0.
        5    1    3    3  502    0  0.13632719348E+04  0.10362968145E+04  0.21024240332E+03  0.17252957468E+04  0.46999998093E+01 0. -1.
       -5    1    3    3    0  502 -0.13632719348E+04 -0.10362968145E+04 -0.51994203763E+03  0.17896321601E+04  0.46999998093E+01 0.  1.
</event>
<event>
 5   0  0.3554451E-08  0.3501166E+04  0.7818609E-02  0.8113514E-01
       -2   -1    0    0    0  501  0.00000000000E+00  0.00000000000E+00  0.16973991904E+04  0.16973991904E+04  0.25500000920E-02 0. -1.
        2   -1    0    0  501    0  0.00000000000E+00  0.00000000000E+00 -0.18054330675E+04  0.18054330675E+04  0.25500000920E-02 0.  1.
    10030    2    1    2    0    0  0.00000000000E+00  0.00000000000E+00 -0.10803387701E+03  0.35028322579E+04  0.35011658785E+04 0.  0.
        5    1    3    3  502    0 -0.13281712268E+04  0.44033107088E+03  0.99842873193E+03  0.17189567424E+04  0.46999998093E+01 0. -1.
       -5    1    3    3    0  502  0.13281712268E+04 -0.44033107088E+03 -0.11064626089E+04  0.17838755155E+04  0.46999998093E+01 0.  1.
</event>
<event>
 5   0  0.3554451E-08  0.3500376E+04  0.7818609E-02  0.8113701E-01
       -2   -1    0    0    0  501  0.00000000000E+00  0.00000000000E+00  0.13858909992E+04  0.13858909992E+04  0.25500000920E-02 0. -1.
        2   -1    0    0  501    0  0.00000000000E+00  0.00000000000E+00 -0.22102440521E+04  0.22102440521E+04  0.25500000920E-02 0.  1.
    10030    2    1    2    0    0  0.00000000000E+00  0.00000000000E+00 -0.82435305288E+03  0.35961350513E+04  0.35003756015E+04 0.  0.
        5    1    3    3  502    0 -0.37604258363E+03  0.16485740064E+04 -0.87611772053E+03  0.19044181866E+04  0.46999998093E+01 0.  1.
       -5    1    3    3    0  502  0.37604258363E+03 -0.16485740064E+04  0.51764667658E+02  0.16917168647E+04  0.46999998093E+01 0. -1.
</event>
<event>
 5   0  0.3700096E-08  0.3492437E+04  0.7818609E-02  0.8115585E-01
       -2   -1    0    0    0  501  0.00000000000E+00  0.00000000000E+00  0.16406310290E+04  0.16406310290E+04  0.25500000920E-02 0.  1.
        2   -1    0    0  501    0  0.00000000000E+00  0.00000000000E+00 -0.18586011814E+04  0.18586011814E+04  0.25500000920E-02 0. -1.
    10030    2    1    2    0    0  0.00000000000E+00  0.00000000000E+00 -0.21797015238E+03  0.34992322103E+04  0.34924368390E+04 0.  0.
        4    1    3    3  502    0  0.13268421072E+04  0.38107670227E+03  0.96246354415E+03  0.16828746588E+04  0.12699999809E+01 0.  1.
       -4    1    3    3    0  502 -0.13268421072E+04 -0.38107670227E+03 -0.11804336965E+04  0.18163575516E+04  0.12699999809E+01 0. -1.
</event>
<event>
 5   0  0.3700096E-08  0.3500346E+04  0.7818609E-02  0.8113708E-01
        2   -1    0    0  501    0  0.00000000000E+00  0.00000000000E+00  0.20509066886E+04  0.20509066886E+04  0.25500000920E-02 0. -1.
       -2   -1    0    0    0  501  0.00000000000E+00  0.00000000000E+00 -0.14935375249E+04  0.14935375249E+04  0.25500000920E-02 0.  1.
    10030    2    1    2    0    0  0.00000000000E+00  0.00000000000E+00  0.55736916375E+03  0.35444442135E+04  0.35003463255E+04 0.  0.
        4    1    3    3  502    0 -0.65608518455E+01  0.16960882646E+04  0.71580109595E+03  0.18409593336E+04  0.12699999809E+01 0.  1.
       -4    1    3    3    0  502  0.65608518455E+01 -0.16960882646E+04 -0.15843193220E+03  0.17034848799E+04  0.12699999809E+01 0. -1.
</event>
<event>
 5   0  0.1129219E-08  0.3500075E+04  0.7818609E-02  0.8113772E-01
       -1   -1    0    0    0  501  0.00000000000E+00  0.00000000000E+00  0.15731737076E+04  0.15731737076E+04  0.50400001928E-02 0.  1.
        1   -1    0    0  501    0  0.00000000000E+00  0.00000000000E+00 -0.19467848871E+04  0.19467848871E+04  0.50400001928E-02 0. -1.
    10030    2    1    2    0    0  0.00000000000E+00  0.00000000000E+00 -0.37361117951E+03  0.35199585946E+04  0.35000747413E+04 0.  0.
        5    1    3    3  502    0 -0.61707673573E+03 -0.70905808318E+03 -0.16713561552E+04  0.19175506644E+04  0.46999998093E+01 0. -1.
       -5    1    3    3    0  502  0.61707673573E+03  0.70905808318E+03  0.12977449756E+04  0.16024079302E+04  0.46999998093E+01 0.  1.
</event>
<event>
 5   0  0.3467834E-08  0.3500096E+04  0.7818609E-02  0.8113767E-01
        2   -1    0    0  501    0  0.00000000000E+00  0.00000000000E+00  0.11101948374E+04  0.11101948374E+04  0.25500000920E-02 0.  1.
       -2   -1    0    0    0  501  0.00000000000E+00  0.00000000000E+00 -0.27586756296E+04  0.27586756296E+04  0.25500000920E-02 0. -1.
    10030    2    1    2    0    0  0.00000000000E+00  0.00000000000E+00 -0.16484807922E+04  0.38688704671E+04  0.35000956799E+04 0.  0.
        3    1    3    3  502    0  0.55737891497E+03 -0.61890891397E+03  0.87706402528E+03  0.12095291701E+04  0.10100000352E+00 0.  1.
       -3    1    3    3    0  502 -0.55737891497E+03  0.61890891397E+03 -0.25255448175E+04  0.26593412970E+04  0.10100000352E+00 0. -1.
</event>
<event>
 5   0  0.3553585E-08  0.3496883E+04  0.7818609E-02  0.8114529E-01
        2   -1    0    0  501    0  0.00000000000E+00  0.00000000000E+00  0.17508795777E+04  0.17508795777E+04  0.25500000920E-02 0. -1.
       -2   -1    0    0    0  501  0.00000000000E+00  0.00000000000E+00 -0.17460066464E+04  0.17460066464E+04  0.25500000920E-02 0.  1.
    10030    2    1    2    0    0  0.00000000000E+00  0.00000000000E+00  0.48729313047E+01  0.34968862241E+04  0.34968828289E+04 0.  0.
        2    1    3    3  502    0  0.27847803065E+03 -0.49523951329E+03  0.16559903656E+04  0.17507473491E+04  0.25500000920E-02 0. -1.
       -2    1    3    3    0  502 -0.27847803065E+03  0.49523951329E+03 -0.16511174343E+04  0.17461388751E+04  0.25500000920E-02 0.  1.
</event>
<event>
 5   0  0.1140808E-08  0.3497048E+04  0.7818609E-02  0.8114490E-01
        1   -1    0    0  501    0  0.00000000000E+00  0.00000000000E+00  0.26444375546E+04  0.26444375546E+04  0.50400001928E-02 0. -1.
       -1   -1    0    0    0  501  0.00000000000E+00  0.00000000000E+00 -0.11561384543E+04  0.11561384543E+04  0.50400001928E-02 0.  1.
    10030    2    1    2    0    0  0.00000000000E+00  0.00000000000E+00  0.14882991004E+04  0.38005760089E+04  0.34970478674E+04 0.  0.
        3    1    3    3  502    0 -0.38316086777E+03  0.10720616757E+04  0.21864412442E+04  0.24650869785E+04  0.10100000352E+00 0. -1.
       -3    1    3    3    0  502  0.38316086777E+03 -0.10720616757E+04 -0.69814214384E+03  0.13354890304E+04  0.10100000352E+00 0.  1.
</event>
<event>
 5   0  0.3554451E-08  0.3500897E+04  0.7818609E-02  0.8113577E-01
       -2   -1    0    0    0  501  0.00000000000E+00  0.00000000000E+00  0.11966269782E+04  0.11966269782E+04  0.25500000920E-02 0. -1.
        2   -1    0    0  501    0  0.00000000000E+00  0.00000000000E+00 -0.25605896720E+04  0.25605896720E+04  0.25500000920E-02 0.  1.
    10030    2    1    2    0    0  0.00000000000E+00  0.00000000000E+00 -0.13639626938E+04  0.37572166503E+04  0.35008974174E+04 0.  0.
        5    1    3    3  502    0 -0.14322371491E+04 -0.77172922678E+03  0.11202206272E+02  0.16269655282E+04  0.46999998093E+01 0. -1.
       -5    1    3    3    0  502  0.14322371491E+04  0.77172922678E+03 -0.13751649001E+04  0.21302511220E+04  0.46999998093E+01 0.  1.
</event>
<event>
 5   0  0.3553585E-08  0.3498491E+04  0.7818609E-02  0.8114148E-01
        2   -1    0    0  501    0  0.00000000000E+00  0.00000000000E+00  0.16010988672E+04  0.16010988672E+04  0.25500000920E-02 0. -1.
       -2   -1    0    0    0  501  0.00000000000E+00  0.00000000000E+00 -0.19110996026E+04  0.19110996026E+04  0.25500000920E-02 0.  1.
    10030    2    1    2    0    0  0.00000000000E+00  0.00000000000E+00 -0.31000073539E+03  0.35121984697E+04  0.34984907653E+04 0.  0.
        2    1    3    3  502    0 -0.27042164500E+03  0.50065821575E+03  0.15055886035E+04  0.16095289864E+04  0.25500000920E-02 0. -1.
       -2    1    3    3    0  502  0.27042164500E+03 -0.50065821575E+03 -0.18155893389E+04  0.19026694833E+04  0.25500000920E-02 0.  1.
</event>
<event>
 5   0  0.1121462E-08  0.3499942E+04  0.7818609E-02  0.8113804E-01
        1   -1    0    0  501    0  0.00000000000E+00  0.00000000000E+00  0.14107468085E+04  0.14107468085E+04  0.50400001928E-02 0.  1.
       -1   -1    0    0    0  501  0.00000000000E+00  0.00000000000E+00 -0.21707636780E+04  0.21707636780E+04  0.50400001928E-02 0. -1.
    10030    2    1    2    0    0  0.00000000000E+00  0.00000000000E+00 -0.76001686949E+03  0.35815104866E+04  0.34999416743E+04 0.  0.
        1    1    3    3  502    0  0.16931410452E+03  0.99376609554E+02  0.13994420093E+04  0.14131457512E+04  0.50400001928E-02 0.  1.
       -1    1    3    3    0  502 -0.16931410452E+03 -0.99376609554E+02 -0.21594588788E+04  0.21683647354E+04  0.50400001928E-02 0. -1.
</event>
<event>
 5   0  0.3554451E-08  0.3495647E+04  0.7818609E-02  0.8114822E-01
        2   -1    0    0  501    0  0.00000000000E+00  0.00000000000E+00  0.18413915185E+04  0.18413915185E+04  0.25500000920E-02 0.  1.
       -2   -1    0    0    0  501  0.00000000000E+00  0.00000000000E+00 -0.16590102859E+04  0.16590102859E+04  0.25500000920E-02 0. -1.
    10030    2    1    2    0    0  0.00000000000E+00  0.00000000000E+00  0.18238123256E+03  0.35004018044E+04  0.34956472760E+04 0.  0.
        5    1    3    3  502    0  0.16657252196E+04  0.49516327247E+03 -0.96248930663E+02  0.17404347503E+04  0.46999998093E+01 0. -1.
       -5    1    3    3    0  502 -0.16657252196E+04 -0.49516327247E+03  0.27863016323E+03  0.17599670541E+04  0.46999998093E+01 0.  1.
</event>
<event>
 5   0  0.1121462E-08  0.3498791E+04  0.7818609E-02  0.8114077E-01
        1   -1    0    0  501    0  0.00000000000E+00  0.00000000000E+00  0.20399603005E+04  0.20399603005E+04  0.50400001928E-02 0. -1.
       -1   -1    0    0    0  501  0.00000000000E+00  0.00000000000E+00 -0.15002177272E+04  0.15002177272E+04  0.50400001928E-02 0.  1.
    10030    2    1    2    0    0  0.00000000000E+00  0.00000000000E+00  0.53974257333E+03  0.35401780277E+04  0.34987909944E+04 0.  0.
        2    1    3    3  502    0  0.43809916112E+02  0.19964370351E+03  0.20278371566E+04  0.20381119819E+04  0.25500000920E-02 0. -1.
       -2    1    3    3    0  502 -0.43809916112E+02 -0.19964370351E+03 -0.14880945833E+04  0.15020660458E+04  0.25500000920E-02 0.  1.
</event>
<event>
 5   0  0.3467834E-08  0.3500633E+04  0.7818609E-02  0.8113640E-01
       -2   -1    0    0    0  501  0.00000000000E+00  0.00000000000E+00  0.10375103724E+04  0.10375103724E+04  0.25500000920E-02 0.  1.
        2   -1    0    0  501    0  0.00000000000E+00  0.00000000000E+00 -0.29528461855E+04  0.29528461855E+04  0.25500000920E-02 0. -1.
    10030    2    1    2    0    0  0.00000000000E+00  0.00000000000E+00 -0.19153358131E+04  0.39903565579E+04  0.35006333973E+04 0.  0.
        3    1    3    3  502    0 -0.15182460661E+04  0.60280518201E+03 -0.16742292751E+04  0.23391213907E+04  0.10100000352E+00 0. -1.
       -3    1    3    3    0  502  0.15182460661E+04 -0.60280518201E+03 -0.24110653806E+03  0.16512351672E+04  0.10100000352E+00 0.  1.
</event>
<event>
 5   0  0.1121462E-08  0.3500357E+04  0.7818609E-02  0.8113705E-01
       -1   -1    0    0    0  501  0.00000000000E+00  0.00000000000E+00  0.96577679649E+03  0.96577679650E+03  0.50400001928E-02 0. -1.
        1   -1    0    0  501    0  0.00000000000E+00  0.00000000000E+00 -0.31716699233E+04  0.31716699233E+04  0.50400001928E-02 0.  1.
    10030    2    1    2    0    0  0.00000000000E+00  0.00000000000E+00 -0.22058931268E+04  0.41374467198E+04  0.35003572493E+04 0.  0.
        2    1    3    3  502    0 -0.49251467775E+03  0.80440483016E+03  0.63965702700E+03  0.11396486085E+04  0.25500000920E-02 0. -1.
       -2    1    3    3    0  502  0.49251467775E+03 -0.80440483016E+03 -0.28455501538E+04  0.29977981114E+04  0.25500000920E-02 0.  1.
</event>
<event>
 5   0  0.1129219E-08  0.3500614E+04  0.7818609E-02  0.8113644E-01
       -1   -1    0    0    0  501  0.00000000000E+00  0.00000000000E+00  0.14431381961E+04  0.14431381961E+04  0.50400001928E-02 0. -1.
        1   -1    0    0  501    0  0.00000000000E+00  0.00000000000E+00 -0.21228557928E+04  0.21228557928E+04  0.50400001928E-02 0.  1.
    10030    2    1    2    0    0  0.00000000000E+00  0.00000000000E+00 -0.67971759672E+03  0.35659939888E+04  0.35006138201E+04 0.  0.
        5    1    3    3  502    0  0.32645917859E+03  0.11104571513E+04 -0.16773397026E+04  0.20379355357E+04  0.46999998093E+01 0.  1.
       -5    1    3    3    0  502 -0.32645917859E+03 -0.11104571513E+04  0.99762210583E+03  0.15280584531E+04  0.46999998093E+01 0. -1.
</event>
<event>
 5   0  0.3553585E-08  0.3505165E+04  0.7818609E-02  0.8112567E-01
        2   -1    0    0  501    0  0.00000000000E+00  0.00000000000E+00  0.19319390983E+04  0.19319390983E+04  0.25500000920E-02 0.  1.
       -2   -1    0    0    0  501  0.00000000000E+00  0.00000000000E+00 -0.15898766463E+04  0.15898766463E+04  0.25500000920E-02 0. -1.
    10030    2    1    2    0    0  0.00000000000E+00  0.00000000000E+00  0.34206245208E+03  0.35218157446E+04  0.35051646777E+04 0.  0.
        2    1    3    3  502    0  0.12310798527E+04  0.79671140094E+03  0.11354022922E+04  0.18545740819E+04  0.25500000920E-02 0.  1.
       -2    1    3    3    0  502 -0.12310798527E+04 -0.79671140094E+03 -0.79333984013E+03  0.16672416627E+04  0.25500000920E-02 0. -1.
</event>
<event>
 5   0  0.3628017E-08  0.3498971E+04  0.7818609E-02  0.8114034E-01
        2   -1    0    0  501    0  0.00000000000E+00  0.00000000000E+00  0.23758887642E+04  0.23758887642E+04  0.25500000920E-02 0.  1.
       -2   -1    0    0    0  501  0.00000000000E+00  0.00000000000E+00 -0.12882337989E+04  0.12882337989E+04  0.25500000920E-02 0. -1.
    10030    2    1    2    0    0  0.00000000000E+00  0.00000000000E+00  0.10876549654E+04  0.36641225631E+04  0.34989713965E+04 0.  0.
        1    1    3    3  502    0  0.12673288750E+04 -0.43928797715E+02  0.18059740601E+04  0.22067157775E+04  0.50400001928E-02 0.  1.
       -1    1    3    3    0  502 -0.12673288750E+04  0.43928797715E+02 -0.71831909476E+03  0.14574067856E+04  0.50400001928E-02 0. -1.
</event>
<event>
 5   0  0.1121462E-08  0.3499080E+04  0.7818609E-02  0.8114008E-01
        1   -1    0    0  501    0  0.00000000000E+00  0.00000000000E+00  0.18693360960E+04  0.18693360960E+04  0.50400001928E-02 0. -1.
       -1   -1    0    0    0  501  0.00000000000E+00  0.00000000000E+00 -0.16374213597E+04  0.16374213597E+04  0.50400001928E-02 0.  1.
    10030    2    1    2    0    0  0.00000000000E+00  0.00000000000E+00  0.23191473625E+03  0.35067574557E+04  0.34990803661E+04 0.  0.
        4    1    3    3  502    0  0.89076392261E+03 -0.13574900858E+04  0.76903850608E+03  0.17965693795E+04  0.12699999809E+01 0. -1.
       -4    1    3    3    0  502 -0.89076392261E+03  0.13574900858E+04 -0.53712376983E+03  0.17101880762E+04  0.12699999809E+01 0.  1.
</event>
<event>
 5   0  0.1140808E-08  0.3500783E+04  0.7818609E-02  0.8113604E-01
        1   -1    0    0  501    0  0.00000000000E+00  0.00000000000E+00  0.24665472221E+04  0.24665472221E+04  0.50400001928E-02 0. -1.
       -1   -1    0    0    0  501  0.00000000000E+00  0.00000000000E+00 -0.12421701188E+04  0.12421701188E+04  0.50400001928E-02 0.  1.
    10030    2    1    2    0    0  0.00000000000E+00  0.00000000000E+00  0.12243771034E+04  0.37087173409E+04  0.35007834871E+04 0.  0.
        3    1    3    3  502    0  0.25585360616E+03  0.62654793157E+03 -0.10979567511E+04  0.12897799874E+04  0.10100000352E+00 0.  1.
       -3    1    3    3    0  502 -0.25585360616E+03 -0.62654793157E+03  0.23223338545E+04  0.24189373535E+04  0.10100000352E+00 0. -1.
</event>
<event>
 5   0  0.3553585E-08  0.3500734E+04  0.7818609E-02  0.8113616E-01
       -2   -1    0    0    0  501  0.00000000000E+00  0.00000000000E+00  0.35358086631E+04  0.35358086631E+04  0.25500000920E-02 0.  1.
        2   -1    0    0  501    0  0.00000000000E+00  0.00000000000E+00 -0.86650200193E+03  0.86650200193E+03  0.25500000920E-02 0. -1.
    10030    2    1    2    0    0  0.00000000000E+00  0.00000000000E+00  0.26693066612E+04  0.44023106650E+04  0.35007343715E+04 0.  0.
        2    1    3    3  502    0 -0.69173691140E+03  0.31100226997E+03 -0.64913732836E+03  0.99829937273E+03  0.25500000920E-02 0. -1.
       -2    1    3    3    0  502  0.69173691140E+03 -0.31100226997E+03  0.33184439895E+04  0.34040112923E+04  0.25500000920E-02 0.  1.
</event>
<event>
 5   0  0.1140808E-08  0.3499039E+04  0.7818609E-02  0.8114018E-01
       -1   -1    0    0    0  501  0.00000000000E+00  0.00000000000E+00  0.17483391523E+04  0.17483391523E+04  0.50400001928E-02 0.  1.
        1   -1    0    0  501    0  0.00000000000E+00  0.00000000000E+00 -0.17507007789E+04  0.17507007789E+04  0.50400001928E-02 0. -1.
    10030    2    1    2    0    0  0.00000000000E+00  0.00000000000E+00 -0.23616265698E+01  0.34990399312E+04  0.34990391342E+04 0.  0.
        3    1    3    3  502    0 -0.35480544576E+03 -0.15403057371E+04 -0.75110767204E+03  0.17500261179E+04  0.10100000352E+00 0. -1.
       -3    1    3    3    0  502  0.35480544576E+03  0.15403057371E+04  0.74874604547E+03  0.17490138133E+04  0.10100000352E+00 0.  1.
</event>
<event>
 5   0  0.1121462E-08  0.3501325E+04  0.7818609E-02  0.8113476E-01
        1   -1    0    0  501    0  0.00000000000E+00  0.00000000000E+00  0.18319116247E+04  0.18319116247E+04  0.50400001928E-02 0. -1.
       -1   -1    0    0    0  501  0.00000000000E+00  0.00000000000E+00 -0.16730172531E+04  0.16730172531E+04  0.50400001928E-02 0.  1.
    10030    2    1    2    0    0  0.00000000000E+00  0.00000000000E+00  0.15889437156E+03  0.35049288778E+04  0.35013253229E+04 0.  0.
        1    1    3    3  502    0  0.43475881198E+03 -0.10730238460E+04 -0.12350777201E+04  0.16928710445E+04  0.50400001928E-02 0.  1.
       -1    1    3    3    0  502 -0.43475881198E+03  0.10730238460E+04  0.13939720917E+04  0.18120578332E+04  0.50400001928E-02 0. -1.
</event>
<event>
 5   0  0.1121462E-08  0.3500337E+04  0.7818609E-02  0.8113710E-01
        1   -1    0    0  501    0  0.00000000000E+00  0.00000000000E+00  0.26798571478E+04  0.26798571478E+04  0.50400001928E-02 0.  1.
       -1   -1    0    0    0  501  0.00000000000E+00  0.00000000000E+00 -0.11430046913E+04  0.11430046913E+04  0.50400001928E-02 0. -1.
    10030    2    1    2    0    0  0.00000000000E+00  0.00000000000E+00  0.15368524565E+04  0.38228618391E+04  0.35003367221E+04 0.  0.
        2    1    3    3  502    0 -0.20109419834E+03  0.15494215811E+04  0.16297256053E+04  0.22576872372E+04  0.25500000920E-02 0.  1.
       -2    1    3    3    0  502  0.20109419834E+03 -0.15494215811E+04 -0.92873148884E+02  0.15651746019E+04  0.25500000920E-02 0. -1.
</event>
<event>
 5   0  0.3700096E-08  0.3497923E+04  0.7818609E-02  0.8114282E-01
        2   -1    0    0  501    0  0.00000000000E+00  0.00000000000E+00  0.22072454803E+04  0.22072454803E+04  0.25500000920E-02 0. -1.
       -2   -1    0    0    0  501  0.00000000000E+00  0.00000000000E+00 -0.13858299224E+04  0.13858299224E+04  0.25500000920E-02 0.  1.
    10030    2    1    2    0    0  0.00000000000E+00  0.00000000000E+00  0.82141555794E+03  0.35930754027E+04  0.34979232883E+04 0.  0.
        4    1    3    3  502    0  0.11582942784E+04  0.63706009019E+03  0.15870111430E+04  0.20654532614E+04  0.12699999809E+01 0. -1.
       -4    1    3    3    0  502 -0.11582942784E+04 -0.63706009019E+03 -0.76559558507E+03  0.15276221413E+04  0.12699999809E+01 0.  1.
</event>
<event>
 5   0  0.1121462E-08  0.3501769E+04  0.7818609E-02  0.8113371E-01
       -1   -1    0    0    0  501  0.00000000000E+00  0.00000000000E+00  0.19959456590E+04  0.19959456590E+04  0.50400001928E-02 0. -1.
        1   -1    0    0  501    0  0.00000000000E+00  0.00000000000E+00 -0.15359114570E+04  0.15359114570E+04  0.50400001928E-02 0.  1.
    10030    2    1    2    0    0  0.00000000000E+00  0.00000000000E+00  0.46003420199E+03  0.35318571161E+04  0.35017685848E+04 0.  0.
        2    1    3    3  502    0  0.62349948776E+03 -0.16185208055E+04  0.47131025190E+03  0.17973576613E+04  0.25500000920E-02 0.  1.
       -2    1    3    3    0  502 -0.62349948776E+03  0.16185208055E+04 -0.11276049910E+02  0.17344994547E+04  0.25500000920E-02 0. -1.
</event>
<event>
 5   0  0.3700096E-08  0.3500137E+04  0.7818609E-02  0.8113757E-01
        2   -1    0    0  501    0  0.00000000000E+00  0.00000000000E+00  0.16337959067E+04  0.16337959067E+04  0.25500000920E-02 0.  1.
       -2   -1    0    0    0  501  0.00000000000E+00  0.00000000000E+00 -0.18746163352E+04  0.18746163352E+04  0.25500000920E-02 0. -1.
    10030    2    1    2    0    0  0.00000000000E+00  0.00000000000E+00 -0.24082042849E+03  0.35084122420E+04  0.35001374231E+04 0.  0.
        4    1    3    3  502    0  0.23754085680E+03  0.22821624839E+03 -0.18432611989E+04  0.18724640918E+04  0.12699999809E+01 0. -1.
       -4    1    3    3    0  502 -0.23754085680E+03 -0.22821624839E+03  0.16024407704E+04  0.16359481502E+04  0.12699999809E+01 0.  1.
</event>
<event>
 5   0  0.3628017E-08  0.3500165E+04  0.7818609E-02  0.8113751E-01
        2   -1    0    0  501    0  0.00000000000E+00  0.00000000000E+00  0.21416644894E+04  0.21416644894E+04  0.25500000920E-02 0.  1.
       -2   -1    0    0    0  501  0.00000000000E+00  0.00000000000E+00 -0.14300973614E+04  0.14300973614E+04  0.25500000920E-02 0. -1.
    10030    2    1    2    0    0  0.00000000000E+00  0.00000000000E+00  0.71156712801E+03  0.35717618509E+04  0.35001649878E+04 0.  0.
        1    1    3    3  502    0 -0.93612608194E+03  0.14763244336E+04  0.44068924993E+03  0.18027958536E+04  0.50400001928E-02 0.  1.
       -1    1    3    3    0  502  0.93612608194E+03 -0.14763244336E+04  0.27087787809E+03  0.17689659973E+04  0.50400001928E-02 0. -1.
</event>
<event>
 5   0  0.1121462E-08  0.3497610E+04  0.7818609E-02  0.8114357E-01
        1   -1    0    0  501    0  0.00000000000E+00  0.00000000000E+00  0.30480042538E+04  0.30480042538E+04  0.50400001928E-02 0.  1.
       -1   -1    0    0    0  501  0.00000000000E+00  0.00000000000E+00 -0.10033842214E+04  0.10033842214E+04  0.50400001928E-02 0. -1.
    10030    2    1    2    0    0  0.00000000000E+00  0.00000000000E+00  0.20446200324E+04  0.40513884752E+04  0.34976102556E+04 0.  0.
        2    1    3    3  502    0  0.14509015366E+04 -0.81678969543E+03  0.16418367540E+04  0.23383516849E+04  0.25500000920E-02 0.  1.
       -2    1    3    3    0  502 -0.14509015366E+04  0.81678969543E+03  0.40278327834E+03  0.17130367903E+04  0.25500000920E-02 0. -1.
</event>
<event>
 5   0  0.3467834E-08  0.3500486E+04  0.7818609E-02  0.8113675E-01
        2   -1    0    0  501    0  0.00000000000E+00  0.00000000000E+00  0.16481043182E+04  0.16481043182E+04  0.25500000920E-02 0.  1.
       -2   -1    0    0    0  501  0.00000000000E+00  0.00000000000E+00 -0.18587115330E+04  0.18587115330E+04  0.25500000920E-02 0. -1.
    10030    2    1    2    0    0  0.00000000000E+00  0.00000000000E+00 -0.21060721483E+03  0.35068158512E+04  0.35004859685E+04 0.  0.
        3    1    3    3  502    0 -0.22050026249E+03  0.10541494040E+03 -0.18415324071E+04  0.18576798142E+04  0.10100000352E+00 0. -1.
       -3    1    3    3    0  502  0.22050026249E+03 -0.10541494040E+03  0.16309251923E+04  0.16491360370E+04  0.10100000352E+00 0.  1.
</event>
<event>
 5   0  0.3700096E-08  0.3499090E+04  0.7818609E-02  0.8114006E-01
       -2   -1    0    0    0  501  0.00000000000E+00  0.00000000000E+00  0.13096990171E+04  0.13096990171E+04  0.25500000920E-02 0.  1.
        2   -1    0    0  501    0  0.00000000000E+00  0.00000000000E+00 -0.23371070701E+04  0.23371070701E+04  0.25500000920E-02 0. -1.
    10030    2    1    2    0    0  0.00000000000E+00  0.00000000000E+00 -0.10274080530E+04  0.36468060872E+04  0.34990895002E+04 0.  0.
        4    1    3    3  502    0  0.10096873590E+04 -0.14038807837E+04 -0.23686790560E+03  0.17454105063E+04  0.12699999809E+01 0.  1.
       -4    1    3    3    0  502 -0.10096873590E+04  0.14038807837E+04 -0.79054014735E+03  0.19013955809E+04  0.12699999809E+01 0. -1.
</event>
<event>
 5   0  0.1140808E-08  0.3500126E+04  0.7818609E-02  0.8113760E-01
        1   -1    0    0  501    0  0.00000000000E+00  0.00000000000E+00  0.10338293981E+04  0.10338293982E+04  0.50400001928E-02 0.  1.
       -1   -1    0    0    0  501  0.00000000000E+00  0.00000000000E+00 -0.29625011185E+04  0.29625011185E+04  0.50400001928E-02 0. -1.
    10030    2    1    2    0    0  0.00000000000E+00  0.00000000000E+00 -0.19286717204E+04  0.39963305167E+04  0.35001261397E+04 0.  0.
        3    1    3    3  502    0  0.46843738859E+03  0.13100189285E+04  0.24784148788E+03  0.14131555447E+04  0.10100000352E+00 0.  1.
       -3    1    3    3    0  502 -0.46843738859E+03 -0.13100189285E+04 -0.21765132083E+04  0.25831749720E+04  0.10100000352E+00 0. -1.
</event>
<event>
 5   0  0.1121462E-08  0.3501988E+04  0.7818609E-02  0.8113319E-01
       -1   -1    0    0    0  501  0.00000000000E+00  0.00000000000E+00  0.18268374886E+04  0.18268374886E+04  0.50400001928E-02 0. -1.
        1   -1    0    0  501    0  0.00000000000E+00  0.00000000000E+00 -0.16782992899E+04  0.16782992899E+04  0.50400001928E-02 0.  1.
    10030    2    1    2    0    0  0.00000000000E+00  0.00000000000E+00  0.14853819864E+03  0.35051367785E+04  0.35019880410E+04 0.  0.
        2    1    3    3  502    0 -0.52531494676E+03 -0.16555737839E+04  0.29605288213E+03  0.17619669850E+04  0.25500000920E-02 0.  1.
       -2    1    3    3    0  502  0.52531494676E+03  0.16555737839E+04 -0.14751468349E+03  0.17431697935E+04  0.25500000920E-02 0. -1.
</event>
<event>
 5   0  0.1129219E-08  0.3499394E+04  0.7818609E-02  0.8113934E-01
       -1   -1    0    0    0  501  0.00000000000E+00  0.00000000000E+00  0.26609950480E+04  0.26609950480E+04  0.50400001928E-02 0.  1.
        1   -1    0    0  501    0  0.00000000000E+00  0.00000000000E+00 -0.11504868804E+04  0.11504868804E+04  0.50400001928E-02 0. -1.
    10030    2    1    2    0    0  0.00000000000E+00  0.00000000000E+00  0.15105081676E+04  0.38114819284E+04  0.34993941713E+04 0.  0.
        5    1    3    3  502    0  0.10335498134E+04 -0.75737702040E+03 -0.54246236706E+03  0.13914498472E+04  0.46999998093E+01 0. -1.
       -5    1    3    3    0  502 -0.10335498134E+04  0.75737702040E+03  0.20529705347E+04  0.24200320812E+04  0.46999998093E+01 0.  1.
</event>
<event>
 5   0  0.3700096E-08  0.3499079E+04  0.7818609E-02  0.8114008E-01
        2   -1    0    0  501    0  0.00000000000E+00  0.00000000000E+00  0.20314297126E+04  0.20314297126E+04  0.25500000920E-02 0. -1.
       -2   -1    0    0    0  501  0.00000000000E+00  0.00000000000E+00 -0.15067660511E+04  0.15067660511E+04  0.25500000920E-02 0.  1.
    10030    2    1    2    0    0  0.00000000000E+00  0.00000000000E+00  0.52466366153E+03  0.35381957637E+04  0.34990794939E+04 0.  0.
        4    1    3    3  502    0  0.26254776255E+03 -0.40622104710E+03  0.19624785807E+04  0.20212052491E+04  0.12699999809E+01 0. -1.
       -4    1    3    3    0  502 -0.26254776255E+03  0.40622104710E+03 -0.14378149191E+04  0.15169905146E+04  0.12699999809E+01 0.  1.
</event>
<event>
 5   0  0.1121462E-08  0.3495632E+04  0.7818609E-02  0.8114826E-01
        1   -1    0    0  501    0  0.00000000000E+00  0.00000000000E+00  0.27561296498E+04  0.27561296498E+04  0.50400001928E-02 0. -1.
       -1   -1    0    0    0  501  0.00000000000E+00  0.00000000000E+00 -0.11083880887E+04  0.11083880887E+04  0.50400001928E-02 0.  1.
    10030    2    1    2    0    0  0.00000000000E+00  0.00000000000E+00  0.16477415611E+04  0.38645177385E+04  0.34956322888E+04 0.  0.
        1    1    3    3  502    0 -0.48476275826E+03 -0.83293288711E+03  0.24358531899E+04  0.26195711269E+04  0.50400001928E-02 0. -1.
       -1    1    3    3    0  502  0.48476275826E+03  0.83293288711E+03 -0.78811162875E+03  0.12449466116E+04  0.50400001928E-02 0.  1.
</event>
<event>
 5   0  0.1129219E-08  0.3500439E+04  0.7818609E-02  0.8113686E-01
       -1   -1    0    0    0  501  0.00000000000E+00  0.00000000000E+00  0.20027079570E+04  0.20027079570E+04  0.50400001928E-02 0. -1.
        1   -1    0    0  501    0  0.00000000000E+00  0.00000000000E+00 -0.15295629148E+04  0.15295629148E+04  0.50400001928E-02 0.  1.
    10030    2    1    2    0    0  0.00000000000E+00  0.00000000000E+00  0.47314504225E+03  0.35322708718E+04  0.35004387269E+04 0.  0.
        5    1    3    3  502    0 -0.96564993054E+03  0.91864356874E+03  0.13812869578E+04  0.19194690788E+04  0.46999998093E+01 0. -1.
       -5    1    3    3    0  502  0.96564993054E+03 -0.91864356874E+03 -0.90814191554E+03  0.16128017930E+04  0.46999998093E+01 0.  1.
</event>
<event>
 5   0  0.1121462E-08  0.3500458E+04  0.7818609E-02  0.8113681E-01
        1   -1    0    0  501    0  0.00000000000E+00  0.00000000000E+00  0.19321230213E+04  0.19321230213E+04  0.50400001928E-02 0.  1.
       -1   -1    0    0    0  501  0.00000000000E+00  0.00000000000E+00 -0.15854585593E+04  0.15854585594E+04  0.50400001928E-02 0. -1.
    10030    2    1    2    0    0  0.00000000000E+00  0.00000000000E+00  0.34666446197E+03  0.35175815807E+04  0.35004576740E+04 0.  0.
        1    1    3    3  502    0  0.64437113261E+03 -0.16272066820E+04  0.15636058154E+03  0.17571182015E+04  0.50400001928E-02 0. -1.
       -1    1    3    3    0  502 -0.64437113261E+03  0.16272066820E+04  0.19030388043E+03  0.17604633792E+04  0.50400001928E-02 0.  1.
</event>
<event>
 5   0  0.1121462E-08  0.3499538E+04  0.7818609E-02  0.8113899E-01
       -1   -1    0    0    0  501  0.00000000000E+00  0.00000000000E+00  0.20498449564E+04  0.20498449564E+04  0.50400001928E-02 0. -1.
        1   -1    0    0  501    0  0.00000000000E+00  0.00000000000E+00 -0.14936209048E+04  0.14936209048E+04  0.50400001928E-02 0.  1.
    10030    2    1    2    0    0  0.00000000000E+00  0.00000000000E+00  0.55622405167E+03  0.35434658612E+04  0.34995378429E+04 0.  0.
        2    1    3    3  502    0 -0.71211249000E+03 -0.58490756114E+03  0.17842205835E+04  0.20081494327E+04  0.25500000920E-02 0. -1.
       -2    1    3    3    0  502  0.71211249000E+03  0.58490756114E+03 -0.12279965318E+04  0.15353164285E+04  0.25500000920E-02 0.  1.
</event>
<event>
 5   0  0.3554451E-08  0.3502010E+04  0.7818609E-02  0.8113314E-01
       -2   -1    0    0    0  501  0.00000000000E+00  0.00000000000E+00  0.28170612467E+04  0.28170612467E+04  0.25500000920E-02 0. -1.
        2   -1    0    0  501    0  0.00000000000E+00  0.00000000000E+00 -0.10883745432E+04  0.10883745432E+04  0.25500000920E-02 0.  1.
    10030    2    1    2    0    0  0.00000000000E+00  0.00000000000E+00  0.17286867035E+04  0.39054357900E+04  0.35020095646E+04 0.  0.
        5    1    3    3  502    0 -0.37504804040E+03 -0.15619662986E+04  0.16414662087E+04  0.22967004931E+04  0.46999998093E+01 0. -1.
       -5    1    3    3    0  502  0.37504804040E+03  0.15619662986E+04  0.87220494767E+02  0.16087352969E+04  0.46999998093E+01 0.  1.
</event>
<event>
 5   0  0.3700096E-08  0.3500171E+04  0.7818609E-02  0.8113749E-01
       -2   -1    0    0    0  501  0.00000000000E+00  0.00000000000E+00  0.14093492040E+04  0.14093492040E+04  0.25500000920E-02 0.  1.
        2   -1    0    0  501    0  0.00000000000E+00  0.00000000000E+00 -0.21732016912E+04  0.21732016912E+04  0.25500000920E-02 0. -1.
    10030    2    1    2    0    0  0.00000000000E+00  0.00000000000E+00 -0.76385248721E+03  0.35825508952E+04  0.35001714664E+04 0.  0.
        4    1    3    3  502    0  0.75110577803E+03 -0.11047360122E+04  0.77525645348E+03  0.15445470948E+04  0.12699999809E+01 0.  1.
       -4    1    3    3    0  502 -0.75110577803E+03  0.11047360122E+04 -0.15391089407E+04  0.20380038004E+04  0.12699999809E+01 0. -1.
</event>
<event>
 5   0  0.1140808E-08  0.3500838E+04  0.7818609E-02  0.8113591E-01
        1   -1    0    0  501    0  0.00000000000E+00  0.00000000000E+00  0.29377223277E+04  0.29377223277E+04  0.50400001928E-02 0.  1.
       -1   -1    0    0    0  501  0.00000000000E+00  0.00000000000E+00 -0.10429734693E+04  0.10429734693E+04  0.50400001928E-02 0. -1.
    10030    2    1    2    0    0  0.00000000000E+00  0.00000000000E+00  0.18947488584E+04  0.39806957970E+04  0.35008378700E+04 0.  0.
        3    1    3    3  502    0 -0.14645422457E+04 -0.14947180324E+03 -0.12938929349E+03  0.14778252295E+04  0.10100000352E+00 0. -1.
       -3    1    3    3    0  502  0.14645422457E+04  0.14947180324E+03  0.20241381519E+04  0.25028705675E+04  0.10100000352E+00 0.  1.
</event>
<event>
 5   0  0.1121462E-08  0.3500720E+04  0.7818609E-02  0.8113619E-01
        1   -1    0    0  501    0  0.00000000000E+00  0.00000000000E+00  0.16988158541E+04  0.16988158541E+04  0.50400001928E-02 0. -1.
       -1   -1    0    0    0  501  0.00000000000E+00  0.00000000000E+00 -0.18034676437E+04  0.18034676437E+04  0.50400001928E-02 0.  1.
    10030    2    1    2    0    0  0.00000000000E+00  0.00000000000E+00 -0.10465178958E+03  0.35022834979E+04  0.35007195978E+04 0.  0.
        2    1    3    3  502    0 -0.17379941055E+04 -0.18305278025E+03  0.45838245924E+02  0.17482085047E+04  0.25500000920E-02 0. -1.
       -2    1    3    3    0  502  0.17379941055E+04  0.18305278025E+03 -0.15049003551E+03  0.17540749932E+04  0.25500000920E-02 0.  1.
</event>
<event>
 5   0  0.3700096E-08  0.3499733E+04  0.7818609E-02  0.8113853E-01
       -2   -1    0    0    0  501  0.00000000000E+00  0.00000000000E+00  0.11163749842E+04  0.11163749842E+04  0.25500000920E-02 0.  1.
        2   -1    0    0  501    0  0.00000000000E+00  0.00000000000E+00 -0.27428350983E+04  0.27428350983E+04  0.25500000920E-02 0. -1.
    10030    2    1    2    0    0  0.00000000000E+00  0.00000000000E+00 -0.16264601141E+04  0.38592100825E+04  0.34997328410E+04 0.  0.
        4    1    3    3  502    0 -0.13792272245E+04  0.88119818355E+03 -0.13056723238E+03  0.16418974970E+04  0.12699999809E+01 0.  1.
       -4    1    3    3    0  502  0.13792272245E+04 -0.88119818355E+03 -0.14958928817E+04  0.22173125855E+04  0.12699999809E+01 0. -1.
</event>
<event>
 5   0  0.1121462E-08  0.3499981E+04  0.7818609E-02  0.8113794E-01
       -1   -1    0    0    0  501  0.00000000000E+00  0.00000000000E+00  0.12863328688E+04  0.12863328688E+04  0.50400001928E-02 0.  1.
        1   -1    0    0  501    0  0.00000000000E+00  0.00000000000E+00 -0.23807733347E+04  0.23807733348E+04  0.50400001928E-02 0. -1.
    10030    2    1    2    0    0  0.00000000000E+00  0.00000000000E+00 -0.10944404659E+04  0.36671062036E+04  0.34999811392E+04 0.  0.
        1    1    3    3  502    0 -0.12614887424E+04  0.11514761507E+04 -0.94648845974E+03  0.19527139005E+04  0.50400001928E-02 0.  1.
       -1    1    3    3    0  502  0.12614887424E+04 -0.11514761507E+04 -0.14795200619E+03  0.17143923031E+04  0.50400001928E-02 0. -1.
</event>
<event>
 5   0  0.3628017E-08  0.3501136E+04  0.7818609E-02  0.8113521E-01
       -2   -1    0    0    0  501  0.00000000000E+00  0.00000000000E+00  0.16289937982E+04  0.16289937982E+04  0.25500000920E-02 0. -1.
        2   -1    0    0  501    0  0.00000000000E+00  0.00000000000E+00 -0.18812157244E+04  0.18812157244E+04  0.25500000920E-02 0.  1.
    10030    2    1    2    0    0  0.00000000000E+00  0.00000000000E+00 -0.25222192616E+03  0.35102095226E+04  0.35011362431E+04 0.  0.
        1    1    3    3  502    0  0.13654400334E+04 -0.10766063277E+04  0.76851497782E+02  0.17405211353E+04  0.50400001928E-02 0.  1.
       -1    1    3    3    0  502 -0.13654400334E+04  0.10766063277E+04 -0.32907342394E+03  0.17696883873E+04  0.50400001928E-02 0. -1.
</event>
<event>
 5   0  0.1121462E-08  0.3501460E+04  0.7818609E-02  0.8113444E-01
       -1   -1    0    0    0  501  0.00000000000E+00  0.00000000000E+00  0.18792746205E+04  0.18792746205E+04  0.50400001928E-02 0.  1.
        1   -1    0    0  501    0  0.00000000000E+00  0.00000000000E+00 -0.16309782473E+04  0.16309782473E+04  0.50400001928E-02 0. -1.
    10030    2    1    2    0    0  0.00000000000E+00  0.00000000000E+00  0.24829637317E+03  0.35102528678E+04  0.35014602820E+04 0.  0.
        1    1    3    3  502    0  0.12121278129E+04  0.31104181844E+03 -0.11032854147E+04  0.16683043948E+04  0.50400001928E-02 0. -1.
       -1    1    3    3    0  502 -0.12121278129E+04 -0.31104181844E+03  0.13515817879E+04  0.18419484729E+04  0.50400001928E-02 0.  1.
</event>
<event>
 5   0  0.1121462E-08  0.3496999E+04  0.7818609E-02  0.8114502E-01
        1   -1    0    0  501    0  0.00000000000E+00  0.00000000000E+00  0.14669514733E+04  0.14669514734E+04  0.50400001928E-02 0.  1.
       -1   -1    0    0    0  501  0.00000000000E+00  0.00000000000E+00 -0.20840842652E+04  0.20840842652E+04  0.50400001928E-02 0. -1.
    10030    2    1    2    0    0  0.00000000000E+00  0.00000000000E+00 -0.61713279184E+03  0.35510357385E+04  0.34969989897E+04 0.  0.
        1    1    3    3  502    0  0.15355289978E+04  0.31269567928E+03 -0.10961952263E+04  0.19123995046E+04  0.50400001928E-02 0.  1.
       -1    1    3    3    0  502 -0.15355289978E+04 -0.31269567928E+03  0.47906243448E+03  0.16386362339E+04  0.50400001928E-02 0. -1.
</event>
<event>
 5   0  0.3554451E-08  0.3500251E+04  0.7818609E-02  0.8113730E-01
       -2   -1    0    0    0  501  0.00000000000E+00  0.00000000000E+00  0.22382270060E+04  0.22382270060E+04  0.25500000920E-02 0.  1.
        2   -1    0    0  501    0  0.00000000000E+00  0.00000000000E+00 -0.13684667499E+04  0.13684667499E+04  0.25500000920E-02 0. -1.
    10030    2    1    2    0    0  0.00000000000E+00  0.00000000000E+00  0.86976025614E+03  0.36066937560E+04  0.35002509833E+04 0.  0.
        5    1    3    3  502    0  0.29535956083E+03  0.52549462078E+03  0.21278708790E+04  0.22116144407E+04  0.46999998093E+01 0.  1.
       -5    1    3    3    0  502 -0.29535956083E+03 -0.52549462078E+03 -0.12581106228E+04  0.13950793153E+04  0.46999998093E+01 0. -1.
</event>
<event>
 5   0  0.1121462E-08  0.3501395E+04  0.7818609E-02  0.8113459E-01
        3   -1    0    0  501    0  0.00000000000E+00  0.00000000000E+00  0.21611009158E+04  0.21611009182E+04  0.10100000352E+00 0.  1.
       -3   -1    0    0    0  501  0.00000000000E+00  0.00000000000E+00 -0.14182316129E+04  0.14182316165E+04  0.10100000352E+00 0. -1.
    10030    2    1    2    0    0  0.00000000000E+00  0.00000000000E+00  0.74286930294E+03  0.35793325346E+04  0.35013949495E+04 0.  0.
        4    1    3    3  502    0 -0.75216521888E+03 -0.10804173991E+04 -0.80832743476E+03  0.15448136223E+04  0.12699999809E+01 0. -1.
       -4    1    3    3    0  502  0.75216521888E+03  0.10804173991E+04  0.15511967377E+04  0.20345189124E+04  0.12699999809E+01 0.  1.
</event>
<event>
 5   0  0.3467834E-08  0.3499523E+04  0.7818609E-02  0.8113903E-01
       -2   -1    0    0    0  501  0.00000000000E+00  0.00000000000E+00  0.11135155059E+04  0.11135155059E+04  0.25500000920E-02 0. -1.
        2   -1    0    0  501    0  0.00000000000E+00  0.00000000000E+00 -0.27495494520E+04  0.27495494520E+04  0.25500000920E-02 0.  1.
    10030    2    1    2    0    0  0.00000000000E+00  0.00000000000E+00 -0.16360339461E+04  0.38630649579E+04  0.34995233670E+04 0.  0.
        3    1    3    3  502    0 -0.52166697898E+03  0.15758171415E+04 -0.14289839880E+04  0.21902811118E+04  0.10100000352E+00 0. -1.
       -3    1    3    3    0  502  0.52166697898E+03 -0.15758171415E+04 -0.20704995804E+03  0.16727838461E+04  0.10100000352E+00 0.  1.
</event>
<event>
 5   0  0.3700096E-08  0.3496072E+04  0.7818609E-02  0.8114721E-01
        2   -1    0    0  501    0  0.00000000000E+00  0.00000000000E+00  0.24978577586E+04  0.24978577586E+04  0.25500000920E-02 0.  1.
       -2   -1    0    0    0  501  0.00000000000E+00  0.00000000000E+00 -0.12233005197E+04  0.12233005198E+04  0.25500000920E-02 0. -1.
    10030    2    1    2    0    0  0.00000000000E+00  0.00000000000E+00  0.12745572388E+04  0.37211582783E+04  0.34960724788E+04 0.  0.
        4    1    3    3  502    0  0.67135258069E+02 -0.89514769169E+03  0.22337929203E+04  0.24074112562E+04  0.12699999809E+01 0.  1.
       -4    1    3    3    0  502 -0.67135258069E+02  0.89514769169E+03 -0.95923568143E+03  0.13137470222E+04  0.12699999809E+01 0. -1.
</event>
<event>
 5   0  0.3467834E-08  0.3498849E+04  0.7818609E-02  0.8114063E-01
       -2   -1    0    0    0  501  0.00000000000E+00  0.00000000000E+00  0.99704077938E+03  0.99704077939E+03  0.25500000920E-02 0.  1.
        2   -1    0    0  501    0  0.00000000000E+00  0.00000000000E+00 -0.30695688388E+04  0.30695688388E+04  0.25500000920E-02 0. -1.
    10030    2    1    2    0    0  0.00000000000E+00  0.00000000000E+00 -0.20725280595E+04  0.40666096182E+04  0.34988485577E+04 0.  0.
        3    1    3    3  502    0  0.11186844049E+04 -0.10398357442E+04 -0.20277921759E+04  0.25386323664E+04  0.10100000352E+00 0. -1.
       -3    1    3    3    0  502 -0.11186844049E+04  0.10398357442E+04 -0.44735883555E+02  0.15279772519E+04  0.10100000352E+00 0.  1.
</event>
<event>
 5   0  0.3628017E-08  0.3501269E+04  0.7818609E-02  0.8113489E-01
        2   -1    0    0  501    0  0.00000000000E+00  0.00000000000E+00  0.21481589887E+04  0.21481589887E+04  0.25500000920E-02 0.  1.
       -2   -1    0    0    0  501  0.00000000000E+00  0.00000000000E+00 -0.14266729544E+04  0.14266729544E+04  0.25500000920E-02 0. -1.
    10030    2    1    2    0    0  0.00000000000E+00  0.00000000000E+00  0.72148603434E+03  0.35748319431E+04  0.35012685306E+04 0.  0.
        1    1    3    3  502    0  0.14851424361E+04 -0.74809739174E+03  0.91943504562E+03  0.19001732990E+04  0.50400001928E-02 0.  1.
       -1    1    3    3    0  502 -0.14851424361E+04  0.74809739174E+03 -0.19794901128E+03  0.16746586441E+04  0.50400001928E-02 0. -1.
</event>
<event>
 5   0  0.1121462E-08  0.3499285E+04  0.7818609E-02  0.8113960E-01
       -1   -1    0    0    0  501  0.00000000000E+00  0.00000000000E+00  0.13617214581E+04  0.13617214581E+04  0.50400001928E-02 0. -1.
        1   -1    0    0  501    0  0.00000000000E+00  0.00000000000E+00 -0.22480721675E+04  0.22480721676E+04  0.50400001928E-02 0.  1.
    10030    2    1    2    0    0  0.00000000000E+00  0.00000000000E+00 -0.88635070946E+03  0.36097936257E+04  0.34992845611E+04 0.  0.
        2    1    3    3  502    0 -0.13003222805E+04 -0.11391863740E+04 -0.72125180061E+03  0.18731758561E+04  0.25500000920E-02 0.  1.
       -2    1    3    3    0  502  0.13003222805E+04  0.11391863740E+04 -0.16509890885E+03  0.17366177696E+04  0.25500000920E-02 0. -1.
</event>
<event>
 5   0  0.1121462E-08  0.3499423E+04  0.7818609E-02  0.8113927E-01
       -1   -1    0    0    0  501  0.00000000000E+00  0.00000000000E+00  0.19788783563E+04  0.19788783563E+04  0.50400001928E-02 0. -1.
        1   -1    0    0  501    0  0.00000000000E+00  0.00000000000E+00 -0.15470834762E+04  0.15470834762E+04  0.50400001928E-02 0.  1.
    10030    2    1    2    0    0  0.00000000000E+00  0.00000000000E+00  0.43179488013E+03  0.35259618325E+04  0.34994228132E+04 0.  0.
        4    1    3    3  502    0 -0.85476238179E+02  0.11750928412E+04  0.15192837570E+04  0.19225956725E+04  0.12699999809E+01 0. -1.
       -4    1    3    3    0  502  0.85476238179E+02 -0.11750928412E+04 -0.10874888768E+04  0.16033661600E+04  0.12699999809E+01 0.  1.
</event>
<event>
 5   0  0.3554451E-08  0.3498571E+04  0.7818609E-02  0.8114129E-01
       -2   -1    0    0    0  501  0.00000000000E+00  0.00000000000E+00  0.18382228875E+04  0.18382228875E+04  0.25500000920E-02 0. -1.
        2   -1    0    0  501    0  0.00000000000E+00  0.00000000000E+00 -0.16646509586E+04  0.16646509586E+04  0.25500000920E-02 0.  1.
    10030    2    1    2    0    0  0.00000000000E+00  0.00000000000E+00  0.17357192885E+03  0.35028738461E+04  0.34985708463E+04 0.  0.
        5    1    3    3  502    0  0.36416724495E+02 -0.80493155489E+03  0.16413502571E+04  0.18284675940E+04  0.46999998093E+01 0. -1.
       -5    1    3    3    0  502 -0.36416724495E+02  0.80493155489E+03 -0.14677783283E+04  0.16744062520E+04  0.46999998093E+01 0.  1.
</event>
<event>
 5   0  0.1121462E-08  0.3499574E+04  0.7818609E-02  0.8113891E-01
       -1   -1    0    0    0  501  0.00000000000E+00  0.00000000000E+00  0.26649009514E+04  0.26649009514E+04  0.50400001928E-02 0. -1.
        1   -1    0    0  501    0  0.00000000000E+00  0.00000000000E+00 -0.11489183904E+04  0.11489183904E+04  0.50400001928E-02 0.  1.
    10030    2    1    2    0    0  0.00000000000E+00  0.00000000000E+00  0.15159825610E+04  0.38138193418E+04  0.34995735236E+04 0.  0.
        1    1    3    3  502    0  0.16106626418E+04  0.22364381757E+03  0.53825689313E+02  0.16270058106E+04  0.50400001928E-02 0. -1.
       -1    1    3    3    0  502 -0.16106626418E+04 -0.22364381757E+03  0.14621568717E+04  0.21868135312E+04  0.50400001928E-02 0.  1.
</event>
<event>
 5   0  0.1121462E-08  0.3500597E+04  0.7818609E-02  0.8113649E-01
       -1   -1    0    0    0  501  0.00000000000E+00  0.00000000000E+00  0.14831158809E+04  0.14831158809E+04  0.50400001928E-02 0. -1.
        1   -1    0    0  501    0  0.00000000000E+00  0.00000000000E+00 -0.20656135649E+04  0.20656135649E+04  0.50400001928E-02 0.  1.
    10030    2    1    2    0    0  0.00000000000E+00  0.00000000000E+00 -0.58249768400E+03  0.35487294458E+04  0.35005966816E+04 0.  0.
        4    1    3    3  502    0 -0.48877344512E+03  0.16541192231E+04 -0.59288463430E+03  0.18238760066E+04  0.12699999809E+01 0. -1.
       -4    1    3    3    0  502  0.48877344512E+03 -0.16541192231E+04  0.10386950292E+02  0.17248534392E+04  0.12699999809E+01 0.  1.
</event>
<event>
 5   0  0.1129219E-08  0.3500330E+04  0.7818609E-02  0.8113712E-01
       -1   -1    0    0    0  501  0.00000000000E+00  0.00000000000E+00  0.13835653229E+04  0.13835653229E+04  0.50400001928E-02 0. -1.
        1   -1    0    0  501    0  0.00000000000E+00  0.00000000000E+00 -0.22139010022E+04  0.22139010022E+04  0.50400001928E-02 0.  1.
    10030    2    1    2    0    0  0.00000000000E+00  0.00000000000E+00 -0.83033567925E+03  0.35974663251E+04  0.35003295017E+04 0.  0.
        5    1    3    3  502    0  0.16692203592E+04 -0.61319601226E+02 -0.95215936683E+03  0.19226768452E+04  0.46999998093E+01 0. -1.
       -5    1    3    3    0  502 -0.16692203592E+04  0.61319601226E+02  0.12182368758E+03  0.16747894799E+04  0.46999998093E+01 0.  1.
</event>
<event>
 5   0  0.3700096E-08  0.3499077E+04  0.7818609E-02  0.8114009E-01
        2   -1    0    0  501    0  0.00000000000E+00  0.00000000000E+00  0.27325951933E+04  0.27325951933E+04  0.25500000920E-02 0.  1.
       -2   -1    0    0    0  501  0.00000000000E+00  0.00000000000E+00 -0.11201384355E+04  0.11201384355E+04  0.25500000920E-02 0. -1.
    10030    2    1    2    0    0  0.00000000000E+00  0.00000000000E+00  0.16124567578E+04  0.38527336288E+04  0.34990769667E+04 0.  0.
        4    1    3    3  502    0  0.36022948736E+03  0.91954715168E+03  0.23963337337E+04  0.25918621152E+04  0.12699999809E+01 0.  1.
       -4    1    3    3    0  502 -0.36022948736E+03 -0.91954715168E+03 -0.78387697589E+03  0.12608715137E+04  0.12699999809E+01 0. -1.
</event>
<event>
 5   0  0.1121462E-08  0.3496003E+04  0.7818609E-02  0.8114738E-01
       -1   -1    0    0    0  501  0.00000000000E+00  0.00000000000E+00  0.18706675275E+04  0.18706675275E+04  0.50400001928E-02 0.  1.
        1   -1    0    0  501    0  0.00000000000E+00  0.00000000000E+00 -0.16333795596E+04  0.16333795596E+04  0.50400001928E-02 0. -1.
    10030    2    1    2    0    0  0.00000000000E+00  0.00000000000E+00  0.23728796795E+03  0.35040470871E+04  0.34960034909E+04 0.  0.
        1    1    3    3  502    0  0.36102087443E+03  0.15452340160E+04  0.85342403774E+03  0.18017815695E+04  0.50400001928E-02 0.  1.
       -1    1    3    3    0  502 -0.36102087443E+03 -0.15452340160E+04 -0.61613606979E+03  0.17022655176E+04  0.50400001928E-02 0. -1.
</event>
<event>
 5   0  0.3553585E-08  0.3498989E+04  0.7818609E-02  0.8114029E-01
       -2   -1    0    0    0  501  0.00000000000E+00  0.00000000000E+00  0.14640106318E+04  0.14640106318E+04  0.25500000920E-02 0. -1.
        2   -1    0    0  501    0  0.00000000000E+00  0.00000000000E+00 -0.20906486506E+04  0.20906486506E+04  0.25500000920E-02 0.  1.
    10030    2    1    2    0    0  0.00000000000E+00  0.00000000000E+00 -0.62663801878E+03  0.35546592825E+04  0.34989894838E+04 0.  0.
        2    1    3    3  502    0  0.11458940009E+02  0.16122919131E+04  0.37653965537E+03  0.16557169542E+04  0.25500000920E-02 0. -1.
       -2    1    3    3    0  502 -0.11458940009E+02 -0.16122919131E+04 -0.10031776742E+04  0.18989423283E+04  0.25500000920E-02 0.  1.
</event>
<event>
 5   0  0.3554451E-08  0.3499606E+04  0.7818609E-02  0.8113883E-01
        2   -1    0    0  501    0  0.00000000000E+00  0.00000000000E+00  0.15658150963E+04  0.15658150963E+04  0.25500000920E-02 0. -1.
       -2   -1    0    0    0  501  0.00000000000E+00  0.00000000000E+00 -0.19554099500E+04  0.19554099500E+04  0.25500000920E-02 0.  1.
    10030    2    1    2    0    0  0.00000000000E+00  0.00000000000E+00 -0.38959485364E+03  0.35212250463E+04  0.34996059316E+04 0.  0.
        5    1    3    3  502    0  0.13900413284E+04  0.99247974996E+03 -0.57735321125E+03  0.18029392029E+04  0.46999998093E+01 0.  1.
       -5    1    3    3    0  502 -0.13900413284E+04 -0.99247974996E+03  0.18775835761E+03  0.17182858434E+04  0.46999998093E+01 0. -1.
</event>
<event>
 5   0  0.1140808E-08  0.3501121E+04  0.7818609E-02  0.8113524E-01
       -1   -1    0    0    0  501  0.00000000000E+00  0.00000000000E+00  0.12200515328E+04  0.12200515328E+04  0.50400001928E-02 0.  1.
        1   -1    0    0  501    0  0.00000000000E+00  0.00000000000E+00 -0.25117479315E+04  0.25117479315E+04  0.50400001928E-02 0. -1.
    10030    2    1    2    0    0  0.00000000000E+00  0.00000000000E+00 -0.12916963988E+04  0.37317994643E+04  0.35011209141E+04 0.  0.
        3    1    3    3  502    0 -0.21874347723E+03  0.80619156485E+03  0.99391029837E+03  0.12983263224E+04  0.10100000352E+00 0.  1.
       -3    1    3    3    0  502  0.21874347723E+03 -0.80619156485E+03 -0.22856066971E+04  0.24334731419E+04  0.10100000352E+00 0. -1.
</event>
<event>
 5   0  0.1129219E-08  0.3499796E+04  0.7818609E-02  0.8113838E-01
       -1   -1    0    0    0  501  0.00000000000E+00  0.00000000000E+00  0.17623966245E+04  0.17623966245E+04  0.50400001928E-02 0.  1.
        1   -1    0    0  501    0  0.00000000000E+00  0.00000000000E+00 -0.17374879579E+04  0.17374879579E+04  0.50400001928E-02 0. -1.
    10030    2    1    2    0    0  0.00000000000E+00  0.00000000000E+00  0.24908666560E+02  0.34998845824E+04  0.34997959439E+04 0.  0.
        5    1    3    3  502    0 -0.11166259916E+04 -0.52605101857E+03 -0.12279550654E+04  0.17411143018E+04  0.46999998093E+01 0. -1.
       -5    1    3    3    0  502  0.11166259916E+04  0.52605101857E+03  0.12528637320E+04  0.17587702806E+04  0.46999998093E+01 0.  1.
</event>
<event>
 5   0  0.3553585E-08  0.3499629E+04  0.7818609E-02  0.8113878E-01
        2   -1    0    0  501    0  0.00000000000E+00  0.00000000000E+00  0.17754155922E+04  0.17754155922E+04  0.25500000920E-02 0.  1.
       -2   -1    0    0    0  501  0.00000000000E+00  0.00000000000E+00 -0.17245829361E+04  0.17245829361E+04  0.25500000920E-02 0. -1.
    10030    2    1    2    0    0  0.00000000000E+00  0.00000000000E+00  0.50832656090E+02  0.34999985284E+04  0.34996293717E+04 0.  0.
        2    1    3    3  502    0  0.13251465858E+04 -0.11425052240E+04  0.26153649278E+01  0.17496681116E+04  0.25500000920E-02 0.  1.
       -2    1    3    3    0  502 -0.13251465858E+04  0.11425052240E+04  0.48217291162E+02  0.17503304168E+04  0.25500000920E-02 0. -1.
</event>
<event>
 5   0  0.1121462E-08  0.3499219E+04  0.7818609E-02  0.8113975E-01
        1   -1    0    0  501    0  0.00000000000E+00  0.00000000000E+00  0.13745825458E+04  0.13745825458E+04  0.50400001928E-02 0.  1.
       -1   -1    0    0    0  501  0.00000000000E+00  0.00000000000E+00 -0.22269546035E+04  0.22269546035E+04  0.50400001928E-02 0. -1.
    10030    2    1    2    0    0  0.00000000000E+00  0.00000000000E+00 -0.85237205771E+03  0.36015371493E+04  0.34992187290E+04 0.  0.
        4    1    3    3  502    0 -0.25815201906E+03 -0.18407858505E+03  0.13447666795E+04  0.13816390359E+04  0.12699999809E+01 0.  1.
       -4    1    3    3    0  502  0.25815201906E+03  0.18407858505E+03 -0.21971387372E+04  0.22198981134E+04  0.12699999809E+01 0. -1.
</event>
<event>
 5   0  0.3467834E-08  0.3500430E+04  0.7818609E-02  0.8113688E-01
       -2   -1    0    0    0  501  0.00000000000E+00  0.00000000000E+00  0.13742377504E+04  0.13742377504E+04  0.25500000920E-02 0. -1.
        2   -1    0    0  501    0  0.00000000000E+00  0.00000000000E+00 -0.22290558266E+04  0.22290558266E+04  0.25500000920E-02 0.  1.
    10030    2    1    2    0    0  0.00000000000E+00  0.00000000000E+00 -0.85481807618E+03  0.36032935770E+04  0.35004300677E+04 0.  0.
        3    1    3    3  502    0  0.66582992665E+03 -0.16154141025E+04 -0.53218637475E+03  0.18265033703E+04  0.10100000352E+00 0.  1.
       -3    1    3    3    0  502 -0.66582992665E+03  0.16154141025E+04 -0.32263170144E+03  0.17767902068E+04  0.10100000352E+00 0. -1.
</event>
<event>
 5   0  0.3554451E-08  0.3490912E+04  0.7818609E-02  0.8115947E-01
        2   -1    0    0  501    0  0.00000000000E+00  0.00000000000E+00  0.16054466324E+04  0.16054466324E+04  0.25500000920E-02 0.  1.
       -2   -1    0    0    0  501  0.00000000000E+00  0.00000000000E+00 -0.18976755763E+04  0.18976755763E+04  0.25500000920E-02 0. -1.
    10030    2    1    2    0    0  0.00000000000E+00  0.00000000000E+00 -0.29222894386E+03  0.35031222087E+04  0.34909121234E+04 0.  0.
        5    1    3    3  502    0  0.82717298590E+03 -0.63224571581E+03  0.12597298968E+04  0.16342861734E+04  0.46999998093E+01 0.  1.
       -5    1    3    3    0  502 -0.82717298590E+03  0.63224571581E+03 -0.15519588407E+04  0.18688360353E+04  0.46999998093E+01 0. -1.
</event>
<event>
 5   0  0.3628017E-08  0.3502758E+04  0.7818609E-02  0.8113137E-01
        2   -1    0    0  501    0  0.00000000000E+00  0.00000000000E+00  0.16154036019E+04  0.16154036019E+04  0.25500000920E-02 0. -1.
       -2   -1    0    0    0  501  0.00000000000E+00  0.00000000000E+00 -0.18988000364E+04  0.18988000364E+04  0.25500000920E-02 0.  1.
    10030    2    1    2    0    0  0.00000000000E+00  0.00000000000E+00 -0.28339643447E+03  0.35142036382E+04  0.35027580093E+04 0.  0.
        1    1    3    3  502    0  0.12527487480E+04 -0.79627885278E+03 -0.10741915954E+04  0.18323010181E+04  0.50400001928E-02 0.  1.
       -1    1    3    3    0  502 -0.12527487480E+04  0.79627885278E+03  0.79079516097E+03  0.16819026202E+04  0.50400001928E-02 0. -1.
</event>
<event>
 5   0  0.1121462E-08  0.3500667E+04  0.7818609E-02  0.8113632E-01
        1   -1    0    0  501    0  0.00000000000E+00  0.00000000000E+00  0.22155692057E+04  0.22155692057E+04  0.50400001928E-02 0.  1.
       -1   -1    0    0    0  501  0.00000000000E+00  0.00000000000E+00 -0.13827898264E+04  0.13827898264E+04  0.50400001928E-02 0. -1.
    10030    2    1    2    0    0  0.00000000000E+00  0.00000000000E+00  0.83277937928E+03  0.35983590321E+04  0.35006665407E+04 0.  0.
        1    1    3    3  502    0 -0.11535620765E+04  0.11503151021E+04  0.10743594721E+04  0.19514555013E+04  0.50400001928E-02 0.  1.
       -1    1    3    3    0  502  0.11535620765E+04 -0.11503151021E+04 -0.24158009286E+03  0.16469035307E+04  0.50400001928E-02 0. -1.
</event>
<event>
 5   0  0.3628017E-08  0.3498982E+04  0.7818609E-02  0.8114031E-01
        2   -1    0    0  501    0  0.00000000000E+00  0.00000000000E+00  0.23976442986E+04  0.23976442986E+04  0.25500000920E-02 0. -1.
       -2   -1    0    0    0  501  0.00000000000E+00  0.00000000000E+00 -0.12765523018E+04  0.12765523018E+04  0.25500000920E-02 0.  1.
    10030    2    1    2    0    0  0.00000000000E+00  0.00000000000E+00  0.11210919969E+04  0.36741966004E+04  0.34989817651E+04 0.  0.
        1    1    3    3  502    0 -0.95819405498E+02 -0.17415315823E+04  0.70377550127E+03  0.18808013098E+04  0.50400001928E-02 0.  1.
       -1    1    3    3    0  502  0.95819405498E+02  0.17415315823E+04  0.41731649559E+03  0.17933952906E+04  0.50400001928E-02 0. -1.
</event>
<event>
 5   0  0.1121462E-08  0.3498023E+04  0.7818609E-02  0.8114259E-01
        1   -1    0    0  501    0  0.00000000000E+00  0.00000000000E+00  0.10081088621E+04  0.10081088621E+04  0.50400001928E-02 0. -1.
       -1   -1    0    0    0  501  0.00000000000E+00  0.00000000000E+00 -0.30344351093E+04  0.30344351093E+04  0.50400001928E-02 0.  1.
    10030    2    1    2    0    0  0.00000000000E+00  0.00000000000E+00 -0.20263262473E+04  0.40425439714E+04  0.34980228274E+04 0.  0.
        1    1    3    3  502    0 -0.23058546261E+03 -0.11770428984E+04  0.45795912276E+03  0.12838715661E+04  0.50400001928E-02 0. -1.
       -1    1    3    3    0  502  0.23058546261E+03  0.11770428984E+04 -0.24842853700E+04  0.27586724053E+04  0.50400001928E-02 0.  1.
</event>
<event>
 5   0  0.3700096E-08  0.3499463E+04  0.7818609E-02  0.8113917E-01
       -2   -1    0    0    0  501  0.00000000000E+00  0.00000000000E+00  0.13497141538E+04  0.13497141538E+04  0.25500000920E-02 0.  1.
        2   -1    0    0  501    0  0.00000000000E+00  0.00000000000E+00 -0.22683030109E+04  0.22683030109E+04  0.25500000920E-02 0. -1.
    10030    2    1    2    0    0  0.00000000000E+00  0.00000000000E+00 -0.91858885712E+03  0.36180171646E+04  0.34994632039E+04 0.  0.
        4    1    3    3  502    0 -0.12912345080E+04  0.59000162675E+03 -0.15167702479E+04  0.20774941809E+04  0.12699999809E+01 0.  1.
       -4    1    3    3    0  502  0.12912345080E+04 -0.59000162675E+03  0.59818139074E+03  0.15405229837E+04  0.12699999809E+01 0. -1.
</event>
<event>
 5   0  0.1121462E-08  0.3499152E+04  0.7818609E-02  0.8113991E-01
        1   -1    0    0  501    0  0.00000000000E+00  0.00000000000E+00  0.15875088142E+04  0.15875088142E+04  0.50400001928E-02 0.  1.
       -1   -1    0    0    0  501  0.00000000000E+00  0.00000000000E+00 -0.19281886222E+04  0.19281886222E+04  0.50400001928E-02 0. -1.
    10030    2    1    2    0    0  0.00000000000E+00  0.00000000000E+00 -0.34067980803E+03  0.35156974364E+04  0.34991521449E+04 0.  0.
        1    1    3    3  502    0  0.13580246992E+03 -0.16724252964E+04 -0.66823096817E+03  0.18060955982E+04  0.50400001928E-02 0. -1.
       -1    1    3    3    0  502 -0.13580246992E+03  0.16724252964E+04  0.32755116014E+03  0.17096018383E+04  0.50400001928E-02 0.  1.
</event>
<event>
 5   0  0.3554451E-08  0.3498692E+04  0.7818609E-02  0.8114100E-01
       -2   -1    0    0    0  501  0.00000000000E+00  0.00000000000E+00  0.17464946910E+04  0.17464946910E+04  0.25500000920E-02 0.  1.
        2   -1    0    0  501    0  0.00000000000E+00  0.00000000000E+00 -0.17522023451E+04  0.17522023451E+04  0.25500000920E-02 0. -1.
    10030    2    1    2    0    0  0.00000000000E+00  0.00000000000E+00 -0.57076540526E+01  0.34986970361E+04  0.34986923805E+04 0.  0.
        5    1    3    3  502    0 -0.93472014028E+02  0.20307000218E+02  0.17438713178E+04  0.17464989707E+04  0.46999998093E+01 0.  1.
       -5    1    3    3    0  502  0.93472014028E+02 -0.20307000218E+02 -0.17495789719E+04  0.17521980654E+04  0.46999998093E+01 0. -1.
</event>
<event>
 5   0  0.3554451E-08  0.3498584E+04  0.7818609E-02  0.8114126E-01
       -2   -1    0    0    0  501  0.00000000000E+00  0.00000000000E+00  0.14983271249E+04  0.14983271249E+04  0.25500000920E-02 0. -1.
        2   -1    0    0  501    0  0.00000000000E+00  0.00000000000E+00 -0.20422930210E+04  0.20422930210E+04  0.25500000920E-02 0.  1.
    10030    2    1    2    0    0  0.00000000000E+00  0.00000000000E+00 -0.54396589611E+03  0.35406201459E+04  0.34985843024E+04 0.  0.
        5    1    3    3  502    0 -0.14865304065E+04 -0.51895802765E+02  0.65969505898E+03  0.16271710066E+04  0.46999998093E+01 0. -1.
       -5    1    3    3    0  502  0.14865304065E+04  0.51895802765E+02 -0.12036609551E+04  0.19134491393E+04  0.46999998093E+01 0.  1.
</event>
<event>
 5   0  0.3553585E-08  0.3492348E+04  0.7818609E-02  0.8115606E-01
       -2   -1    0    0    0  501  0.00000000000E+00  0.00000000000E+00  0.14648086820E+04  0.14648086820E+04  0.25500000920E-02 0.  1.
        2   -1    0    0  501    0  0.00000000000E+00  0.00000000000E+00 -0.20815843106E+04  0.20815843106E+04  0.25500000920E-02 0. -1.
    10030    2    1    2    0    0  0.00000000000E+00  0.00000000000E+00 -0.61677562857E+03  0.35463929926E+04  0.34923475031E+04 0.  0.
        2    1    3    3  502    0  0.21031259601E+03  0.15541016200E+04 -0.10881641881E+04  0.19088123359E+04  0.25500000920E-02 0. -1.
       -2    1    3    3    0  502 -0.21031259601E+03 -0.15541016200E+04  0.47138855951E+03  0.16375806568E+04  0.25500000920E-02 0.  1.
</event>
<event>
 5   0  0.3553585E-08  0.3500752E+04  0.7818609E-02  0.8113612E-01
        2   -1    0    0  501    0  0.00000000000E+00  0.00000000000E+00  0.27236666938E+04  0.27236666938E+04  0.25500000920E-02 0. -1.
       -2   -1    0    0    0  501  0.00000000000E+00  0.00000000000E+00 -0.11248869101E+04  0.11248869101E+04  0.25500000920E-02 0.  1.
    10030    2    1    2    0    0  0.00000000000E+00  0.00000000000E+00  0.15987797838E+04  0.38485536039E+04  0.35007524969E+04 0.  0.
        2    1    3    3  502    0 -0.40146393551E+03 -0.16228813491E+04  0.13694641224E+04  0.21610990601E+04  0.25500000920E-02 0. -1.
       -2    1    3    3    0  502  0.40146393551E+03  0.16228813491E+04  0.22931566133E+03  0.16874545438E+04  0.25500000920E-02 0.  1.
</event>
<event>
 5   0  0.3628017E-08  0.3481661E+04  0.7818609E-02  0.8118150E-01
       -2   -1    0    0    0  501  0.00000000000E+00  0.00000000000E+00  0.13917973277E+04  0.13917973277E+04  0.25500000920E-02 0. -1.
        2   -1    0    0  501    0  0.00000000000E+00  0.00000000000E+00 -0.21773933244E+04  0.21773933244E+04  0.25500000920E-02 0.  1.
    10030    2    1    2    0    0  0.00000000000E+00  0.00000000000E+00 -0.78559599665E+03  0.35691906521E+04  0.34816606441E+04 0.  0.
        1    1    3    3  502    0 -0.12950464629E+04 -0.78247557685E+03  0.48970243890E+03  0.15903527433E+04  0.50400001928E-02 0. -1.
       -1    1    3    3    0  502  0.12950464629E+04  0.78247557685E+03 -0.12752984355E+04  0.19788379088E+04  0.50400001928E-02 0.  1.
</event>
<event>
 5   0  0.1129219E-08  0.3500199E+04  0.7818609E-02  0.8113743E-01
       -1   -1    0    0    0  501  0.00000000000E+00  0.00000000000E+00  0.16223207892E+04  0.16223207892E+04  0.50400001928E-02 0. -1.
        1   -1    0    0  501    0  0.00000000000E+00  0.00000000000E+00 -0.18879422385E+04  0.18879422385E+04  0.50400001928E-02 0.  1.
    10030    2    1    2    0    0  0.00000000000E+00  0.00000000000E+00 -0.26562144931E+03  0.35102630277E+04  0.35001988185E+04 0.  0.
        5    1    3    3  502    0 -0.10012176542E+04 -0.53439958588E+03 -0.14688597904E+04  0.18562302880E+04  0.46999998093E+01 0.  1.
       -5    1    3    3    0  502  0.10012176542E+04  0.53439958588E+03  0.12032383410E+04  0.16540327397E+04  0.46999998093E+01 0. -1.
</event>
<event>
 5   0  0.1140808E-08  0.3498769E+04  0.7818609E-02  0.8114082E-01
       -1   -1    0    0    0  501  0.00000000000E+00  0.00000000000E+00  0.15166843872E+04  0.15166843872E+04  0.50400001928E-02 0. -1.
        1   -1    0    0  501    0  0.00000000000E+00  0.00000000000E+00 -0.20177868041E+04  0.20177868041E+04  0.50400001928E-02 0.  1.
    10030    2    1    2    0    0  0.00000000000E+00  0.00000000000E+00 -0.50110241695E+03  0.35344711913E+04  0.34987687792E+04 0.  0.
        3    1    3    3  502    0  0.10385899268E+04 -0.23547455687E+03  0.11514974876E+04  0.15684590454E+04  0.10100000352E+00 0. -1.
       -3    1    3    3    0  502 -0.10385899268E+04  0.23547455687E+03 -0.16525999046E+04  0.19660121459E+04  0.10100000352E+00 0.  1.
</event>
<event>
 5   0  0.3467834E-08  0.3499993E+04  0.7818609E-02  0.8113792E-01
       -2   -1    0    0    0  501  0.00000000000E+00  0.00000000000E+00  0.11990237340E+04  0.11990237340E+04  0.25500000920E-02 0.  1.
        2   -1    0    0  501    0  0.00000000000E+00  0.00000000000E+00 -0.25541503726E+04  0.25541503726E+04  0.25500000920E-02 0. -1.
    10030    2    1    2    0    0  0.00000000000E+00  0.00000000000E+00 -0.13551266386E+04  0.37531741065E+04  0.34999925239E+04 0.  0.
        3    1    3    3  502    0 -0.91705167801E+03 -0.31960454511E+03 -0.22386735069E+04  0.24402438251E+04  0.10100000352E+00 0. -1.
       -3    1    3    3    0  502  0.91705167801E+03  0.31960454511E+03  0.88354686822E+03  0.13129302814E+04  0.10100000352E+00 0.  1.
</event>
<event>
 5   0  0.1121462E-08  0.3504849E+04  0.7818609E-02  0.8112642E-01
        1   -1    0    0  501    0  0.00000000000E+00  0.00000000000E+00  0.21964942092E+04  0.21964942092E+04  0.50400001928E-02 0.  1.
       -1   -1    0    0    0  501  0.00000000000E+00  0.00000000000E+00 -0.13981333348E+04  0.13981333348E+04  0.50400001928E-02 0. -1.
    10030    2    1    2    0    0  0.00000000000E+00  0.00000000000E+00  0.79836087442E+03  0.35946275439E+04  0.35048490829E+04 0.  0.
        1    1    3    3  502    0  0.67574048708E+02  0.40465089306E+02  0.21946779249E+04  0.21960908154E+04  0.50400001928E-02 0.  1.
       -1    1    3    3    0  502 -0.67574048708E+02 -0.40465089306E+02 -0.13963170505E+04  0.13985367285E+04  0.50400001928E-02 0. -1.
</event>
<event>
 5   0  0.3553585E-08  0.3500480E+04  0.7818609E-02  0.8113676E-01
        2   -1    0    0  501    0  0.00000000000E+00  0.00000000000E+00  0.19988659099E+04  0.19988659099E+04  0.25500000920E-02 0. -1.
       -2   -1    0    0    0  501  0.00000000000E+00  0.00000000000E+00 -0.15325389394E+04  0.15325389394E+04  0.25500000920E-02 0.  1.
    10030    2    1    2    0    0  0.00000000000E+00  0.00000000000E+00  0.46632697058E+03  0.35314048493E+04  0.35004798765E+04 0.  0.
        2    1    3    3  502    0  0.17385493795E+04  0.16632953460E+03  0.11760730617E+03  0.17504430689E+04  0.25500000920E-02 0. -1.
       -2    1    3    3    0  502 -0.17385493795E+04 -0.16632953460E+03  0.34871966441E+03  0.17809617804E+04  0.25500000920E-02 0.  1.
</event>
<event>
 5   0  0.1121462E-08  0.3500416E+04  0.7818609E-02  0.8113691E-01
        1   -1    0    0  501    0  0.00000000000E+00  0.00000000000E+00  0.19023026186E+04  0.19023026186E+04  0.50400001928E-02 0. -1.
       -1   -1    0    0    0  501  0.00000000000E+00  0.00000000000E+00 -0.16102740771E+04  0.16102740771E+04  0.50400001928E-02 0.  1.
    10030    2    1    2    0    0  0.00000000000E+00  0.00000000000E+00  0.29202854146E+03  0.35125766957E+04  0.35004163144E+04 0.  0.
        4    1    3    3  502    0 -0.19407664364E+03 -0.45045157345E+03  0.18319266000E+04  0.18964516983E+04  0.12699999809E+01 0. -1.
       -4    1    3    3    0  502  0.19407664364E+03  0.45045157345E+03 -0.15398980585E+04  0.16161249974E+04  0.12699999809E+01 0.  1.
</event>
<event>
 5   0  0.1121462E-08  0.3500244E+04  0.7818609E-02  0.8113732E-01
       -1   -1    0    0    0  501  0.00000000000E+00  0.00000000000E+00  0.20456085737E+04  0.20456085737E+04  0.50400001928E-02 0.  1.
        1   -1    0    0  501    0  0.00000000000E+00  0.00000000000E+00 -0.14973186455E+04  0.14973186455E+04  0.50400001928E-02 0. -1.
    10030    2    1    2    0    0  0.00000000000E+00  0.00000000000E+00  0.54828992819E+03  0.35429272193E+04  0.35002444823E+04 0.  0.
        1    1    3    3  502    0  0.11027184720E+04  0.78105605895E+03 -0.85157304043E+03  0.15972517770E+04  0.50400001928E-02 0. -1.
       -1    1    3    3    0  502 -0.11027184720E+04 -0.78105605895E+03  0.13998629686E+04  0.19456754423E+04  0.50400001928E-02 0.  1.
</event>
<event>
 5   0  0.1121462E-08  0.3499636E+04  0.7818609E-02  0.8113876E-01
        1   -1    0    0  501    0  0.00000000000E+00  0.00000000000E+00  0.14248414579E+04  0.14248414579E+04  0.50400001928E-02 0. -1.
       -1   -1    0    0    0  501  0.00000000000E+00  0.00000000000E+00 -0.21489154804E+04  0.21489154804E+04  0.50400001928E-02 0.  1.
    10030    2    1    2    0    0  0.00000000000E+00  0.00000000000E+00 -0.72407402244E+03  0.35737569383E+04  0.34996364760E+04 0.  0.
        2    1    3    3  502    0 -0.96285056456E+03  0.13646896852E+04 -0.89501514373E+03  0.18948644422E+04  0.25500000920E-02 0.  1.
       -2    1    3    3    0  502  0.96285056456E+03 -0.13646896852E+04  0.17094112129E+03  0.16788924962E+04  0.25500000920E-02 0. -1.
</event>
<event>
 5   0  0.1129219E-08  0.3500195E+04  0.7818609E-02  0.8113744E-01
        1   -1    0    0  501    0  0.00000000000E+00  0.00000000000E+00  0.16390276120E+04  0.16390276120E+04  0.50400001928E-02 0. -1.
       -1   -1    0    0    0  501  0.00000000000E+00  0.00000000000E+00 -0.18686941396E+04  0.18686941396E+04  0.50400001928E-02 0.  1.
    10030    2    1    2    0    0  0.00000000000E+00  0.00000000000E+00 -0.22966652767E+03  0.35077217516E+04  0.35001950192E+04 0.  0.
        5    1    3    3  502    0  0.12433173442E+04  0.51268905561E+03  0.10074548547E+04  0.16803795584E+04  0.46999998093E+01 0. -1.
       -5    1    3    3    0  502 -0.12433173442E+04 -0.51268905561E+03 -0.12371213823E+04  0.18273421931E+04  0.46999998093E+01 0.  1.
</event>
<event>
 5   0  0.3700096E-08  0.3501378E+04  0.7818609E-02  0.8113463E-01
       -2   -1    0    0    0  501  0.00000000000E+00  0.00000000000E+00  0.17248388542E+04  0.17248388542E+04  0.25500000920E-02 0. -1.
        2   -1    0    0  501    0  0.00000000000E+00  0.00000000000E+00 -0.17769269504E+04  0.17769269504E+04  0.25500000920E-02 0.  1.
    10030    2    1    2    0    0  0.00000000000E+00  0.00000000000E+00 -0.52088096186E+02  0.35017658046E+04  0.35013783830E+04 0.  0.
        4    1    3    3  502    0 -0.60578011231E+02  0.16831615223E+04  0.45172067585E+03  0.17437762435E+04  0.12699999809E+01 0.  1.
       -4    1    3    3    0  502  0.60578011231E+02 -0.16831615223E+04 -0.50380877204E+03  0.17579895612E+04  0.12699999809E+01 0. -1.
</event>
<event>
 5   0  0.3700096E-08  0.3496685E+04  0.7818609E-02  0.8114576E-01
        2   -1    0    0  501    0  0.00000000000E+00  0.00000000000E+00  0.14724136857E+04  0.14724136857E+04  0.25500000920E-02 0. -1.
       -2   -1    0    0    0  501  0.00000000000E+00  0.00000000000E+00 -0.20759800396E+04  0.20759800396E+04  0.25500000920E-02 0.  1.
    10030    2    1    2    0    0  0.00000000000E+00  0.00000000000E+00 -0.60356635391E+03  0.35483937253E+04  0.34966849567E+04 0.  0.
        4    1    3    3  502    0 -0.15565902418E+04 -0.73229025550E+03  0.15047870006E+02  0.17203052783E+04  0.12699999809E+01 0. -1.
       -4    1    3    3    0  502  0.15565902418E+04  0.73229025550E+03 -0.61861422391E+03  0.18280884470E+04  0.12699999809E+01 0.  1.
</event>
<event>
 5   0  0.1121462E-08  0.3502819E+04  0.7818609E-02  0.8113122E-01
        1   -1    0    0  501    0  0.00000000000E+00  0.00000000000E+00  0.21239760997E+04  0.21239760997E+04  0.50400001928E-02 0.  1.
       -1   -1    0    0    0  501  0.00000000000E+00  0.00000000000E+00 -0.14441949632E+04  0.14441949632E+04  0.50400001928E-02 0. -1.
    10030    2    1    2    0    0  0.00000000000E+00  0.00000000000E+00  0.67978113648E+03  0.35681710628E+04  0.35028191989E+04 0.  0.
        2    1    3    3  502    0 -0.15359695713E+04  0.48944506788E+03 -0.35748154176E+03  0.16512274377E+04  0.25500000920E-02 0. -1.
       -2    1    3    3    0  502  0.15359695713E+04 -0.48944506788E+03  0.10372626782E+04  0.19169436251E+04  0.25500000920E-02 0.  1.
</event>
<event>
 5   0  0.3700096E-08  0.3499949E+04  0.7818609E-02  0.8113802E-01
       -2   -1    0    0    0  501  0.00000000000E+00  0.00000000000E+00  0.15919219102E+04  0.15919219102E+04  0.25500000920E-02 0.  1.
        2   -1    0    0  501    0  0.00000000000E+00  0.00000000000E+00 -0.19237194854E+04  0.19237194854E+04  0.25500000920E-02 0. -1.
    10030    2    1    2    0    0  0.00000000000E+00  0.00000000000E+00 -0.33179757524E+03  0.35156413957E+04  0.34999492556E+04 0.  0.
        4    1    3    3  502    0 -0.11860250325E+04  0.49081936316E+03 -0.13607067477E+04  0.18705837301E+04  0.12699999809E+01 0. -1.
       -4    1    3    3    0  502  0.11860250325E+04 -0.49081936316E+03  0.10289091725E+04  0.16450576656E+04  0.12699999809E+01 0.  1.
</event>
<event>
 5   0  0.3628017E-08  0.3500266E+04  0.7818609E-02  0.8113727E-01
        2   -1    0    0  501    0  0.00000000000E+00  0.00000000000E+00  0.26279184471E+04  0.26279184471E+04  0.25500000920E-02 0.  1.
       -2   -1    0    0    0  501  0.00000000000E+00  0.00000000000E+00 -0.11655482838E+04  0.11655482838E+04  0.25500000920E-02 0. -1.
    10030    2    1    2    0    0  0.00000000000E+00  0.00000000000E+00  0.14623701634E+04  0.37934667309E+04  0.35002661818E+04 0.  0.
        1    1    3    3  502    0  0.13566297948E+04  0.10970670984E+04  0.88043500697E+03  0.19542687686E+04  0.50400001928E-02 0.  1.
       -1    1    3    3    0  502 -0.13566297948E+04 -0.10970670984E+04  0.58193515642E+03  0.18391979623E+04  0.50400001928E-02 0. -1.
</event>
<event>
 5   0  0.3700096E-08  0.3500511E+04  0.7818609E-02  0.8113669E-01
        2   -1    0    0  501    0  0.00000000000E+00  0.00000000000E+00  0.19320930656E+04  0.19320930656E+04  0.25500000920E-02 0.  1.
       -2   -1    0    0    0  501  0.00000000000E+00  0.00000000000E+00 -0.15855314502E+04  0.15855314502E+04  0.25500000920E-02 0. -1.
    10030    2    1    2    0    0  0.00000000000E+00  0.00000000000E+00  0.34656161539E+03  0.35176245159E+04  0.35005110029E+04 0.  0.
        4    1    3    3  502    0 -0.14157236416E+04  0.82506182313E+03  0.79142409589E+03  0.18197126569E+04  0.12699999809E+01 0.  1.
       -4    1    3    3    0  502  0.14157236416E+04 -0.82506182313E+03 -0.44486248049E+03  0.16979118589E+04  0.12699999809E+01 0. -1.
</event>
<event>
 5   0  0.1129219E-08  0.3503468E+04  0.7818609E-02  0.8112968E-01
       -1   -1    0    0    0  501  0.00000000000E+00  0.00000000000E+00  0.33960002466E+04  0.33960002466E+04  0.50400001928E-02 0. -1.
        1   -1    0    0  501    0  0.00000000000E+00  0.00000000000E+00 -0.90358436878E+03  0.90358436880E+03  0.50400001928E-02 0.  1.
    10030    2    1    2    0    0  0.00000000000E+00  0.00000000000E+00  0.24924158778E+04  0.42995846154E+04  0.35034684181E+04 0.  0.
        5    1    3    3  502    0  0.53979161997E+03 -0.56904906930E+03  0.31684533303E+04  0.32640941213E+04  0.46999998093E+01 0. -1.
       -5    1    3    3    0  502 -0.53979161997E+03  0.56904906930E+03 -0.67603745248E+03  0.10354904941E+04  0.46999998093E+01 0.  1.
</event>
<event>
 5   0  0.3554451E-08  0.3500494E+04  0.7818609E-02  0.8113673E-01
        2   -1    0    0  501    0  0.00000000000E+00  0.00000000000E+00  0.24186573627E+04  0.24186573627E+04  0.25500000920E-02 0.  1.
       -2   -1    0    0    0  501  0.00000000000E+00  0.00000000000E+00 -0.12665554904E+04  0.12665554904E+04  0.25500000920E-02 0. -1.
    10030    2    1    2    0    0  0.00000000000E+00  0.00000000000E+00  0.11521018723E+04  0.36852128530E+04  0.35004935435E+04 0.  0.
        5    1    3    3  502    0 -0.20462007358E+03  0.12511597783E+04  0.18464046102E+04  0.22397549508E+04  0.46999998093E+01 0.  1.
       -5    1    3    3    0  502  0.20462007358E+03 -0.12511597783E+04 -0.69430273789E+03  0.14454579022E+04  0.46999998093E+01 0. -1.
</event>
<event>
 5   0  0.1129219E-08  0.3501668E+04  0.7818609E-02  0.8113395E-01
        1   -1    0    0  501    0  0.00000000000E+00  0.00000000000E+00  0.27879293726E+04  0.27879293726E+04  0.50400001928E-02 0. -1.
       -1   -1    0    0    0  501  0.00000000000E+00  0.00000000000E+00 -0.10995325075E+04  0.10995325075E+04  0.50400001928E-02 0.  1.
    10030    2    1    2    0    0  0.00000000000E+00  0.00000000000E+00  0.16883968651E+04  0.38874618801E+04  0.35016675878E+04 0.  0.
        5    1    3    3  502    0 -0.44289748376E+03  0.16760023103E+04  0.57168518261E+03  0.18253733764E+04  0.46999998093E+01 0.  1.
       -5    1    3    3    0  502  0.44289748376E+03 -0.16760023103E+04  0.11167116825E+04  0.20620885037E+04  0.46999998093E+01 0. -1.
</event>
<event>
 5   0  0.1140808E-08  0.3498256E+04  0.7818609E-02  0.8114203E-01
       -1   -1    0    0    0  501  0.00000000000E+00  0.00000000000E+00  0.26092439377E+04  0.26092439377E+04  0.50400001928E-02 0. -1.
        1   -1    0    0  501    0  0.00000000000E+00  0.00000000000E+00 -0.11725421363E+04  0.11725421363E+04  0.50400001928E-02 0.  1.
    10030    2    1    2    0    0  0.00000000000E+00  0.00000000000E+00  0.14367018014E+04  0.37817860740E+04  0.34982558287E+04 0.  0.
        3    1    3    3  502    0 -0.76631834055E+03  0.85939901882E+03 -0.70504135300E+03  0.13501458411E+04  0.10100000352E+00 0.  1.
       -3    1    3    3    0  502  0.76631834055E+03 -0.85939901882E+03  0.21417431544E+04  0.24316402329E+04  0.10100000352E+00 0. -1.
</event>
<event>
 5   0  0.3554451E-08  0.3496578E+04  0.7818609E-02  0.8114601E-01
       -2   -1    0    0    0  501  0.00000000000E+00  0.00000000000E+00  0.12407845794E+04  0.12407845794E+04  0.25500000920E-02 0.  1.
        2   -1    0    0  501    0  0.00000000000E+00  0.00000000000E+00 -0.24633725910E+04  0.24633725910E+04  0.25500000920E-02 0. -1.
    10030    2    1    2    0    0  0.00000000000E+00  0.00000000000E+00 -0.12225880115E+04  0.37041571704E+04  0.34965781697E+04 0.  0.
        5    1    3    3  502    0  0.12949613923E+04  0.11575888546E+04 -0.82198721496E+03  0.19216196386E+04  0.46999998093E+01 0. -1.
       -5    1    3    3    0  502 -0.12949613923E+04 -0.11575888546E+04 -0.40060079658E+03  0.17825375318E+04  0.46999998093E+01 0.  1.
</event>
<event>
 5   0  0.1121462E-08  0.3495346E+04  0.7818609E-02  0.8114894E-01
       -1   -1    0    0    0  501  0.00000000000E+00  0.00000000000E+00  0.16636924798E+04  0.16636924798E+04  0.50400001928E-02 0. -1.
        1   -1    0    0  501    0  0.00000000000E+00  0.00000000000E+00 -0.18358928743E+04  0.18358928743E+04  0.50400001928E-02 0.  1.
    10030    2    1    2    0    0  0.00000000000E+00  0.00000000000E+00 -0.17220039450E+03  0.34995853541E+04  0.34953461452E+04 0.  0.
        1    1    3    3  502    0 -0.99474031326E+03  0.72258904203E+03  0.11574681712E+04  0.16886017238E+04  0.50400001928E-02 0.  1.
       -1    1    3    3    0  502  0.99474031326E+03 -0.72258904203E+03 -0.13296685657E+04  0.18109836302E+04  0.50400001928E-02 0. -1.
</event>
<event>
 5   0  0.1121462E-08  0.3502430E+04  0.7818609E-02  0.8113214E-01
       -1   -1    0    0    0  501  0.00000000000E+00  0.00000000000E+00  0.21094732554E+04  0.21094732554E+04  0.50400001928E-02 0. -1.
        1   -1    0    0  501    0  0.00000000000E+00  0.00000000000E+00 -0.14538011589E+04  0.14538011589E+04  0.50400001928E-02 0.  1.
    10030    2    1    2    0    0  0.00000000000E+00  0.00000000000E+00  0.65567209649E+03  0.35632744143E+04  0.35024303923E+04 0.  0.
        4    1    3    3  502    0 -0.70786893954E+03 -0.86435798201E+03 -0.10441306224E+04  0.15291839412E+04  0.12699999809E+01 0.  1.
       -4    1    3    3    0  502  0.70786893954E+03  0.86435798201E+03  0.16998027188E+04  0.20340904730E+04  0.12699999809E+01 0. -1.
</event>
<event>
 5   0  0.1129219E-08  0.3500924E+04  0.7818609E-02  0.8113571E-01
       -1   -1    0    0    0  501  0.00000000000E+00  0.00000000000E+00  0.17379921129E+04  0.17379921129E+04  0.50400001928E-02 0.  1.
        1   -1    0    0  501    0  0.00000000000E+00  0.00000000000E+00 -0.17630209555E+04  0.17630209556E+04  0.50400001928E-02 0. -1.
    10030    2    1    2    0    0  0.00000000000E+00  0.00000000000E+00 -0.25028842647E+02  0.35010130685E+04  0.35009236014E+04 0.  0.
        5    1    3    3  502    0  0.53335517431E+03  0.71150901914E+03  0.14952978331E+04  0.17397271413E+04  0.46999998093E+01 0.  1.
       -5    1    3    3    0  502 -0.53335517431E+03 -0.71150901914E+03 -0.15203266758E+04  0.17612859272E+04  0.46999998093E+01 0. -1.
</event>
<event>
 5   0  0.1121462E-08  0.3498082E+04  0.7818609E-02  0.8114245E-01
        1   -1    0    0  501    0  0.00000000000E+00  0.00000000000E+00  0.18698317615E+04  0.18698317616E+04  0.50400001928E-02 0. -1.
       -1   -1    0    0    0  501  0.00000000000E+00  0.00000000000E+00 -0.16360531477E+04  0.16360531477E+04  0.50400001928E-02 0.  1.
    10030    2    1    2    0    0  0.00000000000E+00  0.00000000000E+00  0.23377861383E+03  0.35058849093E+04  0.34980818396E+04 0.  0.
        1    1    3    3  502    0 -0.15597356999E+04  0.78499761283E+03  0.21784848250E+03  0.17596745912E+04  0.50400001928E-02 0. -1.
       -1    1    3    3    0  502  0.15597356999E+04 -0.78499761283E+03  0.15930131325E+02  0.17462103180E+04  0.50400001928E-02 0.  1.
</event>
<event>
 5   0  0.1121462E-08  0.3498114E+04  0.7818609E-02  0.8114237E-01
       -1   -1    0    0    0  501  0.00000000000E+00  0.00000000000E+00  0.21093593673E+04  0.21093593673E+04  0.50400001928E-02 0.  1.
        1   -1    0    0  501    0  0.00000000000E+00  0.00000000000E+00 -0.14502981302E+04  0.14502981302E+04  0.50400001928E-02 0. -1.
    10030    2    1    2    0    0  0.00000000000E+00  0.00000000000E+00  0.65906123710E+03  0.35596574976E+04  0.34981137468E+04 0.  0.
        1    1    3    3  502    0 -0.91047756068E+03  0.14791932711E+04  0.12044593862E+03  0.17411172694E+04  0.50400001928E-02 0.  1.
       -1    1    3    3    0  502  0.91047756068E+03 -0.14791932711E+04  0.53861529848E+03  0.18185402282E+04  0.50400001928E-02 0. -1.
</event>
<event>
 5   0  0.3700096E-08  0.3500079E+04  0.7818609E-02  0.8113771E-01
       -2   -1    0    0    0  501  0.00000000000E+00  0.00000000000E+00  0.13257122433E+04  0.13257122434E+04  0.25500000920E-02 0.  1.
        2   -1    0    0  501    0  0.00000000000E+00  0.00000000000E+00 -0.23101836172E+04  0.23101836172E+04  0.25500000920E-02 0. -1.
    10030    2    1    2    0    0  0.00000000000E+00  0.00000000000E+00 -0.98447137382E+03  0.36358958605E+04  0.35000792595E+04 0.  0.
        4    1    3    3  502    0 -0.98065631601E+03  0.14461775326E+04 -0.39087468557E+03  0.17905029736E+04  0.12699999809E+01 0.  1.
       -4    1    3    3    0  502  0.98065631601E+03 -0.14461775326E+04 -0.59359668825E+03  0.18453928869E+04  0.12699999809E+01 0. -1.
</event>
<event>
 5   0  0.1121462E-08  0.3500651E+04  0.7818609E-02  0.8113636E-01
       -1   -1    0    0    0  501  0.00000000000E+00  0.00000000000E+00  0.17520254172E+04  0.17520254172E+04  0.50400001928E-02 0.  1.
        1   -1    0    0  501    0  0.00000000000E+00  0.00000000000E+00 -0.17486269661E+04  0.17486269661E+04  0.50400001928E-02 0. -1.
    10030    2    1    2    0    0  0.00000000000E+00  0.00000000000E+00  0.33984511222E+01  0.35006523833E+04  0.35006507337E+04 0.  0.
        4    1    3    3  502    0 -0.14735993609E+04  0.93928822127E+03 -0.97698194683E+02  0.17502296961E+04  0.12699999809E+01 0.  1.
       -4    1    3    3    0  502  0.14735993609E+04 -0.93928822127E+03  0.10109664581E+03  0.17504226872E+04  0.12699999809E+01 0. -1.
</event>
<event>
 5   0  0.1121462E-08  0.3503008E+04  0.7818609E-02  0.8113077E-01
       -1   -1    0    0    0  501  0.00000000000E+00  0.00000000000E+00  0.14460346490E+04  0.14460346490E+04  0.50400001928E-02 0.  1.
        1   -1    0    0  501    0  0.00000000000E+00  0.00000000000E+00 -0.21215025331E+04  0.21215025331E+04  0.50400001928E-02 0. -1.
    10030    2    1    2    0    0  0.00000000000E+00  0.00000000000E+00 -0.67546788413E+03  0.35675371821E+04  0.35030079479E+04 0.  0.
        1    1    3    3  502    0  0.85731651317E+03  0.15097922230E+04 -0.57285914327E+03  0.18282865635E+04  0.50400001928E-02 0. -1.
       -1    1    3    3    0  502 -0.85731651317E+03 -0.15097922230E+04 -0.10260874086E+03  0.17392506185E+04  0.50400001928E-02 0.  1.
</event>
<event>
 5   0  0.1140808E-08  0.3500649E+04  0.7818609E-02  0.8113636E-01
        1   -1    0    0  501    0  0.00000000000E+00  0.00000000000E+00  0.13451204278E+04  0.13451204278E+04  0.50400001928E-02 0.  1.
       -1   -1    0    0    0  501  0.00000000000E+00  0.00000000000E+00 -0.22775916364E+04  0.22775916364E+04  0.50400001928E-02 0. -1.
    10030    2    1    2    0    0  0.00000000000E+00  0.00000000000E+00 -0.93247120863E+03  0.36227120642E+04  0.35006485321E+04 0.  0.
        3    1    3    3  502    0 -0.11000148698E+04 -0.21382806738E+03 -0.18576935736E+04  0.21695115994E+04  0.10100000352E+00 0. -1.
       -3    1    3    3    0  502  0.11000148698E+04  0.21382806738E+03  0.92522236499E+03  0.14532004648E+04  0.10100000352E+00 0.  1.
</event>
<event>
 5   0  0.1129219E-08  0.3500961E+04  0.7818609E-02  0.8113562E-01
        1   -1    0    0  501    0  0.00000000000E+00  0.00000000000E+00  0.22996873473E+04  0.22996873473E+04  0.50400001928E-02 0. -1.
       -1   -1    0    0    0  501  0.00000000000E+00  0.00000000000E+00 -0.13324339847E+04  0.13324339847E+04  0.50400001928E-02 0.  1.
    10030    2    1    2    0    0  0.00000000000E+00  0.00000000000E+00  0.96725336267E+03  0.36321213320E+04  0.35009607685E+04 0.  0.
        5    1    3    3  502    0  0.37303360771E+03 -0.17101674318E+04  0.50255204560E+03  0.18211005919E+04  0.46999998093E+01 0. -1.
       -5    1    3    3    0  502 -0.37303360771E+03  0.17101674318E+04  0.46470131707E+03  0.18110207401E+04  0.46999998093E+01 0.  1.
</event>
<event>
 5   0  0.3700096E-08  0.3499829E+04  0.7818609E-02  0.8113831E-01
       -2   -1    0    0    0  501  0.00000000000E+00  0.00000000000E+00  0.91056076183E+03  0.91056076183E+03  0.25500000920E-02 0.  1.
        2   -1    0    0  501    0  0.00000000000E+00  0.00000000000E+00 -0.33629829300E+04  0.33629829300E+04  0.25500000920E-02 0. -1.
    10030    2    1    2    0    0  0.00000000000E+00  0.00000000000E+00 -0.24524221682E+04  0.42735436918E+04  0.34998287380E+04 0.  0.
        4    1    3    3  502    0  0.20357705193E+03  0.89456845656E+03  0.59335139920E+03  0.10925950006E+04  0.12699999809E+01 0.  1.
       -4    1    3    3    0  502 -0.20357705193E+03 -0.89456845656E+03 -0.30457735674E+04  0.31809486912E+04  0.12699999809E+01 0. -1.
</event>
<event>
 5   0  0.1121462E-08  0.3478088E+04  0.7818609E-02  0.8119003E-01
       -1   -1    0    0    0  501  0.00000000000E+00  0.00000000000E+00  0.11885073653E+04  0.11885073653E+04  0.50400001928E-02 0. -1.
        1   -1    0    0  501    0  0.00000000000E+00  0.00000000000E+00 -0.25445977801E+04  0.25445977801E+04  0.50400001928E-02 0.  1.
    10030    2    1    2    0    0  0.00000000000E+00  0.00000000000E+00 -0.13560904148E+04  0.37331051454E+04  0.34780875224E+04 0.  0.
        2    1    3    3  502    0 -0.10638930760E+04  0.81964384781E+03  0.50776282137E+03  0.14357951097E+04  0.25500000920E-02 0. -1.
       -2    1    3    3    0  502  0.10638930760E+04 -0.81964384781E+03 -0.18638532361E+04  0.22973100357E+04  0.25500000920E-02 0.  1.
</event>
<event>
 5   0  0.1121462E-08  0.3499005E+04  0.7818609E-02  0.8114026E-01
       -1   -1    0    0    0  501  0.00000000000E+00  0.00000000000E+00  0.15666133891E+04  0.15666133891E+04  0.50400001928E-02 0. -1.
        1   -1    0    0  501    0  0.00000000000E+00  0.00000000000E+00 -0.19537423256E+04  0.19537423256E+04  0.50400001928E-02 0.  1.
    10030    2    1    2    0    0  0.00000000000E+00  0.00000000000E+00 -0.38712893652E+03  0.35203557147E+04  0.34990049363E+04 0.  0.
        4    1    3    3  502    0 -0.14701591008E+03  0.11793055963E+04  0.10981630545E+04  0.16181282627E+04  0.12699999809E+01 0. -1.
       -4    1    3    3    0  502  0.14701591008E+03 -0.11793055963E+04 -0.14852919910E+04  0.19022274519E+04  0.12699999809E+01 0.  1.
</event>
<event>
 5   0  0.3700096E-08  0.3499987E+04  0.7818609E-02  0.8113793E-01
       -2   -1    0    0    0  501  0.00000000000E+00  0.00000000000E+00  0.15356522197E+04  0.15356522197E+04  0.25500000920E-02 0. -1.
        2   -1    0    0  501    0  0.00000000000E+00  0.00000000000E+00 -0.19942513312E+04  0.19942513312E+04  0.25500000920E-02 0.  1.
    10030    2    1    2    0    0  0.00000000000E+00  0.00000000000E+00 -0.45859911154E+03  0.35299035509E+04  0.34999865619E+04 0.  0.
        4    1    3    3  502    0  0.52364698893E+03 -0.11375701811E+04 -0.14621239888E+04  0.19251182450E+04  0.12699999809E+01 0.  1.
       -4    1    3    3    0  502 -0.52364698893E+03  0.11375701811E+04  0.10035248772E+04  0.16047853059E+04  0.12699999809E+01 0. -1.
</event>
<event>
 5   0  0.3554451E-08  0.3499246E+04  0.7818609E-02  0.8113969E-01
       -2   -1    0    0    0  501  0.00000000000E+00  0.00000000000E+00  0.11008490598E+04  0.11008490598E+04  0.25500000920E-02 0.  1.
        2   -1    0    0  501    0  0.00000000000E+00  0.00000000000E+00 -0.27807451003E+04  0.27807451003E+04  0.25500000920E-02 0. -1.
    10030    2    1    2    0    0  0.00000000000E+00  0.00000000000E+00 -0.16798960404E+04  0.38815941601E+04  0.34992459927E+04 0.  0.
        5    1    3    3  502    0 -0.91248148660E+03 -0.77609434000E+03  0.57462201139E+03  0.13285922753E+04  0.46999998093E+01 0.  1.
       -5    1    3    3    0  502  0.91248148660E+03  0.77609434000E+03 -0.22545180518E+04  0.25530018848E+04  0.46999998093E+01 0. -1.
</event>
<event>
 5   0  0.1121462E-08  0.3500690E+04  0.7818609E-02  0.8113626E-01
       -1   -1    0    0    0  501  0.00000000000E+00  0.00000000000E+00  0.13313641415E+04  0.13313641415E+04  0.50400001928E-02 0. -1.
        1   -1    0    0  501    0  0.00000000000E+00  0.00000000000E+00 -0.23011795218E+04  0.23011795218E+04  0.50400001928E-02 0.  1.
    10030    2    1    2    0    0  0.00000000000E+00  0.00000000000E+00 -0.96981538030E+03  0.36325436634E+04  0.35006901597E+04 0.  0.
        4    1    3    3  502    0  0.67547611108E+02  0.82537572254E+03 -0.20850323858E+04  0.22434726265E+04  0.12699999809E+01 0.  1.
       -4    1    3    3    0  502 -0.67547611108E+02 -0.82537572254E+03  0.11152170055E+04  0.13890710369E+04  0.12699999809E+01 0. -1.
</event>
<event>
 5   0  0.3700096E-08  0.3498905E+04  0.7818609E-02  0.8114050E-01
       -2   -1    0    0    0  501  0.00000000000E+00  0.00000000000E+00  0.15069687862E+04  0.15069687862E+04  0.25500000920E-02 0.  1.
        2   -1    0    0  501    0  0.00000000000E+00  0.00000000000E+00 -0.20309534804E+04  0.20309534804E+04  0.25500000920E-02 0. -1.
    10030    2    1    2    0    0  0.00000000000E+00  0.00000000000E+00 -0.52398469423E+03  0.35379222666E+04  0.34989046864E+04 0.  0.
        4    1    3    3  502    0 -0.30778811532E+03 -0.59382533240E+03  0.13725800014E+04  0.15268724644E+04  0.12699999809E+01 0.  1.
       -4    1    3    3    0  502  0.30778811532E+03  0.59382533240E+03 -0.18965646956E+04  0.20110498022E+04  0.12699999809E+01 0. -1.
</event>
<event>
 5   0  0.3467834E-08  0.3500471E+04  0.7818609E-02  0.8113678E-01
        2   -1    0    0  501    0  0.00000000000E+00  0.00000000000E+00  0.11697331262E+04  0.11697331262E+04  0.25500000920E-02 0. -1.
       -2   -1    0    0    0  501  0.00000000000E+00  0.00000000000E+00 -0.26188227156E+04  0.26188227156E+04  0.25500000920E-02 0.  1.
    10030    2    1    2    0    0  0.00000000000E+00  0.00000000000E+00 -0.14490895894E+04  0.37885558417E+04  0.35004706437E+04 0.  0.
        3    1    3    3  502    0 -0.16347311607E+03  0.76199385002E+03  0.97158229864E+03  0.12455240906E+04  0.10100000352E+00 0. -1.
       -3    1    3    3    0  502  0.16347311607E+03 -0.76199385002E+03 -0.24206718881E+04  0.25430317511E+04  0.10100000352E+00 0.  1.
</event>
<event>
 5   0  0.1129219E-08  0.3496550E+04  0.7818609E-02  0.8114608E-01
       -1   -1    0    0    0  501  0.00000000000E+00  0.00000000000E+00  0.14325522376E+04  0.14325522376E+04  0.50400001928E-02 0. -1.
        1   -1    0    0  501    0  0.00000000000E+00  0.00000000000E+00 -0.21335809918E+04  0.21335809918E+04  0.50400001928E-02 0.  1.
    10030    2    1    2    0    0  0.00000000000E+00  0.00000000000E+00 -0.70102875420E+03  0.35661332294E+04  0.34965504280E+04 0.  0.
        5    1    3    3  502    0 -0.70148502000E+03  0.58118942607E+03 -0.18723827468E+04  0.20822347665E+04  0.46999998093E+01 0.  1.
       -5    1    3    3    0  502  0.70148502000E+03 -0.58118942607E+03  0.11713539926E+04  0.14838984629E+04  0.46999998093E+01 0. -1.
</event>
<event>
 5   0  0.3553585E-08  0.3500545E+04  0.7818609E-02  0.8113661E-01
       -2   -1    0    0    0  501  0.00000000000E+00  0.00000000000E+00  0.13662718950E+04  0.13662718950E+04  0.25500000920E-02 0.  1.
        2   -1    0    0  501    0  0.00000000000E+00  0.00000000000E+00 -0.22421988487E+04  0.22421988487E+04  0.25500000920E-02 0. -1.
    10030    2    1    2    0    0  0.00000000000E+00  0.00000000000E+00 -0.87592695373E+03  0.36084707436E+04  0.35005446832E+04 0.  0.
        2    1    3    3  502    0 -0.76874048869E+03 -0.13687685455E+04 -0.12357522548E+04  0.19978921155E+04  0.25500000920E-02 0.  1.
       -2    1    3    3    0  502  0.76874048869E+03  0.13687685455E+04  0.35982530103E+03  0.16105786281E+04  0.25500000920E-02 0. -1.
</event>
<event>
 5   0  0.1121462E-08  0.3496773E+04  0.7818609E-02  0.8114555E-01
        3   -1    0    0  501    0  0.00000000000E+00  0.00000000000E+00  0.27338977109E+04  0.27338977128E+04  0.10100000352E+00 0.  1.
       -3   -1    0    0    0  501  0.00000000000E+00  0.00000000000E+00 -0.11181307664E+04  0.11181307710E+04  0.10100000352E+00 0. -1.
    10030    2    1    2    0    0  0.00000000000E+00  0.00000000000E+00  0.16157669445E+04  0.38520284838E+04  0.34967728867E+04 0.  0.
        3    1    3    3  502    0  0.51319086914E+03  0.10253353687E+04 -0.64612950893E+03  0.13161158152E+04  0.10100000352E+00 0. -1.
       -3    1    3    3    0  502 -0.51319086914E+03 -0.10253353687E+04  0.22618964534E+04  0.25359126686E+04  0.10100000352E+00 0.  1.
</event>
<event>
 5   0  0.3553585E-08  0.3480389E+04  0.7818609E-02  0.8118453E-01
        2   -1    0    0  501    0  0.00000000000E+00  0.00000000000E+00  0.23149757000E+04  0.23149757000E+04  0.25500000920E-02 0.  1.
       -2   -1    0    0    0  501  0.00000000000E+00  0.00000000000E+00 -0.13081245438E+04  0.13081245438E+04  0.25500000920E-02 0. -1.
    10030    2    1    2    0    0  0.00000000000E+00  0.00000000000E+00  0.10068511562E+04  0.36231002437E+04  0.34803887894E+04 0.  0.
        2    1    3    3  502    0 -0.62253244859E+03  0.18234715302E+03  0.21844074578E+04  0.22786910882E+04  0.25500000920E-02 0.  1.
       -2    1    3    3    0  502  0.62253244859E+03 -0.18234715302E+03 -0.11775563017E+04  0.13444091555E+04  0.25500000920E-02 0. -1.
</event>
<event>
 5   0  0.1140808E-08  0.3500220E+04  0.7818609E-02  0.8113738E-01
        1   -1    0    0  501    0  0.00000000000E+00  0.00000000000E+00  0.11975382555E+04  0.11975382555E+04  0.50400001928E-02 0.  1.
       -1   -1    0    0    0  501  0.00000000000E+00  0.00000000000E+00 -0.25576509461E+04  0.25576509461E+04  0.50400001928E-02 0. -1.
    10030    2    1    2    0    0  0.00000000000E+00  0.00000000000E+00 -0.13601126905E+04  0.37551892016E+04  0.35002199086E+04 0.  0.
        3    1    3    3  502    0 -0.13161294890E+04 -0.11487674312E+04 -0.56742614424E+03  0.18368004470E+04  0.10100000352E+00 0.  1.
       -3    1    3    3    0  502  0.13161294890E+04  0.11487674312E+04 -0.79268654630E+03  0.19183887546E+04  0.10100000352E+00 0. -1.
</event>
<event>
 5   0  0.3467834E-08  0.3494298E+04  0.7818609E-02  0.8115143E-01
       -2   -1    0    0    0  501  0.00000000000E+00  0.00000000000E+00  0.19276330616E+04  0.19276330616E+04  0.25500000920E-02 0.  1.
        2   -1    0    0  501    0  0.00000000000E+00  0.00000000000E+00 -0.15835632908E+04  0.15835632908E+04  0.25500000920E-02 0. -1.
    10030    2    1    2    0    0  0.00000000000E+00  0.00000000000E+00  0.34406977079E+03  0.35111963523E+04  0.34942976143E+04 0.  0.
        3    1    3    3  502    0 -0.22470286168E+03 -0.46301443743E+03  0.18497366167E+04  0.19199998194E+04  0.10100000352E+00 0.  1.
       -3    1    3    3    0  502  0.22470286168E+03  0.46301443743E+03 -0.15056668459E+04  0.15911965329E+04  0.10100000352E+00 0. -1.
</event>
<event>
 5   0  0.1121462E-08  0.3500646E+04  0.7818609E-02  0.8113637E-01
        1   -1    0    0  501    0  0.00000000000E+00  0.00000000000E+00  0.23015665631E+04  0.23015665631E+04  0.50400001928E-02 0. -1.
       -1   -1    0    0    0  501  0.00000000000E+00  0.00000000000E+00 -0.13311064103E+04  0.13311064103E+04  0.50400001928E-02 0.  1.
    10030    2    1    2    0    0  0.00000000000E+00  0.00000000000E+00  0.97046015282E+03  0.36326729733E+04  0.35006456580E+04 0.  0.
        4    1    3    3  502    0 -0.37520631352E+03  0.16767796755E+04  0.13909563206E+03  0.17238674733E+04  0.12699999809E+01 0.  1.
       -4    1    3    3    0  502  0.37520631352E+03 -0.16767796755E+04  0.83136452076E+03  0.19088055000E+04  0.12699999809E+01 0. -1.
</event>
<event>
 5   0  0.1140808E-08  0.3499802E+04  0.7818609E-02  0.8113837E-01
       -1   -1    0    0    0  501  0.00000000000E+00  0.00000000000E+00  0.16716674930E+04  0.16716674930E+04  0.50400001928E-02 0.  1.
        1   -1    0    0  501    0  0.00000000000E+00  0.00000000000E+00 -0.18317953926E+04  0.18317953926E+04  0.50400001928E-02 0. -1.
    10030    2    1    2    0    0  0.00000000000E+00  0.00000000000E+00 -0.16012789966E+03  0.35034628856E+04  0.34998016010E+04 0.  0.
        3    1    3    3  502    0 -0.37369592198E+03 -0.12434005744E+04  0.10943893770E+04  0.16980523400E+04  0.10100000352E+00 0.  1.
       -3    1    3    3    0  502  0.37369592198E+03  0.12434005744E+04 -0.12545172767E+04  0.18054105456E+04  0.10100000352E+00 0. -1.
</event>
<event>
 5   0  0.3553585E-08  0.3525626E+04  0.7818609E-02  0.8107744E-01
        2   -1    0    0  501    0  0.00000000000E+00  0.00000000000E+00  0.17248424528E+04  0.17248424528E+04  0.25500000920E-02 0. -1.
       -2   -1    0    0    0  501  0.00000000000E+00  0.00000000000E+00 -0.18016191198E+04  0.18016191198E+04  0.25500000920E-02 0.  1.
    10030    2    1    2    0    0  0.00000000000E+00  0.00000000000E+00 -0.76776667084E+02  0.35264615726E+04  0.35256256986E+04 0.  0.
        2    1    3    3  502    0  0.15681739374E+04  0.46885052887E+03  0.61638035867E+03  0.17489754324E+04  0.25500000920E-02 0.  1.
       -2    1    3    3    0  502 -0.15681739374E+04 -0.46885052887E+03 -0.69315702575E+03  0.17774861403E+04  0.25500000920E-02 0. -1.
</event>
<event>
 5   0  0.1129219E-08  0.3500443E+04  0.7818609E-02  0.8113685E-01
       -1   -1    0    0    0  501  0.00000000000E+00  0.00000000000E+00  0.18289088596E+04  0.18289088596E+04  0.50400001928E-02 0.  1.
        1   -1    0    0  501    0  0.00000000000E+00  0.00000000000E+00 -0.16749193156E+04  0.16749193156E+04  0.50400001928E-02 0. -1.
    10030    2    1    2    0    0  0.00000000000E+00  0.00000000000E+00  0.15398954400E+03  0.35038281752E+04  0.35004427008E+04 0.  0.
        5    1    3    3  502    0  0.86106672080E+03  0.25074408699E+03 -0.14274372825E+04  0.16857958893E+04  0.46999998093E+01 0. -1.
       -5    1    3    3    0  502 -0.86106672080E+03 -0.25074408699E+03  0.15814268265E+04  0.18180322859E+04  0.46999998093E+01 0.  1.
</event>
<event>
 5   0  0.3700096E-08  0.3498909E+04  0.7818609E-02  0.8114049E-01
        2   -1    0    0  501    0  0.00000000000E+00  0.00000000000E+00  0.13709712500E+04  0.13709712500E+04  0.25500000920E-02 0.  1.
       -2   -1    0    0    0  501  0.00000000000E+00  0.00000000000E+00 -0.22324252348E+04  0.22324252348E+04  0.25500000920E-02 0. -1.
    10030    2    1    2    0    0  0.00000000000E+00  0.00000000000E+00 -0.86145398479E+03  0.36033964847E+04  0.34989088668E+04 0.  0.
        4    1    3    3  502    0  0.86220762313E+03  0.13505861916E+04  0.29245691049E+03  0.16288086762E+04  0.12699999809E+01 0.  1.
       -4    1    3    3    0  502 -0.86220762313E+03 -0.13505861916E+04 -0.11539108953E+04  0.19745878085E+04  0.12699999809E+01 0. -1.
</event>
<event>
 5   0  0.3467834E-08  0.3500525E+04  0.7818609E-02  0.8113666E-01
        2   -1    0    0  501    0  0.00000000000E+00  0.00000000000E+00  0.16854967571E+04  0.16854967571E+04  0.25500000920E-02 0.  1.
       -2   -1    0    0    0  501  0.00000000000E+00  0.00000000000E+00 -0.18175170161E+04  0.18175170161E+04  0.25500000920E-02 0. -1.
    10030    2    1    2    0    0  0.00000000000E+00  0.00000000000E+00 -0.13202025901E+03  0.35030137733E+04  0.35005251244E+04 0.  0.
        3    1    3    3  502    0 -0.62992310132E+03  0.65941574807E+03 -0.15609888005E+04  0.18078490777E+04  0.10100000352E+00 0. -1.
       -3    1    3    3    0  502  0.62992310132E+03 -0.65941574807E+03  0.14289685415E+04  0.16951646956E+04  0.10100000352E+00 0.  1.
</event>
<event>
 5   0  0.1121462E-08  0.3498743E+04  0.7818609E-02  0.8114088E-01
        4   -1    0    0  501    0  0.00000000000E+00  0.00000000000E+00  0.19715213000E+04  0.19715217091E+04  0.12699999809E+01 0.  1.
       -4   -1    0    0    0  501  0.00000000000E+00  0.00000000000E+00 -0.15522523284E+04  0.15522528479E+04  0.12699999809E+01 0. -1.
    10030    2    1    2    0    0  0.00000000000E+00  0.00000000000E+00  0.41926897164E+03  0.35237745570E+04  0.34987427254E+04 0.  0.
        4    1    3    3  502    0 -0.35497207478E+03 -0.12586200418E+04 -0.96064655163E+03  0.16226438283E+04  0.12699999809E+01 0. -1.
       -4    1    3    3    0  502  0.35497207478E+03  0.12586200418E+04  0.13799155233E+04  0.19011307287E+04  0.12699999809E+01 0.  1.
</event>
<event>
 5   0  0.1121462E-08  0.3500688E+04  0.7818609E-02  0.8113627E-01
       -1   -1    0    0    0  501  0.00000000000E+00  0.00000000000E+00  0.13664814280E+04  0.13664814280E+04  0.50400001928E-02 0. -1.
        1   -1    0    0  501    0  0.00000000000E+00  0.00000000000E+00 -0.22420382755E+04  0.22420382755E+04  0.50400001928E-02 0.  1.
    10030    2    1    2    0    0  0.00000000000E+00  0.00000000000E+00 -0.87555684753E+03  0.36085197036E+04  0.35006877407E+04 0.  0.
        4    1    3    3  502    0  0.39227606351E+03  0.16741249914E+03 -0.21876541980E+04  0.22288427396E+04  0.12699999809E+01 0.  1.
       -4    1    3    3    0  502 -0.39227606351E+03 -0.16741249914E+03  0.13120973505E+04  0.13796769640E+04  0.12699999809E+01 0. -1.
</event>
<event>
 5   0  0.1140808E-08  0.3499894E+04  0.7818609E-02  0.8113815E-01
        1   -1    0    0  501    0  0.00000000000E+00  0.00000000000E+00  0.15221668378E+04  0.15221668378E+04  0.50400001928E-02 0. -1.
       -1   -1    0    0    0  501  0.00000000000E+00  0.00000000000E+00 -0.20118127211E+04  0.20118127211E+04  0.50400001928E-02 0.  1.
    10030    2    1    2    0    0  0.00000000000E+00  0.00000000000E+00 -0.48964588332E+03  0.35339795590E+04  0.34998940601E+04 0.  0.
        3    1    3    3  502    0 -0.61929072530E+03  0.12304255675E+04  0.84496873695E+03  0.16159951288E+04  0.10100000352E+00 0.  1.
       -3    1    3    3    0  502  0.61929072530E+03 -0.12304255675E+04 -0.13346146203E+04  0.19179844302E+04  0.10100000352E+00 0. -1.
</event>
<event>
 5   0  0.1129219E-08  0.3505331E+04  0.7818609E-02  0.8112528E-01
        1   -1    0    0  501    0  0.00000000000E+00  0.00000000000E+00  0.25639797827E+04  0.25639797827E+04  0.50400001928E-02 0.  1.
       -1   -1    0    0    0  501  0.00000000000E+00  0.00000000000E+00 -0.11980738365E+04  0.11980738365E+04  0.50400001928E-02 0. -1.
    10030    2    1    2    0    0  0.00000000000E+00  0.00000000000E+00  0.13659059462E+04  0.37620536192E+04  0.35053314223E+04 0.  0.
        5    1    3    3  502    0 -0.11426081754E+04 -0.95458695639E+03 -0.30944388191E+03  0.15207127624E+04  0.46999998093E+01 0. -1.
       -5    1    3    3    0  502  0.11426081754E+04  0.95458695639E+03  0.16753498281E+04  0.22413408568E+04  0.46999998093E+01 0.  1.
</event>
<event>
 5   0  0.3700096E-08  0.3501217E+04  0.7818609E-02  0.8113502E-01
        2   -1    0    0  501    0  0.00000000000E+00  0.00000000000E+00  0.20608652598E+04  0.20608652598E+04  0.25500000920E-02 0. -1.
       -2   -1    0    0    0  501  0.00000000000E+00  0.00000000000E+00 -0.14870599782E+04  0.14870599782E+04  0.25500000920E-02 0.  1.
    10030    2    1    2    0    0  0.00000000000E+00  0.00000000000E+00  0.57380528163E+03  0.35479252381E+04  0.35012170732E+04 0.  0.
        4    1    3    3  502    0  0.44776331721E+03  0.10487615392E+04 -0.10590622993E+04  0.15562799623E+04  0.12699999809E+01 0.  1.
       -4    1    3    3    0  502 -0.44776331721E+03 -0.10487615392E+04  0.16328675810E+04  0.19916452757E+04  0.12699999809E+01 0. -1.
</event>
<event>
 5   0  0.3628017E-08  0.3499726E+04  0.7818609E-02  0.8113855E-01
       -2   -1    0    0    0  501  0.00000000000E+00  0.00000000000E+00  0.12377199564E+04  0.12377199564E+04  0.25500000920E-02 0. -1.
        2   -1    0    0  501    0  0.00000000000E+00  0.00000000000E+00 -0.24739209553E+04  0.24739209553E+04  0.25500000920E-02 0.  1.
    10030    2    1    2    0    0  0.00000000000E+00  0.00000000000E+00 -0.12362009989E+04  0.37116409116E+04  0.34997264675E+04 0.  0.
        1    1    3    3  502    0 -0.14595996986E+04  0.72024829451E+03 -0.12995266013E+04  0.20827765779E+04  0.50400001928E-02 0.  1.
       -1    1    3    3    0  502  0.14595996986E+04 -0.72024829451E+03  0.63325602430E+02  0.16288643337E+04  0.50400001928E-02 0. -1.
</event>
<event>
 5   0  0.3554451E-08  0.3502544E+04  0.7818609E-02  0.8113187E-01
       -2   -1    0    0    0  501  0.00000000000E+00  0.00000000000E+00  0.12528648269E+04  0.12528648269E+04  0.25500000920E-02 0. -1.
        2   -1    0    0  501    0  0.00000000000E+00  0.00000000000E+00 -0.24479525250E+04  0.24479525250E+04  0.25500000920E-02 0.  1.
    10030    2    1    2    0    0  0.00000000000E+00  0.00000000000E+00 -0.11950876981E+04  0.37008173519E+04  0.35025439991E+04 0.  0.
        5    1    3    3  502    0  0.14094321743E+04  0.85983354451E+03  0.19572208008E+02  0.16511262640E+04  0.46999998093E+01 0. -1.
       -5    1    3    3    0  502 -0.14094321743E+04 -0.85983354451E+03 -0.12146599061E+04  0.20496910879E+04  0.46999998093E+01 0.  1.
</event>
<event>
 5   0  0.3700096E-08  0.3499680E+04  0.7818609E-02  0.8113866E-01
        2   -1    0    0  501    0  0.00000000000E+00  0.00000000000E+00  0.27421056839E+04  0.27421056839E+04  0.25500000920E-02 0. -1.
       -2   -1    0    0    0  501  0.00000000000E+00  0.00000000000E+00 -0.11166385397E+04  0.11166385397E+04  0.25500000920E-02 0.  1.
    10030    2    1    2    0    0  0.00000000000E+00  0.00000000000E+00  0.16254671442E+04  0.38587442236E+04  0.34996804920E+04 0.  0.
        4    1    3    3  502    0  0.10591170949E+04 -0.50706207855E+03 -0.61771528990E+03  0.13268062272E+04  0.12699999809E+01 0.  1.
       -4    1    3    3    0  502 -0.10591170949E+04  0.50706207855E+03  0.22431824341E+04  0.25319379964E+04  0.12699999809E+01 0. -1.
</event>
<event>
 5   0  0.3553585E-08  0.3499407E+04  0.7818609E-02  0.8113931E-01
        2   -1    0    0  501    0  0.00000000000E+00  0.00000000000E+00  0.18413061984E+04  0.18413061984E+04  0.25500000920E-02 0. -1.
       -2   -1    0    0    0  501  0.00000000000E+00  0.00000000000E+00 -0.16626575568E+04  0.16626575568E+04  0.25500000920E-02 0.  1.
    10030    2    1    2    0    0  0.00000000000E+00  0.00000000000E+00  0.17864864158E+03  0.35039637552E+04  0.34994066155E+04 0.  0.
        2    1    3    3  502    0  0.86334162129E+03 -0.22295225567E+03 -0.14180913220E+04  0.16751267000E+04  0.25500000920E-02 0.  1.
       -2    1    3    3    0  502 -0.86334162129E+03  0.22295225567E+03  0.15967399636E+04  0.18288370553E+04  0.25500000920E-02 0. -1.
</event>
<event>
 5   0  0.3554451E-08  0.3501014E+04  0.7818609E-02  0.8113550E-01
        2   -1    0    0  501    0  0.00000000000E+00  0.00000000000E+00  0.27082677141E+04  0.27082677141E+04  0.25500000920E-02 0.  1.
       -2   -1    0    0    0  501  0.00000000000E+00  0.00000000000E+00 -0.11314519844E+04  0.11314519844E+04  0.25500000920E-02 0. -1.
    10030    2    1    2    0    0  0.00000000000E+00  0.00000000000E+00  0.15768157297E+04  0.38397196985E+04  0.35010140699E+04 0.  0.
        5    1    3    3  502    0  0.11601239411E+03 -0.17399981599E+04  0.62135550029E+03  0.18512582802E+04  0.46999998093E+01 0.  1.
       -5    1    3    3    0  502 -0.11601239411E+03  0.17399981599E+04  0.95546022946E+03  0.19884614183E+04  0.46999998093E+01 0. -1.
</event>
<event>
 5   0  0.3554451E-08  0.3500621E+04  0.7818609E-02  0.8113643E-01
        2   -1    0    0  501    0  0.00000000000E+00  0.00000000000E+00  0.16354621933E+04  0.16354621933E+04  0.25500000920E-02 0.  1.
       -2   -1    0    0    0  501  0.00000000000E+00  0.00000000000E+00 -0.18732234171E+04  0.18732234171E+04  0.25500000920E-02 0. -1.
    10030    2    1    2    0    0  0.00000000000E+00  0.00000000000E+00 -0.23776122380E+03  0.35086856104E+04  0.35006205612E+04 0.  0.
        5    1    3    3  502    0 -0.15307247374E+04  0.60958212130E+03 -0.71088120776E+03  0.17944589062E+04  0.46999998093E+01 0.  1.
       -5    1    3    3    0  502  0.15307247374E+04 -0.60958212130E+03  0.47311998396E+03  0.17142267043E+04  0.46999998093E+01 0. -1.
</event>
<event>
 5   0  0.1121462E-08  0.3498966E+04  0.7818609E-02  0.8114035E-01
        1   -1    0    0  501    0  0.00000000000E+00  0.00000000000E+00  0.21144138784E+04  0.21144138784E+04  0.50400001928E-02 0.  1.
       -1   -1    0    0    0  501  0.00000000000E+00  0.00000000000E+00 -0.14475365057E+04  0.14475365058E+04  0.50400001928E-02 0. -1.
    10030    2    1    2    0    0  0.00000000000E+00  0.00000000000E+00  0.66687737262E+03  0.35619503841E+04  0.34989662915E+04 0.  0.
        2    1    3    3  502    0  0.99630243968E+03  0.99175175240E+03 -0.72670107434E+03  0.15824931410E+04  0.25500000920E-02 0. -1.
       -2    1    3    3    0  502 -0.99630243968E+03 -0.99175175240E+03  0.13935784470E+04  0.19794572432E+04  0.25500000920E-02 0.  1.
</event>
<event>
 5   0  0.1121462E-08  0.3501559E+04  0.7818609E-02  0.8113421E-01
        1   -1    0    0  501    0  0.00000000000E+00  0.00000000000E+00  0.26743746996E+04  0.26743746997E+04  0.50400001928E-02 0. -1.
       -1   -1    0    0    0  501  0.00000000000E+00  0.00000000000E+00 -0.11461480765E+04  0.11461480766E+04  0.50400001928E-02 0.  1.
    10030    2    1    2    0    0  0.00000000000E+00  0.00000000000E+00  0.15282266231E+04  0.38205227762E+04  0.35015593201E+04 0.  0.
        2    1    3    3  502    0 -0.38261303629E+02 -0.51229836325E+03  0.25902881151E+04  0.26407396804E+04  0.25500000920E-02 0. -1.
       -2    1    3    3    0  502  0.38261303629E+02  0.51229836325E+03 -0.10620614920E+04  0.11797830958E+04  0.25500000920E-02 0.  1.
</event>
<event>
 5   0  0.1121462E-08  0.3500771E+04  0.7818609E-02  0.8113607E-01
        1   -1    0    0  501    0  0.00000000000E+00  0.00000000000E+00  0.29158277660E+04  0.29158277660E+04  0.50400001928E-02 0. -1.
       -1   -1    0    0    0  501  0.00000000000E+00  0.00000000000E+00 -0.10507647843E+04  0.10507647843E+04  0.50400001928E-02 0.  1.
    10030    2    1    2    0    0  0.00000000000E+00  0.00000000000E+00  0.18650629817E+04  0.39665925502E+04  0.35007708485E+04 0.  0.
        2    1    3    3  502    0  0.48329547693E+03 -0.42955158973E+03 -0.91048463422E+03  0.11167234910E+04  0.25500000920E-02 0.  1.
       -2    1    3    3    0  502 -0.48329547693E+03  0.42955158973E+03  0.27755476160E+04  0.28498690592E+04  0.25500000920E-02 0. -1.
</event>
<event>
 5   0  0.1129219E-08  0.3499098E+04  0.7818609E-02  0.8114004E-01
       -1   -1    0    0    0  501  0.00000000000E+00  0.00000000000E+00  0.11673925816E+04  0.11673925816E+04  0.50400001928E-02 0. -1.
        1   -1    0    0  501    0  0.00000000000E+00  0.00000000000E+00 -0.26220155826E+04  0.26220155826E+04  0.50400001928E-02 0.  1.
    10030    2    1    2    0    0  0.00000000000E+00  0.00000000000E+00 -0.14546230010E+04  0.37894081642E+04  0.34990979066E+04 0.  0.
        5    1    3    3  502    0 -0.48537054799E+03 -0.16005368890E+03  0.10847413580E+04  0.11991195336E+04  0.46999998093E+01 0. -1.
       -5    1    3    3    0  502  0.48537054799E+03  0.16005368890E+03 -0.25393643590E+04  0.25902886306E+04  0.46999998093E+01 0.  1.
</event>
<event>
 5   0  0.3467834E-08  0.3495479E+04  0.7818609E-02  0.8114862E-01
       -2   -1    0    0    0  501  0.00000000000E+00  0.00000000000E+00  0.17091541579E+04  0.17091541579E+04  0.25500000920E-02 0. -1.
        2   -1    0    0  501    0  0.00000000000E+00  0.00000000000E+00 -0.17871959817E+04  0.17871959817E+04  0.25500000920E-02 0.  1.
    10030    2    1    2    0    0  0.00000000000E+00  0.00000000000E+00 -0.78041823774E+02  0.34963501396E+04  0.34954790477E+04 0.  0.
        3    1    3    3  502    0  0.16686891436E+04  0.29493004051E+03 -0.46701332986E+03  0.17577282632E+04  0.10100000352E+00 0. -1.
       -3    1    3    3    0  502 -0.16686891436E+04 -0.29493004051E+03  0.38897150608E+03  0.17386218765E+04  0.10100000352E+00 0.  1.
</event>
<event>
 5   0  0.1140808E-08  0.3499505E+04  0.7818609E-02  0.8113907E-01
        1   -1    0    0  501    0  0.00000000000E+00  0.00000000000E+00  0.11817505842E+04  0.11817505842E+04  0.50400001928E-02 0.  1.
       -1   -1    0    0    0  501  0.00000000000E+00  0.00000000000E+00 -0.25907611186E+04  0.25907611186E+04  0.50400001928E-02 0. -1.
    10030    2    1    2    0    0  0.00000000000E+00  0.00000000000E+00 -0.14090105344E+04  0.37725117028E+04  0.34995048023E+04 0.  0.
        3    1    3    3  502    0 -0.35227898853E+03 -0.90232607565E+03  0.86634154892E+03  0.12995539705E+04  0.10100000352E+00 0.  1.
       -3    1    3    3    0  502  0.35227898853E+03  0.90232607565E+03 -0.22753520833E+04  0.24729577323E+04  0.10100000352E+00 0. -1.
</event>
<event>
 5   0  0.1121462E-08  0.3499478E+04  0.7818609E-02  0.8113914E-01
        1   -1    0    0  501    0  0.00000000000E+00  0.00000000000E+00  0.22009335077E+04  0.22009335077E+04  0.50400001928E-02 0. -1.
       -1   -1    0    0    0  501  0.00000000000E+00  0.00000000000E+00 -0.13910400927E+04  0.13910400927E+04  0.50400001928E-02 0.  1.
    10030    2    1    2    0    0  0.00000000000E+00  0.00000000000E+00  0.80989341501E+03  0.35919736005E+04  0.34994781043E+04 0.  0.
        2    1    3    3  502    0  0.16547432786E+04  0.56398229280E+03  0.32997220592E+03  0.17790820671E+04  0.25500000920E-02 0.  1.
       -2    1    3    3    0  502 -0.16547432786E+04 -0.56398229280E+03  0.47992120910E+03  0.18128915334E+04  0.25500000920E-02 0. -1.
</event>
<event>
 5   0  0.1129219E-08  0.3499766E+04  0.7818609E-02  0.8113845E-01
       -1   -1    0    0    0  501  0.00000000000E+00  0.00000000000E+00  0.16283566876E+04  0.16283566876E+04  0.50400001928E-02 0.  1.
        1   -1    0    0  501    0  0.00000000000E+00  0.00000000000E+00 -0.18804792001E+04  0.18804792001E+04  0.50400001928E-02 0. -1.
    10030    2    1    2    0    0  0.00000000000E+00  0.00000000000E+00 -0.25212251250E+03  0.35088358877E+04  0.34997662102E+04 0.  0.
        5    1    3    3  502    0 -0.15792763166E+04  0.28249130542E+03  0.57442939914E+03  0.17040851641E+04  0.46999998093E+01 0. -1.
       -5    1    3    3    0  502  0.15792763166E+04 -0.28249130542E+03 -0.82655191164E+03  0.18047507236E+04  0.46999998093E+01 0.  1.
</event>
<event>
 5   0  0.3553585E-08  0.3500258E+04  0.7818609E-02  0.8113729E-01
       -2   -1    0    0    0  501  0.00000000000E+00  0.00000000000E+00  0.15280666045E+04  0.15280666045E+04  0.25500000920E-02 0. -1.
        2   -1    0    0  501    0  0.00000000000E+00  0.00000000000E+00 -0.20044622091E+04  0.20044622091E+04  0.25500000920E-02 0.  1.
    10030    2    1    2    0    0  0.00000000000E+00  0.00000000000E+00 -0.47639560467E+03  0.35325288136E+04  0.35002581400E+04 0.  0.
        2    1    3    3  502    0  0.71448536724E+03  0.21663868387E+03  0.13592822767E+04  0.15508288001E+04  0.25500000920E-02 0. -1.
       -2    1    3    3    0  502 -0.71448536724E+03 -0.21663868387E+03 -0.18356778814E+04  0.19817000135E+04  0.25500000920E-02 0.  1.
</event>
<event>
 5   0  0.3700096E-08  0.3500546E+04  0.7818609E-02  0.8113661E-01
       -2   -1    0    0    0  501  0.00000000000E+00  0.00000000000E+00  0.12480402835E+04  0.12480402835E+04  0.25500000920E-02 0. -1.
        2   -1    0    0  501    0  0.00000000000E+00  0.00000000000E+00 -0.24546127977E+04  0.24546127977E+04  0.25500000920E-02 0.  1.
    10030    2    1    2    0    0  0.00000000000E+00  0.00000000000E+00 -0.12065725143E+04  0.37026530812E+04  0.35005460442E+04 0.  0.
        4    1    3    3  502    0 -0.94497146644E+03 -0.13032402461E+04 -0.13300114737E+04  0.20881423190E+04  0.12699999809E+01 0.  1.
       -4    1    3    3    0  502  0.94497146644E+03  0.13032402461E+04  0.12343895940E+03  0.16145107622E+04  0.12699999809E+01 0. -1.
</event>
<event>
 5   0  0.1140808E-08  0.3500566E+04  0.7818609E-02  0.8113656E-01
       -1   -1    0    0    0  501  0.00000000000E+00  0.00000000000E+00  0.12712452966E+04  0.12712452966E+04  0.50400001928E-02 0. -1.
        1   -1    0    0  501    0  0.00000000000E+00  0.00000000000E+00 -0.24098341294E+04  0.24098341295E+04  0.50400001928E-02 0.  1.
    10030    2    1    2    0    0  0.00000000000E+00  0.00000000000E+00 -0.11385888328E+04  0.36810794261E+04  0.35005658415E+04 0.  0.
        3    1    3    3  502    0  0.28960047320E+03 -0.76060703043E+03 -0.21987478484E+04  0.23445433670E+04  0.10100000352E+00 0.  1.
       -3    1    3    3    0  502 -0.28960047320E+03  0.76060703043E+03  0.10601590155E+04  0.13365360591E+04  0.10100000352E+00 0. -1.
</event>
<event>
 5   0  0.3553585E-08  0.3496984E+04  0.7818609E-02  0.8114505E-01
        2   -1    0    0  501    0  0.00000000000E+00  0.00000000000E+00  0.20341038154E+04  0.20341038154E+04  0.25500000920E-02 0.  1.
       -2   -1    0    0    0  501  0.00000000000E+00  0.00000000000E+00 -0.15029835028E+04  0.15029835028E+04  0.25500000920E-02 0. -1.
    10030    2    1    2    0    0  0.00000000000E+00  0.00000000000E+00  0.53112031257E+03  0.35370873182E+04  0.34969841163E+04 0.  0.
        2    1    3    3  502    0  0.14135470762E+04  0.74618602618E+03  0.98243020392E+03  0.18761870983E+04  0.25500000920E-02 0.  1.
       -2    1    3    3    0  502 -0.14135470762E+04 -0.74618602618E+03 -0.45130989135E+03  0.16609002198E+04  0.25500000920E-02 0. -1.
</event>
<event>
 5   0  0.1129219E-08  0.3500139E+04  0.7818609E-02  0.8113757E-01
       -1   -1    0    0    0  501  0.00000000000E+00  0.00000000000E+00  0.32907861257E+04  0.32907861257E+04  0.50400001928E-02 0. -1.
        1   -1    0    0  501    0  0.00000000000E+00  0.00000000000E+00 -0.93070253673E+03  0.93070253674E+03  0.50400001928E-02 0.  1.
    10030    2    1    2    0    0  0.00000000000E+00  0.00000000000E+00  0.23600835889E+04  0.42214886624E+04  0.35001388515E+04 0.  0.
        5    1    3    3  502    0 -0.10749275234E+04 -0.46432090016E+03  0.27487299416E+04  0.29877418665E+04  0.46999998093E+01 0. -1.
       -5    1    3    3    0  502  0.10749275234E+04  0.46432090016E+03 -0.38864635269E+03  0.12337467959E+04  0.46999998093E+01 0.  1.
</event>
<event>
 5   0  0.1121462E-08  0.3502873E+04  0.7818609E-02  0.8113109E-01
       -1   -1    0    0    0  501  0.00000000000E+00  0.00000000000E+00  0.18563416819E+04  0.18563416819E+04  0.50400001928E-02 0. -1.
        1   -1    0    0  501    0  0.00000000000E+00  0.00000000000E+00 -0.16524597938E+04  0.16524597938E+04  0.50400001928E-02 0.  1.
    10030    2    1    2    0    0  0.00000000000E+00  0.00000000000E+00  0.20388188815E+03  0.35088014757E+04  0.35028731024E+04 0.  0.
        1    1    3    3  502    0 -0.63304053178E+03  0.18240523064E+03  0.17274992025E+04  0.18488551803E+04  0.50400001928E-02 0. -1.
       -1    1    3    3    0  502  0.63304053178E+03 -0.18240523064E+03 -0.15236173144E+04  0.16599462954E+04  0.50400001928E-02 0.  1.
</event>
<event>
 5   0  0.1121462E-08  0.3499546E+04  0.7818609E-02  0.8113898E-01
       -1   -1    0    0    0  501  0.00000000000E+00  0.00000000000E+00  0.10141620934E+04  0.10141620934E+04  0.50400001928E-02 0.  1.
        1   -1    0    0  501    0  0.00000000000E+00  0.00000000000E+00 -0.30189508229E+04  0.30189508229E+04  0.50400001928E-02 0. -1.
    10030    2    1    2    0    0  0.00000000000E+00  0.00000000000E+00 -0.20047887295E+04  0.40331129163E+04  0.34995459628E+04 0.  0.
        4    1    3    3  502    0 -0.34988776747E+02 -0.89917652408E+03  0.72706011172E+03  0.11568753844E+04  0.12699999809E+01 0.  1.
       -4    1    3    3    0  502  0.34988776747E+02  0.89917652408E+03 -0.27318488412E+04  0.28762375320E+04  0.12699999809E+01 0. -1.
</event>
<event>
 5   0  0.1129219E-08  0.3499558E+04  0.7818609E-02  0.8113895E-01
       -1   -1    0    0    0  501  0.00000000000E+00  0.00000000000E+00  0.17925880681E+04  0.17925880681E+04  0.50400001928E-02 0.  1.
        1   -1    0    0  501    0  0.00000000000E+00  0.00000000000E+00 -0.17079923179E+04  0.17079923179E+04  0.50400001928E-02 0. -1.
    10030    2    1    2    0    0  0.00000000000E+00  0.00000000000E+00  0.84595750185E+02  0.35005803860E+04  0.34995580575E+04 0.  0.
        5    1    3    3  502    0 -0.60004290022E+03 -0.18230773467E+03  0.16763040710E+04  0.17897779250E+04  0.46999998093E+01 0.  1.
       -5    1    3    3    0  502  0.60004290022E+03  0.18230773467E+03 -0.15917083208E+04  0.17108024611E+04  0.46999998093E+01 0. -1.
</event>
<event>
 5   0  0.1121462E-08  0.3500120E+04  0.7818609E-02  0.8113761E-01
       -1   -1    0    0    0  501  0.00000000000E+00  0.00000000000E+00  0.14572171728E+04  0.14572171728E+04  0.50400001928E-02 0. -1.
        1   -1    0    0  501    0  0.00000000000E+00  0.00000000000E+00 -0.21017527130E+04  0.21017527130E+04  0.50400001928E-02 0.  1.
    10030    2    1    2    0    0  0.00000000000E+00  0.00000000000E+00 -0.64453554018E+03  0.35589698858E+04  0.35001200816E+04 0.  0.
        1    1    3    3  502    0  0.17104852413E+04  0.18796992586E+03 -0.64640284875E+03  0.18381863607E+04  0.50400001928E-02 0. -1.
       -1    1    3    3    0  502 -0.17104852413E+04 -0.18796992586E+03  0.18673085739E+01  0.17207835252E+04  0.50400001928E-02 0.  1.
</event>
<event>
 5   0  0.3467834E-08  0.3508164E+04  0.7818609E-02  0.8111858E-01
       -2   -1    0    0    0  501  0.00000000000E+00  0.00000000000E+00  0.13769829788E+04  0.13769829788E+04  0.25500000920E-02 0. -1.
        2   -1    0    0  501    0  0.00000000000E+00  0.00000000000E+00 -0.22344531667E+04  0.22344531667E+04  0.25500000920E-02 0.  1.
    10030    2    1    2    0    0  0.00000000000E+00  0.00000000000E+00 -0.85747018787E+03  0.36114361455E+04  0.35081641794E+04 0.  0.
        3    1    3    3  502    0  0.13781021912E+04  0.60522420479E+03  0.49852592814E+03  0.15855567157E+04  0.10100000352E+00 0. -1.
       -3    1    3    3    0  502 -0.13781021912E+04 -0.60522420479E+03 -0.13559961160E+04  0.20258794298E+04  0.10100000352E+00 0.  1.
</event>
<event>
 5   0  0.3467834E-08  0.3501578E+04  0.7818609E-02  0.8113416E-01
        2   -1    0    0  501    0  0.00000000000E+00  0.00000000000E+00  0.27340993531E+04  0.27340993531E+04  0.25500000920E-02 0. -1.
       -2   -1    0    0    0  501  0.00000000000E+00  0.00000000000E+00 -0.11211231789E+04  0.11211231789E+04  0.25500000920E-02 0.  1.
    10030    2    1    2    0    0  0.00000000000E+00  0.00000000000E+00  0.16129761743E+04  0.38552225320E+04  0.35015780204E+04 0.  0.
        3    1    3    3  502    0 -0.56852684718E+03  0.13117621067E+04  0.19191583111E+04  0.23931383649E+04  0.10100000352E+00 0. -1.
       -3    1    3    3    0  502  0.56852684718E+03 -0.13117621067E+04 -0.30618213681E+03  0.14620841671E+04  0.10100000352E+00 0.  1.
</event>
<event>
 5   0  0.1129219E-08  0.3501519E+04  0.7818609E-02  0.8113430E-01
       -1   -1    0    0    0  501  0.00000000000E+00  0.00000000000E+00  0.21173894560E+04  0.21173894560E+04  0.50400001928E-02 0.  1.
        1   -1    0    0  501    0  0.00000000000E+00  0.00000000000E+00 -0.14476121118E+04  0.14476121118E+04  0.50400001928E-02 0. -1.
    10030    2    1    2    0    0  0.00000000000E+00  0.00000000000E+00  0.66977734413E+03  0.35650015678E+04  0.35015188830E+04 0.  0.
        5    1    3    3  502    0 -0.34488783498E+03  0.98287075789E+03 -0.10978029941E+04  0.15133327623E+04  0.46999998093E+01 0. -1.
       -5    1    3    3    0  502  0.34488783498E+03 -0.98287075789E+03  0.17675803383E+04  0.20516688056E+04  0.46999998093E+01 0.  1.
</event>
<event>
 5   0  0.1140808E-08  0.3499356E+04  0.7818609E-02  0.8113942E-01
       -1   -1    0    0    0  501  0.00000000000E+00  0.00000000000E+00  0.93614490476E+03  0.93614490478E+03  0.50400001928E-02 0.  1.
        1   -1    0    0  501    0  0.00000000000E+00  0.00000000000E+00 -0.32701921447E+04  0.32701921447E+04  0.50400001928E-02 0. -1.
    10030    2    1    2    0    0  0.00000000000E+00  0.00000000000E+00 -0.23340472399E+04  0.42063370494E+04  0.34993563487E+04 0.  0.
        3    1    3    3  502    0  0.63376148280E+03  0.15509956446E+04 -0.17729865915E+04  0.24394102915E+04  0.10100000352E+00 0. -1.
       -3    1    3    3    0  502 -0.63376148280E+03 -0.15509956446E+04 -0.56106064840E+03  0.17669267579E+04  0.10100000352E+00 0.  1.
</event>
<event>
 5   0  0.1140808E-08  0.3501885E+04  0.7818609E-02  0.8113343E-01
        1   -1    0    0  501    0  0.00000000000E+00  0.00000000000E+00  0.18908751944E+04  0.18908751944E+04  0.50400001928E-02 0. -1.
       -1   -1    0    0    0  501  0.00000000000E+00  0.00000000000E+00 -0.16213654522E+04  0.16213654522E+04  0.50400001928E-02 0.  1.
    10030    2    1    2    0    0  0.00000000000E+00  0.00000000000E+00  0.26950974219E+03  0.35122406466E+04  0.35018850436E+04 0.  0.
        3    1    3    3  502    0  0.39249015869E+03 -0.11210885933E+04  0.14249927036E+04  0.18551259726E+04  0.10100000352E+00 0. -1.
       -3    1    3    3    0  502 -0.39249015869E+03  0.11210885933E+04 -0.11554829614E+04  0.16571146741E+04  0.10100000352E+00 0.  1.
</event>
<event>
 5   0  0.3553585E-08  0.3498265E+04  0.7818609E-02  0.8114201E-01
        2   -1    0    0  501    0  0.00000000000E+00  0.00000000000E+00  0.16740092131E+04  0.16740092131E+04  0.25500000920E-02 0.  1.
       -2   -1    0    0    0  501  0.00000000000E+00  0.00000000000E+00 -0.18276267029E+04  0.18276267029E+04  0.25500000920E-02 0. -1.
    10030    2    1    2    0    0  0.00000000000E+00  0.00000000000E+00 -0.15361748973E+03  0.35016359160E+04  0.34982646777E+04 0.  0.
        2    1    3    3  502    0  0.51153758297E+03  0.15178791328E+04 -0.78022074754E+03  0.17816767876E+04  0.25500000920E-02 0.  1.
       -2    1    3    3    0  502 -0.51153758297E+03 -0.15178791328E+04  0.62660325780E+03  0.17199591284E+04  0.25500000920E-02 0. -1.
</event>
<event>
 5   0  0.3553585E-08  0.3499685E+04  0.7818609E-02  0.8113865E-01
        2   -1    0    0  501    0  0.00000000000E+00  0.00000000000E+00  0.23135079935E+04  0.23135079935E+04  0.25500000920E-02 0.  1.
       -2   -1    0    0    0  501  0.00000000000E+00  0.00000000000E+00 -0.13235093379E+04  0.13235093379E+04  0.25500000920E-02 0. -1.
    10030    2    1    2    0    0  0.00000000000E+00  0.00000000000E+00  0.98999865561E+03  0.36370173314E+04  0.34996853759E+04 0.  0.
        2    1    3    3  502    0  0.47506534848E+03  0.14073885990E+04 -0.46623964277E+03  0.15568587471E+04  0.25500000920E-02 0. -1.
       -2    1    3    3    0  502 -0.47506534848E+03 -0.14073885990E+04  0.14562382984E+04  0.20801585842E+04  0.25500000920E-02 0.  1.
</event>
<event>
 5   0  0.1121462E-08  0.3509690E+04  0.7818609E-02  0.8111497E-01
       -1   -1    0    0    0  501  0.00000000000E+00  0.00000000000E+00  0.17444226463E+04  0.17444226463E+04  0.50400001928E-02 0.  1.
        1   -1    0    0  501    0  0.00000000000E+00  0.00000000000E+00 -0.17653297865E+04  0.17653297865E+04  0.50400001928E-02 0. -1.
    10030    2    1    2    0    0  0.00000000000E+00  0.00000000000E+00 -0.20907140261E+02  0.35097524328E+04  0.35096901617E+04 0.  0.
        4    1    3    3  502    0 -0.30259894924E+03  0.12964278344E+04 -0.11537972531E+04  0.17616869665E+04  0.12699999809E+01 0. -1.
       -4    1    3    3    0  502  0.30259894924E+03 -0.12964278344E+04  0.11328901128E+04  0.17480654663E+04  0.12699999809E+01 0.  1.
</event>
<event>
 5   0  0.3628017E-08  0.3502144E+04  0.7818609E-02  0.8113282E-01
       -2   -1    0    0    0  501  0.00000000000E+00  0.00000000000E+00  0.12800856149E+04  0.12800856149E+04  0.25500000920E-02 0.  1.
        2   -1    0    0  501    0  0.00000000000E+00  0.00000000000E+00 -0.23953497315E+04  0.23953497315E+04  0.25500000920E-02 0. -1.
    10030    2    1    2    0    0  0.00000000000E+00  0.00000000000E+00 -0.11152641166E+04  0.36754353463E+04  0.35021437628E+04 0.  0.
        1    1    3    3  502    0  0.87094104547E+03 -0.59775721058E+03  0.90803978550E+03  0.13929781906E+04  0.50400001928E-02 0.  1.
       -1    1    3    3    0  502 -0.87094104547E+03  0.59775721058E+03 -0.20233039021E+04  0.22824571557E+04  0.50400001928E-02 0. -1.
</event>
<event>
 5   0  0.1121462E-08  0.3498030E+04  0.7818609E-02  0.8114257E-01
       -4   -1    0    0    0  501  0.00000000000E+00  0.00000000000E+00  0.12572981944E+04  0.12572988358E+04  0.12699999809E+01 0.  1.
        4   -1    0    0  501    0  0.00000000000E+00  0.00000000000E+00 -0.24330364920E+04  0.24330368235E+04  0.12699999809E+01 0. -1.
    10030    2    1    2    0    0  0.00000000000E+00  0.00000000000E+00 -0.11757382977E+04  0.36903356593E+04  0.34980304077E+04 0.  0.
        2    1    3    3  502    0 -0.17310044236E+04 -0.24935404943E+03 -0.61146917903E+03  0.18526867823E+04  0.25500000920E-02 0.  1.
       -2    1    3    3    0  502  0.17310044236E+04  0.24935404943E+03 -0.56426911867E+03  0.18376488769E+04  0.25500000920E-02 0. -1.
</event>
<event>
 5   0  0.3554451E-08  0.3499532E+04  0.7818609E-02  0.8113901E-01
       -2   -1    0    0    0  501  0.00000000000E+00  0.00000000000E+00  0.26461796617E+04  0.26461796617E+04  0.25500000920E-02 0.  1.
        2   -1    0    0  501    0  0.00000000000E+00  0.00000000000E+00 -0.11570192511E+04  0.11570192511E+04  0.25500000920E-02 0. -1.
    10030    2    1    2    0    0  0.00000000000E+00  0.00000000000E+00  0.14891604105E+04  0.38031989128E+04  0.34995318604E+04 0.  0.
        5    1    3    3  502    0  0.96816881281E+03  0.32004905910E+03 -0.80073257912E+03  0.12965249722E+04  0.46999998093E+01 0. -1.
       -5    1    3    3    0  502 -0.96816881281E+03 -0.32004905910E+03  0.22898929896E+04  0.25066739406E+04  0.46999998093E+01 0.  1.
</event>
<event>
 5   0  0.3553585E-08  0.3507121E+04  0.7818609E-02  0.8112104E-01
       -2   -1    0    0    0  501  0.00000000000E+00  0.00000000000E+00  0.19280069226E+04  0.19280069226E+04  0.25500000920E-02 0.  1.
        2   -1    0    0  501    0  0.00000000000E+00  0.00000000000E+00 -0.15948983229E+04  0.15948983229E+04  0.25500000920E-02 0. -1.
    10030    2    1    2    0    0  0.00000000000E+00  0.00000000000E+00  0.33310859975E+03  0.35229052455E+04  0.35071213309E+04 0.  0.
        2    1    3    3  502    0  0.14530397173E+04 -0.76653136506E+03  0.78256809379E+03  0.18196998585E+04  0.25500000920E-02 0.  1.
       -2    1    3    3    0  502 -0.14530397173E+04  0.76653136506E+03 -0.44945949404E+03  0.17032053870E+04  0.25500000920E-02 0. -1.
</event>
<event>
 5   0  0.1121462E-08  0.3499536E+04  0.7818609E-02  0.8113900E-01
        3   -1    0    0  501    0  0.00000000000E+00  0.00000000000E+00  0.26278718088E+04  0.26278718107E+04  0.10100000352E+00 0. -1.
       -3   -1    0    0    0  501  0.00000000000E+00  0.00000000000E+00 -0.11650827850E+04  0.11650827894E+04  0.10100000352E+00 0.  1.
    10030    2    1    2    0    0  0.00000000000E+00  0.00000000000E+00  0.14627890238E+04  0.37929546001E+04  0.34995360936E+04 0.  0.
        4    1    3    3  502    0  0.40387208539E+03  0.94401458810E+03  0.22670197894E+04  0.24887057967E+04  0.12699999809E+01 0. -1.
       -4    1    3    3    0  502 -0.40387208539E+03 -0.94401458810E+03 -0.80423076564E+03  0.13042488034E+04  0.12699999809E+01 0.  1.
</event>
<event>
 5   0  0.3467834E-08  0.3499241E+04  0.7818609E-02  0.8113970E-01
        2   -1    0    0  501    0  0.00000000000E+00  0.00000000000E+00  0.13948399885E+04  0.13948399885E+04  0.25500000920E-02 0.  1.
       -2   -1    0    0    0  501  0.00000000000E+00  0.00000000000E+00 -0.21946395899E+04  0.21946395899E+04  0.25500000920E-02 0. -1.
    10030    2    1    2    0    0  0.00000000000E+00  0.00000000000E+00 -0.79979960140E+03  0.35894795783E+04  0.34992405234E+04 0.  0.
        3    1    3    3  502    0  0.72435084147E+03  0.19650005103E+03  0.12213241497E+04  0.14335023894E+04  0.10100000352E+00 0.  1.
       -3    1    3    3    0  502 -0.72435084147E+03 -0.19650005103E+03 -0.20211237511E+04  0.21559771889E+04  0.10100000352E+00 0. -1.
</event>
<event>
 5   0  0.1140808E-08  0.3499468E+04  0.7818609E-02  0.8113916E-01
       -1   -1    0    0    0  501  0.00000000000E+00  0.00000000000E+00  0.12201050675E+04  0.12201050675E+04  0.50400001928E-02 0.  1.
        1   -1    0    0  501    0  0.00000000000E+00  0.00000000000E+00 -0.25092668245E+04  0.25092668245E+04  0.50400001928E-02 0. -1.
    10030    2    1    2    0    0  0.00000000000E+00  0.00000000000E+00 -0.12891617570E+04  0.37293718920E+04  0.34994680557E+04 0.  0.
        3    1    3    3  502    0 -0.30259098085E+03 -0.11262140721E+04  0.74559178132E+03  0.13841338636E+04  0.10100000352E+00 0.  1.
       -3    1    3    3    0  502  0.30259098085E+03  0.11262140721E+04 -0.20347535383E+04  0.23452380284E+04  0.10100000352E+00 0. -1.
</event>
<event>
 5   0  0.3700096E-08  0.3500886E+04  0.7818609E-02  0.8113580E-01
        2   -1    0    0  501    0  0.00000000000E+00  0.00000000000E+00  0.24647209603E+04  0.24647209603E+04  0.25500000920E-02 0.  1.
       -2   -1    0    0    0  501  0.00000000000E+00  0.00000000000E+00 -0.12431631509E+04  0.12431631509E+04  0.25500000920E-02 0. -1.
    10030    2    1    2    0    0  0.00000000000E+00  0.00000000000E+00  0.12215578095E+04  0.37078841112E+04  0.35008857594E+04 0.  0.
        4    1    3    3  502    0  0.17048509262E+03 -0.17065991436E+04  0.24007998204E+03  0.17318157565E+04  0.12699999809E+01 0. -1.
       -4    1    3    3    0  502 -0.17048509262E+03  0.17065991436E+04  0.98147782745E+03  0.19760683547E+04  0.12699999809E+01 0.  1.
</event>
<event>
 5   0  0.1121462E-08  0.3502134E+04  0.7818609E-02  0.8113284E-01
       -1   -1    0    0    0  501  0.00000000000E+00  0.00000000000E+00  0.20137568143E+04  0.20137568143E+04  0.50400001928E-02 0. -1.
        1   -1    0    0  501    0  0.00000000000E+00  0.00000000000E+00 -0.15226442216E+04  0.15226442216E+04  0.50400001928E-02 0.  1.
    10030    2    1    2    0    0  0.00000000000E+00  0.00000000000E+00  0.49111259276E+03  0.35364010359E+04  0.35021337364E+04 0.  0.
        4    1    3    3  502    0  0.68180664915E+03 -0.12228851473E+04 -0.81636334722E+03  0.16207279592E+04  0.12699999809E+01 0.  1.
       -4    1    3    3    0  502 -0.68180664915E+03  0.12228851473E+04  0.13074759400E+04  0.19156730767E+04  0.12699999809E+01 0. -1.
</event>
<event>
 5   0  0.1121462E-08  0.3499967E+04  0.7818609E-02  0.8113798E-01
        1   -1    0    0  501    0  0.00000000000E+00  0.00000000000E+00  0.18760062326E+04  0.18760062326E+04  0.50400001928E-02 0.  1.
       -1   -1    0    0    0  501  0.00000000000E+00  0.00000000000E+00 -0.16324261506E+04  0.16324261506E+04  0.50400001928E-02 0. -1.
    10030    2    1    2    0    0  0.00000000000E+00  0.00000000000E+00  0.24358008200E+03  0.35084323832E+04  0.34999666471E+04 0.  0.
        1    1    3    3  502    0  0.37759828726E+03  0.84036744417E+03  0.16132207032E+04  0.18577618106E+04  0.50400001928E-02 0.  1.
       -1    1    3    3    0  502 -0.37759828726E+03 -0.84036744417E+03 -0.13696406212E+04  0.16506705725E+04  0.50400001928E-02 0. -1.
</event>
<event>
 5   0  0.3554451E-08  0.3509668E+04  0.7818609E-02  0.8111503E-01
       -2   -1    0    0    0  501  0.00000000000E+00  0.00000000000E+00  0.13602500351E+04  0.13602500351E+04  0.25500000920E-02 0.  1.
        2   -1    0    0  501    0  0.00000000000E+00  0.00000000000E+00 -0.22638793616E+04  0.22638793616E+04  0.25500000920E-02 0. -1.
    10030    2    1    2    0    0  0.00000000000E+00  0.00000000000E+00 -0.90362932651E+03  0.36241293967E+04  0.35096677798E+04 0.  0.
        5    1    3    3  502    0 -0.53220609280E+03 -0.10781481722E+03  0.12713048255E+04  0.13824273613E+04  0.46999998093E+01 0.  1.
       -5    1    3    3    0  502  0.53220609280E+03  0.10781481722E+03 -0.21749341520E+04  0.22417020354E+04  0.46999998093E+01 0. -1.
</event>
<event>
 5   0  0.1129219E-08  0.3496812E+04  0.7818609E-02  0.8114546E-01
       -1   -1    0    0    0  501  0.00000000000E+00  0.00000000000E+00  0.18086956906E+04  0.18086956906E+04  0.50400001928E-02 0. -1.
        1   -1    0    0  501    0  0.00000000000E+00  0.00000000000E+00 -0.16901258977E+04  0.16901258977E+04  0.50400001928E-02 0.  1.
    10030    2    1    2    0    0  0.00000000000E+00  0.00000000000E+00  0.11856979292E+03  0.34988215884E+04  0.34968119354E+04 0.  0.
        5    1    3    3  502    0  0.13273037000E+04 -0.54311286087E+03 -0.94138718783E+03  0.17154995247E+04  0.46999998093E+01 0.  1.
       -5    1    3    3    0  502 -0.13273037000E+04  0.54311286087E+03  0.10599569807E+04  0.17833220637E+04  0.46999998093E+01 0. -1.
</event>
<event>
 5   0  0.3467834E-08  0.3498757E+04  0.7818609E-02  0.8114085E-01
        2   -1    0    0  501    0  0.00000000000E+00  0.00000000000E+00  0.23097696769E+04  0.23097696769E+04  0.25500000920E-02 0. -1.
       -2   -1    0    0    0  501  0.00000000000E+00  0.00000000000E+00 -0.13249481025E+04  0.13249481025E+04  0.25500000920E-02 0.  1.
    10030    2    1    2    0    0  0.00000000000E+00  0.00000000000E+00  0.98482157438E+03  0.36347177794E+04  0.34987568939E+04 0.  0.
        3    1    3    3  502    0 -0.64773839932E+03 -0.78063066109E+03 -0.98823798978E+03  0.14161792251E+04  0.10100000352E+00 0.  1.
       -3    1    3    3    0  502  0.64773839932E+03  0.78063066109E+03  0.19730595642E+04  0.22185385543E+04  0.10100000352E+00 0. -1.
</event>
<event>
 5   0  0.3628017E-08  0.3500516E+04  0.7818609E-02  0.8113668E-01
        2   -1    0    0  501    0  0.00000000000E+00  0.00000000000E+00  0.17908591621E+04  0.17908591621E+04  0.25500000920E-02 0. -1.
       -2   -1    0    0    0  501  0.00000000000E+00  0.00000000000E+00 -0.17105778000E+04  0.17105778000E+04  0.25500000920E-02 0.  1.
    10030    2    1    2    0    0  0.00000000000E+00  0.00000000000E+00  0.80281362054E+02  0.35014369621E+04  0.35005164908E+04 0.  0.
        1    1    3    3  502    0 -0.14860024251E+04  0.89430701597E+03  0.27560793256E+03  0.17561173021E+04  0.50400001928E-02 0. -1.
       -1    1    3    3    0  502  0.14860024251E+04 -0.89430701597E+03 -0.19532657051E+03  0.17453196600E+04  0.50400001928E-02 0.  1.
</event>
<event>
 5   0  0.1121462E-08  0.3499688E+04  0.7818609E-02  0.8113864E-01
        1   -1    0    0  501    0  0.00000000000E+00  0.00000000000E+00  0.19405900907E+04  0.19405900907E+04  0.50400001928E-02 0.  1.
       -1   -1    0    0    0  501  0.00000000000E+00  0.00000000000E+00 -0.15778471128E+04  0.15778471128E+04  0.50400001928E-02 0. -1.
    10030    2    1    2    0    0  0.00000000000E+00  0.00000000000E+00  0.36274297788E+03  0.35184372035E+04  0.34996882557E+04 0.  0.
        2    1    3    3  502    0 -0.14058512927E+02 -0.10330506929E+04 -0.12384846181E+04  0.16128346242E+04  0.25500000920E-02 0. -1.
       -2    1    3    3    0  502  0.14058512927E+02  0.10330506929E+04  0.16012275960E+04  0.19056025792E+04  0.25500000920E-02 0.  1.
</event>
<event>
 5   0  0.1121462E-08  0.3499531E+04  0.7818609E-02  0.8113901E-01
       -1   -1    0    0    0  501  0.00000000000E+00  0.00000000000E+00  0.16823583126E+04  0.16823583126E+04  0.50400001928E-02 0. -1.
        1   -1    0    0  501    0  0.00000000000E+00  0.00000000000E+00 -0.18198731134E+04  0.18198731134E+04  0.50400001928E-02 0.  1.
    10030    2    1    2    0    0  0.00000000000E+00  0.00000000000E+00 -0.13751480078E+03  0.35022314260E+04  0.34995306315E+04 0.  0.
        2    1    3    3  502    0  0.10284604904E+04  0.10208805471E+03  0.13442549632E+04  0.16956339101E+04  0.25500000920E-02 0. -1.
       -2    1    3    3    0  502 -0.10284604904E+04 -0.10208805471E+03 -0.14817697639E+04  0.18065975159E+04  0.25500000920E-02 0.  1.
</event>
<event>
 5   0  0.3467834E-08  0.3498850E+04  0.7818609E-02  0.8114062E-01
        2   -1    0    0  501    0  0.00000000000E+00  0.00000000000E+00  0.24721867821E+04  0.24721867821E+04  0.25500000920E-02 0. -1.
       -2   -1    0    0    0  501  0.00000000000E+00  0.00000000000E+00 -0.12379680265E+04  0.12379680265E+04  0.25500000920E-02 0.  1.
    10030    2    1    2    0    0  0.00000000000E+00  0.00000000000E+00  0.12342187557E+04  0.37101548086E+04  0.34988502064E+04 0.  0.
        3    1    3    3  502    0  0.78043804643E+03  0.15146321242E+02 -0.10430655880E+04  0.13028042011E+04  0.10100000352E+00 0.  1.
       -3    1    3    3    0  502 -0.78043804643E+03 -0.15146321242E+02  0.22772843436E+04  0.24073506075E+04  0.10100000352E+00 0. -1.
</event>
<event>
 5   0  0.3554451E-08  0.3500073E+04  0.7818609E-02  0.8113773E-01
       -2   -1    0    0    0  501  0.00000000000E+00  0.00000000000E+00  0.13681346275E+04  0.13681346275E+04  0.25500000920E-02 0. -1.
        2   -1    0    0  501    0  0.00000000000E+00  0.00000000000E+00 -0.22385427729E+04  0.22385427729E+04  0.25500000920E-02 0.  1.
    10030    2    1    2    0    0  0.00000000000E+00  0.00000000000E+00 -0.87040814534E+03  0.36066774004E+04  0.35000730751E+04 0.  0.
        5    1    3    3  502    0  0.22365453556E+03 -0.64201807084E+03  0.12264860367E+04  0.14023190232E+04  0.46999998093E+01 0. -1.
       -5    1    3    3    0  502 -0.22365453556E+03  0.64201807084E+03 -0.20968941820E+04  0.22043583772E+04  0.46999998093E+01 0.  1.
</event>
<event>
 5   0  0.1121462E-08  0.3498534E+04  0.7818609E-02  0.8114137E-01
       -1   -1    0    0    0  501  0.00000000000E+00  0.00000000000E+00  0.17834383737E+04  0.17834383737E+04  0.50400001928E-02 0. -1.
        1   -1    0    0  501    0  0.00000000000E+00  0.00000000000E+00 -0.17157506606E+04  0.17157506606E+04  0.50400001928E-02 0.  1.
    10030    2    1    2    0    0  0.00000000000E+00  0.00000000000E+00  0.67687713071E+02  0.34991890343E+04  0.34985343033E+04 0.  0.
        4    1    3    3  502    0  0.12843647966E+04  0.51827857281E+03 -0.10348730008E+04  0.17289214414E+04  0.12699999809E+01 0.  1.
       -4    1    3    3    0  502 -0.12843647966E+04 -0.51827857281E+03  0.11025607139E+04  0.17702675929E+04  0.12699999809E+01 0. -1.
</event>
<event>
 5   0  0.1121462E-08  0.3500001E+04  0.7818609E-02  0.8113790E-01
        1   -1    0    0  501    0  0.00000000000E+00  0.00000000000E+00  0.19683922239E+04  0.19683922239E+04  0.50400001928E-02 0. -1.
       -1   -1    0    0    0  501  0.00000000000E+00  0.00000000000E+00 -0.15558395712E+04  0.15558395712E+04  0.50400001928E-02 0.  1.
    10030    2    1    2    0    0  0.00000000000E+00  0.00000000000E+00  0.41255265266E+03  0.35242317951E+04  0.35000014364E+04 0.  0.
        4    1    3    3  502    0  0.12108021431E+04 -0.84260467403E+03  0.11543232645E+04  0.18730959074E+04  0.12699999809E+01 0. -1.
       -4    1    3    3    0  502 -0.12108021431E+04  0.84260467403E+03 -0.74177061184E+03  0.16511358878E+04  0.12699999809E+01 0.  1.
</event>
<event>
 5   0  0.1121462E-08  0.3500766E+04  0.7818609E-02  0.8113608E-01
        1   -1    0    0  501    0  0.00000000000E+00  0.00000000000E+00  0.28131372269E+04  0.28131372269E+04  0.50400001928E-02 0. -1.
       -1   -1    0    0    0  501  0.00000000000E+00  0.00000000000E+00 -0.10891186823E+04  0.10891186823E+04  0.50400001928E-02 0.  1.
    10030    2    1    2    0    0  0.00000000000E+00  0.00000000000E+00  0.17240185446E+04  0.39022559092E+04  0.35007658075E+04 0.  0.
        1    1    3    3  502    0 -0.99376949256E+03  0.16270059240E+03  0.24579159127E+04  0.26562002788E+04  0.50400001928E-02 0. -1.
       -1    1    3    3    0  502  0.99376949256E+03 -0.16270059240E+03 -0.73389736811E+03  0.12460556304E+04  0.50400001928E-02 0.  1.
</event>
<event>
 5   0  0.1121462E-08  0.3498058E+04  0.7818609E-02  0.8114250E-01
       -1   -1    0    0    0  501  0.00000000000E+00  0.00000000000E+00  0.12267569222E+04  0.12267569223E+04  0.50400001928E-02 0.  1.
        1   -1    0    0  501    0  0.00000000000E+00  0.00000000000E+00 -0.24936506137E+04  0.24936506137E+04  0.50400001928E-02 0. -1.
    10030    2    1    2    0    0  0.00000000000E+00  0.00000000000E+00 -0.12668936915E+04  0.37204075360E+04  0.34980584055E+04 0.  0.
        1    1    3    3  502    0 -0.37606049284E+03  0.13596684251E+04 -0.17330828372E+04  0.22346578801E+04  0.50400001928E-02 0. -1.
       -1    1    3    3    0  502  0.37606049284E+03 -0.13596684251E+04  0.46618914568E+03  0.14857496559E+04  0.50400001928E-02 0.  1.
</event>
<event>
 5   0  0.1121462E-08  0.3498688E+04  0.7818609E-02  0.8114101E-01
        1   -1    0    0  501    0  0.00000000000E+00  0.00000000000E+00  0.20000721992E+04  0.20000721993E+04  0.50400001928E-02 0. -1.
       -1   -1    0    0    0  501  0.00000000000E+00  0.00000000000E+00 -0.15300467598E+04  0.15300467598E+04  0.50400001928E-02 0.  1.
    10030    2    1    2    0    0  0.00000000000E+00  0.00000000000E+00  0.47002543942E+03  0.35301189591E+04  0.34986877471E+04 0.  0.
        2    1    3    3  502    0 -0.84928536566E+03 -0.12248628334E+04  0.11590068173E+04  0.18880867024E+04  0.25500000920E-02 0. -1.
       -2    1    3    3    0  502  0.84928536566E+03  0.12248628334E+04 -0.68898137790E+03  0.16420322567E+04  0.25500000920E-02 0.  1.
</event>
<event>
 5   0  0.1129219E-08  0.3500087E+04  0.7818609E-02  0.8113769E-01
        1   -1    0    0  501    0  0.00000000000E+00  0.00000000000E+00  0.17064133275E+04  0.17064133275E+04  0.50400001928E-02 0.  1.
       -1   -1    0    0    0  501  0.00000000000E+00  0.00000000000E+00 -0.17947891754E+04  0.17947891754E+04  0.50400001928E-02 0. -1.
    10030    2    1    2    0    0  0.00000000000E+00  0.00000000000E+00 -0.88375847939E+02  0.35012025030E+04  0.35000869527E+04 0.  0.
        5    1    3    3  502    0 -0.63202197920E+03  0.64222686157E+03  0.14565311996E+04  0.17127207447E+04  0.46999998093E+01 0.  1.
       -5    1    3    3    0  502  0.63202197920E+03 -0.64222686157E+03 -0.15449070476E+04  0.17884817582E+04  0.46999998093E+01 0. -1.
</event>
<event>
 5   0  0.1121462E-08  0.3500755E+04  0.7818609E-02  0.8113611E-01
       -1   -1    0    0    0  501  0.00000000000E+00  0.00000000000E+00  0.27084671737E+04  0.27084671737E+04  0.50400001928E-02 0.  1.
        1   -1    0    0  501    0  0.00000000000E+00  0.00000000000E+00 -0.11312011969E+04  0.11312011969E+04  0.50400001928E-02 0. -1.
    10030    2    1    2    0    0  0.00000000000E+00  0.00000000000E+00  0.15772659768E+04  0.38396683707E+04  0.35007549521E+04 0.  0.
        2    1    3    3  502    0 -0.89678593654E+03  0.14727584237E+04  0.11187330223E+04  0.20554332794E+04  0.25500000920E-02 0.  1.
       -2    1    3    3    0  502  0.89678593654E+03 -0.14727584237E+04  0.45853295449E+03  0.17842350913E+04  0.25500000920E-02 0. -1.
</event>
<event>
 5   0  0.3628017E-08  0.3499529E+04  0.7818609E-02  0.8113902E-01
       -2   -1    0    0    0  501  0.00000000000E+00  0.00000000000E+00  0.12420974980E+04  0.12420974980E+04  0.25500000920E-02 0.  1.
        2   -1    0    0  501    0  0.00000000000E+00  0.00000000000E+00 -0.24649235511E+04  0.24649235511E+04  0.25500000920E-02 0. -1.
    10030    2    1    2    0    0  0.00000000000E+00  0.00000000000E+00 -0.12228260531E+04  0.37070210492E+04  0.34995287544E+04 0.  0.
        1    1    3    3  502    0 -0.80672942678E+03 -0.13470943996E+04 -0.14293340238E+04  0.21233161425E+04  0.50400001928E-02 0. -1.
       -1    1    3    3    0  502  0.80672942678E+03  0.13470943996E+04  0.20650797070E+03  0.15837049067E+04  0.50400001928E-02 0.  1.
</event>
<event>
 5   0  0.3628017E-08  0.3502010E+04  0.7818609E-02  0.8113314E-01
       -2   -1    0    0    0  501  0.00000000000E+00  0.00000000000E+00  0.11435487703E+04  0.11435487703E+04  0.25500000920E-02 0. -1.
        2   -1    0    0  501    0  0.00000000000E+00  0.00000000000E+00 -0.26811440638E+04  0.26811440638E+04  0.25500000920E-02 0.  1.
    10030    2    1    2    0    0  0.00000000000E+00  0.00000000000E+00 -0.15375952935E+04  0.38246928340E+04  0.35020102781E+04 0.  0.
        1    1    3    3  502    0 -0.12795741590E+04 -0.72427986535E+03  0.26967250941E+03  0.14948627408E+04  0.50400001928E-02 0. -1.
       -1    1    3    3    0  502  0.12795741590E+04  0.72427986535E+03 -0.18072678029E+04  0.23298300932E+04  0.50400001928E-02 0.  1.
</event>
<event>
 5   0  0.3553585E-08  0.3499859E+04  0.7818609E-02  0.8113823E-01
       -2   -1    0    0    0  501  0.00000000000E+00  0.00000000000E+00  0.17605413242E+04  0.17605413242E+04  0.25500000920E-02 0.  1.
        2   -1    0    0  501    0  0.00000000000E+00  0.00000000000E+00 -0.17393812870E+04  0.17393812870E+04  0.25500000920E-02 0. -1.
    10030    2    1    2    0    0  0.00000000000E+00  0.00000000000E+00  0.21160037179E+02  0.34999226112E+04  0.34998586453E+04 0.  0.
        2    1    3    3  502    0 -0.53401520174E+03  0.11687909172E+04  0.11984603863E+04  0.17571430623E+04  0.25500000920E-02 0.  1.
       -2    1    3    3    0  502  0.53401520174E+03 -0.11687909172E+04 -0.11773003492E+04  0.17427795489E+04  0.25500000920E-02 0. -1.
</event>
<event>
 5   0  0.1121462E-08  0.3492777E+04  0.7818609E-02  0.8115504E-01
        1   -1    0    0  501    0  0.00000000000E+00  0.00000000000E+00  0.13698986155E+04  0.13698986155E+04  0.50400001928E-02 0.  1.
       -1   -1    0    0    0  501  0.00000000000E+00  0.00000000000E+00 -0.22263496788E+04  0.22263496788E+04  0.50400001928E-02 0. -1.
    10030    2    1    2    0    0  0.00000000000E+00  0.00000000000E+00 -0.85645106326E+03  0.35962482943E+04  0.34927773148E+04 0.  0.
        4    1    3    3  502    0 -0.16065243700E+04  0.15054980044E+03 -0.11160622752E+04  0.19619333344E+04  0.12699999809E+01 0. -1.
       -4    1    3    3    0  502  0.16065243700E+04 -0.15054980044E+03  0.25961121190E+03  0.16343149599E+04  0.12699999809E+01 0.  1.
</event>
<event>
 5   0  0.1121462E-08  0.3499842E+04  0.7818609E-02  0.8113827E-01
       -1   -1    0    0    0  501  0.00000000000E+00  0.00000000000E+00  0.13112219273E+04  0.13112219273E+04  0.50400001928E-02 0.  1.
        1   -1    0    0  501    0  0.00000000000E+00  0.00000000000E+00 -0.23353965033E+04  0.23353965034E+04  0.50400001928E-02 0. -1.
    10030    2    1    2    0    0  0.00000000000E+00  0.00000000000E+00 -0.10241745761E+04  0.36466184306E+04  0.34998417702E+04 0.  0.
        4    1    3    3  502    0 -0.17153597816E+04 -0.29447555052E+03 -0.70149793650E+03  0.18765063277E+04  0.12699999809E+01 0. -1.
       -4    1    3    3    0  502  0.17153597816E+04  0.29447555052E+03 -0.32267663958E+03  0.17701121029E+04  0.12699999809E+01 0.  1.
</event>
<event>
 5   0  0.1121462E-08  0.3497853E+04  0.7818609E-02  0.8114299E-01
        1   -1    0    0  501    0  0.00000000000E+00  0.00000000000E+00  0.33522832099E+04  0.33522832099E+04  0.50400001928E-02 0.  1.
       -1   -1    0    0    0  501  0.00000000000E+00  0.00000000000E+00 -0.91243586046E+03  0.91243586047E+03  0.50400001928E-02 0. -1.
    10030    2    1    2    0    0  0.00000000000E+00  0.00000000000E+00  0.24398473495E+04  0.42647190704E+04  0.34978527214E+04 0.  0.
        1    1    3    3  502    0 -0.26281534897E+03 -0.11819685892E+04  0.27585927725E+04  0.30126326922E+04  0.50400001928E-02 0.  1.
       -1    1    3    3    0  502  0.26281534897E+03  0.11819685892E+04 -0.31874542307E+03  0.12520863782E+04  0.50400001928E-02 0. -1.
</event>
<event>
 5   0  0.1121462E-08  0.3498024E+04  0.7818609E-02  0.8114258E-01
        1   -1    0    0  501    0  0.00000000000E+00  0.00000000000E+00  0.21188961306E+04  0.21188961306E+04  0.50400001928E-02 0. -1.
       -1   -1    0    0    0  501  0.00000000000E+00  0.00000000000E+00 -0.14436965809E+04  0.14436965809E+04  0.50400001928E-02 0.  1.
    10030    2    1    2    0    0  0.00000000000E+00  0.00000000000E+00  0.67519954973E+03  0.35625927115E+04  0.34980240702E+04 0.  0.
        2    1    3    3  502    0  0.14495720671E+04  0.90639035377E+01 -0.65908661041E+03  0.15923996019E+04  0.25500000920E-02 0.  1.
       -2    1    3    3    0  502 -0.14495720671E+04 -0.90639035377E+01  0.13342861601E+04  0.19701931096E+04  0.25500000920E-02 0. -1.
</event>
<event>
 5   0  0.1121462E-08  0.3499803E+04  0.7818609E-02  0.8113837E-01
       -1   -1    0    0    0  501  0.00000000000E+00  0.00000000000E+00  0.13042961770E+04  0.13042961770E+04  0.50400001928E-02 0.  1.
        1   -1    0    0  501    0  0.00000000000E+00  0.00000000000E+00 -0.23477453451E+04  0.23477453451E+04  0.50400001928E-02 0. -1.
    10030    2    1    2    0    0  0.00000000000E+00  0.00000000000E+00 -0.10434491681E+04  0.36520415221E+04  0.34998030106E+04 0.  0.
        2    1    3    3  502    0 -0.90763025157E+03  0.21179055737E+03  0.10237492432E+04  0.13844531147E+04  0.25500000920E-02 0.  1.
       -2    1    3    3    0  502  0.90763025157E+03 -0.21179055737E+03 -0.20671984113E+04  0.22675884074E+04  0.25500000920E-02 0. -1.
</event>
<event>
 5   0  0.3467834E-08  0.3499623E+04  0.7818609E-02  0.8113879E-01
        2   -1    0    0  501    0  0.00000000000E+00  0.00000000000E+00  0.16272018296E+04  0.16272018296E+04  0.25500000920E-02 0. -1.
       -2   -1    0    0    0  501  0.00000000000E+00  0.00000000000E+00 -0.18816598523E+04  0.18816598523E+04  0.25500000920E-02 0.  1.
    10030    2    1    2    0    0  0.00000000000E+00  0.00000000000E+00 -0.25445802271E+03  0.35088616819E+04  0.34996230394E+04 0.  0.
        3    1    3    3  502    0  0.16879307013E+04 -0.22500515396E+03  0.27645399820E+03  0.17251562814E+04  0.10100000352E+00 0.  1.
       -3    1    3    3    0  502 -0.16879307013E+04  0.22500515396E+03 -0.53091202091E+03  0.17837054006E+04  0.10100000352E+00 0. -1.
</event>
<event>
 5   0  0.3628017E-08  0.3499459E+04  0.7818609E-02  0.8113918E-01
        2   -1    0    0  501    0  0.00000000000E+00  0.00000000000E+00  0.24663015842E+04  0.24663015842E+04  0.25500000920E-02 0. -1.
       -2   -1    0    0    0  501  0.00000000000E+00  0.00000000000E+00 -0.12413538431E+04  0.12413538431E+04  0.25500000920E-02 0.  1.
    10030    2    1    2    0    0  0.00000000000E+00  0.00000000000E+00  0.12249477411E+04  0.37076554274E+04  0.34994587867E+04 0.  0.
        1    1    3    3  502    0  0.95142792884E+02  0.16949604899E+04  0.10614915287E+04  0.20021756864E+04  0.50400001928E-02 0. -1.
       -1    1    3    3    0  502 -0.95142792884E+02 -0.16949604899E+04  0.16345621237E+03  0.17054797410E+04  0.50400001928E-02 0.  1.
</event>
<event>
 5   0  0.3467834E-08  0.3501357E+04  0.7818609E-02  0.8113468E-01
       -2   -1    0    0    0  501  0.00000000000E+00  0.00000000000E+00  0.15187291138E+04  0.15187291138E+04  0.25500000920E-02 0.  1.
        2   -1    0    0  501    0  0.00000000000E+00  0.00000000000E+00 -0.20180522781E+04  0.20180522781E+04  0.25500000920E-02 0. -1.
    10030    2    1    2    0    0  0.00000000000E+00  0.00000000000E+00 -0.49932316430E+03  0.35367813919E+04  0.35013567358E+04 0.  0.
        3    1    3    3  502    0  0.12020516811E+03  0.15105092812E+04 -0.11353376678E+04  0.18934305377E+04  0.10100000352E+00 0. -1.
       -3    1    3    3    0  502 -0.12020516811E+03 -0.15105092812E+04  0.63601450346E+03  0.16433508542E+04  0.10100000352E+00 0.  1.
</event>
<event>
 5   0  0.1121462E-08  0.3499875E+04  0.7818609E-02  0.8113820E-01
       -1   -1    0    0    0  501  0.00000000000E+00  0.00000000000E+00  0.11736357618E+04  0.11736357618E+04  0.50400001928E-02 0. -1.
        1   -1    0    0  501    0  0.00000000000E+00  0.00000000000E+00 -0.26092258033E+04  0.26092258033E+04  0.50400001928E-02 0.  1.
    10030    2    1    2    0    0  0.00000000000E+00  0.00000000000E+00 -0.14355900415E+04  0.37828615651E+04  0.34998746911E+04 0.  0.
        1    1    3    3  502    0  0.35725333682E+03  0.71773151024E+03 -0.23990433490E+04  0.25294618909E+04  0.50400001928E-02 0.  1.
       -1    1    3    3    0  502 -0.35725333682E+03 -0.71773151024E+03  0.96345330747E+03  0.12533996742E+04  0.50400001928E-02 0. -1.
</event>
<event>
 5   0  0.3553585E-08  0.3497852E+04  0.7818609E-02  0.8114299E-01
        2   -1    0    0  501    0  0.00000000000E+00  0.00000000000E+00  0.13185522611E+04  0.13185522611E+04  0.25500000920E-02 0.  1.
       -2   -1    0    0    0  501  0.00000000000E+00  0.00000000000E+00 -0.23197729619E+04  0.23197729619E+04  0.25500000920E-02 0. -1.
    10030    2    1    2    0    0  0.00000000000E+00  0.00000000000E+00 -0.10012207008E+04  0.36383252229E+04  0.34978518459E+04 0.  0.
        2    1    3    3  502    0 -0.16140406321E+04 -0.54356632837E+03 -0.86958272038E+02  0.17053308349E+04  0.25500000920E-02 0.  1.
       -2    1    3    3    0  502  0.16140406321E+04  0.54356632837E+03 -0.91426242875E+03  0.19329943880E+04  0.25500000920E-02 0. -1.
</event>
<event>
 5   0  0.3553585E-08  0.3499692E+04  0.7818609E-02  0.8113863E-01
        2   -1    0    0  501    0  0.00000000000E+00  0.00000000000E+00  0.15617041483E+04  0.15617041483E+04  0.25500000920E-02 0. -1.
       -2   -1    0    0    0  501  0.00000000000E+00  0.00000000000E+00 -0.19606535231E+04  0.19606535231E+04  0.25500000920E-02 0.  1.
    10030    2    1    2    0    0  0.00000000000E+00  0.00000000000E+00 -0.39894937472E+03  0.35223576714E+04  0.34996918381E+04 0.  0.
        2    1    3    3  502    0  0.11344319772E+03  0.17281854860E+04  0.52076612519E+02  0.17326876252E+04  0.25500000920E-02 0. -1.
       -2    1    3    3    0  502 -0.11344319772E+03 -0.17281854860E+04 -0.45102598724E+03  0.17896700462E+04  0.25500000920E-02 0.  1.
</event>
<event>
 5   0  0.1121462E-08  0.3501332E+04  0.7818609E-02  0.8113474E-01
       -1   -1    0    0    0  501  0.00000000000E+00  0.00000000000E+00  0.12496967599E+04  0.12496967599E+04  0.50400001928E-02 0.  1.
        1   -1    0    0  501    0  0.00000000000E+00  0.00000000000E+00 -0.24524605701E+04  0.24524605701E+04  0.50400001928E-02 0. -1.
    10030    2    1    2    0    0  0.00000000000E+00  0.00000000000E+00 -0.12027638102E+04  0.37021573300E+04  0.35013323339E+04 0.  0.
        1    1    3    3  502    0  0.10666766454E+04 -0.89699339562E+02 -0.20661118212E+04  0.23269428646E+04  0.50400001928E-02 0. -1.
       -1    1    3    3    0  502 -0.10666766454E+04  0.89699339562E+02  0.86334801104E+03  0.13752144653E+04  0.50400001928E-02 0.  1.
</event>
<event>
 5   0  0.1121462E-08  0.3500636E+04  0.7818609E-02  0.8113639E-01
        1   -1    0    0  501    0  0.00000000000E+00  0.00000000000E+00  0.25179597247E+04  0.25179597247E+04  0.50400001928E-02 0.  1.
       -1   -1    0    0    0  501  0.00000000000E+00  0.00000000000E+00 -0.12167042925E+04  0.12167042926E+04  0.50400001928E-02 0. -1.
    10030    2    1    2    0    0  0.00000000000E+00  0.00000000000E+00  0.13012554322E+04  0.37346640173E+04  0.35006356026E+04 0.  0.
        4    1    3    3  502    0  0.43797274487E+03  0.33526085162E+03 -0.11215661956E+04  0.12498529145E+04  0.12699999809E+01 0. -1.
       -4    1    3    3    0  502 -0.43797274487E+03 -0.33526085162E+03  0.24228216278E+04  0.24848111028E+04  0.12699999809E+01 0.  1.
</event>
<event>
 5   0  0.1129219E-08  0.3497910E+04  0.7818609E-02  0.8114286E-01
        1   -1    0    0  501    0  0.00000000000E+00  0.00000000000E+00  0.15843662242E+04  0.15843662242E+04  0.50400001928E-02 0.  1.
       -1   -1    0    0    0  501  0.00000000000E+00  0.00000000000E+00 -0.19306413365E+04  0.19306413365E+04  0.50400001928E-02 0. -1.
    10030    2    1    2    0    0  0.00000000000E+00  0.00000000000E+00 -0.34627511235E+03  0.35150075607E+04  0.34979096184E+04 0.  0.
        5    1    3    3  502    0 -0.58368773029E+03  0.53119564437E+03 -0.17415230420E+04  0.19120106629E+04  0.46999998093E+01 0. -1.
       -5    1    3    3    0  502  0.58368773029E+03 -0.53119564437E+03  0.13952479297E+04  0.16029968978E+04  0.46999998093E+01 0.  1.
</event>
<event>
 5   0  0.3700096E-08  0.3500289E+04  0.7818609E-02  0.8113721E-01
       -2   -1    0    0    0  501  0.00000000000E+00  0.00000000000E+00  0.15853027854E+04  0.15853027855E+04  0.25500000920E-02 0.  1.
        2   -1    0    0  501    0  0.00000000000E+00  0.00000000000E+00 -0.19321270479E+04  0.19321270479E+04  0.25500000920E-02 0. -1.
    10030    2    1    2    0    0  0.00000000000E+00  0.00000000000E+00 -0.34682426245E+03  0.35174298334E+04  0.35002893543E+04 0.  0.
        4    1    3    3  502    0 -0.13723596312E+04  0.70403039215E+03  0.65766554817E+03  0.16767693152E+04  0.12699999809E+01 0. -1.
       -4    1    3    3    0  502  0.13723596312E+04 -0.70403039215E+03 -0.10044898106E+04  0.18406605181E+04  0.12699999809E+01 0.  1.
</event>
<event>
 5   0  0.1129219E-08  0.3523996E+04  0.7818609E-02  0.8108127E-01
        1   -1    0    0  501    0  0.00000000000E+00  0.00000000000E+00  0.22893109507E+04  0.22893109507E+04  0.50400001928E-02 0.  1.
       -1   -1    0    0    0  501  0.00000000000E+00  0.00000000000E+00 -0.13561447331E+04  0.13561447331E+04  0.50400001928E-02 0. -1.
    10030    2    1    2    0    0  0.00000000000E+00  0.00000000000E+00  0.93316621760E+03  0.36454556839E+04  0.35239960206E+04 0.  0.
        5    1    3    3  502    0 -0.34985435053E+03 -0.13045877017E+04  0.16370707120E+04  0.21223500522E+04  0.46999998093E+01 0.  1.
       -5    1    3    3    0  502  0.34985435053E+03  0.13045877017E+04 -0.70390449436E+03  0.15231056317E+04  0.46999998093E+01 0. -1.
</event>
<event>
 5   0  0.3467834E-08  0.3499990E+04  0.7818609E-02  0.8113792E-01
       -2   -1    0    0    0  501  0.00000000000E+00  0.00000000000E+00  0.14871401423E+04  0.14871401423E+04  0.25500000920E-02 0. -1.
        2   -1    0    0  501    0  0.00000000000E+00  0.00000000000E+00 -0.20593101677E+04  0.20593101677E+04  0.25500000920E-02 0.  1.
    10030    2    1    2    0    0  0.00000000000E+00  0.00000000000E+00 -0.57217002544E+03  0.35464503100E+04  0.34999901805E+04 0.  0.
        3    1    3    3  502    0 -0.12801330967E+04 -0.11325305935E+04 -0.66672637172E+03  0.18346363005E+04  0.10100000352E+00 0.  1.
       -3    1    3    3    0  502  0.12801330967E+04  0.11325305935E+04  0.94556346279E+02  0.17118140095E+04  0.10100000352E+00 0. -1.
</event>
<event>
 5   0  0.1129219E-08  0.3499163E+04  0.7818609E-02  0.8113988E-01
        1   -1    0    0  501    0  0.00000000000E+00  0.00000000000E+00  0.19528889172E+04  0.19528889172E+04  0.50400001928E-02 0.  1.
       -1   -1    0    0    0  501  0.00000000000E+00  0.00000000000E+00 -0.15674395143E+04  0.15674395143E+04  0.50400001928E-02 0. -1.
    10030    2    1    2    0    0  0.00000000000E+00  0.00000000000E+00  0.38544940284E+03  0.35203284315E+04  0.34991629033E+04 0.  0.
        5    1    3    3  502    0 -0.19189706869E+03  0.66253147285E+00  0.19422629115E+04  0.19517254497E+04  0.46999998093E+01 0.  1.
       -5    1    3    3    0  502  0.19189706869E+03 -0.66253147285E+00 -0.15568135086E+04  0.15686029818E+04  0.46999998093E+01 0. -1.
</event>
<event>
 5   0  0.1140808E-08  0.3500707E+04  0.7818609E-02  0.8113622E-01
       -1   -1    0    0    0  501  0.00000000000E+00  0.00000000000E+00  0.12847549995E+04  0.12847549995E+04  0.50400001928E-02 0.  1.
        1   -1    0    0  501    0  0.00000000000E+00  0.00000000000E+00 -0.23846862549E+04  0.23846862549E+04  0.50400001928E-02 0. -1.
    10030    2    1    2    0    0  0.00000000000E+00  0.00000000000E+00 -0.10999312554E+04  0.36694412545E+04  0.35007071219E+04 0.  0.
        3    1    3    3  502    0  0.85711411541E+03 -0.81110711288E+03  0.80509318112E+03  0.14285357524E+04  0.10100000352E+00 0.  1.
       -3    1    3    3    0  502 -0.85711411541E+03  0.81110711288E+03 -0.19050244365E+04  0.22409055021E+04  0.10100000352E+00 0. -1.
</event>
<event>
 5   0  0.1140808E-08  0.3502997E+04  0.7818609E-02  0.8113080E-01
        1   -1    0    0  501    0  0.00000000000E+00  0.00000000000E+00  0.24460210017E+04  0.24460210017E+04  0.50400001928E-02 0. -1.
       -1   -1    0    0    0  501  0.00000000000E+00  0.00000000000E+00 -0.12541783160E+04  0.12541783161E+04  0.50400001928E-02 0.  1.
    10030    2    1    2    0    0  0.00000000000E+00  0.00000000000E+00  0.11918426857E+04  0.37001993178E+04  0.35029967176E+04 0.  0.
        3    1    3    3  502    0 -0.14025004900E+04  0.10354835091E+04  0.41755821350E+03  0.17926484859E+04  0.10100000352E+00 0.  1.
       -3    1    3    3    0  502  0.14025004900E+04 -0.10354835091E+04  0.77428447215E+03  0.19075508319E+04  0.10100000352E+00 0. -1.
</event>
<event>
 5   0  0.1121462E-08  0.3485330E+04  0.7818609E-02  0.8117275E-01
       -3   -1    0    0    0  501  0.00000000000E+00  0.00000000000E+00  0.16256122772E+04  0.16256122804E+04  0.10100000352E+00 0. -1.
        3   -1    0    0  501    0  0.00000000000E+00  0.00000000000E+00 -0.18681462110E+04  0.18681462138E+04  0.10100000352E+00 0.  1.
    10030    2    1    2    0    0  0.00000000000E+00  0.00000000000E+00 -0.24253393380E+03  0.34937584942E+04  0.34853300714E+04 0.  0.
        2    1    3    3  502    0  0.76881497220E+03  0.26843316693E+03 -0.16656902083E+04  0.18540918792E+04  0.25500000920E-02 0.  1.
       -2    1    3    3    0  502 -0.76881497220E+03 -0.26843316693E+03  0.14231562745E+04  0.16396666149E+04  0.25500000920E-02 0. -1.
</event>
<event>
 5   0  0.3700096E-08  0.3499229E+04  0.7818609E-02  0.8113973E-01
       -2   -1    0    0    0  501  0.00000000000E+00  0.00000000000E+00  0.15002240521E+04  0.15002240521E+04  0.25500000920E-02 0.  1.
        2   -1    0    0  501    0  0.00000000000E+00  0.00000000000E+00 -0.20404619280E+04  0.20404619280E+04  0.25500000920E-02 0. -1.
    10030    2    1    2    0    0  0.00000000000E+00  0.00000000000E+00 -0.54023787585E+03  0.35406859801E+04  0.34992285217E+04 0.  0.
        4    1    3    3  502    0  0.46773156071E+02  0.66333539403E+03  0.13673702846E+04  0.15204948803E+04  0.12699999809E+01 0.  1.
       -4    1    3    3    0  502 -0.46773156071E+02 -0.66333539403E+03 -0.19076081604E+04  0.20201910998E+04  0.12699999809E+01 0. -1.
</event>
<event>
 5   0  0.3467834E-08  0.3501311E+04  0.7818609E-02  0.8113479E-01
        2   -1    0    0  501    0  0.00000000000E+00  0.00000000000E+00  0.23744223523E+04  0.23744223523E+04  0.25500000920E-02 0. -1.
       -2   -1    0    0    0  501  0.00000000000E+00  0.00000000000E+00 -0.12907534997E+04  0.12907534997E+04  0.25500000920E-02 0.  1.
    10030    2    1    2    0    0  0.00000000000E+00  0.00000000000E+00  0.10836688526E+04  0.36651758520E+04  0.35013105895E+04 0.  0.
        3    1    3    3  502    0  0.14052096507E+04  0.61121856360E+03  0.14279697575E+04  0.20945882491E+04  0.10100000352E+00 0. -1.
       -3    1    3    3    0  502 -0.14052096507E+04 -0.61121856360E+03 -0.34430090489E+03  0.15705876028E+04  0.10100000352E+00 0.  1.
</event>
<event>
 5   0  0.3553585E-08  0.3498522E+04  0.7818609E-02  0.8114140E-01
       -2   -1    0    0    0  501  0.00000000000E+00  0.00000000000E+00  0.19170936339E+04  0.19170936339E+04  0.25500000920E-02 0.  1.
        2   -1    0    0  501    0  0.00000000000E+00  0.00000000000E+00 -0.15961216198E+04  0.15961216198E+04  0.25500000920E-02 0. -1.
    10030    2    1    2    0    0  0.00000000000E+00  0.00000000000E+00  0.32097201403E+03  0.35132152537E+04  0.34985223145E+04 0.  0.
        2    1    3    3  502    0 -0.10418501723E+03 -0.15997229689E+04  0.86338746101E+03  0.18208256377E+04  0.25500000920E-02 0.  1.
       -2    1    3    3    0  502  0.10418501723E+03  0.15997229689E+04 -0.54241544697E+03  0.16923896160E+04  0.25500000920E-02 0. -1.
</event>
<event>
 5   0  0.3628017E-08  0.3496660E+04  0.7818609E-02  0.8114582E-01
        2   -1    0    0  501    0  0.00000000000E+00  0.00000000000E+00  0.16329661664E+04  0.16329661664E+04  0.25500000920E-02 0.  1.
       -2   -1    0    0    0  501  0.00000000000E+00  0.00000000000E+00 -0.18718437214E+04  0.18718437214E+04  0.25500000920E-02 0. -1.
    10030    2    1    2    0    0  0.00000000000E+00  0.00000000000E+00 -0.23887755504E+03  0.35048098878E+04  0.34966598152E+04 0.  0.
        1    1    3    3  502    0 -0.93052240723E+03  0.37795667474E+02 -0.16025351588E+04  0.18534884402E+04  0.50400001928E-02 0. -1.
       -1    1    3    3    0  502  0.93052240723E+03 -0.37795667474E+02  0.13636576038E+04  0.16513214476E+04  0.50400001928E-02 0.  1.
</event>
<event>
 5   0  0.3554451E-08  0.3500345E+04  0.7818609E-02  0.8113708E-01
       -2   -1    0    0    0  501  0.00000000000E+00  0.00000000000E+00  0.13591380462E+04  0.13591380462E+04  0.25500000920E-02 0. -1.
        2   -1    0    0  501    0  0.00000000000E+00  0.00000000000E+00 -0.22537103580E+04  0.22537103580E+04  0.25500000920E-02 0.  1.
    10030    2    1    2    0    0  0.00000000000E+00  0.00000000000E+00 -0.89457231177E+03  0.36128484043E+04  0.35003448360E+04 0.  0.
        5    1    3    3  502    0 -0.55895709317E+03 -0.66892539724E+03  0.11191169138E+04  0.14185693412E+04  0.46999998093E+01 0. -1.
       -5    1    3    3    0  502  0.55895709317E+03  0.66892539724E+03 -0.20136892256E+04  0.21942790630E+04  0.46999998093E+01 0.  1.
</event>
<event>
 5   0  0.3467834E-08  0.3498941E+04  0.7818609E-02  0.8114041E-01
       -2   -1    0    0    0  501  0.00000000000E+00  0.00000000000E+00  0.13043935878E+04  0.13043935878E+04  0.25500000920E-02 0. -1.
        2   -1    0    0  501    0  0.00000000000E+00  0.00000000000E+00 -0.23464140779E+04  0.23464140779E+04  0.25500000920E-02 0.  1.
    10030    2    1    2    0    0  0.00000000000E+00  0.00000000000E+00 -0.10420204900E+04  0.36508076657E+04  0.34989412556E+04 0.  0.
        3    1    3    3  502    0 -0.17085396231E+04  0.24831394409E+03 -0.81590792436E+03  0.19095740912E+04  0.10100000352E+00 0.  1.
       -3    1    3    3    0  502  0.17085396231E+04 -0.24831394409E+03 -0.22611256568E+03  0.17412335745E+04  0.10100000352E+00 0. -1.
</event>
<event>
 5   0  0.1140808E-08  0.3504639E+04  0.7818609E-02  0.8112691E-01
        1   -1    0    0  501    0  0.00000000000E+00  0.00000000000E+00  0.12645363614E+04  0.12645363614E+04  0.50400001928E-02 0.  1.
       -1   -1    0    0    0  501  0.00000000000E+00  0.00000000000E+00 -0.24282610993E+04  0.24282610994E+04  0.50400001928E-02 0. -1.
    10030    2    1    2    0    0  0.00000000000E+00  0.00000000000E+00 -0.11637247380E+04  0.36927974607E+04  0.35046394708E+04 0.  0.
        3    1    3    3  502    0  0.85591776220E+03 -0.15287889593E+04 -0.55144110973E+03  0.18368119679E+04  0.10100000352E+00 0.  1.
       -3    1    3    3    0  502 -0.85591776220E+03  0.15287889593E+04 -0.61228362824E+03  0.18559854928E+04  0.10100000352E+00 0. -1.
</event>
<event>
 5   0  0.1140808E-08  0.3501002E+04  0.7818609E-02  0.8113552E-01
        1   -1    0    0  501    0  0.00000000000E+00  0.00000000000E+00  0.18786554595E+04  0.18786554595E+04  0.50400001928E-02 0.  1.
       -1   -1    0    0    0  501  0.00000000000E+00  0.00000000000E+00 -0.16310889000E+04  0.16310889000E+04  0.50400001928E-02 0. -1.
    10030    2    1    2    0    0  0.00000000000E+00  0.00000000000E+00  0.24756655947E+03  0.35097443595E+04  0.35010021805E+04 0.  0.
        3    1    3    3  502    0 -0.74100049006E+02 -0.71654938976E+03  0.17231730597E+04  0.18676882098E+04  0.10100000352E+00 0.  1.
       -3    1    3    3    0  502  0.74100049006E+02  0.71654938976E+03 -0.14756065002E+04  0.16420561497E+04  0.10100000352E+00 0. -1.
</event>
<event>
 5   0  0.1129219E-08  0.3499135E+04  0.7818609E-02  0.8113995E-01
        1   -1    0    0  501    0  0.00000000000E+00  0.00000000000E+00  0.29829902636E+04  0.29829902636E+04  0.50400001928E-02 0.  1.
       -1   -1    0    0    0  501  0.00000000000E+00  0.00000000000E+00 -0.10261471205E+04  0.10261471205E+04  0.50400001928E-02 0. -1.
    10030    2    1    2    0    0  0.00000000000E+00  0.00000000000E+00  0.19568431431E+04  0.40091373841E+04  0.34991352472E+04 0.  0.
        5    1    3    3  502    0 -0.10401196304E+04 -0.42894105463E+03 -0.55668177539E+03  0.12552911865E+04  0.46999998093E+01 0. -1.
       -5    1    3    3    0  502  0.10401196304E+04  0.42894105463E+03  0.25135249185E+04  0.27538461976E+04  0.46999998093E+01 0.  1.
</event>
<event>
 5   0  0.1140808E-08  0.3483433E+04  0.7818609E-02  0.8117727E-01
       -1   -1    0    0    0  501  0.00000000000E+00  0.00000000000E+00  0.17763170309E+04  0.17763170309E+04  0.50400001928E-02 0. -1.
        1   -1    0    0  501    0  0.00000000000E+00  0.00000000000E+00 -0.17077901696E+04  0.17077901696E+04  0.50400001928E-02 0.  1.
    10030    2    1    2    0    0  0.00000000000E+00  0.00000000000E+00  0.68526861311E+02  0.34841072005E+04  0.34834332280E+04 0.  0.
        3    1    3    3  502    0 -0.54374926911E+03 -0.11579280132E+04  0.12164888239E+04  0.17653060982E+04  0.10100000352E+00 0. -1.
       -3    1    3    3    0  502  0.54374926911E+03  0.11579280132E+04 -0.11479619626E+04  0.17188011023E+04  0.10100000352E+00 0.  1.
</event>
<event>
 5   0  0.3553585E-08  0.3500220E+04  0.7818609E-02  0.8113738E-01
       -2   -1    0    0    0  501  0.00000000000E+00  0.00000000000E+00  0.13960575803E+04  0.13960575803E+04  0.25500000920E-02 0. -1.
        2   -1    0    0  501    0  0.00000000000E+00  0.00000000000E+00 -0.21939530198E+04  0.21939530198E+04  0.25500000920E-02 0.  1.
    10030    2    1    2    0    0  0.00000000000E+00  0.00000000000E+00 -0.79789543952E+03  0.35900106000E+04  0.35002198468E+04 0.  0.
        2    1    3    3  502    0 -0.10598395311E+03 -0.17468641903E+04 -0.41007245834E+03  0.17974778215E+04  0.25500000920E-02 0. -1.
       -2    1    3    3    0  502  0.10598395311E+03  0.17468641903E+04 -0.38782298118E+03  0.17925327786E+04  0.25500000920E-02 0.  1.
</event>
<event>
 5   0  0.3467834E-08  0.3496406E+04  0.7818609E-02  0.8114642E-01
        2   -1    0    0  501    0  0.00000000000E+00  0.00000000000E+00  0.15457014725E+04  0.15457014725E+04  0.25500000920E-02 0.  1.
       -2   -1    0    0    0  501  0.00000000000E+00  0.00000000000E+00 -0.19772344268E+04  0.19772344268E+04  0.25500000920E-02 0. -1.
    10030    2    1    2    0    0  0.00000000000E+00  0.00000000000E+00 -0.43153295434E+03  0.35229358993E+04  0.34964062493E+04 0.  0.
        3    1    3    3  502    0 -0.11716076930E+04  0.63200461006E+03 -0.13575548462E+04  0.19013283735E+04  0.10100000352E+00 0. -1.
       -3    1    3    3    0  502  0.11716076930E+04 -0.63200461006E+03  0.92602189182E+03  0.16216075258E+04  0.10100000352E+00 0.  1.
</event>
<event>
 5   0  0.1140808E-08  0.3500296E+04  0.7818609E-02  0.8113720E-01
        1   -1    0    0  501    0  0.00000000000E+00  0.00000000000E+00  0.31150151144E+04  0.31150151144E+04  0.50400001928E-02 0. -1.
       -1   -1    0    0    0  501  0.00000000000E+00  0.00000000000E+00 -0.98330770799E+03  0.98330770800E+03  0.50400001928E-02 0.  1.
    10030    2    1    2    0    0  0.00000000000E+00  0.00000000000E+00  0.21317074064E+04  0.40983228224E+04  0.35002962003E+04 0.  0.
        3    1    3    3  502    0 -0.10917515826E+04 -0.12365656998E+04  0.17505780389E+04  0.24053148918E+04  0.10100000352E+00 0. -1.
       -3    1    3    3    0  502  0.10917515826E+04  0.12365656998E+04  0.38112936746E+03  0.16930079306E+04  0.10100000352E+00 0.  1.
</event>
<event>
 5   0  0.1121462E-08  0.3496699E+04  0.7818609E-02  0.8114573E-01
        1   -1    0    0  501    0  0.00000000000E+00  0.00000000000E+00  0.24583116636E+04  0.24583116636E+04  0.50400001928E-02 0.  1.
       -1   -1    0    0    0  501  0.00000000000E+00  0.00000000000E+00 -0.12434246060E+04  0.12434246060E+04  0.50400001928E-02 0. -1.
    10030    2    1    2    0    0  0.00000000000E+00  0.00000000000E+00  0.12148870576E+04  0.37017362696E+04  0.34966985640E+04 0.  0.
        2    1    3    3  502    0 -0.62959082994E+03 -0.14453546074E+04  0.14076016915E+04  0.21134751184E+04  0.25500000920E-02 0.  1.
       -2    1    3    3    0  502  0.62959082994E+03  0.14453546074E+04 -0.19271463393E+03  0.15882611512E+04  0.25500000920E-02 0. -1.
</event>
<event>
 5   0  0.3553585E-08  0.3501456E+04  0.7818609E-02  0.8113445E-01
        2   -1    0    0  501    0  0.00000000000E+00  0.00000000000E+00  0.20982141784E+04  0.20982141784E+04  0.25500000920E-02 0. -1.
       -2   -1    0    0    0  501  0.00000000000E+00  0.00000000000E+00 -0.14607888068E+04  0.14607888068E+04  0.25500000920E-02 0.  1.
    10030    2    1    2    0    0  0.00000000000E+00  0.00000000000E+00  0.63742537165E+03  0.35590029852E+04  0.35014555751E+04 0.  0.
        2    1    3    3  502    0  0.42371829394E+03 -0.51334863438E+03  0.19645796626E+04  0.20742799386E+04  0.25500000920E-02 0. -1.
       -2    1    3    3    0  502 -0.42371829394E+03  0.51334863438E+03 -0.13271542910E+04  0.14847230466E+04  0.25500000920E-02 0.  1.
</event>
<event>
 5   0  0.1121462E-08  0.3500512E+04  0.7818609E-02  0.8113669E-01
        1   -1    0    0  501    0  0.00000000000E+00  0.00000000000E+00  0.16336124991E+04  0.16336124991E+04  0.50400001928E-02 0. -1.
       -1   -1    0    0    0  501  0.00000000000E+00  0.00000000000E+00 -0.18752280509E+04  0.18752280509E+04  0.50400001928E-02 0.  1.
    10030    2    1    2    0    0  0.00000000000E+00  0.00000000000E+00 -0.24161555179E+03  0.35088405500E+04  0.35005119526E+04 0.  0.
        4    1    3    3  502    0  0.38183480918E+03 -0.17054759490E+04 -0.21562848501E+03  0.17609495423E+04  0.12699999809E+01 0. -1.
       -4    1    3    3    0  502 -0.38183480918E+03  0.17054759490E+04 -0.25987066778E+02  0.17478910077E+04  0.12699999809E+01 0.  1.
</event>
<event>
 5   0  0.3628017E-08  0.3501133E+04  0.7818609E-02  0.8113521E-01
        2   -1    0    0  501    0  0.00000000000E+00  0.00000000000E+00  0.19097298435E+04  0.19097298435E+04  0.25500000920E-02 0. -1.
       -2   -1    0    0    0  501  0.00000000000E+00  0.00000000000E+00 -0.16046686898E+04  0.16046686898E+04  0.25500000920E-02 0.  1.
    10030    2    1    2    0    0  0.00000000000E+00  0.00000000000E+00  0.30506115364E+03  0.35143985333E+04  0.35011333513E+04 0.  0.
        1    1    3    3  502    0 -0.16607476636E+04  0.30320648597E+03 -0.31232955595E+03  0.17168479044E+04  0.50400001928E-02 0.  1.
       -1    1    3    3    0  502  0.16607476636E+04 -0.30320648597E+03  0.61739070960E+03  0.17975506289E+04  0.50400001928E-02 0. -1.
</event>
<event>
 5   0  0.1121462E-08  0.3499724E+04  0.7818609E-02  0.8113855E-01
        1   -1    0    0  501    0  0.00000000000E+00  0.00000000000E+00  0.20224027820E+04  0.20224027820E+04  0.50400001928E-02 0.  1.
       -1   -1    0    0    0  501  0.00000000000E+00  0.00000000000E+00 -0.15140493206E+04  0.15140493206E+04  0.50400001928E-02 0. -1.
    10030    2    1    2    0    0  0.00000000000E+00  0.00000000000E+00  0.50835346145E+03  0.35364521026E+04  0.34997243080E+04 0.  0.
        4    1    3    3  502    0 -0.11374126298E+04 -0.48701310139E+03 -0.99619604848E+03  0.15884890403E+04  0.12699999809E+01 0. -1.
       -4    1    3    3    0  502  0.11374126298E+04  0.48701310139E+03  0.15045495099E+04  0.19479630623E+04  0.12699999809E+01 0.  1.
</event>
<event>
 5   0  0.1140808E-08  0.3500271E+04  0.7818609E-02  0.8113726E-01
       -1   -1    0    0    0  501  0.00000000000E+00  0.00000000000E+00  0.31385886002E+04  0.31385886002E+04  0.50400001928E-02 0. -1.
        1   -1    0    0  501    0  0.00000000000E+00  0.00000000000E+00 -0.97590842257E+03  0.97590842258E+03  0.50400001928E-02 0.  1.
    10030    2    1    2    0    0  0.00000000000E+00  0.00000000000E+00  0.21626801777E+04  0.41144970228E+04  0.35002714466E+04 0.  0.
        3    1    3    3  502    0  0.13472238966E+04  0.58471050065E+03 -0.37575814957E+02  0.14691189704E+04  0.10100000352E+00 0. -1.
       -3    1    3    3    0  502 -0.13472238966E+04 -0.58471050065E+03  0.22002559926E+04  0.26453780524E+04  0.10100000352E+00 0.  1.
</event>
<event>
 5   0  0.1121462E-08  0.3500160E+04  0.7818609E-02  0.8113752E-01
       -1   -1    0    0    0  501  0.00000000000E+00  0.00000000000E+00  0.14992218831E+04  0.14992218831E+04  0.50400001928E-02 0. -1.
        1   -1    0    0  501    0  0.00000000000E+00  0.00000000000E+00 -0.20429130927E+04  0.20429130927E+04  0.50400001928E-02 0.  1.
    10030    2    1    2    0    0  0.00000000000E+00  0.00000000000E+00 -0.54369120953E+03  0.35421349758E+04  0.35001600043E+04 0.  0.
        2    1    3    3  502    0  0.12266192795E+04 -0.79333710191E+03  0.70345532681E+03  0.16213660940E+04  0.25500000920E-02 0. -1.
       -2    1    3    3    0  502 -0.12266192795E+04  0.79333710191E+03 -0.12471465363E+04  0.19207688818E+04  0.25500000920E-02 0.  1.
</event>
<event>
 5   0  0.3628017E-08  0.3501396E+04  0.7818609E-02  0.8113459E-01
       -2   -1    0    0    0  501  0.00000000000E+00  0.00000000000E+00  0.14350009938E+04  0.14350009938E+04  0.25500000920E-02 0.  1.
        2   -1    0    0  501    0  0.00000000000E+00  0.00000000000E+00 -0.21358474660E+04  0.21358474660E+04  0.25500000920E-02 0. -1.
    10030    2    1    2    0    0  0.00000000000E+00  0.00000000000E+00 -0.70084647224E+03  0.35708484598E+04  0.35013958566E+04 0.  0.
        1    1    3    3  502    0  0.62227038660E+03  0.64893927197E+03  0.11815725063E+04  0.14847411223E+04  0.50400001928E-02 0.  1.
       -1    1    3    3    0  502 -0.62227038660E+03 -0.64893927197E+03 -0.18824189785E+04  0.20861073374E+04  0.50400001928E-02 0. -1.
</event>
<event>
 5   0  0.3554451E-08  0.3497477E+04  0.7818609E-02  0.8114388E-01
        2   -1    0    0  501    0  0.00000000000E+00  0.00000000000E+00  0.34234709326E+04  0.34234709326E+04  0.25500000920E-02 0. -1.
       -2   -1    0    0    0  501  0.00000000000E+00  0.00000000000E+00 -0.89327072327E+03  0.89327072328E+03  0.25500000920E-02 0.  1.
    10030    2    1    2    0    0  0.00000000000E+00  0.00000000000E+00  0.25302002094E+04  0.43167416559E+04  0.34974770084E+04 0.  0.
        5    1    3    3  502    0 -0.14542729273E+04  0.95176501561E+03  0.15034655120E+04  0.22980855136E+04  0.46999998093E+01 0. -1.
       -5    1    3    3    0  502  0.14542729273E+04 -0.95176501561E+03  0.10267346974E+04  0.20186561423E+04  0.46999998093E+01 0.  1.
</event>
<event>
 5   0  0.1129219E-08  0.3500449E+04  0.7818609E-02  0.8113684E-01
        1   -1    0    0  501    0  0.00000000000E+00  0.00000000000E+00  0.22738918336E+04  0.22738918336E+04  0.50400001928E-02 0. -1.
       -1   -1    0    0    0  501  0.00000000000E+00  0.00000000000E+00 -0.13471550925E+04  0.13471550925E+04  0.50400001928E-02 0.  1.
    10030    2    1    2    0    0  0.00000000000E+00  0.00000000000E+00  0.92673674115E+03  0.36210469261E+04  0.35004485218E+04 0.  0.
        5    1    3    3  502    0  0.13611098613E+04  0.93136693307E+03  0.10693830159E+04  0.19656211597E+04  0.46999998093E+01 0. -1.
       -5    1    3    3    0  502 -0.13611098613E+04 -0.93136693307E+03 -0.14264627477E+03  0.16554257665E+04  0.46999998093E+01 0.  1.
</event>
<event>
 5   0  0.3700096E-08  0.3500704E+04  0.7818609E-02  0.8113623E-01
        2   -1    0    0  501    0  0.00000000000E+00  0.00000000000E+00  0.25286432689E+04  0.25286432689E+04  0.25500000920E-02 0.  1.
       -2   -1    0    0    0  501  0.00000000000E+00  0.00000000000E+00 -0.12116109601E+04  0.12116109601E+04  0.25500000920E-02 0. -1.
    10030    2    1    2    0    0  0.00000000000E+00  0.00000000000E+00  0.13170323088E+04  0.37402542291E+04  0.35007038714E+04 0.  0.
        4    1    3    3  502    0  0.15218111734E+04  0.71293783505E+02 -0.26228030011E+03  0.15458928229E+04  0.12699999809E+01 0. -1.
       -4    1    3    3    0  502 -0.15218111734E+04 -0.71293783505E+02  0.15793126089E+04  0.21943614061E+04  0.12699999809E+01 0.  1.
</event>
<event>
 5   0  0.1121462E-08  0.3495888E+04  0.7818609E-02  0.8114765E-01
        1   -1    0    0  501    0  0.00000000000E+00  0.00000000000E+00  0.12934681983E+04  0.12934681983E+04  0.50400001928E-02 0. -1.
       -1   -1    0    0    0  501  0.00000000000E+00  0.00000000000E+00 -0.23621052003E+04  0.23621052003E+04  0.50400001928E-02 0.  1.
    10030    2    1    2    0    0  0.00000000000E+00  0.00000000000E+00 -0.10686370021E+04  0.36555733986E+04  0.34958878458E+04 0.  0.
        1    1    3    3  502    0  0.30446934443E+03  0.84198088003E+03  0.10354789499E+04  0.13688864232E+04  0.50400001928E-02 0. -1.
       -1    1    3    3    0  502 -0.30446934443E+03 -0.84198088003E+03 -0.21041159520E+04  0.22866869754E+04  0.50400001928E-02 0.  1.
</event>
<event>
 5   0  0.1129219E-08  0.3500152E+04  0.7818609E-02  0.8113754E-01
       -1   -1    0    0    0  501  0.00000000000E+00  0.00000000000E+00  0.14915753607E+04  0.14915753607E+04  0.50400001928E-02 0. -1.
        1   -1    0    0  501    0  0.00000000000E+00  0.00000000000E+00 -0.20533767521E+04  0.20533767521E+04  0.50400001928E-02 0.  1.
    10030    2    1    2    0    0  0.00000000000E+00  0.00000000000E+00 -0.56180139140E+03  0.35449521128E+04  0.35001520937E+04 0.  0.
        5    1    3    3  502    0 -0.10234032362E+04  0.66551049329E+03 -0.15509389606E+04  0.19737507822E+04  0.46999998093E+01 0.  1.
       -5    1    3    3    0  502  0.10234032362E+04 -0.66551049329E+03  0.98913756923E+03  0.15712013306E+04  0.46999998093E+01 0. -1.
</event>
<event>
 5   0  0.1121462E-08  0.3499640E+04  0.7818609E-02  0.8113875E-01
        1   -1    0    0  501    0  0.00000000000E+00  0.00000000000E+00  0.18963466797E+04  0.18963466797E+04  0.50400001928E-02 0. -1.
       -1   -1    0    0    0  501  0.00000000000E+00  0.00000000000E+00 -0.16146150751E+04  0.16146150751E+04  0.50400001928E-02 0.  1.
    10030    2    1    2    0    0  0.00000000000E+00  0.00000000000E+00  0.28173160455E+03  0.35109617548E+04  0.34996399453E+04 0.  0.
        2    1    3    3  502    0 -0.20862078717E+03 -0.83656036529E+03 -0.13867269901E+04  0.16329015961E+04  0.25500000920E-02 0.  1.
       -2    1    3    3    0  502  0.20862078717E+03  0.83656036529E+03  0.16684585946E+04  0.18780601587E+04  0.25500000920E-02 0. -1.
</event>
<event>
 5   0  0.1121462E-08  0.3500320E+04  0.7818609E-02  0.8113714E-01
       -1   -1    0    0    0  501  0.00000000000E+00  0.00000000000E+00  0.12596874550E+04  0.12596874550E+04  0.50400001928E-02 0. -1.
        1   -1    0    0  501    0  0.00000000000E+00  0.00000000000E+00 -0.24316030323E+04  0.24316030323E+04  0.50400001928E-02 0.  1.
    10030    2    1    2    0    0  0.00000000000E+00  0.00000000000E+00 -0.11719155774E+04  0.36912904873E+04  0.35003198913E+04 0.  0.
        2    1    3    3  502    0  0.10951858699E+04  0.13112901258E+04 -0.98633717751E+03  0.19727581989E+04  0.25500000920E-02 0. -1.
       -2    1    3    3    0  502 -0.10951858699E+04 -0.13112901258E+04 -0.18557839987E+03  0.17185322884E+04  0.25500000920E-02 0.  1.
</event>
<event>
 5   0  0.1121462E-08  0.3500653E+04  0.7818609E-02  0.8113635E-01
       -3   -1    0    0    0  501  0.00000000000E+00  0.00000000000E+00  0.10676303180E+04  0.10676303227E+04  0.10100000352E+00 0. -1.
        3   -1    0    0  501    0  0.00000000000E+00  0.00000000000E+00 -0.28695724036E+04  0.28695724054E+04  0.10100000352E+00 0.  1.
    10030    2    1    2    0    0  0.00000000000E+00  0.00000000000E+00 -0.18019420857E+04  0.39372027281E+04  0.35006528023E+04 0.  0.
        2    1    3    3  502    0 -0.13176458613E+04  0.79313336507E+03 -0.18408851482E+04  0.23987724526E+04  0.25500000920E-02 0.  1.
       -2    1    3    3    0  502  0.13176458613E+04 -0.79313336507E+03  0.38943062531E+02  0.15384302755E+04  0.25500000920E-02 0. -1.
</event>
<event>
 5   0  0.1129219E-08  0.3499937E+04  0.7818609E-02  0.8113805E-01
       -1   -1    0    0    0  501  0.00000000000E+00  0.00000000000E+00  0.10818489357E+04  0.10818489357E+04  0.50400001928E-02 0. -1.
        1   -1    0    0  501    0  0.00000000000E+00  0.00000000000E+00 -0.28307004001E+04  0.28307004001E+04  0.50400001928E-02 0.  1.
    10030    2    1    2    0    0  0.00000000000E+00  0.00000000000E+00 -0.17488514643E+04  0.39125493358E+04  0.34999372653E+04 0.  0.
        5    1    3    3  502    0 -0.10935131319E+04  0.38891267653E+03  0.58968927345E+03  0.13018369978E+04  0.46999998093E+01 0. -1.
       -5    1    3    3    0  502  0.10935131319E+04 -0.38891267653E+03 -0.23385407378E+04  0.26107123380E+04  0.46999998093E+01 0.  1.
</event>
<event>
 5   0  0.1121462E-08  0.3495837E+04  0.7818609E-02  0.8114777E-01
       -1   -1    0    0    0  501  0.00000000000E+00  0.00000000000E+00  0.14110725357E+04  0.14110725357E+04  0.50400001928E-02 0.  1.
        1   -1    0    0  501    0  0.00000000000E+00  0.00000000000E+00 -0.21651745413E+04  0.21651745414E+04  0.50400001928E-02 0. -1.
    10030    2    1    2    0    0  0.00000000000E+00  0.00000000000E+00 -0.75410200565E+03  0.35762470771E+04  0.34958365696E+04 0.  0.
        2    1    3    3  502    0 -0.15563835369E+04 -0.45970311149E+03  0.28716135366E+03  0.16480650192E+04  0.25500000920E-02 0.  1.
       -2    1    3    3    0  502  0.15563835369E+04  0.45970311149E+03 -0.10412633593E+04  0.19281820578E+04  0.25500000920E-02 0. -1.
</event>
<event>
 5   0  0.1121462E-08  0.3505606E+04  0.7818609E-02  0.8112463E-01
       -1   -1    0    0    0  501  0.00000000000E+00  0.00000000000E+00  0.23926646147E+04  0.23926646147E+04  0.50400001928E-02 0. -1.
        1   -1    0    0  501    0  0.00000000000E+00  0.00000000000E+00 -0.12840570807E+04  0.12840570807E+04  0.50400001928E-02 0.  1.
    10030    2    1    2    0    0  0.00000000000E+00  0.00000000000E+00  0.11086075341E+04  0.36767216954E+04  0.35056057623E+04 0.  0.
        2    1    3    3  502    0 -0.14688576543E+04 -0.95611986909E+03  0.58020597628E+03  0.18461708988E+04  0.25500000920E-02 0. -1.
       -2    1    3    3    0  502  0.14688576543E+04  0.95611986909E+03  0.52840155778E+03  0.18305507966E+04  0.25500000920E-02 0.  1.
</event>
<event>
 5   0  0.1121462E-08  0.3496759E+04  0.7818609E-02  0.8114558E-01
       -1   -1    0    0    0  501  0.00000000000E+00  0.00000000000E+00  0.32060548975E+04  0.32060548975E+04  0.50400001928E-02 0.  1.
        1   -1    0    0  501    0  0.00000000000E+00  0.00000000000E+00 -0.95345557496E+03  0.95345557497E+03  0.50400001928E-02 0. -1.
    10030    2    1    2    0    0  0.00000000000E+00  0.00000000000E+00  0.22525993225E+04  0.41595104724E+04  0.34967590227E+04 0.  0.
        2    1    3    3  502    0  0.23394940009E+03  0.25923972732E+03  0.31641518518E+04  0.31833621376E+04  0.25500000920E-02 0.  1.
       -2    1    3    3    0  502 -0.23394940009E+03 -0.25923972732E+03 -0.91155252926E+03  0.97614833485E+03  0.25500000920E-02 0. -1.
</event>
<event>
 5   0  0.3628017E-08  0.3500228E+04  0.7818609E-02  0.8113736E-01
       -2   -1    0    0    0  501  0.00000000000E+00  0.00000000000E+00  0.17077909269E+04  0.17077909269E+04  0.25500000920E-02 0.  1.
        2   -1    0    0  501    0  0.00000000000E+00  0.00000000000E+00 -0.17934861856E+04  0.17934861856E+04  0.25500000920E-02 0. -1.
    10030    2    1    2    0    0  0.00000000000E+00  0.00000000000E+00 -0.85695258700E+02  0.35012771124E+04  0.35002282412E+04 0.  0.
        1    1    3    3  502    0 -0.15721939586E+04  0.72685692553E+03  0.20779601228E+03  0.17445039456E+04  0.50400001928E-02 0.  1.
       -1    1    3    3    0  502  0.15721939586E+04 -0.72685692553E+03 -0.29349127098E+03  0.17567731668E+04  0.50400001928E-02 0. -1.
</event>
<event>
 5   0  0.1129219E-08  0.3494081E+04  0.7818609E-02  0.8115194E-01
       -1   -1    0    0    0  501  0.00000000000E+00  0.00000000000E+00  0.16219302966E+04  0.16219302966E+04  0.50400001928E-02 0. -1.
        1   -1    0    0  501    0  0.00000000000E+00  0.00000000000E+00 -0.18818011841E+04  0.18818011841E+04  0.50400001928E-02 0.  1.
    10030    2    1    2    0    0  0.00000000000E+00  0.00000000000E+00 -0.25987088748E+03  0.35037314807E+04  0.34940809107E+04 0.  0.
        5    1    3    3  502    0 -0.53535270804E+03  0.16547449667E+04 -0.29575491158E+03  0.17641645288E+04  0.46999998093E+01 0.  1.
       -5    1    3    3    0  502  0.53535270804E+03 -0.16547449667E+04  0.35884024103E+02  0.17395669519E+04  0.46999998093E+01 0. -1.
</event>
<event>
 5   0  0.1121462E-08  0.3500061E+04  0.7818609E-02  0.8113775E-01
       -1   -1    0    0    0  501  0.00000000000E+00  0.00000000000E+00  0.22483415880E+04  0.22483415880E+04  0.50400001928E-02 0. -1.
        1   -1    0    0  501    0  0.00000000000E+00  0.00000000000E+00 -0.13621628682E+04  0.13621628682E+04  0.50400001928E-02 0.  1.
    10030    2    1    2    0    0  0.00000000000E+00  0.00000000000E+00  0.88617871983E+03  0.36105044562E+04  0.35000613858E+04 0.  0.
        2    1    3    3  502    0 -0.70654027224E+03 -0.14182065505E+04  0.12095687613E+04  0.19933804365E+04  0.25500000920E-02 0. -1.
       -2    1    3    3    0  502  0.70654027224E+03  0.14182065505E+04 -0.32339004143E+03  0.16171240197E+04  0.25500000920E-02 0.  1.
</event>
<event>
 5   0  0.1121462E-08  0.3500823E+04  0.7818609E-02  0.8113595E-01
       -1   -1    0    0    0  501  0.00000000000E+00  0.00000000000E+00  0.15011340674E+04  0.15011340675E+04  0.50400001928E-02 0. -1.
        1   -1    0    0  501    0  0.00000000000E+00  0.00000000000E+00 -0.20410832493E+04  0.20410832493E+04  0.50400001928E-02 0.  1.
    10030    2    1    2    0    0  0.00000000000E+00  0.00000000000E+00 -0.53994918184E+03  0.35422173167E+04  0.35008225319E+04 0.  0.
        1    1    3    3  502    0  0.13378959019E+04 -0.84196866786E+03 -0.10305696683E+04  0.18870480977E+04  0.50400001928E-02 0. -1.
       -1    1    3    3    0  502 -0.13378959019E+04  0.84196866786E+03  0.49062048643E+03  0.16551692190E+04  0.50400001928E-02 0.  1.
</event>
<event>
 5   0  0.3554451E-08  0.3499180E+04  0.7818609E-02  0.8113984E-01
       -2   -1    0    0    0  501  0.00000000000E+00  0.00000000000E+00  0.14453754858E+04  0.14453754858E+04  0.25500000920E-02 0.  1.
        2   -1    0    0  501    0  0.00000000000E+00  0.00000000000E+00 -0.21178340293E+04  0.21178340293E+04  0.25500000920E-02 0. -1.
    10030    2    1    2    0    0  0.00000000000E+00  0.00000000000E+00 -0.67245854348E+03  0.35632095151E+04  0.34991801263E+04 0.  0.
        5    1    3    3  502    0 -0.15349288212E+04 -0.42684922049E+02 -0.11901529667E+04  0.19427595484E+04  0.46999998093E+01 0. -1.
       -5    1    3    3    0  502  0.15349288212E+04  0.42684922049E+02  0.51769442324E+03  0.16204499667E+04  0.46999998093E+01 0.  1.
</event>
<event>
 5   0  0.3554451E-08  0.3499531E+04  0.7818609E-02  0.8113901E-01
       -2   -1    0    0    0  501  0.00000000000E+00  0.00000000000E+00  0.18071949492E+04  0.18071949492E+04  0.25500000920E-02 0. -1.
        2   -1    0    0  501    0  0.00000000000E+00  0.00000000000E+00 -0.16941613470E+04  0.16941613470E+04  0.25500000920E-02 0.  1.
    10030    2    1    2    0    0  0.00000000000E+00  0.00000000000E+00  0.11303360216E+03  0.35013562963E+04  0.34995312998E+04 0.  0.
        5    1    3    3  502    0  0.64680757577E+03 -0.46872086233E+03 -0.15010861369E+04  0.17003943564E+04  0.46999998093E+01 0.  1.
       -5    1    3    3    0  502 -0.64680757577E+03  0.46872086233E+03  0.16141197391E+04  0.18009619399E+04  0.46999998093E+01 0. -1.
</event>
<event>
 5   0  0.3700096E-08  0.3500557E+04  0.7818609E-02  0.8113658E-01
        2   -1    0    0  501    0  0.00000000000E+00  0.00000000000E+00  0.19841038643E+04  0.19841038643E+04  0.25500000920E-02 0.  1.
       -2   -1    0    0    0  501  0.00000000000E+00  0.00000000000E+00 -0.15440095729E+04  0.15440095729E+04  0.25500000920E-02 0. -1.
    10030    2    1    2    0    0  0.00000000000E+00  0.00000000000E+00  0.44009429142E+03  0.35281134372E+04  0.35005573043E+04 0.  0.
        4    1    3    3  502    0  0.13001254276E+04  0.10196651793E+04  0.80202711584E+03  0.18366524747E+04  0.12699999809E+01 0.  1.
       -4    1    3    3    0  502 -0.13001254276E+04 -0.10196651793E+04 -0.36193282441E+03  0.16914609625E+04  0.12699999809E+01 0. -1.
</event>
<event>
 5   0  0.1129219E-08  0.3503171E+04  0.7818609E-02  0.8113039E-01
        1   -1    0    0  501    0  0.00000000000E+00  0.00000000000E+00  0.20419014331E+04  0.20419014331E+04  0.50400001928E-02 0.  1.
       -1   -1    0    0    0  501  0.00000000000E+00  0.00000000000E+00 -0.15025466771E+04  0.15025466771E+04  0.50400001928E-02 0. -1.
    10030    2    1    2    0    0  0.00000000000E+00  0.00000000000E+00  0.53935475600E+03  0.35444481102E+04  0.35031712566E+04 0.  0.
        5    1    3    3  502    0  0.16692548438E+03 -0.11679337031E+04  0.15795733650E+04  0.19715494814E+04  0.46999998093E+01 0.  1.
       -5    1    3    3    0  502 -0.16692548438E+03  0.11679337031E+04 -0.10402186090E+04  0.15728986289E+04  0.46999998093E+01 0. -1.
</event>
<event>
 5   0  0.3553585E-08  0.3497770E+04  0.7818609E-02  0.8114319E-01
        2   -1    0    0  501    0  0.00000000000E+00  0.00000000000E+00  0.12627365371E+04  0.12627365371E+04  0.25500000920E-02 0.  1.
       -2   -1    0    0    0  501  0.00000000000E+00  0.00000000000E+00 -0.24221981872E+04  0.24221981872E+04  0.25500000920E-02 0. -1.
    10030    2    1    2    0    0  0.00000000000E+00  0.00000000000E+00 -0.11594616501E+04  0.36849347243E+04  0.34977696614E+04 0.  0.
        2    1    3    3  502    0 -0.15345555024E+04  0.40780065409E+03 -0.13520592971E+04  0.20854798743E+04  0.25500000920E-02 0. -1.
       -2    1    3    3    0  502  0.15345555024E+04 -0.40780065409E+03  0.19259764696E+03  0.15994548499E+04  0.25500000920E-02 0.  1.
</event>
<event>
 5   0  0.1121462E-08  0.3500661E+04  0.7818609E-02  0.8113633E-01
        1   -1    0    0  501    0  0.00000000000E+00  0.00000000000E+00  0.30299122247E+04  0.30299122247E+04  0.50400001928E-02 0. -1.
       -1   -1    0    0    0  501  0.00000000000E+00  0.00000000000E+00 -0.10111373961E+04  0.10111373961E+04  0.50400001928E-02 0.  1.
    10030    2    1    2    0    0  0.00000000000E+00  0.00000000000E+00  0.20187748286E+04  0.40410496209E+04  0.35006613989E+04 0.  0.
        2    1    3    3  502    0  0.53647309771E+03 -0.52820670963E+03  0.28334530614E+04  0.29317677200E+04  0.25500000920E-02 0. -1.
       -2    1    3    3    0  502 -0.53647309771E+03  0.52820670963E+03 -0.81467823280E+03  0.11092819009E+04  0.25500000920E-02 0.  1.
</event>
<event>
 5   0  0.3553585E-08  0.3499226E+04  0.7818609E-02  0.8113973E-01
       -2   -1    0    0    0  501  0.00000000000E+00  0.00000000000E+00  0.15212710607E+04  0.15212710607E+04  0.25500000920E-02 0.  1.
        2   -1    0    0  501    0  0.00000000000E+00  0.00000000000E+00 -0.20122292734E+04  0.20122292734E+04  0.25500000920E-02 0. -1.
    10030    2    1    2    0    0  0.00000000000E+00  0.00000000000E+00 -0.49095821268E+03  0.35335003341E+04  0.34992262922E+04 0.  0.
        2    1    3    3  502    0  0.37599515717E+03 -0.14761868023E+04 -0.11145166615E+04  0.18874976085E+04  0.25500000920E-02 0. -1.
       -2    1    3    3    0  502 -0.37599515717E+03  0.14761868023E+04  0.62355844880E+03  0.16460027255E+04  0.25500000920E-02 0.  1.
</event>
<event>
 5   0  0.1129219E-08  0.3498595E+04  0.7818609E-02  0.8114123E-01
        1   -1    0    0  501    0  0.00000000000E+00  0.00000000000E+00  0.17757931732E+04  0.17757931733E+04  0.50400001928E-02 0.  1.
       -1   -1    0    0    0  501  0.00000000000E+00  0.00000000000E+00 -0.17231973069E+04  0.17231973069E+04  0.50400001928E-02 0. -1.
    10030    2    1    2    0    0  0.00000000000E+00  0.00000000000E+00  0.52595866364E+02  0.34989904801E+04  0.34985951545E+04 0.  0.
        5    1    3    3  502    0  0.15204287645E+04 -0.56536576970E+03 -0.62851098931E+03  0.17396523317E+04  0.46999998093E+01 0. -1.
       -5    1    3    3    0  502 -0.15204287645E+04  0.56536576970E+03  0.68110685568E+03  0.17593381484E+04  0.46999998093E+01 0.  1.
</event>
<event>
 5   0  0.3700096E-08  0.3502369E+04  0.7818609E-02  0.8113229E-01
       -2   -1    0    0    0  501  0.00000000000E+00  0.00000000000E+00  0.22660851101E+04  0.22660851101E+04  0.25500000920E-02 0. -1.
        2   -1    0    0  501    0  0.00000000000E+00  0.00000000000E+00 -0.13532796601E+04  0.13532796601E+04  0.25500000920E-02 0.  1.
    10030    2    1    2    0    0  0.00000000000E+00  0.00000000000E+00  0.91280544993E+03  0.36193647702E+04  0.35023688484E+04 0.  0.
        4    1    3    3  502    0  0.11140409399E+04  0.12381133906E+03  0.18467945631E+04  0.21603398424E+04  0.12699999809E+01 0. -1.
       -4    1    3    3    0  502 -0.11140409399E+04 -0.12381133906E+03 -0.93398911322E+03  0.14590249278E+04  0.12699999809E+01 0.  1.
</event>
<event>
 5   0  0.1121462E-08  0.3499823E+04  0.7818609E-02  0.8113832E-01
        1   -1    0    0  501    0  0.00000000000E+00  0.00000000000E+00  0.23309614766E+04  0.23309614766E+04  0.50400001928E-02 0.  1.
       -1   -1    0    0    0  501  0.00000000000E+00  0.00000000000E+00 -0.13137030105E+04  0.13137030105E+04  0.50400001928E-02 0. -1.
    10030    2    1    2    0    0  0.00000000000E+00  0.00000000000E+00  0.10172584661E+04  0.36446644871E+04  0.34998234865E+04 0.  0.
        1    1    3    3  502    0  0.45716258772E+03  0.16829428869E+04  0.35808974130E+03  0.17803153246E+04  0.50400001928E-02 0. -1.
       -1    1    3    3    0  502 -0.45716258772E+03 -0.16829428869E+04  0.65916872476E+03  0.18643491625E+04  0.50400001928E-02 0.  1.
</event>
<event>
 5   0  0.1129219E-08  0.3500898E+04  0.7818609E-02  0.8113577E-01
        1   -1    0    0  501    0  0.00000000000E+00  0.00000000000E+00  0.15941223687E+04  0.15941223688E+04  0.50400001928E-02 0.  1.
       -1   -1    0    0    0  501  0.00000000000E+00  0.00000000000E+00 -0.19221059616E+04  0.19221059616E+04  0.50400001928E-02 0. -1.
    10030    2    1    2    0    0  0.00000000000E+00  0.00000000000E+00 -0.32798359284E+03  0.35162283304E+04  0.35008982325E+04 0.  0.
        5    1    3    3  502    0  0.15038843801E+04  0.58468001487E+03  0.51760423018E+03  0.16945368623E+04  0.46999998093E+01 0.  1.
       -5    1    3    3    0  502 -0.15038843801E+04 -0.58468001487E+03 -0.84558782303E+03  0.18216914681E+04  0.46999998093E+01 0. -1.
</event>
<event>
 5   0  0.1121462E-08  0.3499065E+04  0.7818609E-02  0.8114012E-01
       -1   -1    0    0    0  501  0.00000000000E+00  0.00000000000E+00  0.15703570591E+04  0.15703570592E+04  0.50400001928E-02 0. -1.
        1   -1    0    0  501    0  0.00000000000E+00  0.00000000000E+00 -0.19491514806E+04  0.19491514807E+04  0.50400001928E-02 0.  1.
    10030    2    1    2    0    0  0.00000000000E+00  0.00000000000E+00 -0.37879442150E+03  0.35195085398E+04  0.34990648962E+04 0.  0.
        1    1    3    3  502    0 -0.15034404762E+04  0.15091118582E+03 -0.10764547774E+04  0.18552256842E+04  0.50400001928E-02 0.  1.
       -1    1    3    3    0  502  0.15034404762E+04 -0.15091118582E+03  0.69766035587E+03  0.16642828556E+04  0.50400001928E-02 0. -1.
</event>
<event>
 5   0  0.3553585E-08  0.3485413E+04  0.7818609E-02  0.8117256E-01
        2   -1    0    0  501    0  0.00000000000E+00  0.00000000000E+00  0.27274738495E+04  0.27274738495E+04  0.25500000920E-02 0.  1.
       -2   -1    0    0    0  501  0.00000000000E+00  0.00000000000E+00 -0.11134940969E+04  0.11134940969E+04  0.25500000920E-02 0. -1.
    10030    2    1    2    0    0  0.00000000000E+00  0.00000000000E+00  0.16139797526E+04  0.38409679464E+04  0.34854130492E+04 0.  0.
        2    1    3    3  502    0 -0.85347258392E+03  0.97545043325E+03 -0.47679862197E+03  0.13810343678E+04  0.25500000920E-02 0. -1.
       -2    1    3    3    0  502  0.85347258392E+03 -0.97545043325E+03  0.20907783746E+04  0.24599335786E+04  0.25500000920E-02 0.  1.
</event>
<event>
 5   0  0.3467834E-08  0.3499801E+04  0.7818609E-02  0.8113837E-01
       -2   -1    0    0    0  501  0.00000000000E+00  0.00000000000E+00  0.10703114754E+04  0.10703114754E+04  0.25500000920E-02 0. -1.
        2   -1    0    0  501    0  0.00000000000E+00  0.00000000000E+00 -0.28609915944E+04  0.28609915944E+04  0.25500000920E-02 0.  1.
    10030    2    1    2    0    0  0.00000000000E+00  0.00000000000E+00 -0.17906801190E+04  0.39313030697E+04  0.34998012140E+04 0.  0.
        3    1    3    3  502    0  0.51821808968E+03  0.94297234736E+02  0.97915002841E+03  0.11118348552E+04  0.10100000352E+00 0. -1.
       -3    1    3    3    0  502 -0.51821808968E+03 -0.94297234736E+02 -0.27698301474E+04  0.28194682145E+04  0.10100000352E+00 0.  1.
</event>
<event>
 5   0  0.1129219E-08  0.3500280E+04  0.7818609E-02  0.8113724E-01
        1   -1    0    0  501    0  0.00000000000E+00  0.00000000000E+00  0.21416699355E+04  0.21416699355E+04  0.50400001928E-02 0.  1.
       -1   -1    0    0    0  501  0.00000000000E+00  0.00000000000E+00 -0.14301875649E+04  0.14301875649E+04  0.50400001928E-02 0. -1.
    10030    2    1    2    0    0  0.00000000000E+00  0.00000000000E+00  0.71148237060E+03  0.35718575004E+04  0.35002798230E+04 0.  0.
        5    1    3    3  502    0 -0.16467666528E+04 -0.39185884889E+03  0.80932348124E+03  0.18762783252E+04  0.46999998093E+01 0.  1.
       -5    1    3    3    0  502  0.16467666528E+04  0.39185884889E+03 -0.97841110636E+02  0.16955791752E+04  0.46999998093E+01 0. -1.
</event>
<event>
 5   0  0.3554451E-08  0.3499228E+04  0.7818609E-02  0.8113973E-01
        2   -1    0    0  501    0  0.00000000000E+00  0.00000000000E+00  0.19989584453E+04  0.19989584453E+04  0.25500000920E-02 0.  1.
       -2   -1    0    0    0  501  0.00000000000E+00  0.00000000000E+00 -0.15313725076E+04  0.15313725076E+04  0.25500000920E-02 0. -1.
    10030    2    1    2    0    0  0.00000000000E+00  0.00000000000E+00  0.46758593771E+03  0.35303309528E+04  0.34992284903E+04 0.  0.
        5    1    3    3  502    0 -0.77256234780E+03  0.77694038382E+03  0.16099695905E+04  0.19474375763E+04  0.46999998093E+01 0.  1.
       -5    1    3    3    0  502  0.77256234780E+03 -0.77694038382E+03 -0.11423836528E+04  0.15828933765E+04  0.46999998093E+01 0. -1.
</event>
<event>
 5   0  0.3554451E-08  0.3500174E+04  0.7818609E-02  0.8113749E-01
        2   -1    0    0  501    0  0.00000000000E+00  0.00000000000E+00  0.12160508198E+04  0.12160508198E+04  0.25500000920E-02 0. -1.
       -2   -1    0    0    0  501  0.00000000000E+00  0.00000000000E+00 -0.25186491406E+04  0.25186491406E+04  0.25500000920E-02 0.  1.
    10030    2    1    2    0    0  0.00000000000E+00  0.00000000000E+00 -0.13025983208E+04  0.37346999603E+04  0.35001744826E+04 0.  0.
        5    1    3    3  502    0 -0.63368130768E+03  0.20343587788E+03 -0.23783448626E+04  0.24697134513E+04  0.46999998093E+01 0.  1.
       -5    1    3    3    0  502  0.63368130768E+03 -0.20343587788E+03  0.10757465417E+04  0.12649865091E+04  0.46999998093E+01 0. -1.
</event>
<event>
 5   0  0.3554451E-08  0.3488521E+04  0.7818609E-02  0.8116516E-01
       -2   -1    0    0    0  501  0.00000000000E+00  0.00000000000E+00  0.13643595477E+04  0.13643595477E+04  0.25500000920E-02 0. -1.
        2   -1    0    0  501    0  0.00000000000E+00  0.00000000000E+00 -0.22299440303E+04  0.22299440303E+04  0.25500000920E-02 0.  1.
    10030    2    1    2    0    0  0.00000000000E+00  0.00000000000E+00 -0.86558448258E+03  0.35943035779E+04  0.34885214223E+04 0.  0.
        5    1    3    3  502    0  0.55917080701E+02  0.10253507850E+04  0.10199091422E+04  0.14473105059E+04  0.46999998093E+01 0. -1.
       -5    1    3    3    0  502 -0.55917080701E+02 -0.10253507850E+04 -0.18854936247E+04  0.21469930720E+04  0.46999998093E+01 0.  1.
</event>
<event>
 5   0  0.1121462E-08  0.3496082E+04  0.7818609E-02  0.8114719E-01
        1   -1    0    0  501    0  0.00000000000E+00  0.00000000000E+00  0.26723558803E+04  0.26723558803E+04  0.50400001928E-02 0. -1.
       -1   -1    0    0    0  501  0.00000000000E+00  0.00000000000E+00 -0.11434282400E+04  0.11434282400E+04  0.50400001928E-02 0.  1.
    10030    2    1    2    0    0  0.00000000000E+00  0.00000000000E+00  0.15289276403E+04  0.38157841203E+04  0.34960819103E+04 0.  0.
        1    1    3    3  502    0 -0.10600836753E+04  0.59102188741E+03 -0.60857459676E+03  0.13577360973E+04  0.50400001928E-02 0.  1.
       -1    1    3    3    0  502  0.10600836753E+04 -0.59102188741E+03  0.21375022370E+04  0.24580480230E+04  0.50400001928E-02 0. -1.
</event>
<event>
 5   0  0.3700096E-08  0.3500571E+04  0.7818609E-02  0.8113655E-01
       -2   -1    0    0    0  501  0.00000000000E+00  0.00000000000E+00  0.17125533060E+04  0.17125533060E+04  0.25500000920E-02 0. -1.
        2   -1    0    0  501    0  0.00000000000E+00  0.00000000000E+00 -0.17888489337E+04  0.17888489337E+04  0.25500000920E-02 0.  1.
    10030    2    1    2    0    0  0.00000000000E+00  0.00000000000E+00 -0.76295627686E+02  0.35014022397E+04  0.35005708993E+04 0.  0.
        4    1    3    3  502    0 -0.16767243577E+02 -0.36919999304E+03 -0.17493748992E+04  0.17879887937E+04  0.12699999809E+01 0.  1.
       -4    1    3    3    0  502  0.16767243577E+02  0.36919999304E+03  0.16730792715E+04  0.17134134460E+04  0.12699999809E+01 0. -1.
</event>
<event>
 5   0  0.1121462E-08  0.3498515E+04  0.7818609E-02  0.8114142E-01
       -1   -1    0    0    0  501  0.00000000000E+00  0.00000000000E+00  0.10153586342E+04  0.10153586342E+04  0.50400001928E-02 0.  1.
        1   -1    0    0  501    0  0.00000000000E+00  0.00000000000E+00 -0.30136160144E+04  0.30136160144E+04  0.50400001928E-02 0. -1.
    10030    2    1    2    0    0  0.00000000000E+00  0.00000000000E+00 -0.19982573802E+04  0.40289746485E+04  0.34985145649E+04 0.  0.
        1    1    3    3  502    0 -0.98414202543E+03  0.17956657126E+03 -0.26516680807E+04  0.28341000847E+04  0.50400001928E-02 0. -1.
       -1    1    3    3    0  502  0.98414202543E+03 -0.17956657126E+03  0.65341070052E+03  0.11948745638E+04  0.50400001928E-02 0.  1.
</event>
<event>
 5   0  0.1140808E-08  0.3499088E+04  0.7818609E-02  0.8114006E-01
        1   -1    0    0  501    0  0.00000000000E+00  0.00000000000E+00  0.33133966233E+04  0.33133966233E+04  0.50400001928E-02 0.  1.
       -1   -1    0    0    0  501  0.00000000000E+00  0.00000000000E+00 -0.92379638031E+03  0.92379638032E+03  0.50400001928E-02 0. -1.
    10030    2    1    2    0    0  0.00000000000E+00  0.00000000000E+00  0.23896002430E+04  0.42371930037E+04  0.34990877710E+04 0.  0.
        3    1    3    3  502    0 -0.10252178595E+04 -0.32251944349E+03  0.28665203284E+04  0.30613770193E+04  0.10100000352E+00 0.  1.
       -3    1    3    3    0  502  0.10252178595E+04  0.32251944349E+03 -0.47692008542E+03  0.11758159843E+04  0.10100000352E+00 0. -1.
</event>
<event>
 5   0  0.1121462E-08  0.3506852E+04  0.7818609E-02  0.8112168E-01
        1   -1    0    0  501    0  0.00000000000E+00  0.00000000000E+00  0.22335463382E+04  0.22335463382E+04  0.50400001928E-02 0.  1.
       -1   -1    0    0    0  501  0.00000000000E+00  0.00000000000E+00 -0.13765121135E+04  0.13765121135E+04  0.50400001928E-02 0. -1.
    10030    2    1    2    0    0  0.00000000000E+00  0.00000000000E+00  0.85703422467E+03  0.36100584517E+04  0.35068524866E+04 0.  0.
        4    1    3    3  502    0 -0.98729885313E+02  0.58444485429E+03 -0.12702537316E+04  0.14017380403E+04  0.12699999809E+01 0. -1.
       -4    1    3    3    0  502  0.98729885313E+02 -0.58444485429E+03  0.21272879563E+04  0.22083204115E+04  0.12699999809E+01 0.  1.
</event>
<event>
 5   0  0.3700096E-08  0.3496570E+04  0.7818609E-02  0.8114603E-01
       -2   -1    0    0    0  501  0.00000000000E+00  0.00000000000E+00  0.10830180479E+04  0.10830180479E+04  0.25500000920E-02 0.  1.
        2   -1    0    0  501    0  0.00000000000E+00  0.00000000000E+00 -0.28222067568E+04  0.28222067568E+04  0.25500000920E-02 0. -1.
    10030    2    1    2    0    0  0.00000000000E+00  0.00000000000E+00 -0.17391887089E+04  0.39052248046E+04  0.34965702352E+04 0.  0.
        4    1    3    3  502    0  0.94512091930E+03 -0.40308004775E+03 -0.24493961423E+04  0.26561758511E+04  0.12699999809E+01 0. -1.
       -4    1    3    3    0  502 -0.94512091930E+03  0.40308004775E+03  0.71020743341E+03  0.12490489535E+04  0.12699999809E+01 0.  1.
</event>
<event>
 5   0  0.1121462E-08  0.3498685E+04  0.7818609E-02  0.8114102E-01
        1   -1    0    0  501    0  0.00000000000E+00  0.00000000000E+00  0.97110103465E+03  0.97110103466E+03  0.50400001928E-02 0. -1.
       -1   -1    0    0    0  501  0.00000000000E+00  0.00000000000E+00 -0.31512681547E+04  0.31512681547E+04  0.50400001928E-02 0.  1.
    10030    2    1    2    0    0  0.00000000000E+00  0.00000000000E+00 -0.21801671200E+04  0.41223691894E+04  0.34986853334E+04 0.  0.
        4    1    3    3  502    0  0.11339411580E+03  0.14041164104E+03  0.96010121688E+03  0.97691842751E+03  0.12699999809E+01 0. -1.
       -4    1    3    3    0  502 -0.11339411580E+03 -0.14041164104E+03 -0.31402683369E+04  0.31454507619E+04  0.12699999809E+01 0.  1.
</event>
<event>
 5   0  0.1140808E-08  0.3490328E+04  0.7818609E-02  0.8116086E-01
       -1   -1    0    0    0  501  0.00000000000E+00  0.00000000000E+00  0.20181017609E+04  0.20181017609E+04  0.50400001928E-02 0.  1.
        1   -1    0    0  501    0  0.00000000000E+00  0.00000000000E+00 -0.15091399170E+04  0.15091399170E+04  0.50400001928E-02 0. -1.
    10030    2    1    2    0    0  0.00000000000E+00  0.00000000000E+00  0.50896184388E+03  0.35272416778E+04  0.34903283077E+04 0.  0.
        3    1    3    3  502    0  0.25892637018E+03  0.39537915219E+03 -0.14432355750E+04  0.15186495561E+04  0.10100000352E+00 0. -1.
       -3    1    3    3    0  502 -0.25892637018E+03 -0.39537915219E+03  0.19521974189E+04  0.20085921217E+04  0.10100000352E+00 0.  1.
</event>
<event>
 5   0  0.3628017E-08  0.3499704E+04  0.7818609E-02  0.8113860E-01
        2   -1    0    0  501    0  0.00000000000E+00  0.00000000000E+00  0.10347349359E+04  0.10347349359E+04  0.25500000920E-02 0. -1.
       -2   -1    0    0    0  501  0.00000000000E+00  0.00000000000E+00 -0.29591945023E+04  0.29591945023E+04  0.25500000920E-02 0.  1.
    10030    2    1    2    0    0  0.00000000000E+00  0.00000000000E+00 -0.19244595664E+04  0.39939294382E+04  0.34997039496E+04 0.  0.
        1    1    3    3  502    0 -0.39876958678E+03 -0.80360459223E+03 -0.26767894419E+04  0.28231187081E+04  0.50400001928E-02 0.  1.
       -1    1    3    3    0  502  0.39876958678E+03  0.80360459223E+03  0.75232987553E+03  0.11708107301E+04  0.50400001928E-02 0. -1.
</event>
<event>
 5   0  0.3554451E-08  0.3499652E+04  0.7818609E-02  0.8113872E-01
       -2   -1    0    0    0  501  0.00000000000E+00  0.00000000000E+00  0.18753121750E+04  0.18753121750E+04  0.25500000920E-02 0.  1.
        2   -1    0    0  501    0  0.00000000000E+00  0.00000000000E+00 -0.16327364187E+04  0.16327364187E+04  0.25500000920E-02 0. -1.
    10030    2    1    2    0    0  0.00000000000E+00  0.00000000000E+00  0.24257575631E+03  0.35080485937E+04  0.34996516881E+04 0.  0.
        5    1    3    3  502    0  0.82747939387E+02 -0.16915333426E+04  0.56249862425E+03  0.17845332900E+04  0.46999998093E+01 0. -1.
       -5    1    3    3    0  502 -0.82747939387E+02  0.16915333426E+04 -0.31992286795E+03  0.17235153037E+04  0.46999998093E+01 0.  1.
</event>
<event>
 5   0  0.1121462E-08  0.3500268E+04  0.7818609E-02  0.8113726E-01
       -1   -1    0    0    0  501  0.00000000000E+00  0.00000000000E+00  0.12268304262E+04  0.12268304262E+04  0.50400001928E-02 0. -1.
        1   -1    0    0  501    0  0.00000000000E+00  0.00000000000E+00 -0.24966523892E+04  0.24966523892E+04  0.50400001928E-02 0.  1.
    10030    2    1    2    0    0  0.00000000000E+00  0.00000000000E+00 -0.12698219630E+04  0.37234828154E+04  0.35002680553E+04 0.  0.
        4    1    3    3  502    0 -0.31927999899E+03 -0.95344547515E+02 -0.24625970710E+04  0.24850384801E+04  0.12699999809E+01 0.  1.
       -4    1    3    3    0  502  0.31927999899E+03  0.95344547515E+02  0.11927751080E+04  0.12384443353E+04  0.12699999809E+01 0. -1.
</event>
<event>
 5   0  0.3700096E-08  0.3497836E+04  0.7818609E-02  0.8114303E-01
        2   -1    0    0  501    0  0.00000000000E+00  0.00000000000E+00  0.90645665198E+03  0.90645665198E+03  0.25500000920E-02 0.  1.
       -2   -1    0    0    0  501  0.00000000000E+00  0.00000000000E+00 -0.33743624918E+04  0.33743624918E+04  0.25500000920E-02 0. -1.
    10030    2    1    2    0    0  0.00000000000E+00  0.00000000000E+00 -0.24679058399E+04  0.42808191438E+04  0.34978355175E+04 0.  0.
        4    1    3    3  502    0  0.12418979433E+04 -0.74976317861E+02  0.27032498439E+03  0.12731885798E+04  0.12699999809E+01 0.  1.
       -4    1    3    3    0  502 -0.12418979433E+04  0.74976317861E+02 -0.27382308243E+04  0.30076305640E+04  0.12699999809E+01 0. -1.
</event>
<event>
 5   0  0.3553585E-08  0.3499929E+04  0.7818609E-02  0.8113807E-01
       -2   -1    0    0    0  501  0.00000000000E+00  0.00000000000E+00  0.15215344935E+04  0.15215344935E+04  0.25500000920E-02 0. -1.
        2   -1    0    0  501    0  0.00000000000E+00  0.00000000000E+00 -0.20126895349E+04  0.20126895349E+04  0.25500000920E-02 0.  1.
    10030    2    1    2    0    0  0.00000000000E+00  0.00000000000E+00 -0.49115504141E+03  0.35342240285E+04  0.34999294577E+04 0.  0.
        2    1    3    3  502    0 -0.88105977033E+03 -0.15091621486E+04 -0.15226074760E+03  0.17541436786E+04  0.25500000920E-02 0. -1.
       -2    1    3    3    0  502  0.88105977033E+03  0.15091621486E+04 -0.33889429381E+03  0.17800803499E+04  0.25500000920E-02 0.  1.
</event>
<event>
 5   0  0.1121462E-08  0.3500307E+04  0.7818609E-02  0.8113717E-01
        1   -1    0    0  501    0  0.00000000000E+00  0.00000000000E+00  0.16870369490E+04  0.16870369490E+04  0.50400001928E-02 0. -1.
       -1   -1    0    0    0  501  0.00000000000E+00  0.00000000000E+00 -0.18156318750E+04  0.18156318750E+04  0.50400001928E-02 0.  1.
    10030    2    1    2    0    0  0.00000000000E+00  0.00000000000E+00 -0.12859492597E+03  0.35026688240E+04  0.35003074487E+04 0.  0.
        1    1    3    3  502    0  0.17111321994E+04  0.41181087681E+02 -0.42974072830E+03  0.17647510814E+04  0.50400001928E-02 0.  1.
       -1    1    3    3    0  502 -0.17111321994E+04 -0.41181087681E+02  0.30114580233E+03  0.17379177426E+04  0.50400001928E-02 0. -1.
</event>
<event>
 5   0  0.3553585E-08  0.3500448E+04  0.7818609E-02  0.8113684E-01
        2   -1    0    0  501    0  0.00000000000E+00  0.00000000000E+00  0.31998475098E+04  0.31998475098E+04  0.25500000920E-02 0. -1.
       -2   -1    0    0    0  501  0.00000000000E+00  0.00000000000E+00 -0.95732170146E+03  0.95732170146E+03  0.25500000920E-02 0.  1.
    10030    2    1    2    0    0  0.00000000000E+00  0.00000000000E+00  0.22425258083E+04  0.41571692112E+04  0.35004476642E+04 0.  0.
        2    1    3    3  502    0  0.12370880213E+04 -0.45794158345E+03 -0.24484371030E+03  0.13416578210E+04  0.25500000920E-02 0.  1.
       -2    1    3    3    0  502 -0.12370880213E+04  0.45794158345E+03  0.24873695186E+04  0.28155113902E+04  0.25500000920E-02 0. -1.
</event>
<event>
 5   0  0.1121462E-08  0.3505418E+04  0.7818609E-02  0.8112507E-01
        1   -1    0    0  501    0  0.00000000000E+00  0.00000000000E+00  0.16350947111E+04  0.16350947111E+04  0.50400001928E-02 0. -1.
       -1   -1    0    0    0  501  0.00000000000E+00  0.00000000000E+00 -0.18787832115E+04  0.18787832115E+04  0.50400001928E-02 0.  1.
    10030    2    1    2    0    0  0.00000000000E+00  0.00000000000E+00 -0.24368850042E+03  0.35138779226E+04  0.35054178025E+04 0.  0.
        4    1    3    3  502    0  0.51355486894E+03  0.32934331216E+03  0.15252223883E+04  0.16427143900E+04  0.12699999809E+01 0. -1.
       -4    1    3    3    0  502 -0.51355486894E+03 -0.32934331216E+03 -0.17689108887E+04  0.18711635326E+04  0.12699999809E+01 0.  1.
</event>
<event>
 5   0  0.1121462E-08  0.3497497E+04  0.7818609E-02  0.8114383E-01
        1   -1    0    0  501    0  0.00000000000E+00  0.00000000000E+00  0.22846941474E+04  0.22846941474E+04  0.50400001928E-02 0.  1.
       -1   -1    0    0    0  501  0.00000000000E+00  0.00000000000E+00 -0.13385254923E+04  0.13385254923E+04  0.50400001928E-02 0. -1.
    10030    2    1    2    0    0  0.00000000000E+00  0.00000000000E+00  0.94616865514E+03  0.36232196397E+04  0.34974970241E+04 0.  0.
        1    1    3    3  502    0 -0.15132410013E+04  0.80202968106E+03  0.83930483689E+03  0.19072447527E+04  0.50400001928E-02 0.  1.
       -1    1    3    3    0  502  0.15132410013E+04 -0.80202968106E+03  0.10686381825E+03  0.17159748870E+04  0.50400001928E-02 0. -1.
</event>
<event>
 5   0  0.3628017E-08  0.3501782E+04  0.7818609E-02  0.8113368E-01
        2   -1    0    0  501    0  0.00000000000E+00  0.00000000000E+00  0.19179900132E+04  0.19179900132E+04  0.25500000920E-02 0. -1.
       -2   -1    0    0    0  501  0.00000000000E+00  0.00000000000E+00 -0.15983501583E+04  0.15983501583E+04  0.25500000920E-02 0.  1.
    10030    2    1    2    0    0  0.00000000000E+00  0.00000000000E+00  0.31963985489E+03  0.35163401715E+04  0.35017821984E+04 0.  0.
        1    1    3    3  502    0 -0.11915264636E+04 -0.86102743214E+03  0.11148342826E+04  0.18449821219E+04  0.50400001928E-02 0.  1.
       -1    1    3    3    0  502  0.11915264636E+04  0.86102743214E+03 -0.79519442770E+03  0.16713580497E+04  0.50400001928E-02 0. -1.
</event>
<event>
 5   0  0.3553585E-08  0.3501094E+04  0.7818609E-02  0.8113531E-01
       -2   -1    0    0    0  501  0.00000000000E+00  0.00000000000E+00  0.14298145210E+04  0.14298145210E+04  0.25500000920E-02 0. -1.
        2   -1    0    0  501    0  0.00000000000E+00  0.00000000000E+00 -0.21432259507E+04  0.21432259507E+04  0.25500000920E-02 0.  1.
    10030    2    1    2    0    0  0.00000000000E+00  0.00000000000E+00 -0.71341142966E+03  0.35730404717E+04  0.35010944495E+04 0.  0.
        2    1    3    3  502    0  0.13983976805E+04 -0.31823142717E+03  0.66772898553E+03  0.15819763943E+04  0.25500000920E-02 0. -1.
       -2    1    3    3    0  502 -0.13983976805E+04  0.31823142717E+03 -0.13811404152E+04  0.19910640774E+04  0.25500000920E-02 0.  1.
</event>
<event>
 5   0  0.1121462E-08  0.3500047E+04  0.7818609E-02  0.8113779E-01
       -1   -1    0    0    0  501  0.00000000000E+00  0.00000000000E+00  0.98827551896E+03  0.98827551897E+03  0.50400001928E-02 0.  1.
        1   -1    0    0  501    0  0.00000000000E+00  0.00000000000E+00 -0.30989156025E+04  0.30989156025E+04  0.50400001928E-02 0. -1.
    10030    2    1    2    0    0  0.00000000000E+00  0.00000000000E+00 -0.21106400835E+04  0.40871911214E+04  0.35000470998E+04 0.  0.
        1    1    3    3  502    0  0.13227145071E+04  0.31033273545E+03 -0.23434012112E+04  0.27087652741E+04  0.50400001928E-02 0. -1.
       -1    1    3    3    0  502 -0.13227145071E+04 -0.31033273545E+03  0.23276112767E+03  0.13784258473E+04  0.50400001928E-02 0.  1.
</event>
<event>
 5   0  0.1121462E-08  0.3499008E+04  0.7818609E-02  0.8114025E-01
        1   -1    0    0  501    0  0.00000000000E+00  0.00000000000E+00  0.24218634453E+04  0.24218634453E+04  0.50400001928E-02 0. -1.
       -1   -1    0    0    0  501  0.00000000000E+00  0.00000000000E+00 -0.12638053875E+04  0.12638053875E+04  0.50400001928E-02 0.  1.
    10030    2    1    2    0    0  0.00000000000E+00  0.00000000000E+00  0.11580580579E+04  0.36856688328E+04  0.34990078993E+04 0.  0.
        2    1    3    3  502    0 -0.44581127272E+03 -0.43226314338E+03  0.23018758676E+04  0.23841626676E+04  0.25500000920E-02 0. -1.
       -2    1    3    3    0  502  0.44581127272E+03  0.43226314338E+03 -0.11438178097E+04  0.13015061651E+04  0.25500000920E-02 0.  1.
</event>
<event>
 5   0  0.3628017E-08  0.3500425E+04  0.7818609E-02  0.8113689E-01
       -2   -1    0    0    0  501  0.00000000000E+00  0.00000000000E+00  0.13817615659E+04  0.13817615659E+04  0.25500000920E-02 0. -1.
        2   -1    0    0  501    0  0.00000000000E+00  0.00000000000E+00 -0.22169118235E+04  0.22169118235E+04  0.25500000920E-02 0.  1.
    10030    2    1    2    0    0  0.00000000000E+00  0.00000000000E+00 -0.83515025763E+03  0.35986733894E+04  0.35004248615E+04 0.  0.
        1    1    3    3  502    0  0.23082229453E+03 -0.93444759729E+03  0.10852235210E+04  0.14505796546E+04  0.50400001928E-02 0. -1.
       -1    1    3    3    0  502 -0.23082229453E+03  0.93444759729E+03 -0.19203737787E+04  0.21480937348E+04  0.50400001928E-02 0.  1.
</event>
<event>
 5   0  0.1121462E-08  0.3495004E+04  0.7818609E-02  0.8114975E-01
       -1   -1    0    0    0  501  0.00000000000E+00  0.00000000000E+00  0.14548404702E+04  0.14548404702E+04  0.50400001928E-02 0. -1.
        1   -1    0    0  501    0  0.00000000000E+00  0.00000000000E+00 -0.20990363714E+04  0.20990363714E+04  0.50400001928E-02 0.  1.
    10030    2    1    2    0    0  0.00000000000E+00  0.00000000000E+00 -0.64419590123E+03  0.35538768416E+04  0.34950038978E+04 0.  0.
        2    1    3    3  502    0 -0.47328727923E+03 -0.12948872813E+04 -0.14139777991E+04  0.19748587637E+04  0.25500000920E-02 0.  1.
       -2    1    3    3    0  502  0.47328727923E+03  0.12948872813E+04  0.76978189791E+03  0.15790180779E+04  0.25500000920E-02 0. -1.
</event>
<event>
 5   0  0.1140808E-08  0.3501813E+04  0.7818609E-02  0.8113360E-01
        1   -1    0    0  501    0  0.00000000000E+00  0.00000000000E+00  0.21544714966E+04  0.21544714966E+04  0.50400001928E-02 0. -1.
       -1   -1    0    0    0  501  0.00000000000E+00  0.00000000000E+00 -0.14229350965E+04  0.14229350965E+04  0.50400001928E-02 0.  1.
    10030    2    1    2    0    0  0.00000000000E+00  0.00000000000E+00  0.73153640005E+03  0.35774065931E+04  0.35018127346E+04 0.  0.
        3    1    3    3  502    0 -0.72576474460E+03 -0.10620163985E+04 -0.84775503263E+03  0.15405524661E+04  0.10100000352E+00 0.  1.
       -3    1    3    3    0  502  0.72576474460E+03  0.10620163985E+04  0.15792914327E+04  0.20368541270E+04  0.10100000352E+00 0. -1.
</event>
<event>
 5   0  0.3628017E-08  0.3481136E+04  0.7818609E-02  0.8118275E-01
       -2   -1    0    0    0  501  0.00000000000E+00  0.00000000000E+00  0.22507746858E+04  0.22507746858E+04  0.25500000920E-02 0. -1.
        2   -1    0    0  501    0  0.00000000000E+00  0.00000000000E+00 -0.13460151283E+04  0.13460151283E+04  0.25500000920E-02 0.  1.
    10030    2    1    2    0    0  0.00000000000E+00  0.00000000000E+00  0.90475955748E+03  0.35967898141E+04  0.34811358936E+04 0.  0.
        1    1    3    3  502    0 -0.44009193295E+03  0.93375616012E+03 -0.99560602719E+03  0.14341592790E+04  0.50400001928E-02 0.  1.
       -1    1    3    3    0  502  0.44009193295E+03 -0.93375616012E+03  0.19003655847E+04  0.21626305351E+04  0.50400001928E-02 0. -1.
</event>
<event>
 5   0  0.3700096E-08  0.3495068E+04  0.7818609E-02  0.8114960E-01
       -2   -1    0    0    0  501  0.00000000000E+00  0.00000000000E+00  0.14083116399E+04  0.14083116399E+04  0.25500000920E-02 0. -1.
        2   -1    0    0  501    0  0.00000000000E+00  0.00000000000E+00 -0.21684648321E+04  0.21684648321E+04  0.25500000920E-02 0.  1.
    10030    2    1    2    0    0  0.00000000000E+00  0.00000000000E+00 -0.76015319218E+03  0.35767764720E+04  0.34950675323E+04 0.  0.
        4    1    3    3  502    0 -0.30399609152E+03 -0.19912212055E+03  0.13692148401E+04  0.14166206739E+04  0.12699999809E+01 0. -1.
       -4    1    3    3    0  502  0.30399609152E+03  0.19912212055E+03 -0.21293680322E+04  0.21601557981E+04  0.12699999809E+01 0.  1.
</event>
<event>
 5   0  0.3700096E-08  0.3500583E+04  0.7818609E-02  0.8113652E-01
       -2   -1    0    0    0  501  0.00000000000E+00  0.00000000000E+00  0.15282886223E+04  0.15282886223E+04  0.25500000920E-02 0. -1.
        2   -1    0    0  501    0  0.00000000000E+00  0.00000000000E+00 -0.20045425751E+04  0.20045425751E+04  0.25500000920E-02 0.  1.
    10030    2    1    2    0    0  0.00000000000E+00  0.00000000000E+00 -0.47625395281E+03  0.35328311975E+04  0.35005825861E+04 0.  0.
        4    1    3    3  502    0  0.15155792270E+04  0.87299712356E+03 -0.17107982162E+03  0.17573771050E+04  0.12699999809E+01 0.  1.
       -4    1    3    3    0  502 -0.15155792270E+04 -0.87299712356E+03 -0.30517413119E+03  0.17754540924E+04  0.12699999809E+01 0. -1.
</event>
<event>
 5   0  0.3467834E-08  0.3489934E+04  0.7818609E-02  0.8116180E-01
       -2   -1    0    0    0  501  0.00000000000E+00  0.00000000000E+00  0.20250148063E+04  0.20250148063E+04  0.25500000920E-02 0.  1.
        2   -1    0    0  501    0  0.00000000000E+00  0.00000000000E+00 -0.15036485095E+04  0.15036485095E+04  0.25500000920E-02 0. -1.
    10030    2    1    2    0    0  0.00000000000E+00  0.00000000000E+00  0.52136629674E+03  0.35286633158E+04  0.34899343806E+04 0.  0.
        3    1    3    3  502    0 -0.13743572980E+04 -0.91805390881E+03 -0.30519680089E+03  0.16807218864E+04  0.10100000352E+00 0. -1.
       -3    1    3    3    0  502  0.13743572980E+04  0.91805390881E+03  0.82656309763E+03  0.18479414294E+04  0.10100000352E+00 0.  1.
</event>
<event>
 5   0  0.1121462E-08  0.3492351E+04  0.7818609E-02  0.8115605E-01
        1   -1    0    0  501    0  0.00000000000E+00  0.00000000000E+00  0.22561223475E+04  0.22561223475E+04  0.50400001928E-02 0. -1.
       -1   -1    0    0    0  501  0.00000000000E+00  0.00000000000E+00 -0.13514909235E+04  0.13514909235E+04  0.50400001928E-02 0.  1.
    10030    2    1    2    0    0  0.00000000000E+00  0.00000000000E+00  0.90463142404E+03  0.36076132710E+04  0.34923509989E+04 0.  0.
        1    1    3    3  502    0 -0.70027786553E+03 -0.10340582512E+04  0.17130309323E+04  0.21199388036E+04  0.50400001928E-02 0. -1.
       -1    1    3    3    0  502  0.70027786553E+03  0.10340582512E+04 -0.80839950828E+03  0.14876744674E+04  0.50400001928E-02 0.  1.
</event>
<event>
 5   0  0.3553585E-08  0.3499754E+04  0.7818609E-02  0.8113848E-01
       -2   -1    0    0    0  501  0.00000000000E+00  0.00000000000E+00  0.15593406618E+04  0.15593406618E+04  0.25500000920E-02 0.  1.
        2   -1    0    0  501    0  0.00000000000E+00  0.00000000000E+00 -0.19636945867E+04  0.19636945867E+04  0.25500000920E-02 0. -1.
    10030    2    1    2    0    0  0.00000000000E+00  0.00000000000E+00 -0.40435392485E+03  0.35230352485E+04  0.34997536007E+04 0.  0.
        2    1    3    3  502    0  0.87154304699E+03  0.31330320024E+03  0.12923959257E+04  0.15899790586E+04  0.25500000920E-02 0.  1.
       -2    1    3    3    0  502 -0.87154304699E+03 -0.31330320024E+03 -0.16967498505E+04  0.19330561899E+04  0.25500000920E-02 0. -1.
</event>
<event>
 5   0  0.3628017E-08  0.3499792E+04  0.7818609E-02  0.8113839E-01
        2   -1    0    0  501    0  0.00000000000E+00  0.00000000000E+00  0.28211964798E+04  0.28211964798E+04  0.25500000920E-02 0. -1.
       -2   -1    0    0    0  501  0.00000000000E+00  0.00000000000E+00 -0.10854031935E+04  0.10854031935E+04  0.25500000920E-02 0.  1.
    10030    2    1    2    0    0  0.00000000000E+00  0.00000000000E+00  0.17357932863E+04  0.39065996733E+04  0.34997918045E+04 0.  0.
        1    1    3    3  502    0 -0.52406544337E+03  0.10434284130E+04  0.23227566574E+04  0.25997280495E+04  0.50400001928E-02 0. -1.
       -1    1    3    3    0  502  0.52406544337E+03 -0.10434284130E+04 -0.58696337116E+03  0.13068716238E+04  0.50400001928E-02 0.  1.
</event>
<event>
 5   0  0.1121462E-08  0.3499254E+04  0.7818609E-02  0.8113967E-01
        1   -1    0    0  501    0  0.00000000000E+00  0.00000000000E+00  0.14215516868E+04  0.14215516868E+04  0.50400001928E-02 0.  1.
       -1   -1    0    0    0  501  0.00000000000E+00  0.00000000000E+00 -0.21534180823E+04  0.21534180823E+04  0.50400001928E-02 0. -1.
    10030    2    1    2    0    0  0.00000000000E+00  0.00000000000E+00 -0.73186639548E+03  0.35749697691E+04  0.34992542676E+04 0.  0.
        2    1    3    3  502    0  0.61611885833E+03 -0.52049796352E+03  0.12202968134E+04  0.14627525048E+04  0.25500000920E-02 0.  1.
       -2    1    3    3    0  502 -0.61611885833E+03  0.52049796352E+03 -0.19521632089E+04  0.21122172643E+04  0.25500000920E-02 0. -1.
</event>
<event>
 5   0  0.1121462E-08  0.3499469E+04  0.7818609E-02  0.8113916E-01
       -1   -1    0    0    0  501  0.00000000000E+00  0.00000000000E+00  0.25029523903E+04  0.25029523903E+04  0.50400001928E-02 0.  1.
        1   -1    0    0  501    0  0.00000000000E+00  0.00000000000E+00 -0.12231837875E+04  0.12231837875E+04  0.50400001928E-02 0. -1.
    10030    2    1    2    0    0  0.00000000000E+00  0.00000000000E+00  0.12797686028E+04  0.37261361778E+04  0.34994689796E+04 0.  0.
        2    1    3    3  502    0  0.52969653296E+03 -0.16565691244E+03  0.24067480915E+04  0.24699103234E+04  0.25500000920E-02 0.  1.
       -2    1    3    3    0  502 -0.52969653296E+03  0.16565691244E+03 -0.11269794886E+04  0.12562258545E+04  0.25500000920E-02 0. -1.
</event>
<event>
 5   0  0.3628017E-08  0.3500626E+04  0.7818609E-02  0.8113642E-01
        2   -1    0    0  501    0  0.00000000000E+00  0.00000000000E+00  0.25524420919E+04  0.25524420920E+04  0.25500000920E-02 0.  1.
       -2   -1    0    0    0  501  0.00000000000E+00  0.00000000000E+00 -0.12002607629E+04  0.12002607629E+04  0.25500000920E-02 0. -1.
    10030    2    1    2    0    0  0.00000000000E+00  0.00000000000E+00  0.13521813291E+04  0.37527028548E+04  0.35006262825E+04 0.  0.
        1    1    3    3  502    0  0.14305807376E+04 -0.10111985013E+03  0.17517434523E+04  0.22639327714E+04  0.50400001928E-02 0.  1.
       -1    1    3    3    0  502 -0.14305807376E+04  0.10111985013E+03 -0.39956212320E+03  0.14887700834E+04  0.50400001928E-02 0. -1.
</event>
<event>
 5   0  0.3700096E-08  0.3499893E+04  0.7818609E-02  0.8113815E-01
       -2   -1    0    0    0  501  0.00000000000E+00  0.00000000000E+00  0.15025072152E+04  0.15025072152E+04  0.25500000920E-02 0.  1.
        2   -1    0    0  501    0  0.00000000000E+00  0.00000000000E+00 -0.20381353353E+04  0.20381353353E+04  0.25500000920E-02 0. -1.
    10030    2    1    2    0    0  0.00000000000E+00  0.00000000000E+00 -0.53562812007E+03  0.35406425504E+04  0.34998931679E+04 0.  0.
        4    1    3    3  502    0 -0.74000397694E+03 -0.15838005787E+04 -0.18763680278E+03  0.17581920662E+04  0.12699999809E+01 0. -1.
       -4    1    3    3    0  502  0.74000397694E+03  0.15838005787E+04 -0.34799131730E+03  0.17824504842E+04  0.12699999809E+01 0.  1.
</event>
<event>
 5   0  0.3700096E-08  0.3500031E+04  0.7818609E-02  0.8113783E-01
        2   -1    0    0  501    0  0.00000000000E+00  0.00000000000E+00  0.16473075626E+04  0.16473075626E+04  0.25500000920E-02 0.  1.
       -2   -1    0    0    0  501  0.00000000000E+00  0.00000000000E+00 -0.18591272272E+04  0.18591272272E+04  0.25500000920E-02 0. -1.
    10030    2    1    2    0    0  0.00000000000E+00  0.00000000000E+00 -0.21181966463E+03  0.35064347898E+04  0.35000310520E+04 0.  0.
        4    1    3    3  502    0 -0.72827484275E+03  0.15870106079E+04  0.10775634740E+02  0.17461685610E+04  0.12699999809E+01 0.  1.
       -4    1    3    3    0  502  0.72827484275E+03 -0.15870106079E+04 -0.22259529937E+03  0.17602662288E+04  0.12699999809E+01 0. -1.
</event>
<event>
 5   0  0.1140808E-08  0.3500388E+04  0.7818609E-02  0.8113698E-01
        1   -1    0    0  501    0  0.00000000000E+00  0.00000000000E+00  0.14771020745E+04  0.14771020745E+04  0.50400001928E-02 0. -1.
       -1   -1    0    0    0  501  0.00000000000E+00  0.00000000000E+00 -0.20737758249E+04  0.20737758249E+04  0.50400001928E-02 0.  1.
    10030    2    1    2    0    0  0.00000000000E+00  0.00000000000E+00 -0.59667375035E+03  0.35508778994E+04  0.35003877346E+04 0.  0.
        3    1    3    3  502    0 -0.23649477473E+02  0.14631443382E+04 -0.12723044803E+04  0.19391001400E+04  0.10100000352E+00 0. -1.
       -3    1    3    3    0  502  0.23649477473E+02 -0.14631443382E+04  0.67563072996E+03  0.16117777594E+04  0.10100000352E+00 0.  1.
</event>
<event>
 5   0  0.1129219E-08  0.3500522E+04  0.7818609E-02  0.8113666E-01
       -1   -1    0    0    0  501  0.00000000000E+00  0.00000000000E+00  0.18488953203E+04  0.18488953203E+04  0.50400001928E-02 0. -1.
        1   -1    0    0  501    0  0.00000000000E+00  0.00000000000E+00 -0.16568888137E+04  0.16568888137E+04  0.50400001928E-02 0.  1.
    10030    2    1    2    0    0  0.00000000000E+00  0.00000000000E+00  0.19200650666E+03  0.35057841340E+04  0.35005222319E+04 0.  0.
        5    1    3    3  502    0  0.88790500609E+03 -0.14315063596E+04 -0.37990166326E+03  0.17268274729E+04  0.46999998093E+01 0.  1.
       -5    1    3    3    0  502 -0.88790500609E+03  0.14315063596E+04  0.57190816992E+03  0.17789566611E+04  0.46999998093E+01 0. -1.
</event>
<event>
 5   0  0.3553585E-08  0.3499612E+04  0.7818609E-02  0.8113882E-01
       -2   -1    0    0    0  501  0.00000000000E+00  0.00000000000E+00  0.16144792040E+04  0.16144792040E+04  0.25500000920E-02 0.  1.
        2   -1    0    0  501    0  0.00000000000E+00  0.00000000000E+00 -0.18964762987E+04  0.18964762987E+04  0.25500000920E-02 0. -1.
    10030    2    1    2    0    0  0.00000000000E+00  0.00000000000E+00 -0.28199709468E+03  0.35109555026E+04  0.34996122900E+04 0.  0.
        2    1    3    3  502    0  0.88864747181E+03  0.11243673244E+04  0.86621039580E+03  0.16745795470E+04  0.25500000920E-02 0.  1.
       -2    1    3    3    0  502 -0.88864747181E+03 -0.11243673244E+04 -0.11482074905E+04  0.18363759557E+04  0.25500000920E-02 0. -1.
</event>
<event>
 5   0  0.1121462E-08  0.3499361E+04  0.7818609E-02  0.8113941E-01
       -1   -1    0    0    0  501  0.00000000000E+00  0.00000000000E+00  0.26099421827E+04  0.26099421828E+04  0.50400001928E-02 0. -1.
        1   -1    0    0  501    0  0.00000000000E+00  0.00000000000E+00 -0.11729693795E+04  0.11729693795E+04  0.50400001928E-02 0.  1.
    10030    2    1    2    0    0  0.00000000000E+00  0.00000000000E+00  0.14369728033E+04  0.37829115623E+04  0.34993612347E+04 0.  0.
        2    1    3    3  502    0 -0.85647863378E+03  0.14809520198E+04  0.11151043907E+04  0.20421146729E+04  0.25500000920E-02 0.  1.
       -2    1    3    3    0  502  0.85647863378E+03 -0.14809520198E+04  0.32186841258E+03  0.17407968894E+04  0.25500000920E-02 0. -1.
</event>
<event>
 5   0  0.1121462E-08  0.3499867E+04  0.7818609E-02  0.8113822E-01
        1   -1    0    0  501    0  0.00000000000E+00  0.00000000000E+00  0.25622979410E+04  0.25622979410E+04  0.50400001928E-02 0.  1.
       -1   -1    0    0    0  501  0.00000000000E+00  0.00000000000E+00 -0.11951252197E+04  0.11951252197E+04  0.50400001928E-02 0. -1.
    10030    2    1    2    0    0  0.00000000000E+00  0.00000000000E+00  0.13671727213E+04  0.37574231608E+04  0.34998667916E+04 0.  0.
        2    1    3    3  502    0 -0.21106100242E+00 -0.63807779200E+03 -0.10657807717E+04  0.12421883780E+04  0.25500000920E-02 0. -1.
       -2    1    3    3    0  502  0.21106100242E+00  0.63807779200E+03  0.24329534930E+04  0.25152347827E+04  0.25500000920E-02 0.  1.
</event>
<event>
 5   0  0.1121462E-08  0.3492671E+04  0.7818609E-02  0.8115529E-01
        1   -1    0    0  501    0  0.00000000000E+00  0.00000000000E+00  0.23633376961E+04  0.23633376961E+04  0.50400001928E-02 0.  1.
       -1   -1    0    0    0  501  0.00000000000E+00  0.00000000000E+00 -0.12904152611E+04  0.12904152612E+04  0.50400001928E-02 0. -1.
    10030    2    1    2    0    0  0.00000000000E+00  0.00000000000E+00  0.10729224350E+04  0.36537529573E+04  0.34926706288E+04 0.  0.
        1    1    3    3  502    0 -0.13847625386E+04  0.69096686441E+03 -0.30998153088E+03  0.15783190569E+04  0.50400001928E-02 0. -1.
       -1    1    3    3    0  502  0.13847625386E+04 -0.69096686441E+03  0.13829039658E+04  0.20754339003E+04  0.50400001928E-02 0.  1.
</event>
<event>
 5   0  0.3553585E-08  0.3500126E+04  0.7818609E-02  0.8113760E-01
        2   -1    0    0  501    0  0.00000000000E+00  0.00000000000E+00  0.28426618247E+04  0.28426618247E+04  0.25500000920E-02 0.  1.
       -2   -1    0    0    0  501  0.00000000000E+00  0.00000000000E+00 -0.10774129425E+04  0.10774129425E+04  0.25500000920E-02 0. -1.
    10030    2    1    2    0    0  0.00000000000E+00  0.00000000000E+00  0.17652488822E+04  0.39200747671E+04  0.35001260783E+04 0.  0.
        2    1    3    3  502    0  0.84739300900E+03 -0.15227828718E+04  0.10624435049E+04  0.20410117068E+04  0.25500000920E-02 0.  1.
       -2    1    3    3    0  502 -0.84739300900E+03  0.15227828718E+04  0.70280537736E+03  0.18790630603E+04  0.25500000920E-02 0. -1.
</event>
<event>
 5   0  0.3700096E-08  0.3493694E+04  0.7818609E-02  0.8115286E-01
        2   -1    0    0  501    0  0.00000000000E+00  0.00000000000E+00  0.19768030357E+04  0.19768030357E+04  0.25500000920E-02 0.  1.
       -2   -1    0    0    0  501  0.00000000000E+00  0.00000000000E+00 -0.15436414446E+04  0.15436414446E+04  0.25500000920E-02 0. -1.
    10030    2    1    2    0    0  0.00000000000E+00  0.00000000000E+00  0.43316159112E+03  0.35204444802E+04  0.34936943733E+04 0.  0.
        4    1    3    3  502    0  0.87626359083E+03  0.15042082307E+04  0.36258047341E+03  0.17781862936E+04  0.12699999809E+01 0. -1.
       -4    1    3    3    0  502 -0.87626359083E+03 -0.15042082307E+04  0.70581117703E+02  0.17422581867E+04  0.12699999809E+01 0.  1.
</event>
<event>
 5   0  0.1140808E-08  0.3498979E+04  0.7818609E-02  0.8114032E-01
       -1   -1    0    0    0  501  0.00000000000E+00  0.00000000000E+00  0.11038662787E+04  0.11038662787E+04  0.50400001928E-02 0. -1.
        1   -1    0    0  501    0  0.00000000000E+00  0.00000000000E+00 -0.27727217924E+04  0.27727217924E+04  0.50400001928E-02 0.  1.
    10030    2    1    2    0    0  0.00000000000E+00  0.00000000000E+00 -0.16688555137E+04  0.38765880712E+04  0.34989793294E+04 0.  0.
        3    1    3    3  502    0 -0.69393900407E+03 -0.27591416528E+03 -0.25872652817E+04  0.26928835133E+04  0.10100000352E+00 0.  1.
       -3    1    3    3    0  502  0.69393900407E+03  0.27591416528E+03  0.91840976806E+03  0.11837045578E+04  0.10100000352E+00 0. -1.
</event>
<event>
 5   0  0.3628017E-08  0.3501469E+04  0.7818609E-02  0.8113442E-01
        2   -1    0    0  501    0  0.00000000000E+00  0.00000000000E+00  0.19061238601E+04  0.19061238601E+04  0.25500000920E-02 0.  1.
       -2   -1    0    0    0  501  0.00000000000E+00  0.00000000000E+00 -0.16080122126E+04  0.16080122127E+04  0.25500000920E-02 0. -1.
    10030    2    1    2    0    0  0.00000000000E+00  0.00000000000E+00  0.29811164742E+03  0.35141360727E+04  0.35014685181E+04 0.  0.
        1    1    3    3  502    0  0.14076050714E+04  0.36990386193E+02  0.11931801951E+04  0.18456433305E+04  0.50400001928E-02 0.  1.
       -1    1    3    3    0  502 -0.14076050714E+04 -0.36990386193E+02 -0.89506854769E+03  0.16684927422E+04  0.50400001928E-02 0. -1.
</event>
<event>
 5   0  0.1121462E-08  0.3499827E+04  0.7818609E-02  0.8113831E-01
        1   -1    0    0  501    0  0.00000000000E+00  0.00000000000E+00  0.18527609049E+04  0.18527609049E+04  0.50400001928E-02 0.  1.
       -1   -1    0    0    0  501  0.00000000000E+00  0.00000000000E+00 -0.16527747508E+04  0.16527747508E+04  0.50400001928E-02 0. -1.
    10030    2    1    2    0    0  0.00000000000E+00  0.00000000000E+00  0.19998615407E+03  0.35055356557E+04  0.34998265345E+04 0.  0.
        2    1    3    3  502    0 -0.63473427839E+03 -0.58131884791E+03 -0.14260989729E+04  0.16657063029E+04  0.25500000920E-02 0. -1.
       -2    1    3    3    0  502  0.63473427839E+03  0.58131884791E+03  0.16260851270E+04  0.18398293528E+04  0.25500000920E-02 0.  1.
</event>
<event>
 5   0  0.1121462E-08  0.3502501E+04  0.7818609E-02  0.8113198E-01
       -1   -1    0    0    0  501  0.00000000000E+00  0.00000000000E+00  0.14698693149E+04  0.14698693149E+04  0.50400001928E-02 0. -1.
        1   -1    0    0  501    0  0.00000000000E+00  0.00000000000E+00 -0.20864968670E+04  0.20864968671E+04  0.50400001928E-02 0.  1.
    10030    2    1    2    0    0  0.00000000000E+00  0.00000000000E+00 -0.61662755214E+03  0.35563661820E+04  0.35025006613E+04 0.  0.
        1    1    3    3  502    0 -0.23905225413E+03 -0.16348391449E+04  0.28115970563E+03  0.16759760708E+04  0.50400001928E-02 0. -1.
       -1    1    3    3    0  502  0.23905225413E+03  0.16348391449E+04 -0.89778725777E+03  0.18803901111E+04  0.50400001928E-02 0.  1.
</event>
<event>
 5   0  0.1140808E-08  0.3500262E+04  0.7818609E-02  0.8113728E-01
        1   -1    0    0  501    0  0.00000000000E+00  0.00000000000E+00  0.30749822242E+04  0.30749822242E+04  0.50400001928E-02 0. -1.
       -1   -1    0    0    0  501  0.00000000000E+00  0.00000000000E+00 -0.99608988665E+03  0.99608988666E+03  0.50400001928E-02 0.  1.
    10030    2    1    2    0    0  0.00000000000E+00  0.00000000000E+00  0.20788923376E+04  0.40710721109E+04  0.35002621017E+04 0.  0.
        3    1    3    3  502    0 -0.13402294667E+04 -0.83071318931E+03  0.19226640723E+04  0.24865511399E+04  0.10100000352E+00 0. -1.
       -3    1    3    3    0  502  0.13402294667E+04  0.83071318931E+03  0.15622826524E+03  0.15845209709E+04  0.10100000352E+00 0.  1.
</event>
<event>
 5   0  0.1121462E-08  0.3504291E+04  0.7818609E-02  0.8112774E-01
       -1   -1    0    0    0  501  0.00000000000E+00  0.00000000000E+00  0.15031344104E+04  0.15031344104E+04  0.50400001928E-02 0. -1.
        1   -1    0    0  501    0  0.00000000000E+00  0.00000000000E+00 -0.20424075835E+04  0.20424075835E+04  0.50400001928E-02 0.  1.
    10030    2    1    2    0    0  0.00000000000E+00  0.00000000000E+00 -0.53927317309E+03  0.35455419940E+04  0.35042905810E+04 0.  0.
        1    1    3    3  502    0 -0.15401629068E+04  0.48697984674E+03  0.41714846631E+03  0.16683117196E+04  0.50400001928E-02 0. -1.
       -1    1    3    3    0  502  0.15401629068E+04 -0.48697984674E+03 -0.95642163940E+03  0.18772302744E+04  0.50400001928E-02 0.  1.
</event>
<event>
 5   0  0.1121462E-08  0.3499253E+04  0.7818609E-02  0.8113967E-01
       -1   -1    0    0    0  501  0.00000000000E+00  0.00000000000E+00  0.17197275089E+04  0.17197275089E+04  0.50400001928E-02 0.  1.
        1   -1    0    0  501    0  0.00000000000E+00  0.00000000000E+00 -0.17800449510E+04  0.17800449510E+04  0.50400001928E-02 0. -1.
    10030    2    1    2    0    0  0.00000000000E+00  0.00000000000E+00 -0.60317442051E+02  0.34997724599E+04  0.34992526455E+04 0.  0.
        1    1    3    3  502    0 -0.16509352022E+04 -0.57255800445E+03  0.58073197409E+02  0.17483655815E+04  0.50400001928E-02 0.  1.
       -1    1    3    3    0  502  0.16509352022E+04  0.57255800445E+03 -0.11839063946E+03  0.17514068784E+04  0.50400001928E-02 0. -1.
</event>
<event>
 5   0  0.1121462E-08  0.3500754E+04  0.7818609E-02  0.8113611E-01
        1   -1    0    0  501    0  0.00000000000E+00  0.00000000000E+00  0.20386192285E+04  0.20386192285E+04  0.50400001928E-02 0.  1.
       -1   -1    0    0    0  501  0.00000000000E+00  0.00000000000E+00 -0.15028892594E+04  0.15028892594E+04  0.50400001928E-02 0. -1.
    10030    2    1    2    0    0  0.00000000000E+00  0.00000000000E+00  0.53572996915E+03  0.35415084879E+04  0.35007536003E+04 0.  0.
        2    1    3    3  502    0 -0.16100810095E+04  0.27912015652E+03  0.90250392202E+03  0.18667571477E+04  0.25500000920E-02 0. -1.
       -2    1    3    3    0  502  0.16100810095E+04 -0.27912015652E+03 -0.36677395287E+03  0.16747513402E+04  0.25500000920E-02 0.  1.
</event>
<event>
 5   0  0.1121462E-08  0.3503300E+04  0.7818609E-02  0.8113008E-01
        1   -1    0    0  501    0  0.00000000000E+00  0.00000000000E+00  0.19274554465E+04  0.19274554466E+04  0.50400001928E-02 0. -1.
       -1   -1    0    0    0  501  0.00000000000E+00  0.00000000000E+00 -0.15918796919E+04  0.15918796919E+04  0.50400001928E-02 0.  1.
    10030    2    1    2    0    0  0.00000000000E+00  0.00000000000E+00  0.33557575465E+03  0.35193351385E+04  0.35032996917E+04 0.  0.
        1    1    3    3  502    0 -0.11075197736E+04 -0.62889748696E+03  0.13758583534E+04  0.18748595432E+04  0.50400001928E-02 0. -1.
       -1    1    3    3    0  502  0.11075197736E+04  0.62889748696E+03 -0.10402825988E+04  0.16444755952E+04  0.50400001928E-02 0.  1.
</event>
<event>
 5   0  0.3553585E-08  0.3500834E+04  0.7818609E-02  0.8113592E-01
       -2   -1    0    0    0  501  0.00000000000E+00  0.00000000000E+00  0.13142471489E+04  0.13142471489E+04  0.25500000920E-02 0. -1.
        2   -1    0    0  501    0  0.00000000000E+00  0.00000000000E+00 -0.23313418350E+04  0.23313418351E+04  0.25500000920E-02 0.  1.
    10030    2    1    2    0    0  0.00000000000E+00  0.00000000000E+00 -0.10170946861E+04  0.36455889840E+04  0.35008338206E+04 0.  0.
        2    1    3    3  502    0 -0.81754130767E+03 -0.94152136347E+03  0.77071182950E+03  0.14658898293E+04  0.25500000920E-02 0.  1.
       -2    1    3    3    0  502  0.81754130767E+03  0.94152136347E+03 -0.17878065156E+04  0.21796991547E+04  0.25500000920E-02 0. -1.
</event>
<event>
 5   0  0.1121462E-08  0.3504840E+04  0.7818609E-02  0.8112644E-01
        1   -1    0    0  501    0  0.00000000000E+00  0.00000000000E+00  0.16445623663E+04  0.16445623663E+04  0.50400001928E-02 0. -1.
       -1   -1    0    0    0  501  0.00000000000E+00  0.00000000000E+00 -0.18673509974E+04  0.18673509974E+04  0.50400001928E-02 0.  1.
    10030    2    1    2    0    0  0.00000000000E+00  0.00000000000E+00 -0.22278863113E+03  0.35119133638E+04  0.35048396112E+04 0.  0.
        2    1    3    3  502    0 -0.63513332227E+03  0.99965181535E+03 -0.14056191751E+04  0.18380596710E+04  0.25500000920E-02 0.  1.
       -2    1    3    3    0  502  0.63513332227E+03 -0.99965181535E+03  0.11828305439E+04  0.16738536927E+04  0.25500000920E-02 0. -1.
</event>
<event>
 5   0  0.1129219E-08  0.3499320E+04  0.7818609E-02  0.8113951E-01
        1   -1    0    0  501    0  0.00000000000E+00  0.00000000000E+00  0.88454399634E+03  0.88454399636E+03  0.50400001928E-02 0. -1.
       -1   -1    0    0    0  501  0.00000000000E+00  0.00000000000E+00 -0.34608912733E+04  0.34608912733E+04  0.50400001928E-02 0.  1.
    10030    2    1    2    0    0  0.00000000000E+00  0.00000000000E+00 -0.25763472769E+04  0.43454352696E+04  0.34993202756E+04 0.  0.
        5    1    3    3  502    0 -0.48862425677E+02  0.14096070143E+04 -0.25064574561E+01  0.14104636981E+04  0.46999998093E+01 0. -1.
       -5    1    3    3    0  502  0.48862425677E+02 -0.14096070143E+04 -0.25738408195E+04  0.29349715715E+04  0.46999998093E+01 0.  1.
</event>
<event>
 5   0  0.3628017E-08  0.3501798E+04  0.7818609E-02  0.8113364E-01
       -2   -1    0    0    0  501  0.00000000000E+00  0.00000000000E+00  0.17418864358E+04  0.17418864358E+04  0.25500000920E-02 0.  1.
        2   -1    0    0  501    0  0.00000000000E+00  0.00000000000E+00 -0.17599583695E+04  0.17599583695E+04  0.25500000920E-02 0. -1.
    10030    2    1    2    0    0  0.00000000000E+00  0.00000000000E+00 -0.18071933758E+02  0.35018448053E+04  0.35017981731E+04 0.  0.
        1    1    3    3  502    0 -0.48405645457E+02  0.29125778908E+03  0.17168124425E+04  0.17420158348E+04  0.50400001928E-02 0.  1.
       -1    1    3    3    0  502  0.48405645457E+02 -0.29125778908E+03 -0.17348843762E+04  0.17598289704E+04  0.50400001928E-02 0. -1.
</event>
<event>
 5   0  0.3628017E-08  0.3510400E+04  0.7818609E-02  0.8111330E-01
        2   -1    0    0  501    0  0.00000000000E+00  0.00000000000E+00  0.34037488373E+04  0.34037488373E+04  0.25500000920E-02 0.  1.
       -2   -1    0    0    0  501  0.00000000000E+00  0.00000000000E+00 -0.90509809482E+03  0.90509809483E+03  0.25500000920E-02 0. -1.
    10030    2    1    2    0    0  0.00000000000E+00  0.00000000000E+00  0.24986507425E+04  0.43088469322E+04  0.35103997424E+04 0.  0.
        1    1    3    3  502    0  0.53825303370E+03 -0.11952665502E+04  0.26820032096E+04  0.29852168549E+04  0.50400001928E-02 0.  1.
       -1    1    3    3    0  502 -0.53825303370E+03  0.11952665502E+04 -0.18335246710E+03  0.13236300773E+04  0.50400001928E-02 0. -1.
</event>
<event>
 5   0  0.3553585E-08  0.3485181E+04  0.7818609E-02  0.8117311E-01
        2   -1    0    0  501    0  0.00000000000E+00  0.00000000000E+00  0.17720888568E+04  0.17720888568E+04  0.25500000920E-02 0. -1.
       -2   -1    0    0    0  501  0.00000000000E+00  0.00000000000E+00 -0.17135836183E+04  0.17135836183E+04  0.25500000920E-02 0.  1.
    10030    2    1    2    0    0  0.00000000000E+00  0.00000000000E+00  0.58505238474E+02  0.34856724751E+04  0.34851814502E+04 0.  0.
        2    1    3    3  502    0  0.10047879066E+04  0.12766196340E+04  0.65963183613E+03  0.17534168319E+04  0.25500000920E-02 0. -1.
       -2    1    3    3    0  502 -0.10047879066E+04 -0.12766196340E+04 -0.60112659766E+03  0.17322556432E+04  0.25500000920E-02 0.  1.
</event>
<event>
 5   0  0.3554451E-08  0.3499646E+04  0.7818609E-02  0.8113874E-01
       -2   -1    0    0    0  501  0.00000000000E+00  0.00000000000E+00  0.15593924378E+04  0.15593924378E+04  0.25500000920E-02 0.  1.
        2   -1    0    0  501    0  0.00000000000E+00  0.00000000000E+00 -0.19635081534E+04  0.19635081534E+04  0.25500000920E-02 0. -1.
    10030    2    1    2    0    0  0.00000000000E+00  0.00000000000E+00 -0.40411571561E+03  0.35229005912E+04  0.34996455626E+04 0.  0.
        5    1    3    3  502    0 -0.11007946290E+02 -0.49959922087E+03 -0.18901438766E+04  0.19550924583E+04  0.46999998093E+01 0. -1.
       -5    1    3    3    0  502  0.11007946290E+02  0.49959922087E+03  0.14860281610E+04  0.15678081329E+04  0.46999998093E+01 0.  1.
</event>
<event>
 5   0  0.1121462E-08  0.3500286E+04  0.7818609E-02  0.8113722E-01
        1   -1    0    0  501    0  0.00000000000E+00  0.00000000000E+00  0.26833491669E+04  0.26833491669E+04  0.50400001928E-02 0.  1.
       -1   -1    0    0    0  501  0.00000000000E+00  0.00000000000E+00 -0.11414839571E+04  0.11414839571E+04  0.50400001928E-02 0. -1.
    10030    2    1    2    0    0  0.00000000000E+00  0.00000000000E+00  0.15418652098E+04  0.38248331241E+04  0.35002857172E+04 0.  0.
        4    1    3    3  502    0 -0.16168506254E+04  0.17954054768E+02  0.39160665144E+02  0.16174249483E+04  0.12699999809E+01 0. -1.
       -4    1    3    3    0  502  0.16168506254E+04 -0.17954054768E+02  0.15027045446E+04  0.22074081757E+04  0.12699999809E+01 0.  1.
</event>
<event>
 5   0  0.3628017E-08  0.3496677E+04  0.7818609E-02  0.8114578E-01
        2   -1    0    0  501    0  0.00000000000E+00  0.00000000000E+00  0.17394628808E+04  0.17394628808E+04  0.25500000920E-02 0.  1.
       -2   -1    0    0    0  501  0.00000000000E+00  0.00000000000E+00 -0.17572596606E+04  0.17572596606E+04  0.25500000920E-02 0. -1.
    10030    2    1    2    0    0  0.00000000000E+00  0.00000000000E+00 -0.17796779768E+02  0.34967225414E+04  0.34966772523E+04 0.  0.
        1    1    3    3  502    0 -0.92814772205E+03 -0.37618878471E+03 -0.14419946727E+04  0.17556551005E+04  0.50400001928E-02 0. -1.
       -1    1    3    3    0  502  0.92814772205E+03  0.37618878471E+03  0.14241978929E+04  0.17410674410E+04  0.50400001928E-02 0.  1.
</event>
<event>
 5   0  0.1121462E-08  0.3499878E+04  0.7818609E-02  0.8113819E-01
       -1   -1    0    0    0  501  0.00000000000E+00  0.00000000000E+00  0.16284232498E+04  0.16284232499E+04  0.50400001928E-02 0. -1.
        1   -1    0    0  501    0  0.00000000000E+00  0.00000000000E+00 -0.18805225280E+04  0.18805225280E+04  0.50400001928E-02 0.  1.
    10030    2    1    2    0    0  0.00000000000E+00  0.00000000000E+00 -0.25209927819E+03  0.35089457779E+04  0.34998780588E+04 0.  0.
        1    1    3    3  502    0 -0.44168148081E+03 -0.67695430028E+03  0.14300466281E+04  0.16426755656E+04  0.50400001928E-02 0. -1.
       -1    1    3    3    0  502  0.44168148081E+03  0.67695430028E+03 -0.16821459063E+04  0.18662702123E+04  0.50400001928E-02 0.  1.
</event>
<event>
 5   0  0.1121462E-08  0.3498715E+04  0.7818609E-02  0.8114095E-01
       -1   -1    0    0    0  501  0.00000000000E+00  0.00000000000E+00  0.16679375444E+04  0.16679375444E+04  0.50400001928E-02 0.  1.
        1   -1    0    0  501    0  0.00000000000E+00  0.00000000000E+00 -0.18347518932E+04  0.18347518932E+04  0.50400001928E-02 0. -1.
    10030    2    1    2    0    0  0.00000000000E+00  0.00000000000E+00 -0.16681434874E+03  0.35026894376E+04  0.34987149454E+04 0.  0.
        2    1    3    3  502    0  0.76240432556E+02 -0.98085537855E+03 -0.15315501848E+04  0.18203120188E+04  0.25500000920E-02 0. -1.
       -2    1    3    3    0  502 -0.76240432556E+02  0.98085537855E+03  0.13647358360E+04  0.16823774188E+04  0.25500000920E-02 0.  1.
</event>
<event>
 5   0  0.1140808E-08  0.3499809E+04  0.7818609E-02  0.8113835E-01
       -1   -1    0    0    0  501  0.00000000000E+00  0.00000000000E+00  0.13350371063E+04  0.13350371063E+04  0.50400001928E-02 0.  1.
        1   -1    0    0  501    0  0.00000000000E+00  0.00000000000E+00 -0.22936935112E+04  0.22936935112E+04  0.50400001928E-02 0. -1.
    10030    2    1    2    0    0  0.00000000000E+00  0.00000000000E+00 -0.95865640496E+03  0.36287306175E+04  0.34998091079E+04 0.  0.
        3    1    3    3  502    0 -0.91866004422E+03  0.14787363362E+04 -0.66354846938E+03  0.18630335505E+04  0.10100000352E+00 0. -1.
       -3    1    3    3    0  502  0.91866004422E+03 -0.14787363362E+04 -0.29510793558E+03  0.17656970671E+04  0.10100000352E+00 0.  1.
</event>
<event>
 5   0  0.1129219E-08  0.3499923E+04  0.7818609E-02  0.8113808E-01
        1   -1    0    0  501    0  0.00000000000E+00  0.00000000000E+00  0.22892507689E+04  0.22892507689E+04  0.50400001928E-02 0. -1.
       -1   -1    0    0    0  501  0.00000000000E+00  0.00000000000E+00 -0.13377149844E+04  0.13377149844E+04  0.50400001928E-02 0.  1.
    10030    2    1    2    0    0  0.00000000000E+00  0.00000000000E+00  0.95153578454E+03  0.36269657533E+04  0.34999228886E+04 0.  0.
        5    1    3    3  502    0  0.55294350617E+03  0.16034111087E+04  0.29233427297E+02  0.16963343974E+04  0.46999998093E+01 0.  1.
       -5    1    3    3    0  502 -0.55294350617E+03 -0.16034111087E+04  0.92230235724E+03  0.19306313559E+04  0.46999998093E+01 0. -1.
</event>
<event>
 5   0  0.1121462E-08  0.3499489E+04  0.7818609E-02  0.8113911E-01
       -1   -1    0    0    0  501  0.00000000000E+00  0.00000000000E+00  0.12857324326E+04  0.12857324326E+04  0.50400001928E-02 0. -1.
        1   -1    0    0  501    0  0.00000000000E+00  0.00000000000E+00 -0.23812153140E+04  0.23812153140E+04  0.50400001928E-02 0.  1.
    10030    2    1    2    0    0  0.00000000000E+00  0.00000000000E+00 -0.10954828814E+04  0.36669477466E+04  0.34994889674E+04 0.  0.
        2    1    3    3  502    0 -0.83693728189E+02  0.10198171957E+03  0.12805134503E+04  0.12872915783E+04  0.25500000920E-02 0. -1.
       -2    1    3    3    0  502  0.83693728189E+02 -0.10198171957E+03 -0.23759963317E+04  0.23796561683E+04  0.25500000920E-02 0.  1.
</event>
<event>
 5   0  0.3628017E-08  0.3498813E+04  0.7818609E-02  0.8114071E-01
        2   -1    0    0  501    0  0.00000000000E+00  0.00000000000E+00  0.18857921144E+04  0.18857921144E+04  0.25500000920E-02 0.  1.
       -2   -1    0    0    0  501  0.00000000000E+00  0.00000000000E+00 -0.16228849290E+04  0.16228849290E+04  0.25500000920E-02 0. -1.
    10030    2    1    2    0    0  0.00000000000E+00  0.00000000000E+00  0.26290718539E+03  0.35086770434E+04  0.34988132855E+04 0.  0.
        1    1    3    3  502    0 -0.16584074374E+04 -0.37985366870E+03 -0.27690388462E+03  0.17237400615E+04  0.50400001928E-02 0. -1.
       -1    1    3    3    0  502  0.16584074374E+04  0.37985366870E+03  0.53981107001E+03  0.17849369819E+04  0.50400001928E-02 0.  1.
</event>
<event>
 5   0  0.3467834E-08  0.3499573E+04  0.7818609E-02  0.8113891E-01
       -2   -1    0    0    0  501  0.00000000000E+00  0.00000000000E+00  0.17596244229E+04  0.17596244229E+04  0.25500000920E-02 0. -1.
        2   -1    0    0  501    0  0.00000000000E+00  0.00000000000E+00 -0.17400039240E+04  0.17400039240E+04  0.25500000920E-02 0.  1.
    10030    2    1    2    0    0  0.00000000000E+00  0.00000000000E+00  0.19620498839E+02  0.34996283469E+04  0.34995733458E+04 0.  0.
        3    1    3    3  502    0  0.13869314710E+04  0.95652634786E+03  0.48229183420E+03  0.17524631189E+04  0.10100000352E+00 0. -1.
       -3    1    3    3    0  502 -0.13869314710E+04 -0.95652634786E+03 -0.46267133536E+03  0.17471652281E+04  0.10100000352E+00 0.  1.
</event>
<event>
 5   0  0.1121462E-08  0.3498894E+04  0.7818609E-02  0.8114052E-01
        1   -1    0    0  501    0  0.00000000000E+00  0.00000000000E+00  0.22469086941E+04  0.22469086941E+04  0.50400001928E-02 0. -1.
       -1   -1    0    0    0  501  0.00000000000E+00  0.00000000000E+00 -0.13621221188E+04  0.13621221188E+04  0.50400001928E-02 0.  1.
    10030    2    1    2    0    0  0.00000000000E+00  0.00000000000E+00  0.88478657536E+03  0.36090308129E+04  0.34988935572E+04 0.  0.
        1    1    3    3  502    0  0.14374739594E+04  0.45885607773E+03 -0.47073180914E+03  0.15806545227E+04  0.50400001928E-02 0.  1.
       -1    1    3    3    0  502 -0.14374739594E+04 -0.45885607773E+03  0.13555183845E+04  0.20283762902E+04  0.50400001928E-02 0. -1.
</event>
<event>
 5   0  0.1121462E-08  0.3500121E+04  0.7818609E-02  0.8113761E-01
       -1   -1    0    0    0  501  0.00000000000E+00  0.00000000000E+00  0.27812059430E+04  0.27812059430E+04  0.50400001928E-02 0.  1.
        1   -1    0    0  501    0  0.00000000000E+00  0.00000000000E+00 -0.11012170534E+04  0.11012170534E+04  0.50400001928E-02 0. -1.
    10030    2    1    2    0    0  0.00000000000E+00  0.00000000000E+00  0.16799888896E+04  0.38824229963E+04  0.35001208055E+04 0.  0.
        2    1    3    3  502    0 -0.76267393382E+03  0.13601415060E+04 -0.41162790206E+02  0.15599201329E+04  0.25500000920E-02 0.  1.
       -2    1    3    3    0  502  0.76267393382E+03 -0.13601415060E+04  0.17211516798E+04  0.23225028634E+04  0.25500000920E-02 0. -1.
</event>
<event>
 5   0  0.1121462E-08  0.3503096E+04  0.7818609E-02  0.8113057E-01
       -1   -1    0    0    0  501  0.00000000000E+00  0.00000000000E+00  0.14296903426E+04  0.14296903426E+04  0.50400001928E-02 0.  1.
        1   -1    0    0  501    0  0.00000000000E+00  0.00000000000E+00 -0.21458629696E+04  0.21458629696E+04  0.50400001928E-02 0. -1.
    10030    2    1    2    0    0  0.00000000000E+00  0.00000000000E+00 -0.71617262700E+03  0.35755533121E+04  0.35030955249E+04 0.  0.
        1    1    3    3  502    0 -0.74474898954E+03 -0.15311633905E+04 -0.77744605196E+03  0.18717731566E+04  0.50400001928E-02 0. -1.
       -1    1    3    3    0  502  0.74474898954E+03  0.15311633905E+04  0.61273424963E+02  0.17037801556E+04  0.50400001928E-02 0.  1.
</event>
<event>
 5   0  0.1121462E-08  0.3499052E+04  0.7818609E-02  0.8114015E-01
        1   -1    0    0  501    0  0.00000000000E+00  0.00000000000E+00  0.16929717413E+04  0.16929717413E+04  0.50400001928E-02 0.  1.
       -1   -1    0    0    0  501  0.00000000000E+00  0.00000000000E+00 -0.18079693549E+04  0.18079693549E+04  0.50400001928E-02 0. -1.
    10030    2    1    2    0    0  0.00000000000E+00  0.00000000000E+00 -0.11499761359E+03  0.35009410962E+04  0.34990518870E+04 0.  0.
        4    1    3    3  502    0  0.13718856018E+03  0.24719921932E+03  0.16699649517E+04  0.16937274598E+04  0.12699999809E+01 0.  1.
       -4    1    3    3    0  502 -0.13718856018E+03 -0.24719921932E+03 -0.17849625653E+04  0.18072136364E+04  0.12699999809E+01 0. -1.
</event>
<event>
 5   0  0.1140808E-08  0.3500295E+04  0.7818609E-02  0.8113720E-01
        1   -1    0    0  501    0  0.00000000000E+00  0.00000000000E+00  0.22139470123E+04  0.22139470123E+04  0.50400001928E-02 0. -1.
       -1   -1    0    0    0  501  0.00000000000E+00  0.00000000000E+00 -0.13835089908E+04  0.13835089908E+04  0.50400001928E-02 0.  1.
    10030    2    1    2    0    0  0.00000000000E+00  0.00000000000E+00  0.83043802154E+03  0.35974560031E+04  0.35002946143E+04 0.  0.
        3    1    3    3  502    0 -0.53404852618E+03  0.12866090028E+04  0.15040824921E+04  0.20500816343E+04  0.10100000352E+00 0. -1.
       -3    1    3    3    0  502  0.53404852618E+03 -0.12866090028E+04 -0.67364447054E+03  0.15473743688E+04  0.10100000352E+00 0.  1.
</event>
<event>
 5   0  0.3628017E-08  0.3499430E+04  0.7818609E-02  0.8113925E-01
        2   -1    0    0  501    0  0.00000000000E+00  0.00000000000E+00  0.24438408823E+04  0.24438408823E+04  0.25500000920E-02 0. -1.
       -2   -1    0    0    0  501  0.00000000000E+00  0.00000000000E+00 -0.12527420138E+04  0.12527420138E+04  0.25500000920E-02 0.  1.
    10030    2    1    2    0    0  0.00000000000E+00  0.00000000000E+00  0.11910988684E+04  0.36965828961E+04  0.34994297526E+04 0.  0.
        1    1    3    3  502    0  0.16152707400E+04  0.66690956403E+03  0.50325288624E+03  0.18185520057E+04  0.50400001928E-02 0.  1.
       -1    1    3    3    0  502 -0.16152707400E+04 -0.66690956403E+03  0.68784598220E+03  0.18780308904E+04  0.50400001928E-02 0. -1.
</event>
<event>
 5   0  0.1129219E-08  0.3500971E+04  0.7818609E-02  0.8113560E-01
       -1   -1    0    0    0  501  0.00000000000E+00  0.00000000000E+00  0.27995891155E+04  0.27995891156E+04  0.50400001928E-02 0.  1.
        1   -1    0    0  501    0  0.00000000000E+00  0.00000000000E+00 -0.10945173708E+04  0.10945173708E+04  0.50400001928E-02 0. -1.
    10030    2    1    2    0    0  0.00000000000E+00  0.00000000000E+00  0.17050717447E+04  0.38941064864E+04  0.35009706758E+04 0.  0.
        5    1    3    3  502    0  0.90600991254E+03  0.29606041207E+03  0.24856276787E+04  0.26621180996E+04  0.46999998093E+01 0.  1.
       -5    1    3    3    0  502 -0.90600991254E+03 -0.29606041207E+03 -0.78055593391E+03  0.12319883868E+04  0.46999998093E+01 0. -1.
</event>
<event>
 5   0  0.3553585E-08  0.3500227E+04  0.7818609E-02  0.8113736E-01
       -2   -1    0    0    0  501  0.00000000000E+00  0.00000000000E+00  0.19380350439E+04  0.19380350440E+04  0.25500000920E-02 0.  1.
        2   -1    0    0  501    0  0.00000000000E+00  0.00000000000E+00 -0.15804138017E+04  0.15804138017E+04  0.25500000920E-02 0. -1.
    10030    2    1    2    0    0  0.00000000000E+00  0.00000000000E+00  0.35762124228E+03  0.35184488456E+04  0.35002270393E+04 0.  0.
        2    1    3    3  502    0  0.50552000942E+03 -0.12969667816E+04 -0.88747738181E+03  0.16508450611E+04  0.25500000920E-02 0. -1.
       -2    1    3    3    0  502 -0.50552000942E+03  0.12969667816E+04  0.12450986241E+04  0.18676037846E+04  0.25500000920E-02 0.  1.
</event>
<event>
 5   0  0.1121462E-08  0.3497851E+04  0.7818609E-02  0.8114299E-01
        1   -1    0    0  501    0  0.00000000000E+00  0.00000000000E+00  0.20083489824E+04  0.20083489824E+04  0.50400001928E-02 0. -1.
       -1   -1    0    0    0  501  0.00000000000E+00  0.00000000000E+00 -0.15230122230E+04  0.15230122230E+04  0.50400001928E-02 0.  1.
    10030    2    1    2    0    0  0.00000000000E+00  0.00000000000E+00  0.48533675937E+03  0.35313612054E+04  0.34978507963E+04 0.  0.
        4    1    3    3  502    0 -0.11741603211E+04  0.44052145015E+03  0.14733740067E+04  0.19348240706E+04  0.12699999809E+01 0. -1.
       -4    1    3    3    0  502  0.11741603211E+04 -0.44052145015E+03 -0.98803724736E+03  0.15965371348E+04  0.12699999809E+01 0.  1.
</event>
<event>
 5   0  0.3467834E-08  0.3503514E+04  0.7818609E-02  0.8112958E-01
        2   -1    0    0  501    0  0.00000000000E+00  0.00000000000E+00  0.22854340902E+04  0.22854340902E+04  0.25500000920E-02 0.  1.
       -2   -1    0    0    0  501  0.00000000000E+00  0.00000000000E+00 -0.13427001747E+04  0.13427001747E+04  0.25500000920E-02 0. -1.
    10030    2    1    2    0    0  0.00000000000E+00  0.00000000000E+00  0.94273391546E+03  0.36281342649E+04  0.35035140943E+04 0.  0.
        3    1    3    3  502    0 -0.17293113032E+04 -0.46156679189E+02  0.18587113223E+03  0.17398839359E+04  0.10100000352E+00 0. -1.
       -3    1    3    3    0  502  0.17293113032E+04  0.46156679189E+02  0.75686278323E+03  0.18882503290E+04  0.10100000352E+00 0.  1.
</event>
<event>
 5   0  0.1121462E-08  0.3499005E+04  0.7818609E-02  0.8114026E-01
       -1   -1    0    0    0  501  0.00000000000E+00  0.00000000000E+00  0.15595071005E+04  0.15595071006E+04  0.50400001928E-02 0. -1.
        1   -1    0    0  501    0  0.00000000000E+00  0.00000000000E+00 -0.19626450501E+04  0.19626450501E+04  0.50400001928E-02 0.  1.
    10030    2    1    2    0    0  0.00000000000E+00  0.00000000000E+00 -0.40313794950E+03  0.35221521506E+04  0.34990049394E+04 0.  0.
        1    1    3    3  502    0 -0.37456130816E+03 -0.42236695535E+03 -0.18684428371E+04  0.19518628676E+04  0.50400001928E-02 0.  1.
       -1    1    3    3    0  502  0.37456130816E+03  0.42236695535E+03  0.14653048876E+04  0.15702892830E+04  0.50400001928E-02 0. -1.
</event>
<event>
 5   0  0.3467834E-08  0.3501836E+04  0.7818609E-02  0.8113355E-01
        2   -1    0    0  501    0  0.00000000000E+00  0.00000000000E+00  0.18744458674E+04  0.18744458674E+04  0.25500000920E-02 0.  1.
       -2   -1    0    0    0  501  0.00000000000E+00  0.00000000000E+00 -0.16355308078E+04  0.16355308078E+04  0.25500000920E-02 0. -1.
    10030    2    1    2    0    0  0.00000000000E+00  0.00000000000E+00  0.23891505958E+03  0.35099766752E+04  0.35018360691E+04 0.  0.
        3    1    3    3  502    0  0.65392540764E+03 -0.10537080612E+04  0.13583708941E+04  0.18393179750E+04  0.10100000352E+00 0.  1.
       -3    1    3    3    0  502 -0.65392540764E+03  0.10537080612E+04 -0.11194558345E+04  0.16706587002E+04  0.10100000352E+00 0. -1.
</event>
<event>
 5   0  0.1129219E-08  0.3500227E+04  0.7818609E-02  0.8113736E-01
       -1   -1    0    0    0  501  0.00000000000E+00  0.00000000000E+00  0.10818954899E+04  0.10818954900E+04  0.50400001928E-02 0. -1.
        1   -1    0    0  501    0  0.00000000000E+00  0.00000000000E+00 -0.28310476455E+04  0.28310476455E+04  0.50400001928E-02 0.  1.
    10030    2    1    2    0    0  0.00000000000E+00  0.00000000000E+00 -0.17491521556E+04  0.39129431355E+04  0.35002272381E+04 0.  0.
        5    1    3    3  502    0  0.13738495087E+04 -0.54290247490E+03 -0.19236688684E+04  0.24254338942E+04  0.46999998093E+01 0.  1.
       -5    1    3    3    0  502 -0.13738495087E+04  0.54290247490E+03  0.17451671284E+03  0.14875092413E+04  0.46999998093E+01 0. -1.
</event>
<event>
 5   0  0.1129219E-08  0.3498197E+04  0.7818609E-02  0.8114217E-01
        1   -1    0    0  501    0  0.00000000000E+00  0.00000000000E+00  0.18973829103E+04  0.18973829103E+04  0.50400001928E-02 0.  1.
       -1   -1    0    0    0  501  0.00000000000E+00  0.00000000000E+00 -0.16124031833E+04  0.16124031833E+04  0.50400001928E-02 0. -1.
    10030    2    1    2    0    0  0.00000000000E+00  0.00000000000E+00  0.28497972697E+03  0.35097860937E+04  0.34981973899E+04 0.  0.
        5    1    3    3  502    0  0.14936667664E+04  0.53892530576E+03 -0.59331762414E+03  0.16951486033E+04  0.46999998093E+01 0. -1.
       -5    1    3    3    0  502 -0.14936667664E+04 -0.53892530576E+03  0.87829735111E+03  0.18146374903E+04  0.46999998093E+01 0.  1.
</event>
<event>
 5   0  0.1140808E-08  0.3500834E+04  0.7818609E-02  0.8113592E-01
        1   -1    0    0  501    0  0.00000000000E+00  0.00000000000E+00  0.15706078876E+04  0.15706078876E+04  0.50400001928E-02 0. -1.
       -1   -1    0    0    0  501  0.00000000000E+00  0.00000000000E+00 -0.19508109096E+04  0.19508109096E+04  0.50400001928E-02 0.  1.
    10030    2    1    2    0    0  0.00000000000E+00  0.00000000000E+00 -0.38020302198E+03  0.35214187972E+04  0.35008336161E+04 0.  0.
        3    1    3    3  502    0 -0.10532718790E+04 -0.11458047332E+04  0.61567615059E+03  0.16737106292E+04  0.10100000352E+00 0. -1.
       -3    1    3    3    0  502  0.10532718790E+04  0.11458047332E+04 -0.99587917257E+03  0.18477081680E+04  0.10100000352E+00 0.  1.
</event>
<event>
 5   0  0.3554451E-08  0.3499148E+04  0.7818609E-02  0.8113992E-01
       -2   -1    0    0    0  501  0.00000000000E+00  0.00000000000E+00  0.16456604677E+04  0.16456604677E+04  0.25500000920E-02 0.  1.
        2   -1    0    0  501    0  0.00000000000E+00  0.00000000000E+00 -0.18600492132E+04  0.18600492132E+04  0.25500000920E-02 0. -1.
    10030    2    1    2    0    0  0.00000000000E+00  0.00000000000E+00 -0.21438874550E+03  0.35057096809E+04  0.34991481582E+04 0.  0.
        5    1    3    3  502    0 -0.16882648257E+04  0.34856748475E+03  0.19211314123E+03  0.17345509396E+04  0.46999998093E+01 0.  1.
       -5    1    3    3    0  502  0.16882648257E+04 -0.34856748475E+03 -0.40650188674E+03  0.17711587413E+04  0.46999998093E+01 0. -1.
</event>
<event>
 5   0  0.3628017E-08  0.3500250E+04  0.7818609E-02  0.8113731E-01
        2   -1    0    0  501    0  0.00000000000E+00  0.00000000000E+00  0.25393702738E+04  0.25393702738E+04  0.25500000920E-02 0. -1.
       -2   -1    0    0    0  501  0.00000000000E+00  0.00000000000E+00 -0.12061796651E+04  0.12061796652E+04  0.25500000920E-02 0.  1.
    10030    2    1    2    0    0  0.00000000000E+00  0.00000000000E+00  0.13331906086E+04  0.37455499389E+04  0.35002495834E+04 0.  0.
        1    1    3    3  502    0  0.10220789078E+04  0.40299138891E+03  0.21243774564E+04  0.23916577787E+04  0.50400001928E-02 0. -1.
       -1    1    3    3    0  502 -0.10220789078E+04 -0.40299138891E+03 -0.79118684775E+03  0.13538921602E+04  0.50400001928E-02 0.  1.
</event>
<event>
 5   0  0.3628017E-08  0.3499065E+04  0.7818609E-02  0.8114011E-01
       -2   -1    0    0    0  501  0.00000000000E+00  0.00000000000E+00  0.11432895962E+04  0.11432895962E+04  0.25500000920E-02 0.  1.
        2   -1    0    0  501    0  0.00000000000E+00  0.00000000000E+00 -0.26772435951E+04  0.26772435951E+04  0.25500000920E-02 0. -1.
    10030    2    1    2    0    0  0.00000000000E+00  0.00000000000E+00 -0.15339539989E+04  0.38205331913E+04  0.34990654459E+04 0.  0.
        1    1    3    3  502    0 -0.11281679971E+04  0.77800363612E+03  0.42051251548E+03  0.14334864713E+04  0.50400001928E-02 0.  1.
       -1    1    3    3    0  502  0.11281679971E+04 -0.77800363612E+03 -0.19544665144E+04  0.23870467200E+04  0.50400001928E-02 0. -1.
</event>
<event>
 5   0  0.1121462E-08  0.3501746E+04  0.7818609E-02  0.8113376E-01
       -1   -1    0    0    0  501  0.00000000000E+00  0.00000000000E+00  0.15953790091E+04  0.15953790091E+04  0.50400001928E-02 0. -1.
        1   -1    0    0  501    0  0.00000000000E+00  0.00000000000E+00 -0.19215221820E+04  0.19215221820E+04  0.50400001928E-02 0.  1.
    10030    2    1    2    0    0  0.00000000000E+00  0.00000000000E+00 -0.32614317291E+03  0.35169011911E+04  0.35017459386E+04 0.  0.
        2    1    3    3  502    0  0.62176888049E+03  0.10266380962E+04  0.11171900125E+04  0.16397243199E+04  0.25500000920E-02 0. -1.
       -2    1    3    3    0  502 -0.62176888049E+03 -0.10266380962E+04 -0.14433331854E+04  0.18771768711E+04  0.25500000920E-02 0.  1.
</event>
<event>
 5   0  0.1121462E-08  0.3500108E+04  0.7818609E-02  0.8113764E-01
        1   -1    0    0  501    0  0.00000000000E+00  0.00000000000E+00  0.27585034001E+04  0.27585034001E+04  0.50400001928E-02 0. -1.
       -1   -1    0    0    0  501  0.00000000000E+00  0.00000000000E+00 -0.11102722681E+04  0.11102722681E+04  0.50400001928E-02 0.  1.
    10030    2    1    2    0    0  0.00000000000E+00  0.00000000000E+00  0.16482311320E+04  0.38687756683E+04  0.35001084707E+04 0.  0.
        2    1    3    3  502    0  0.89772675091E+03  0.71287466072E+03 -0.63750811449E+03  0.13116860132E+04  0.25500000920E-02 0.  1.
       -2    1    3    3    0  502 -0.89772675091E+03 -0.71287466072E+03  0.22857392465E+04  0.25570896551E+04  0.25500000920E-02 0. -1.
</event>
<event>
 5   0  0.3553585E-08  0.3499364E+04  0.7818609E-02  0.8113941E-01
        2   -1    0    0  501    0  0.00000000000E+00  0.00000000000E+00  0.21427299550E+04  0.21427299550E+04  0.25500000920E-02 0.  1.
       -2   -1    0    0    0  501  0.00000000000E+00  0.00000000000E+00 -0.14287318268E+04  0.14287318268E+04  0.25500000920E-02 0. -1.
    10030    2    1    2    0    0  0.00000000000E+00  0.00000000000E+00  0.71399812819E+03  0.35714617818E+04  0.34993636467E+04 0.  0.
        2    1    3    3  502    0 -0.59902058399E+03  0.34423689705E+03  0.19976204853E+04  0.21137200156E+04  0.25500000920E-02 0.  1.
       -2    1    3    3    0  502  0.59902058399E+03 -0.34423689705E+03 -0.12836223571E+04  0.14577417662E+04  0.25500000920E-02 0. -1.
</event>
<event>
 5   0  0.1129219E-08  0.3500097E+04  0.7818609E-02  0.8113767E-01
       -1   -1    0    0    0  501  0.00000000000E+00  0.00000000000E+00  0.16270442681E+04  0.16270442681E+04  0.50400001928E-02 0. -1.
        1   -1    0    0  501    0  0.00000000000E+00  0.00000000000E+00 -0.18823517542E+04  0.18823517542E+04  0.50400001928E-02 0.  1.
    10030    2    1    2    0    0  0.00000000000E+00  0.00000000000E+00 -0.25530748607E+03  0.35093960223E+04  0.35000969313E+04 0.  0.
        5    1    3    3  502    0  0.11593155993E+04  0.12914594424E+04 -0.35356856970E+03  0.17711332456E+04  0.46999998093E+01 0. -1.
       -5    1    3    3    0  502 -0.11593155993E+04 -0.12914594424E+04  0.98261083624E+02  0.17382627767E+04  0.46999998093E+01 0.  1.
</event>
<event>
 5   0  0.1121462E-08  0.3499787E+04  0.7818609E-02  0.8113840E-01
        1   -1    0    0  501    0  0.00000000000E+00  0.00000000000E+00  0.22350163546E+04  0.22350163546E+04  0.50400001928E-02 0. -1.
       -1   -1    0    0    0  501  0.00000000000E+00  0.00000000000E+00 -0.13700696141E+04  0.13700696141E+04  0.50400001928E-02 0.  1.
    10030    2    1    2    0    0  0.00000000000E+00  0.00000000000E+00  0.86494674047E+03  0.36050859687E+04  0.34997874189E+04 0.  0.
        4    1    3    3  502    0  0.29815158901E+03  0.17146272157E+04  0.24454097460E+03  0.17574534873E+04  0.12699999809E+01 0. -1.
       -4    1    3    3    0  502 -0.29815158901E+03 -0.17146272157E+04  0.62040576588E+03  0.18476324814E+04  0.12699999809E+01 0.  1.
</event>
<event>
 5   0  0.1140808E-08  0.3491618E+04  0.7818609E-02  0.8115779E-01
       -1   -1    0    0    0  501  0.00000000000E+00  0.00000000000E+00  0.11555295311E+04  0.11555295311E+04  0.50400001928E-02 0. -1.
        1   -1    0    0  501    0  0.00000000000E+00  0.00000000000E+00 -0.26376209008E+04  0.26376209008E+04  0.50400001928E-02 0.  1.
    10030    2    1    2    0    0  0.00000000000E+00  0.00000000000E+00 -0.14820913697E+04  0.37931504319E+04  0.34916178729E+04 0.  0.
        3    1    3    3  502    0  0.15455784663E+03  0.16586531050E+04 -0.13084856017E+04  0.21182900724E+04  0.10100000352E+00 0. -1.
       -3    1    3    3    0  502 -0.15455784663E+03 -0.16586531050E+04 -0.17360576802E+03  0.16748603595E+04  0.10100000352E+00 0.  1.
</event>
<event>
 5   0  0.1129219E-08  0.3504045E+04  0.7818609E-02  0.8112832E-01
       -1   -1    0    0    0  501  0.00000000000E+00  0.00000000000E+00  0.15470223078E+04  0.15470223078E+04  0.50400001928E-02 0.  1.
        1   -1    0    0  501    0  0.00000000000E+00  0.00000000000E+00 -0.19841874496E+04  0.19841874496E+04  0.50400001928E-02 0. -1.
    10030    2    1    2    0    0  0.00000000000E+00  0.00000000000E+00 -0.43716514181E+03  0.35312097574E+04  0.35040446615E+04 0.  0.
        5    1    3    3  502    0 -0.12294929667E+04  0.89439417282E+03  0.65877943139E+03  0.16569871215E+04  0.46999998093E+01 0.  1.
       -5    1    3    3    0  502  0.12294929667E+04 -0.89439417282E+03 -0.10959445732E+04  0.18742226360E+04  0.46999998093E+01 0. -1.
</event>
<event>
 5   0  0.3553585E-08  0.3498085E+04  0.7818609E-02  0.8114244E-01
       -2   -1    0    0    0  501  0.00000000000E+00  0.00000000000E+00  0.10301075714E+04  0.10301075714E+04  0.25500000920E-02 0. -1.
        2   -1    0    0  501    0  0.00000000000E+00  0.00000000000E+00 -0.29697375465E+04  0.29697375465E+04  0.25500000920E-02 0.  1.
    10030    2    1    2    0    0  0.00000000000E+00  0.00000000000E+00 -0.19396299752E+04  0.39998451179E+04  0.34980846941E+04 0.  0.
        2    1    3    3  502    0 -0.12347417847E+04 -0.25686882375E+03 -0.23554909986E+04  0.26718732590E+04  0.25500000920E-02 0.  1.
       -2    1    3    3    0  502  0.12347417847E+04  0.25686882375E+03  0.41586102343E+03  0.13279718590E+04  0.25500000920E-02 0. -1.
</event>
<event>
 5   0  0.3553585E-08  0.3523527E+04  0.7818609E-02  0.8108237E-01
        2   -1    0    0  501    0  0.00000000000E+00  0.00000000000E+00  0.16122320691E+04  0.16122320691E+04  0.25500000920E-02 0. -1.
       -2   -1    0    0    0  501  0.00000000000E+00  0.00000000000E+00 -0.19251635678E+04  0.19251635678E+04  0.25500000920E-02 0.  1.
    10030    2    1    2    0    0  0.00000000000E+00  0.00000000000E+00 -0.31293149871E+03  0.35373956369E+04  0.35235268935E+04 0.  0.
        2    1    3    3  502    0 -0.20064962915E+03  0.11159683462E+04  0.11972350028E+04  0.16489442911E+04  0.25500000920E-02 0. -1.
       -2    1    3    3    0  502  0.20064962915E+03 -0.11159683462E+04 -0.15101665015E+04  0.18884513458E+04  0.25500000920E-02 0.  1.
</event>
<event>
 5   0  0.1121462E-08  0.3502230E+04  0.7818609E-02  0.8113262E-01
       -1   -1    0    0    0  501  0.00000000000E+00  0.00000000000E+00  0.14870591874E+04  0.14870591874E+04  0.50400001928E-02 0.  1.
        1   -1    0    0  501    0  0.00000000000E+00  0.00000000000E+00 -0.20620593142E+04  0.20620593142E+04  0.50400001928E-02 0. -1.
    10030    2    1    2    0    0  0.00000000000E+00  0.00000000000E+00 -0.57500012681E+03  0.35491185016E+04  0.35022302884E+04 0.  0.
        4    1    3    3  502    0  0.31169376215E+03  0.40483036950E+03 -0.19848455742E+04  0.20495497544E+04  0.12699999809E+01 0. -1.
       -4    1    3    3    0  502 -0.31169376215E+03 -0.40483036950E+03  0.14098454474E+04  0.14995687473E+04  0.12699999809E+01 0.  1.
</event>
<event>
 5   0  0.1121462E-08  0.3499166E+04  0.7818609E-02  0.8113988E-01
        1   -1    0    0  501    0  0.00000000000E+00  0.00000000000E+00  0.18759161322E+04  0.18759161322E+04  0.50400001928E-02 0. -1.
       -1   -1    0    0    0  501  0.00000000000E+00  0.00000000000E+00 -0.16317581043E+04  0.16317581043E+04  0.50400001928E-02 0.  1.
    10030    2    1    2    0    0  0.00000000000E+00  0.00000000000E+00  0.24415802790E+03  0.35076742365E+04  0.34991663874E+04 0.  0.
        1    1    3    3  502    0  0.75599207309E+03 -0.15594550576E+04 -0.11854056464E+03  0.17370883560E+04  0.50400001928E-02 0.  1.
       -1    1    3    3    0  502 -0.75599207309E+03  0.15594550576E+04  0.36269859254E+03  0.17705858805E+04  0.50400001928E-02 0. -1.
</event>
<event>
 5   0  0.1121462E-08  0.3500125E+04  0.7818609E-02  0.8113760E-01
        1   -1    0    0  501    0  0.00000000000E+00  0.00000000000E+00  0.18642836135E+04  0.18642836136E+04  0.50400001928E-02 0.  1.
       -1   -1    0    0    0  501  0.00000000000E+00  0.00000000000E+00 -0.16428398727E+04  0.16428398727E+04  0.50400001928E-02 0. -1.
    10030    2    1    2    0    0  0.00000000000E+00  0.00000000000E+00  0.22144374081E+03  0.35071234863E+04  0.35001254003E+04 0.  0.
        1    1    3    3  502    0 -0.26087626113E+03 -0.15121603388E+04 -0.73240815026E+03  0.17003255607E+04  0.50400001928E-02 0.  1.
       -1    1    3    3    0  502  0.26087626113E+03  0.15121603388E+04  0.95385189107E+03  0.18067979256E+04  0.50400001928E-02 0. -1.
</event>
<event>
 5   0  0.1129219E-08  0.3499174E+04  0.7818609E-02  0.8113986E-01
        1   -1    0    0  501    0  0.00000000000E+00  0.00000000000E+00  0.15287500278E+04  0.15287500278E+04  0.50400001928E-02 0. -1.
       -1   -1    0    0    0  501  0.00000000000E+00  0.00000000000E+00 -0.20023249431E+04  0.20023249431E+04  0.50400001928E-02 0.  1.
    10030    2    1    2    0    0  0.00000000000E+00  0.00000000000E+00 -0.47357491533E+03  0.35310749709E+04  0.34991737953E+04 0.  0.
        5    1    3    3  502    0 -0.13356743052E+04  0.68680223480E+03  0.66878398503E+03  0.16440855416E+04  0.46999998093E+01 0. -1.
       -5    1    3    3    0  502  0.13356743052E+04 -0.68680223480E+03 -0.11423589004E+04  0.18869894294E+04  0.46999998093E+01 0.  1.
</event>
<event>
 5   0  0.3628017E-08  0.3500173E+04  0.7818609E-02  0.8113749E-01
        2   -1    0    0  501    0  0.00000000000E+00  0.00000000000E+00  0.26124886968E+04  0.26124886968E+04  0.25500000920E-02 0.  1.
       -2   -1    0    0    0  501  0.00000000000E+00  0.00000000000E+00 -0.11723698422E+04  0.11723698422E+04  0.25500000920E-02 0. -1.
    10030    2    1    2    0    0  0.00000000000E+00  0.00000000000E+00  0.14401188546E+04  0.37848585390E+04  0.35001731165E+04 0.  0.
        1    1    3    3  502    0 -0.14131314771E+03  0.15702672036E+04 -0.10139520262E+03  0.15798700844E+04  0.50400001928E-02 0. -1.
       -1    1    3    3    0  502  0.14131314771E+03 -0.15702672036E+04  0.15415140572E+04  0.22049884546E+04  0.50400001928E-02 0.  1.
</event>
<event>
 5   0  0.3467834E-08  0.3500505E+04  0.7818609E-02  0.8113670E-01
       -2   -1    0    0    0  501  0.00000000000E+00  0.00000000000E+00  0.19774607753E+04  0.19774607753E+04  0.25500000920E-02 0. -1.
        2   -1    0    0  501    0  0.00000000000E+00  0.00000000000E+00 -0.15491505369E+04  0.15491505369E+04  0.25500000920E-02 0.  1.
    10030    2    1    2    0    0  0.00000000000E+00  0.00000000000E+00  0.42831023838E+03  0.35266113122E+04  0.35005053474E+04 0.  0.
        3    1    3    3  502    0 -0.15174949707E+04  0.79359230833E+03  0.57852165358E+03  0.18075583121E+04  0.10100000352E+00 0. -1.
       -3    1    3    3    0  502  0.15174949707E+04 -0.79359230833E+03 -0.15021141519E+03  0.17190530001E+04  0.10100000352E+00 0.  1.
</event>
<event>
 5   0  0.3628017E-08  0.3517060E+04  0.7818609E-02  0.8109759E-01
        2   -1    0    0  501    0  0.00000000000E+00  0.00000000000E+00  0.11718623069E+04  0.11718623069E+04  0.25500000920E-02 0.  1.
       -2   -1    0    0    0  501  0.00000000000E+00  0.00000000000E+00 -0.26389001040E+04  0.26389001040E+04  0.25500000920E-02 0. -1.
    10030    2    1    2    0    0  0.00000000000E+00  0.00000000000E+00 -0.14670377971E+04  0.38107624109E+04  0.35170598878E+04 0.  0.
        1    1    3    3  502    0 -0.12002780263E+03 -0.16880141143E+04 -0.21543750444E+03  0.17059342431E+04  0.50400001928E-02 0.  1.
       -1    1    3    3    0  502  0.12002780263E+03  0.16880141143E+04 -0.12516002927E+04  0.21048281678E+04  0.50400001928E-02 0. -1.
</event>
<event>
 5   0  0.3467834E-08  0.3500558E+04  0.7818609E-02  0.8113658E-01
        2   -1    0    0  501    0  0.00000000000E+00  0.00000000000E+00  0.21984593343E+04  0.21984593343E+04  0.25500000920E-02 0. -1.
       -2   -1    0    0    0  501  0.00000000000E+00  0.00000000000E+00 -0.13934649072E+04  0.13934649072E+04  0.25500000920E-02 0.  1.
    10030    2    1    2    0    0  0.00000000000E+00  0.00000000000E+00  0.80499442716E+03  0.35919242415E+04  0.35005576311E+04 0.  0.
        3    1    3    3  502    0 -0.20341746863E+03 -0.17318611478E+04  0.24771504955E+03  0.17612735329E+04  0.10100000352E+00 0. -1.
       -3    1    3    3    0  502  0.20341746863E+03  0.17318611478E+04  0.55727937761E+03  0.18306507086E+04  0.10100000352E+00 0.  1.
</event>
<event>
 5   0  0.3554451E-08  0.3493226E+04  0.7818609E-02  0.8115397E-01
        2   -1    0    0  501    0  0.00000000000E+00  0.00000000000E+00  0.22295702856E+04  0.22295702856E+04  0.25500000920E-02 0. -1.
       -2   -1    0    0    0  501  0.00000000000E+00  0.00000000000E+00 -0.13682709512E+04  0.13682709512E+04  0.25500000920E-02 0.  1.
    10030    2    1    2    0    0  0.00000000000E+00  0.00000000000E+00  0.86129933433E+03  0.35978412368E+04  0.34932255899E+04 0.  0.
        5    1    3    3  502    0 -0.38366545568E+03 -0.57408354013E+02 -0.13233309461E+04  0.13790292905E+04  0.46999998093E+01 0.  1.
       -5    1    3    3    0  502  0.38366545568E+03  0.57408354013E+02  0.21846302805E+04  0.22188119464E+04  0.46999998093E+01 0. -1.
</event>
<event>
 5   0  0.1121462E-08  0.3500088E+04  0.7818609E-02  0.8113769E-01
        1   -1    0    0  501    0  0.00000000000E+00  0.00000000000E+00  0.16197381101E+04  0.16197381101E+04  0.50400001928E-02 0.  1.
       -1   -1    0    0    0  501  0.00000000000E+00  0.00000000000E+00 -0.18908326808E+04  0.18908326808E+04  0.50400001928E-02 0. -1.
    10030    2    1    2    0    0  0.00000000000E+00  0.00000000000E+00 -0.27109457064E+03  0.35105707909E+04  0.35000878577E+04 0.  0.
        2    1    3    3  502    0  0.24955571629E+03  0.14976789515E+04 -0.10084028004E+04  0.18226893606E+04  0.25500000920E-02 0. -1.
       -2    1    3    3    0  502 -0.24955571629E+03 -0.14976789515E+04  0.73730822977E+03  0.16878814303E+04  0.25500000920E-02 0.  1.
</event>
<event>
 5   0  0.1140808E-08  0.3500604E+04  0.7818609E-02  0.8113647E-01
       -1   -1    0    0    0  501  0.00000000000E+00  0.00000000000E+00  0.22140166323E+04  0.22140166323E+04  0.50400001928E-02 0.  1.
        1   -1    0    0  501    0  0.00000000000E+00  0.00000000000E+00 -0.13837101953E+04  0.13837101953E+04  0.50400001928E-02 0. -1.
    10030    2    1    2    0    0  0.00000000000E+00  0.00000000000E+00  0.83030643699E+03  0.35977268275E+04  0.35006041688E+04 0.  0.
        3    1    3    3  502    0  0.14344786437E+03  0.90026962481E+03  0.19507613254E+04  0.21532608867E+04  0.10100000352E+00 0.  1.
       -3    1    3    3    0  502 -0.14344786437E+03 -0.90026962481E+03 -0.11204548884E+04  0.14444659409E+04  0.10100000352E+00 0. -1.
</event>
<event>
 5   0  0.3628017E-08  0.3499342E+04  0.7818609E-02  0.8113946E-01
       -2   -1    0    0    0  501  0.00000000000E+00  0.00000000000E+00  0.11088981719E+04  0.11088981719E+04  0.25500000920E-02 0. -1.
        2   -1    0    0  501    0  0.00000000000E+00  0.00000000000E+00 -0.27607117984E+04  0.27607117984E+04  0.25500000920E-02 0.  1.
    10030    2    1    2    0    0  0.00000000000E+00  0.00000000000E+00 -0.16518136265E+04  0.38696099703E+04  0.34993418046E+04 0.  0.
        1    1    3    3  502    0  0.26577622742E+03  0.58847010253E+02  0.10853387449E+04  0.11189549432E+04  0.50400001928E-02 0. -1.
       -1    1    3    3    0  502 -0.26577622742E+03 -0.58847010253E+02 -0.27371523714E+04  0.27506550271E+04  0.50400001928E-02 0.  1.
</event>
<event>
 5   0  0.1140808E-08  0.3500725E+04  0.7818609E-02  0.8113618E-01
        1   -1    0    0  501    0  0.00000000000E+00  0.00000000000E+00  0.24827893902E+04  0.24827893902E+04  0.50400001928E-02 0.  1.
       -1   -1    0    0    0  501  0.00000000000E+00  0.00000000000E+00 -0.12340025058E+04  0.12340025059E+04  0.50400001928E-02 0. -1.
    10030    2    1    2    0    0  0.00000000000E+00  0.00000000000E+00  0.12487868844E+04  0.37167918961E+04  0.35007246844E+04 0.  0.
        3    1    3    3  502    0  0.10592186402E+04  0.53108149379E+02  0.21028195026E+04  0.23551251504E+04  0.10100000352E+00 0.  1.
       -3    1    3    3    0  502 -0.10592186402E+04 -0.53108149379E+02 -0.85403261823E+03  0.13616667457E+04  0.10100000352E+00 0. -1.
</event>
<event>
 5   0  0.1121462E-08  0.3494122E+04  0.7818609E-02  0.8115184E-01
       -1   -1    0    0    0  501  0.00000000000E+00  0.00000000000E+00  0.18041647760E+04  0.18041647761E+04  0.50400001928E-02 0.  1.
        1   -1    0    0  501    0  0.00000000000E+00  0.00000000000E+00 -0.16917643192E+04  0.16917643192E+04  0.50400001928E-02 0. -1.
    10030    2    1    2    0    0  0.00000000000E+00  0.00000000000E+00  0.11240045687E+03  0.34959290952E+04  0.34941216888E+04 0.  0.
        2    1    3    3  502    0  0.14244504307E+04 -0.62482869159E+01 -0.95581867487E+03  0.17154263056E+04  0.25500000920E-02 0.  1.
       -2    1    3    3    0  502 -0.14244504307E+04  0.62482869159E+01  0.10682191317E+04  0.17805027897E+04  0.25500000920E-02 0. -1.
</event>
<event>
 5   0  0.1121462E-08  0.3499316E+04  0.7818609E-02  0.8113952E-01
       -1   -1    0    0    0  501  0.00000000000E+00  0.00000000000E+00  0.19934697784E+04  0.19934697784E+04  0.50400001928E-02 0.  1.
        1   -1    0    0  501    0  0.00000000000E+00  0.00000000000E+00 -0.15356654295E+04  0.15356654295E+04  0.50400001928E-02 0. -1.
    10030    2    1    2    0    0  0.00000000000E+00  0.00000000000E+00  0.45780434890E+03  0.35291352080E+04  0.34993157180E+04 0.  0.
        4    1    3    3  502    0 -0.58438035684E+03  0.18883394964E+03  0.18811985184E+04  0.19789057938E+04  0.12699999809E+01 0.  1.
       -4    1    3    3    0  502  0.58438035684E+03 -0.18883394964E+03 -0.14233941695E+04  0.15502294142E+04  0.12699999809E+01 0. -1.
</event>
<event>
 5   0  0.3700096E-08  0.3498119E+04  0.7818609E-02  0.8114236E-01
       -2   -1    0    0    0  501  0.00000000000E+00  0.00000000000E+00  0.16004653040E+04  0.16004653040E+04  0.25500000920E-02 0. -1.
        2   -1    0    0  501    0  0.00000000000E+00  0.00000000000E+00 -0.19114495054E+04  0.19114495054E+04  0.25500000920E-02 0.  1.
    10030    2    1    2    0    0  0.00000000000E+00  0.00000000000E+00 -0.31098420141E+03  0.35119148094E+04  0.34981187022E+04 0.  0.
        4    1    3    3  502    0  0.12369340084E+04  0.12125817691E+04 -0.39903223105E+03  0.17775231707E+04  0.12699999809E+01 0.  1.
       -4    1    3    3    0  502 -0.12369340084E+04 -0.12125817691E+04  0.88048029640E+02  0.17343916387E+04  0.12699999809E+01 0. -1.
</event>
<event>
 5   0  0.1121462E-08  0.3500827E+04  0.7818609E-02  0.8113594E-01
        3   -1    0    0  501    0  0.00000000000E+00  0.00000000000E+00  0.22366400050E+04  0.22366400073E+04  0.10100000352E+00 0. -1.
       -3   -1    0    0    0  501  0.00000000000E+00  0.00000000000E+00 -0.13698888585E+04  0.13698888622E+04  0.10100000352E+00 0.  1.
    10030    2    1    2    0    0  0.00000000000E+00  0.00000000000E+00  0.86675114657E+03  0.36065288695E+04  0.35008274645E+04 0.  0.
        4    1    3    3  502    0  0.10468648253E+04 -0.13553460229E+04  0.60425952209E+02  0.17136340662E+04  0.12699999809E+01 0.  1.
       -4    1    3    3    0  502 -0.10468648253E+04  0.13553460229E+04  0.80632519436E+03  0.18928948033E+04  0.12699999809E+01 0. -1.
</event>
<event>
 5   0  0.1129219E-08  0.3500150E+04  0.7818609E-02  0.8113755E-01
       -1   -1    0    0    0  501  0.00000000000E+00  0.00000000000E+00  0.27005150615E+04  0.27005150615E+04  0.50400001928E-02 0.  1.
        1   -1    0    0  501    0  0.00000000000E+00  0.00000000000E+00 -0.11341398246E+04  0.11341398246E+04  0.50400001928E-02 0. -1.
    10030    2    1    2    0    0  0.00000000000E+00  0.00000000000E+00  0.15663752370E+04  0.38346548861E+04  0.35001495272E+04 0.  0.
        5    1    3    3  502    0  0.15642197320E+04 -0.45468686135E+03  0.82352219733E+02  0.16310510384E+04  0.46999998093E+01 0. -1.
       -5    1    3    3    0  502 -0.15642197320E+04  0.45468686135E+03  0.14840230172E+04  0.22036038477E+04  0.46999998093E+01 0.  1.
</event>
<event>
 5   0  0.1129219E-08  0.3498025E+04  0.7818609E-02  0.8114258E-01
       -1   -1    0    0    0  501  0.00000000000E+00  0.00000000000E+00  0.15759170250E+04  0.15759170250E+04  0.50400001928E-02 0.  1.
        1   -1    0    0  501    0  0.00000000000E+00  0.00000000000E+00 -0.19411201297E+04  0.19411201297E+04  0.50400001928E-02 0. -1.
    10030    2    1    2    0    0  0.00000000000E+00  0.00000000000E+00 -0.36520310471E+03  0.35170371547E+04  0.34980247340E+04 0.  0.
        5    1    3    3  502    0 -0.12860298485E+04  0.11143907593E+04 -0.58888027602E+03  0.18007058630E+04  0.46999998093E+01 0. -1.
       -5    1    3    3    0  502  0.12860298485E+04 -0.11143907593E+04  0.22367717130E+03  0.17163312916E+04  0.46999998093E+01 0.  1.
</event>
<event>
 5   0  0.3554451E-08  0.3500212E+04  0.7818609E-02  0.8113740E-01
       -2   -1    0    0    0  501  0.00000000000E+00  0.00000000000E+00  0.12405939551E+04  0.12405939551E+04  0.25500000920E-02 0.  1.
        2   -1    0    0  501    0  0.00000000000E+00  0.00000000000E+00 -0.24688746950E+04  0.24688746950E+04  0.25500000920E-02 0. -1.
    10030    2    1    2    0    0  0.00000000000E+00  0.00000000000E+00 -0.12282807399E+04  0.37094686502E+04  0.35002120065E+04 0.  0.
        5    1    3    3  502    0  0.17111504921E+04  0.31191898591E+03 -0.40886080673E+03  0.17867620742E+04  0.46999998093E+01 0. -1.
       -5    1    3    3    0  502 -0.17111504921E+04 -0.31191898591E+03 -0.81941993317E+03  0.19227065760E+04  0.46999998093E+01 0.  1.
</event>
<event>
 5   0  0.3467834E-08  0.3500153E+04  0.7818609E-02  0.8113754E-01
        2   -1    0    0  501    0  0.00000000000E+00  0.00000000000E+00  0.10210724495E+04  0.10210724495E+04  0.25500000920E-02 0. -1.
       -2   -1    0    0    0  501  0.00000000000E+00  0.00000000000E+00 -0.29995600882E+04  0.29995600882E+04  0.25500000920E-02 0.  1.
    10030    2    1    2    0    0  0.00000000000E+00  0.00000000000E+00 -0.19784876387E+04  0.40206325378E+04  0.35001532348E+04 0.  0.
        3    1    3    3  502    0  0.15524211002E+04 -0.23077480407E+03 -0.18786535429E+04  0.24479802750E+04  0.10100000352E+00 0.  1.
       -3    1    3    3    0  502 -0.15524211002E+04  0.23077480407E+03 -0.99834095837E+02  0.15726522627E+04  0.10100000352E+00 0. -1.
</event>
<event>
 5   0  0.1121462E-08  0.3500147E+04  0.7818609E-02  0.8113755E-01
       -1   -1    0    0    0  501  0.00000000000E+00  0.00000000000E+00  0.19127924619E+04  0.19127924619E+04  0.50400001928E-02 0.  1.
        1   -1    0    0  501    0  0.00000000000E+00  0.00000000000E+00 -0.16011969175E+04  0.16011969175E+04  0.50400001928E-02 0. -1.
    10030    2    1    2    0    0  0.00000000000E+00  0.00000000000E+00  0.31159554445E+03  0.35139893794E+04  0.35001470791E+04 0.  0.
        2    1    3    3  502    0 -0.12986003545E+03  0.17452436521E+04  0.16009954180E+03  0.17573761400E+04  0.25500000920E-02 0. -1.
       -2    1    3    3    0  502  0.12986003545E+03 -0.17452436521E+04  0.15149600265E+03  0.17566132394E+04  0.25500000920E-02 0.  1.
</event>
<event>
 5   0  0.1121462E-08  0.3499603E+04  0.7818609E-02  0.8113884E-01
        1   -1    0    0  501    0  0.00000000000E+00  0.00000000000E+00  0.16261063585E+04  0.16261063586E+04  0.50400001928E-02 0. -1.
       -1   -1    0    0    0  501  0.00000000000E+00  0.00000000000E+00 -0.18829056829E+04  0.18829056829E+04  0.50400001928E-02 0.  1.
    10030    2    1    2    0    0  0.00000000000E+00  0.00000000000E+00 -0.25679932437E+03  0.35090120415E+04  0.34996027795E+04 0.  0.
        2    1    3    3  502    0 -0.79907741575E+03 -0.12891407434E+04 -0.10033260107E+04  0.18185355802E+04  0.25500000920E-02 0.  1.
       -2    1    3    3    0  502  0.79907741575E+03  0.12891407434E+04  0.74652668637E+03  0.16904764613E+04  0.25500000920E-02 0. -1.
</event>
<event>
 5   0  0.3628017E-08  0.3505182E+04  0.7818609E-02  0.8112563E-01
       -2   -1    0    0    0  501  0.00000000000E+00  0.00000000000E+00  0.31354820024E+04  0.31354820024E+04  0.25500000920E-02 0.  1.
        2   -1    0    0  501    0  0.00000000000E+00  0.00000000000E+00 -0.97961823368E+03  0.97961823369E+03  0.25500000920E-02 0. -1.
    10030    2    1    2    0    0  0.00000000000E+00  0.00000000000E+00  0.21558637687E+04  0.41151002361E+04  0.35051820729E+04 0.  0.
        1    1    3    3  502    0  0.14658938228E+02 -0.18079226141E+03  0.31244327624E+04  0.31296934056E+04  0.50400001928E-02 0.  1.
       -1    1    3    3    0  502 -0.14658938228E+02  0.18079226141E+03 -0.96856899363E+03  0.98540683055E+03  0.50400001928E-02 0. -1.
</event>
<event>
 5   0  0.3628017E-08  0.3500016E+04  0.7818609E-02  0.8113786E-01
        2   -1    0    0  501    0  0.00000000000E+00  0.00000000000E+00  0.13062539190E+04  0.13062539191E+04  0.25500000920E-02 0.  1.
       -2   -1    0    0    0  501  0.00000000000E+00  0.00000000000E+00 -0.23445116400E+04  0.23445116400E+04  0.25500000920E-02 0. -1.
    10030    2    1    2    0    0  0.00000000000E+00  0.00000000000E+00 -0.10382577209E+04  0.36507655590E+04  0.35000157245E+04 0.  0.
        1    1    3    3  502    0  0.38720516490E+03  0.16485000975E+04 -0.58465463745E+02  0.16943726337E+04  0.50400001928E-02 0.  1.
       -1    1    3    3    0  502 -0.38720516490E+03 -0.16485000975E+04 -0.97979225719E+03  0.19563929254E+04  0.50400001928E-02 0. -1.
</event>
<event>
 5   0  0.3467834E-08  0.3501333E+04  0.7818609E-02  0.8113474E-01
        2   -1    0    0  501    0  0.00000000000E+00  0.00000000000E+00  0.28984745726E+04  0.28984745726E+04  0.25500000920E-02 0.  1.
       -2   -1    0    0    0  501  0.00000000000E+00  0.00000000000E+00 -0.10573950407E+04  0.10573950407E+04  0.25500000920E-02 0. -1.
    10030    2    1    2    0    0  0.00000000000E+00  0.00000000000E+00  0.18410795318E+04  0.39558696133E+04  0.35013326827E+04 0.  0.
        3    1    3    3  502    0 -0.94859570374E+03 -0.10022755090E+04  0.21376234127E+04  0.25443710166E+04  0.10100000352E+00 0.  1.
       -3    1    3    3    0  502  0.94859570374E+03  0.10022755090E+04 -0.29654388089E+03  0.14114985967E+04  0.10100000352E+00 0. -1.
</event>
<event>
 5   0  0.1121462E-08  0.3482468E+04  0.7818609E-02  0.8117957E-01
       -1   -1    0    0    0  501  0.00000000000E+00  0.00000000000E+00  0.29790279071E+04  0.29790279071E+04  0.50400001928E-02 0. -1.
        1   -1    0    0  501    0  0.00000000000E+00  0.00000000000E+00 -0.10177466517E+04  0.10177466518E+04  0.50400001928E-02 0.  1.
    10030    2    1    2    0    0  0.00000000000E+00  0.00000000000E+00  0.19612812554E+04  0.39967745589E+04  0.34824679053E+04 0.  0.
        4    1    3    3  502    0 -0.15576172764E+04  0.30830302746E+03  0.16049034797E+03  0.15959264084E+04  0.12699999809E+01 0. -1.
       -4    1    3    3    0  502  0.15576172764E+04 -0.30830302746E+03  0.18007909074E+04  0.24008481505E+04  0.12699999809E+01 0.  1.
</event>
<event>
 5   0  0.1121462E-08  0.3499221E+04  0.7818609E-02  0.8113975E-01
        1   -1    0    0  501    0  0.00000000000E+00  0.00000000000E+00  0.21351379703E+04  0.21351379703E+04  0.50400001928E-02 0. -1.
       -1   -1    0    0    0  501  0.00000000000E+00  0.00000000000E+00 -0.14336951363E+04  0.14336951363E+04  0.50400001928E-02 0.  1.
    10030    2    1    2    0    0  0.00000000000E+00  0.00000000000E+00  0.70144283398E+03  0.35688331066E+04  0.34992210124E+04 0.  0.
        4    1    3    3  502    0 -0.53750745014E+03 -0.11950014594E+04  0.15331791060E+04  0.20168248637E+04  0.12699999809E+01 0. -1.
       -4    1    3    3    0  502  0.53750745014E+03  0.11950014594E+04 -0.83173627203E+03  0.15520082429E+04  0.12699999809E+01 0.  1.
</event>
<event>
 5   0  0.1121462E-08  0.3504504E+04  0.7818609E-02  0.8112723E-01
       -1   -1    0    0    0  501  0.00000000000E+00  0.00000000000E+00  0.20796297687E+04  0.20796297687E+04  0.50400001928E-02 0.  1.
        1   -1    0    0  501    0  0.00000000000E+00  0.00000000000E+00 -0.14764104671E+04  0.14764104671E+04  0.50400001928E-02 0. -1.
    10030    2    1    2    0    0  0.00000000000E+00  0.00000000000E+00  0.60321930162E+03  0.35560402359E+04  0.35045040496E+04 0.  0.
        1    1    3    3  502    0 -0.44550410778E+03  0.16890989715E+04  0.16226608735E+03  0.17543829481E+04  0.50400001928E-02 0.  1.
       -1    1    3    3    0  502  0.44550410778E+03 -0.16890989715E+04  0.44095321427E+03  0.18016572878E+04  0.50400001928E-02 0. -1.
</event>
<event>
 5   0  0.3554451E-08  0.3501999E+04  0.7818609E-02  0.8113316E-01
        2   -1    0    0  501    0  0.00000000000E+00  0.00000000000E+00  0.29596550550E+04  0.29596550550E+04  0.25500000920E-02 0.  1.
       -2   -1    0    0    0  501  0.00000000000E+00  0.00000000000E+00 -0.10359311097E+04  0.10359311097E+04  0.25500000920E-02 0. -1.
    10030    2    1    2    0    0  0.00000000000E+00  0.00000000000E+00  0.19237239453E+04  0.39955861647E+04  0.35019987124E+04 0.  0.
        5    1    3    3  502    0 -0.95507133493E+01  0.13574635165E+04 -0.29999285020E+03  0.13902576074E+04  0.46999998093E+01 0. -1.
       -5    1    3    3    0  502  0.95507133493E+01 -0.13574635165E+04  0.22237167955E+04  0.26053285573E+04  0.46999998093E+01 0.  1.
</event>
<event>
 5   0  0.1140808E-08  0.3497867E+04  0.7818609E-02  0.8114296E-01
        1   -1    0    0  501    0  0.00000000000E+00  0.00000000000E+00  0.19130452265E+04  0.19130452265E+04  0.50400001928E-02 0. -1.
       -1   -1    0    0    0  501  0.00000000000E+00  0.00000000000E+00 -0.15988998978E+04  0.15988998979E+04  0.50400001928E-02 0.  1.
    10030    2    1    2    0    0  0.00000000000E+00  0.00000000000E+00  0.31414532868E+03  0.35119451244E+04  0.34978666740E+04 0.  0.
        3    1    3    3  502    0 -0.78514817819E+03 -0.14413154665E+04  0.76359001064E+03  0.18102258561E+04  0.10100000352E+00 0. -1.
       -3    1    3    3    0  502  0.78514817819E+03  0.14413154665E+04 -0.44944468196E+03  0.17017192683E+04  0.10100000352E+00 0.  1.
</event>
<event>
 5   0  0.3554451E-08  0.3499591E+04  0.7818609E-02  0.8113887E-01
       -2   -1    0    0    0  501  0.00000000000E+00  0.00000000000E+00  0.11188517928E+04  0.11188517928E+04  0.25500000920E-02 0.  1.
        2   -1    0    0  501    0  0.00000000000E+00  0.00000000000E+00 -0.27365415586E+04  0.27365415586E+04  0.25500000920E-02 0. -1.
    10030    2    1    2    0    0  0.00000000000E+00  0.00000000000E+00 -0.16176897658E+04  0.38553933514E+04  0.34995910783E+04 0.  0.
        5    1    3    3  502    0  0.11168750891E+03 -0.56759140789E+02  0.11138974733E+04  0.11209305825E+04  0.46999998093E+01 0.  1.
       -5    1    3    3    0  502 -0.11168750891E+03  0.56759140789E+02 -0.27315872391E+04  0.27344627689E+04  0.46999998093E+01 0. -1.
</event>
<event>
 5   0  0.3628017E-08  0.3500208E+04  0.7818609E-02  0.8113741E-01
       -2   -1    0    0    0  501  0.00000000000E+00  0.00000000000E+00  0.16333164505E+04  0.16333164505E+04  0.25500000920E-02 0. -1.
        2   -1    0    0  501    0  0.00000000000E+00  0.00000000000E+00 -0.18752421287E+04  0.18752421287E+04  0.25500000920E-02 0.  1.
    10030    2    1    2    0    0  0.00000000000E+00  0.00000000000E+00 -0.24192567822E+03  0.35085585792E+04  0.35002078895E+04 0.  0.
        1    1    3    3  502    0 -0.52991497707E+03  0.11068001984E+04 -0.13717568390E+04  0.18405253020E+04  0.50400001928E-02 0.  1.
       -1    1    3    3    0  502  0.52991497707E+03 -0.11068001984E+04  0.11298311607E+04  0.16680332772E+04  0.50400001928E-02 0. -1.
</event>
<event>
 5   0  0.3700096E-08  0.3499881E+04  0.7818609E-02  0.8113818E-01
        2   -1    0    0  501    0  0.00000000000E+00  0.00000000000E+00  0.16478493387E+04  0.16478493387E+04  0.25500000920E-02 0. -1.
       -2   -1    0    0    0  501  0.00000000000E+00  0.00000000000E+00 -0.18583561946E+04  0.18583561946E+04  0.25500000920E-02 0.  1.
    10030    2    1    2    0    0  0.00000000000E+00  0.00000000000E+00 -0.21050685598E+03  0.35062055333E+04  0.34998805844E+04 0.  0.
        4    1    3    3  502    0  0.12602097798E+04 -0.24822021038E+03  0.10854008239E+04  0.16816178292E+04  0.12699999809E+01 0. -1.
       -4    1    3    3    0  502 -0.12602097798E+04  0.24822021038E+03 -0.12959076799E+04  0.18245877041E+04  0.12699999809E+01 0.  1.
</event>
<event>
 5   0  0.3554451E-08  0.3499319E+04  0.7818609E-02  0.8113951E-01
        2   -1    0    0  501    0  0.00000000000E+00  0.00000000000E+00  0.22282056527E+04  0.22282056527E+04  0.25500000920E-02 0. -1.
       -2   -1    0    0    0  501  0.00000000000E+00  0.00000000000E+00 -0.13738897787E+04  0.13738897787E+04  0.25500000920E-02 0.  1.
    10030    2    1    2    0    0  0.00000000000E+00  0.00000000000E+00  0.85431587397E+03  0.36020954314E+04  0.34993193458E+04 0.  0.
        5    1    3    3  502    0 -0.10013960244E+04  0.14331516516E+04  0.35757656401E+03  0.17845449682E+04  0.46999998093E+01 0.  1.
       -5    1    3    3    0  502  0.10013960244E+04 -0.14331516516E+04  0.49673930996E+03  0.18175504632E+04  0.46999998093E+01 0. -1.
</event>
<event>
 5   0  0.1121462E-08  0.3499801E+04  0.7818609E-02  0.8113837E-01
       -1   -1    0    0    0  501  0.00000000000E+00  0.00000000000E+00  0.11972939787E+04  0.11972939787E+04  0.50400001928E-02 0. -1.
        1   -1    0    0  501    0  0.00000000000E+00  0.00000000000E+00 -0.25575600064E+04  0.25575600064E+04  0.50400001928E-02 0.  1.
    10030    2    1    2    0    0  0.00000000000E+00  0.00000000000E+00 -0.13602660277E+04  0.37548539852E+04  0.34998006777E+04 0.  0.
        4    1    3    3  502    0  0.12498214288E+04 -0.35495557666E+03 -0.19377816091E+04  0.23330336994E+04  0.12699999809E+01 0.  1.
       -4    1    3    3    0  502 -0.12498214288E+04  0.35495557666E+03  0.57751558132E+03  0.14218202857E+04  0.12699999809E+01 0. -1.
</event>
<event>
 5   0  0.3628017E-08  0.3503086E+04  0.7818609E-02  0.8113059E-01
       -2   -1    0    0    0  501  0.00000000000E+00  0.00000000000E+00  0.16480655977E+04  0.16480655977E+04  0.25500000920E-02 0. -1.
        2   -1    0    0  501    0  0.00000000000E+00  0.00000000000E+00 -0.18615170083E+04  0.18615170083E+04  0.25500000920E-02 0.  1.
    10030    2    1    2    0    0  0.00000000000E+00  0.00000000000E+00 -0.21345141059E+03  0.35095826060E+04  0.35030855775E+04 0.  0.
        1    1    3    3  502    0 -0.18530752431E+03  0.16321748488E+04 -0.71577467164E+03  0.17918334176E+04  0.50400001928E-02 0.  1.
       -1    1    3    3    0  502  0.18530752431E+03 -0.16321748488E+04  0.50232326105E+03  0.17177491884E+04  0.50400001928E-02 0. -1.
</event>
<event>
 5   0  0.1121462E-08  0.3501603E+04  0.7818609E-02  0.8113410E-01
       -1   -1    0    0    0  501  0.00000000000E+00  0.00000000000E+00  0.20979753225E+04  0.20979753225E+04  0.50400001928E-02 0.  1.
        1   -1    0    0  501    0  0.00000000000E+00  0.00000000000E+00 -0.14610779971E+04  0.14610779971E+04  0.50400001928E-02 0. -1.
    10030    2    1    2    0    0  0.00000000000E+00  0.00000000000E+00  0.63689732537E+03  0.35590533196E+04  0.35016028228E+04 0.  0.
        1    1    3    3  502    0 -0.56777212849E+03 -0.11615294896E+04  0.15184071622E+04  0.19942608293E+04  0.50400001928E-02 0.  1.
       -1    1    3    3    0  502  0.56777212849E+03  0.11615294896E+04 -0.88150983680E+03  0.15647924903E+04  0.50400001928E-02 0. -1.
</event>
<event>
 5   0  0.1121462E-08  0.3500423E+04  0.7818609E-02  0.8113690E-01
        1   -1    0    0  501    0  0.00000000000E+00  0.00000000000E+00  0.15985134907E+04  0.15985134907E+04  0.50400001928E-02 0.  1.
       -1   -1    0    0    0  501  0.00000000000E+00  0.00000000000E+00 -0.19163050505E+04  0.19163050505E+04  0.50400001928E-02 0. -1.
    10030    2    1    2    0    0  0.00000000000E+00  0.00000000000E+00 -0.31779155974E+03  0.35148185412E+04  0.35004225319E+04 0.  0.
        2    1    3    3  502    0 -0.83562911184E+03  0.12081670229E+04 -0.11142792360E+04  0.18437900596E+04  0.25500000920E-02 0. -1.
       -2    1    3    3    0  502  0.83562911184E+03 -0.12081670229E+04  0.79648767631E+03  0.16710284816E+04  0.25500000920E-02 0.  1.
</event>
<event>
 5   0  0.1121462E-08  0.3494545E+04  0.7818609E-02  0.8115084E-01
        1   -1    0    0  501    0  0.00000000000E+00  0.00000000000E+00  0.16830191151E+04  0.16830191151E+04  0.50400001928E-02 0.  1.
       -1   -1    0    0    0  501  0.00000000000E+00  0.00000000000E+00 -0.18139793232E+04  0.18139793232E+04  0.50400001928E-02 0. -1.
    10030    2    1    2    0    0  0.00000000000E+00  0.00000000000E+00 -0.13096020817E+03  0.34969984383E+04  0.34945453927E+04 0.  0.
        2    1    3    3  502    0  0.65740458374E+02  0.74111412474E+03  0.15165755579E+04  0.16892523129E+04  0.25500000920E-02 0.  1.
       -2    1    3    3    0  502 -0.65740458374E+02 -0.74111412474E+03 -0.16475357660E+04  0.18077461255E+04  0.25500000920E-02 0. -1.
</event>
<event>
 5   0  0.1121462E-08  0.3500328E+04  0.7818609E-02  0.8113712E-01
       -1   -1    0    0    0  501  0.00000000000E+00  0.00000000000E+00  0.12735495610E+04  0.12735495610E+04  0.50400001928E-02 0.  1.
        1   -1    0    0  501    0  0.00000000000E+00  0.00000000000E+00 -0.24051474106E+04  0.24051474106E+04  0.50400001928E-02 0. -1.
    10030    2    1    2    0    0  0.00000000000E+00  0.00000000000E+00 -0.11315978496E+04  0.36786969716E+04  0.35003282297E+04 0.  0.
        1    1    3    3  502    0  0.16411728748E+04  0.60614848231E+03 -0.61520557972E+03  0.18545463847E+04  0.50400001928E-02 0. -1.
       -1    1    3    3    0  502 -0.16411728748E+04 -0.60614848231E+03 -0.51639226986E+03  0.18241505870E+04  0.50400001928E-02 0.  1.
</event>
<event>
 5   0  0.1121462E-08  0.3500644E+04  0.7818609E-02  0.8113637E-01
       -1   -1    0    0    0  501  0.00000000000E+00  0.00000000000E+00  0.16453109679E+04  0.16453109679E+04  0.50400001928E-02 0.  1.
        1   -1    0    0  501    0  0.00000000000E+00  0.00000000000E+00 -0.18620357388E+04  0.18620357388E+04  0.50400001928E-02 0. -1.
    10030    2    1    2    0    0  0.00000000000E+00  0.00000000000E+00 -0.21672477090E+03  0.35073467068E+04  0.35006444114E+04 0.  0.
        4    1    3    3  502    0  0.15143412447E+03 -0.14374171078E+04 -0.10974332529E+04  0.18147896829E+04  0.12699999809E+01 0. -1.
       -4    1    3    3    0  502 -0.15143412447E+03  0.14374171078E+04  0.88070848200E+03  0.16925570238E+04  0.12699999809E+01 0.  1.
</event>
<event>
 5   0  0.3700096E-08  0.3501704E+04  0.7818609E-02  0.8113386E-01
        2   -1    0    0  501    0  0.00000000000E+00  0.00000000000E+00  0.26108014455E+04  0.26108014455E+04  0.25500000920E-02 0.  1.
       -2   -1    0    0    0  501  0.00000000000E+00  0.00000000000E+00 -0.11741539128E+04  0.11741539128E+04  0.25500000920E-02 0. -1.
    10030    2    1    2    0    0  0.00000000000E+00  0.00000000000E+00  0.14366475328E+04  0.37849553583E+04  0.35017040040E+04 0.  0.
        4    1    3    3  502    0 -0.82020494971E+03 -0.54348935106E+03 -0.84705076316E+03  0.12983117663E+04  0.12699999809E+01 0. -1.
       -4    1    3    3    0  502  0.82020494971E+03  0.54348935106E+03  0.22836982959E+04  0.24866435920E+04  0.12699999809E+01 0.  1.
</event>
<event>
 5   0  0.3700096E-08  0.3500408E+04  0.7818609E-02  0.8113693E-01
        2   -1    0    0  501    0  0.00000000000E+00  0.00000000000E+00  0.23275400510E+04  0.23275400510E+04  0.25500000920E-02 0. -1.
       -2   -1    0    0    0  501  0.00000000000E+00  0.00000000000E+00 -0.13160736496E+04  0.13160736496E+04  0.25500000920E-02 0.  1.
    10030    2    1    2    0    0  0.00000000000E+00  0.00000000000E+00  0.10114664013E+04  0.36436137006E+04  0.35004080503E+04 0.  0.
        4    1    3    3  502    0 -0.41744205903E+03 -0.44813286368E+03  0.22123613867E+04  0.22955664779E+04  0.12699999809E+01 0. -1.
       -4    1    3    3    0  502  0.41744205903E+03  0.44813286368E+03 -0.12008949853E+04  0.13480472228E+04  0.12699999809E+01 0.  1.
</event>
<event>
 5   0  0.1129219E-08  0.3504010E+04  0.7818609E-02  0.8112840E-01
        1   -1    0    0  501    0  0.00000000000E+00  0.00000000000E+00  0.30312278231E+04  0.30312278231E+04  0.50400001928E-02 0.  1.
       -1   -1    0    0    0  501  0.00000000000E+00  0.00000000000E+00 -0.10126329998E+04  0.10126329998E+04  0.50400001928E-02 0. -1.
    10030    2    1    2    0    0  0.00000000000E+00  0.00000000000E+00  0.20185948233E+04  0.40438608229E+04  0.35040098879E+04 0.  0.
        5    1    3    3  502    0  0.14944281444E+04 -0.90786812646E+03  0.88309074308E+03  0.19589311791E+04  0.46999998093E+01 0. -1.
       -5    1    3    3    0  502 -0.14944281444E+04  0.90786812646E+03  0.11355040802E+04  0.20849296439E+04  0.46999998093E+01 0.  1.
</event>
<event>
 5   0  0.3553585E-08  0.3499656E+04  0.7818609E-02  0.8113871E-01
       -2   -1    0    0    0  501  0.00000000000E+00  0.00000000000E+00  0.12989970537E+04  0.12989970537E+04  0.25500000920E-02 0.  1.
        2   -1    0    0  501    0  0.00000000000E+00  0.00000000000E+00 -0.23571249858E+04  0.23571249858E+04  0.25500000920E-02 0. -1.
    10030    2    1    2    0    0  0.00000000000E+00  0.00000000000E+00 -0.10581279321E+04  0.36561220394E+04  0.34996562183E+04 0.  0.
        2    1    3    3  502    0 -0.87462953554E+03  0.13247687837E+04 -0.12981210630E+04  0.20506358646E+04  0.25500000920E-02 0. -1.
       -2    1    3    3    0  502  0.87462953554E+03 -0.13247687837E+04  0.23999313094E+03  0.16054861749E+04  0.25500000920E-02 0.  1.
</event>
<event>
 5   0  0.1121462E-08  0.3499620E+04  0.7818609E-02  0.8113880E-01
       -3   -1    0    0    0  501  0.00000000000E+00  0.00000000000E+00  0.18582371860E+04  0.18582371888E+04  0.10100000352E+00 0.  1.
        3   -1    0    0  501    0  0.00000000000E+00  0.00000000000E+00 -0.16477091916E+04  0.16477091946E+04  0.10100000352E+00 0. -1.
    10030    2    1    2    0    0  0.00000000000E+00  0.00000000000E+00  0.21052799449E+03  0.35059463834E+04  0.34996196946E+04 0.  0.
        2    1    3    3  502    0 -0.16402430087E+04  0.51638252448E+02  0.71362689409E+03  0.17895046747E+04  0.25500000920E-02 0.  1.
       -2    1    3    3    0  502  0.16402430087E+04 -0.51638252448E+02 -0.50309889960E+03  0.17164417088E+04  0.25500000920E-02 0. -1.
</event>
<event>
 5   0  0.3628017E-08  0.3500490E+04  0.7818609E-02  0.8113674E-01
       -2   -1    0    0    0  501  0.00000000000E+00  0.00000000000E+00  0.12994315384E+04  0.12994315384E+04  0.25500000920E-02 0.  1.
        2   -1    0    0  501    0  0.00000000000E+00  0.00000000000E+00 -0.23574601486E+04  0.23574601486E+04  0.25500000920E-02 0. -1.
    10030    2    1    2    0    0  0.00000000000E+00  0.00000000000E+00 -0.10580286102E+04  0.36568916870E+04  0.35004902900E+04 0.  0.
        1    1    3    3  502    0  0.21723451103E+03 -0.11279012428E+03  0.12814630895E+04  0.13046302521E+04  0.50400001928E-02 0.  1.
       -1    1    3    3    0  502 -0.21723451103E+03  0.11279012428E+03 -0.23394916997E+04  0.23522614349E+04  0.50400001928E-02 0. -1.
</event>
<event>
 5   0  0.3700096E-08  0.3497942E+04  0.7818609E-02  0.8114278E-01
        2   -1    0    0  501    0  0.00000000000E+00  0.00000000000E+00  0.21326266944E+04  0.21326266944E+04  0.25500000920E-02 0. -1.
       -2   -1    0    0    0  501  0.00000000000E+00  0.00000000000E+00 -0.14343339835E+04  0.14343339835E+04  0.25500000920E-02 0.  1.
    10030    2    1    2    0    0  0.00000000000E+00  0.00000000000E+00  0.69829271086E+03  0.35669606779E+04  0.34979416472E+04 0.  0.
        4    1    3    3  502    0 -0.44890816448E+03 -0.15015848281E+04 -0.44245800549E+03  0.16285104346E+04  0.12699999809E+01 0.  1.
       -4    1    3    3    0  502  0.44890816448E+03  0.15015848281E+04  0.11407507164E+04  0.19384502433E+04  0.12699999809E+01 0. -1.
</event>
<event>
 5   0  0.1129219E-08  0.3502453E+04  0.7818609E-02  0.8113209E-01
        1   -1    0    0  501    0  0.00000000000E+00  0.00000000000E+00  0.11424583990E+04  0.11424583990E+04  0.50400001928E-02 0.  1.
       -1   -1    0    0    0  501  0.00000000000E+00  0.00000000000E+00 -0.26843811730E+04  0.26843811730E+04  0.50400001928E-02 0. -1.
    10030    2    1    2    0    0  0.00000000000E+00  0.00000000000E+00 -0.15419227740E+04  0.38268395720E+04  0.35024527504E+04 0.  0.
        5    1    3    3  502    0 -0.12091752022E+04 -0.55399759663E+03 -0.20156597327E+04  0.24149377331E+04  0.46999998093E+01 0. -1.
       -5    1    3    3    0  502  0.12091752022E+04  0.55399759663E+03  0.47373695875E+03  0.14119018389E+04  0.46999998093E+01 0.  1.
</event>
<event>
 5   0  0.3700096E-08  0.3498635E+04  0.7818609E-02  0.8114114E-01
        2   -1    0    0  501    0  0.00000000000E+00  0.00000000000E+00  0.14810125044E+04  0.14810125044E+04  0.25500000920E-02 0. -1.
       -2   -1    0    0    0  501  0.00000000000E+00  0.00000000000E+00 -0.20662291973E+04  0.20662291974E+04  0.25500000920E-02 0.  1.
    10030    2    1    2    0    0  0.00000000000E+00  0.00000000000E+00 -0.58521669292E+03  0.35472417018E+04  0.34986347499E+04 0.  0.
        4    1    3    3  502    0  0.40046166455E+03  0.17027209408E+04 -0.27035995585E+03  0.17699503568E+04  0.12699999809E+01 0.  1.
       -4    1    3    3    0  502 -0.40046166455E+03 -0.17027209408E+04 -0.31485673708E+03  0.17772913449E+04  0.12699999809E+01 0. -1.
</event>
<event>
 5   0  0.3554451E-08  0.3500540E+04  0.7818609E-02  0.8113662E-01
       -2   -1    0    0    0  501  0.00000000000E+00  0.00000000000E+00  0.12787858724E+04  0.12787858724E+04  0.25500000920E-02 0. -1.
        2   -1    0    0  501    0  0.00000000000E+00  0.00000000000E+00 -0.23955886549E+04  0.23955886549E+04  0.25500000920E-02 0.  1.
    10030    2    1    2    0    0  0.00000000000E+00  0.00000000000E+00 -0.11168027824E+04  0.36743745273E+04  0.35005399172E+04 0.  0.
        5    1    3    3  502    0 -0.79469490153E+03 -0.14959728624E+04 -0.10206664759E+04  0.19776897979E+04  0.46999998093E+01 0.  1.
       -5    1    3    3    0  502  0.79469490153E+03  0.14959728624E+04 -0.96136306566E+02  0.16966847294E+04  0.46999998093E+01 0. -1.
</event>
<event>
 5   0  0.3628017E-08  0.3500516E+04  0.7818609E-02  0.8113668E-01
        2   -1    0    0  501    0  0.00000000000E+00  0.00000000000E+00  0.21486927245E+04  0.21486927245E+04  0.25500000920E-02 0.  1.
       -2   -1    0    0    0  501  0.00000000000E+00  0.00000000000E+00 -0.14257052844E+04  0.14257052844E+04  0.25500000920E-02 0. -1.
    10030    2    1    2    0    0  0.00000000000E+00  0.00000000000E+00  0.72298744011E+03  0.35743980088E+04  0.35005157173E+04 0.  0.
        1    1    3    3  502    0  0.74592889709E+01  0.13892379066E+04 -0.72557192334E+03  0.15673200752E+04  0.50400001928E-02 0. -1.
       -1    1    3    3    0  502 -0.74592889709E+01 -0.13892379066E+04  0.14485593634E+04  0.20070779336E+04  0.50400001928E-02 0.  1.
</event>
<event>
 5   0  0.1121462E-08  0.3501285E+04  0.7818609E-02  0.8113485E-01
       -1   -1    0    0    0  501  0.00000000000E+00  0.00000000000E+00  0.20467708467E+04  0.20467708467E+04  0.50400001928E-02 0. -1.
        1   -1    0    0  501    0  0.00000000000E+00  0.00000000000E+00 -0.14973583167E+04  0.14973583167E+04  0.50400001928E-02 0.  1.
    10030    2    1    2    0    0  0.00000000000E+00  0.00000000000E+00  0.54941252998E+03  0.35441291634E+04  0.35012851067E+04 0.  0.
        4    1    3    3  502    0  0.15470425953E+04  0.55316454680E+03 -0.33718718198E+03  0.16772085786E+04  0.12699999809E+01 0.  1.
       -4    1    3    3    0  502 -0.15470425953E+04 -0.55316454680E+03  0.88659971196E+03  0.18669205848E+04  0.12699999809E+01 0. -1.
</event>
<event>
 5   0  0.3628017E-08  0.3496103E+04  0.7818609E-02  0.8114714E-01
        2   -1    0    0  501    0  0.00000000000E+00  0.00000000000E+00  0.27573056841E+04  0.27573056841E+04  0.25500000920E-02 0. -1.
       -2   -1    0    0    0  501  0.00000000000E+00  0.00000000000E+00 -0.11082138939E+04  0.11082138939E+04  0.25500000920E-02 0.  1.
    10030    2    1    2    0    0  0.00000000000E+00  0.00000000000E+00  0.16490917902E+04  0.38655195779E+04  0.34961032415E+04 0.  0.
        1    1    3    3  502    0  0.64459212999E+03  0.10390004834E+04 -0.55672308247E+03  0.13434885966E+04  0.50400001928E-02 0.  1.
       -1    1    3    3    0  502 -0.64459212999E+03 -0.10390004834E+04  0.22058148727E+04  0.25220309814E+04  0.50400001928E-02 0. -1.
</event>
<event>
 5   0  0.1121462E-08  0.3502031E+04  0.7818609E-02  0.8113309E-01
        1   -1    0    0  501    0  0.00000000000E+00  0.00000000000E+00  0.17679311130E+04  0.17679311130E+04  0.50400001928E-02 0. -1.
       -1   -1    0    0    0  501  0.00000000000E+00  0.00000000000E+00 -0.17342616291E+04  0.17342616291E+04  0.50400001928E-02 0.  1.
    10030    2    1    2    0    0  0.00000000000E+00  0.00000000000E+00  0.33669483852E+02  0.35021927421E+04  0.35020308920E+04 0.  0.
        4    1    3    3  502    0  0.37437260573E+03 -0.11971988365E+04  0.12386168607E+04  0.17628423760E+04  0.12699999809E+01 0. -1.
       -4    1    3    3    0  502 -0.37437260573E+03  0.11971988365E+04 -0.12049473769E+04  0.17393503661E+04  0.12699999809E+01 0.  1.
</event>
<event>
 5   0  0.3467834E-08  0.3497913E+04  0.7818609E-02  0.8114285E-01
       -2   -1    0    0    0  501  0.00000000000E+00  0.00000000000E+00  0.15841190033E+04  0.15841190033E+04  0.25500000920E-02 0.  1.
        2   -1    0    0  501    0  0.00000000000E+00  0.00000000000E+00 -0.19309466825E+04  0.19309466825E+04  0.25500000920E-02 0. -1.
    10030    2    1    2    0    0  0.00000000000E+00  0.00000000000E+00 -0.34682767924E+03  0.35150656858E+04  0.34979132832E+04 0.  0.
        3    1    3    3  502    0 -0.65418804008E+03  0.16198184470E+04 -0.25794248817E+03  0.17658731920E+04  0.10100000352E+00 0. -1.
       -3    1    3    3    0  502  0.65418804008E+03 -0.16198184470E+04 -0.88885191063E+02  0.17491924938E+04  0.10100000352E+00 0.  1.
</event>
<event>
 5   0  0.1121462E-08  0.3499609E+04  0.7818609E-02  0.8113883E-01
       -1   -1    0    0    0  501  0.00000000000E+00  0.00000000000E+00  0.14197899831E+04  0.14197899832E+04  0.50400001928E-02 0. -1.
        1   -1    0    0  501    0  0.00000000000E+00  0.00000000000E+00 -0.21565273543E+04  0.21565273543E+04  0.50400001928E-02 0.  1.
    10030    2    1    2    0    0  0.00000000000E+00  0.00000000000E+00 -0.73673737111E+03  0.35763173374E+04  0.34996090844E+04 0.  0.
        4    1    3    3  502    0  0.19247437464E+03  0.16916888969E+04 -0.78089580958E+03  0.18731411018E+04  0.12699999809E+01 0. -1.
       -4    1    3    3    0  502 -0.19247437464E+03 -0.16916888969E+04  0.44158438471E+02  0.17031762356E+04  0.12699999809E+01 0.  1.
</event>
<event>
 5   0  0.1121462E-08  0.3500038E+04  0.7818609E-02  0.8113781E-01
       -1   -1    0    0    0  501  0.00000000000E+00  0.00000000000E+00  0.16019972116E+04  0.16019972116E+04  0.50400001928E-02 0. -1.
        1   -1    0    0  501    0  0.00000000000E+00  0.00000000000E+00 -0.19117174266E+04  0.19117174266E+04  0.50400001928E-02 0.  1.
    10030    2    1    2    0    0  0.00000000000E+00  0.00000000000E+00 -0.30972021501E+03  0.35137146382E+04  0.35000377066E+04 0.  0.
        1    1    3    3  502    0 -0.89638338229E+03  0.14878124076E+04 -0.36894693612E+03  0.17757282365E+04  0.50400001928E-02 0.  1.
       -1    1    3    3    0  502  0.89638338229E+03 -0.14878124076E+04  0.59226721110E+02  0.17379864018E+04  0.50400001928E-02 0. -1.
</event>
<event>
 5   0  0.3467834E-08  0.3500040E+04  0.7818609E-02  0.8113780E-01
       -2   -1    0    0    0  501  0.00000000000E+00  0.00000000000E+00  0.15468808492E+04  0.15468808492E+04  0.25500000920E-02 0.  1.
        2   -1    0    0  501    0  0.00000000000E+00  0.00000000000E+00 -0.19798356480E+04  0.19798356480E+04  0.25500000920E-02 0. -1.
    10030    2    1    2    0    0  0.00000000000E+00  0.00000000000E+00 -0.43295479881E+03  0.35267164971E+04  0.35000399131E+04 0.  0.
        3    1    3    3  502    0 -0.96507119967E+03  0.12983021085E+04  0.45615754848E+03  0.16807827059E+04  0.10100000352E+00 0.  1.
       -3    1    3    3    0  502  0.96507119967E+03 -0.12983021085E+04 -0.88911234729E+03  0.18459337912E+04  0.10100000352E+00 0. -1.
</event>
<event>
 5   0  0.3700096E-08  0.3499657E+04  0.7818609E-02  0.8113871E-01
        2   -1    0    0  501    0  0.00000000000E+00  0.00000000000E+00  0.26644190427E+04  0.26644190427E+04  0.25500000920E-02 0.  1.
       -2   -1    0    0    0  501  0.00000000000E+00  0.00000000000E+00 -0.11491812651E+04  0.11491812651E+04  0.25500000920E-02 0. -1.
    10030    2    1    2    0    0  0.00000000000E+00  0.00000000000E+00  0.15152377776E+04  0.38136003078E+04  0.34996573811E+04 0.  0.
        4    1    3    3  502    0  0.33445510321E+03  0.10223087791E+04 -0.74638306716E+03  0.13092229572E+04  0.12699999809E+01 0. -1.
       -4    1    3    3    0  502 -0.33445510321E+03 -0.10223087791E+04  0.22616208448E+04  0.25043773506E+04  0.12699999809E+01 0.  1.
</event>
<event>
 5   0  0.1121462E-08  0.3500169E+04  0.7818609E-02  0.8113750E-01
       -3   -1    0    0    0  501  0.00000000000E+00  0.00000000000E+00  0.27881729155E+04  0.27881729174E+04  0.10100000352E+00 0. -1.
        3   -1    0    0  501    0  0.00000000000E+00  0.00000000000E+00 -0.10984957090E+04  0.10984957136E+04  0.10100000352E+00 0.  1.
    10030    2    1    2    0    0  0.00000000000E+00  0.00000000000E+00  0.16896772065E+04  0.38866686310E+04  0.35001691366E+04 0.  0.
        2    1    3    3  502    0  0.52107545657E+03 -0.29329775747E+03  0.26712239369E+04  0.27373309130E+04  0.25500000920E-02 0. -1.
       -2    1    3    3    0  502 -0.52107545657E+03  0.29329775747E+03 -0.98154673041E+03  0.11493377180E+04  0.25500000920E-02 0.  1.
</event>
<event>
 5   0  0.3628017E-08  0.3501673E+04  0.7818609E-02  0.8113394E-01
       -2   -1    0    0    0  501  0.00000000000E+00  0.00000000000E+00  0.12747785404E+04  0.12747785404E+04  0.25500000920E-02 0. -1.
        2   -1    0    0  501    0  0.00000000000E+00  0.00000000000E+00 -0.24046755490E+04  0.24046755490E+04  0.25500000920E-02 0.  1.
    10030    2    1    2    0    0  0.00000000000E+00  0.00000000000E+00 -0.11298970087E+04  0.36794540894E+04  0.35016731923E+04 0.  0.
        1    1    3    3  502    0 -0.38433015822E+03  0.11303154442E+04 -0.19106345551E+04  0.22529640647E+04  0.50400001928E-02 0.  1.
       -1    1    3    3    0  502  0.38433015822E+03 -0.11303154442E+04  0.78073754644E+03  0.14264900246E+04  0.50400001928E-02 0. -1.
</event>
<event>
 5   0  0.3467834E-08  0.3499756E+04  0.7818609E-02  0.8113848E-01
       -2   -1    0    0    0  501  0.00000000000E+00  0.00000000000E+00  0.21592969586E+04  0.21592969586E+04  0.25500000920E-02 0.  1.
        2   -1    0    0  501    0  0.00000000000E+00  0.00000000000E+00 -0.14180879486E+04  0.14180879486E+04  0.25500000920E-02 0. -1.
    10030    2    1    2    0    0  0.00000000000E+00  0.00000000000E+00  0.74120900998E+03  0.35773849072E+04  0.34997559883E+04 0.  0.
        3    1    3    3  502    0 -0.16947122755E+04 -0.15507792980E+03 -0.45831332305E+02  0.17024098749E+04  0.10100000352E+00 0. -1.
       -3    1    3    3    0  502  0.16947122755E+04  0.15507792980E+03  0.78704034228E+03  0.18749750323E+04  0.10100000352E+00 0.  1.
</event>
<event>
 5   0  0.1121462E-08  0.3500407E+04  0.7818609E-02  0.8113694E-01
        1   -1    0    0  501    0  0.00000000000E+00  0.00000000000E+00  0.23957964487E+04  0.23957964487E+04  0.50400001928E-02 0.  1.
       -1   -1    0    0    0  501  0.00000000000E+00  0.00000000000E+00 -0.12785776375E+04  0.12785776375E+04  0.50400001928E-02 0. -1.
    10030    2    1    2    0    0  0.00000000000E+00  0.00000000000E+00  0.11172188112E+04  0.36743740862E+04  0.35004066983E+04 0.  0.
        1    1    3    3  502    0  0.58661076636E+03 -0.15689737837E+04  0.26027124777E+02  0.16752517233E+04  0.50400001928E-02 0.  1.
       -1    1    3    3    0  502 -0.58661076636E+03  0.15689737837E+04  0.10911916864E+04  0.19991223629E+04  0.50400001928E-02 0. -1.
</event>
<event>
 5   0  0.1121462E-08  0.3499169E+04  0.7818609E-02  0.8113987E-01
        1   -1    0    0  501    0  0.00000000000E+00  0.00000000000E+00  0.15245150047E+04  0.15245150047E+04  0.50400001928E-02 0.  1.
       -1   -1    0    0    0  501  0.00000000000E+00  0.00000000000E+00 -0.20078814564E+04  0.20078814564E+04  0.50400001928E-02 0. -1.
    10030    2    1    2    0    0  0.00000000000E+00  0.00000000000E+00 -0.48336645176E+03  0.35323964611E+04  0.34991687058E+04 0.  0.
        1    1    3    3  502    0  0.67287328133E+03 -0.11159740603E+04 -0.14201973150E+04  0.19274638699E+04  0.50400001928E-02 0. -1.
       -1    1    3    3    0  502 -0.67287328133E+03  0.11159740603E+04  0.93683086328E+03  0.16049325912E+04  0.50400001928E-02 0.  1.
</event>
<event>
 5   0  0.1140808E-08  0.3497337E+04  0.7818609E-02  0.8114421E-01
       -1   -1    0    0    0  501  0.00000000000E+00  0.00000000000E+00  0.13818800232E+04  0.13818800232E+04  0.50400001928E-02 0. -1.
        1   -1    0    0  501    0  0.00000000000E+00  0.00000000000E+00 -0.22128120335E+04  0.22128120335E+04  0.50400001928E-02 0.  1.
    10030    2    1    2    0    0  0.00000000000E+00  0.00000000000E+00 -0.83093201034E+03  0.35946920567E+04  0.34973365547E+04 0.  0.
        3    1    3    3  502    0 -0.58223351991E+02 -0.13732682465E+04  0.69563729299E+03  0.15405086463E+04  0.10100000352E+00 0. -1.
       -3    1    3    3    0  502  0.58223351991E+02  0.13732682465E+04 -0.15265693033E+04  0.20541834104E+04  0.10100000352E+00 0.  1.
</event>
<event>
 5   0  0.1129219E-08  0.3499208E+04  0.7818609E-02  0.8113978E-01
        1   -1    0    0  501    0  0.00000000000E+00  0.00000000000E+00  0.25861328705E+04  0.25861328705E+04  0.50400001928E-02 0. -1.
       -1   -1    0    0    0  501  0.00000000000E+00  0.00000000000E+00 -0.11836644668E+04  0.11836644668E+04  0.50400001928E-02 0.  1.
    10030    2    1    2    0    0  0.00000000000E+00  0.00000000000E+00  0.14024684037E+04  0.37697973373E+04  0.34992076733E+04 0.  0.
        5    1    3    3  502    0 -0.82881647410E+03  0.99572801657E+03 -0.56556913522E+03  0.14136129482E+04  0.46999998093E+01 0.  1.
       -5    1    3    3    0  502  0.82881647410E+03 -0.99572801657E+03  0.19680375389E+04  0.23561843890E+04  0.46999998093E+01 0. -1.
</event>
<event>
 5   0  0.1129219E-08  0.3503326E+04  0.7818609E-02  0.8113002E-01
       -1   -1    0    0    0  501  0.00000000000E+00  0.00000000000E+00  0.14353884489E+04  0.14353884489E+04  0.50400001928E-02 0.  1.
        1   -1    0    0  501    0  0.00000000000E+00  0.00000000000E+00 -0.21376256775E+04  0.21376256775E+04  0.50400001928E-02 0. -1.
    10030    2    1    2    0    0  0.00000000000E+00  0.00000000000E+00 -0.70223722859E+03  0.35730141264E+04  0.35033259658E+04 0.  0.
        5    1    3    3  502    0 -0.69990932447E+03  0.48800510566E+03  0.12091091775E+04  0.14798611890E+04  0.46999998093E+01 0.  1.
       -5    1    3    3    0  502  0.69990932447E+03 -0.48800510566E+03 -0.19113464061E+04  0.20931529375E+04  0.46999998093E+01 0. -1.
</event>
<event>
 5   0  0.3700096E-08  0.3497986E+04  0.7818609E-02  0.8114267E-01
       -2   -1    0    0    0  501  0.00000000000E+00  0.00000000000E+00  0.16214863826E+04  0.16214863826E+04  0.25500000920E-02 0.  1.
        2   -1    0    0  501    0  0.00000000000E+00  0.00000000000E+00 -0.18865264937E+04  0.18865264937E+04  0.25500000920E-02 0. -1.
    10030    2    1    2    0    0  0.00000000000E+00  0.00000000000E+00 -0.26504011112E+03  0.35080128764E+04  0.34979862893E+04 0.  0.
        4    1    3    3  502    0  0.68030312838E+03  0.80979283397E+03 -0.15294948017E+04  0.18595517583E+04  0.12699999809E+01 0. -1.
       -4    1    3    3    0  502 -0.68030312838E+03 -0.80979283397E+03  0.12644546906E+04  0.16484611181E+04  0.12699999809E+01 0.  1.
</event>
<event>
 5   0  0.3628017E-08  0.3502211E+04  0.7818609E-02  0.8113266E-01
       -2   -1    0    0    0  501  0.00000000000E+00  0.00000000000E+00  0.15687210745E+04  0.15687210745E+04  0.25500000920E-02 0.  1.
        2   -1    0    0  501    0  0.00000000000E+00  0.00000000000E+00 -0.19546950449E+04  0.19546950449E+04  0.25500000920E-02 0. -1.
    10030    2    1    2    0    0  0.00000000000E+00  0.00000000000E+00 -0.38597397048E+03  0.35234161194E+04  0.35022114791E+04 0.  0.
        1    1    3    3  502    0  0.52638927660E+03  0.68014412328E+03  0.13415974717E+04  0.15936014166E+04  0.50400001928E-02 0.  1.
       -1    1    3    3    0  502 -0.52638927660E+03 -0.68014412328E+03 -0.17275714422E+04  0.19298147027E+04  0.50400001928E-02 0. -1.
</event>
<event>
 5   0  0.1121462E-08  0.3498044E+04  0.7818609E-02  0.8114254E-01
        1   -1    0    0  501    0  0.00000000000E+00  0.00000000000E+00  0.12654958061E+04  0.12654958061E+04  0.50400001928E-02 0.  1.
       -1   -1    0    0    0  501  0.00000000000E+00  0.00000000000E+00 -0.24172957166E+04  0.24172957166E+04  0.50400001928E-02 0. -1.
    10030    2    1    2    0    0  0.00000000000E+00  0.00000000000E+00 -0.11517999105E+04  0.36827915227E+04  0.34980437913E+04 0.  0.
        4    1    3    3  502    0  0.15670033531E+04 -0.12137173090E+03  0.23199059099E+03  0.15887264878E+04  0.12699999809E+01 0.  1.
       -4    1    3    3    0  502 -0.15670033531E+04  0.12137173090E+03 -0.13837905014E+04  0.20940650349E+04  0.12699999809E+01 0. -1.
</event>
<event>
 5   0  0.3554451E-08  0.3496857E+04  0.7818609E-02  0.8114535E-01
       -2   -1    0    0    0  501  0.00000000000E+00  0.00000000000E+00  0.12551536632E+04  0.12551536632E+04  0.25500000920E-02 0.  1.
        2   -1    0    0  501    0  0.00000000000E+00  0.00000000000E+00 -0.24355604470E+04  0.24355604470E+04  0.25500000920E-02 0. -1.
    10030    2    1    2    0    0  0.00000000000E+00  0.00000000000E+00 -0.11804067837E+04  0.36907141102E+04  0.34968572273E+04 0.  0.
        5    1    3    3  502    0 -0.10918376819E+04  0.57786752632E+03 -0.18961084597E+04  0.22630266862E+04  0.46999998093E+01 0. -1.
       -5    1    3    3    0  502  0.10918376819E+04 -0.57786752632E+03  0.71570167591E+03  0.14276874240E+04  0.46999998093E+01 0.  1.
</event>
<event>
 5   0  0.1121462E-08  0.3500647E+04  0.7818609E-02  0.8113637E-01
        1   -1    0    0  501    0  0.00000000000E+00  0.00000000000E+00  0.16784513766E+04  0.16784513766E+04  0.50400001928E-02 0.  1.
       -1   -1    0    0    0  501  0.00000000000E+00  0.00000000000E+00 -0.18252729669E+04  0.18252729669E+04  0.50400001928E-02 0. -1.
    10030    2    1    2    0    0  0.00000000000E+00  0.00000000000E+00 -0.14682159024E+03  0.35037243435E+04  0.35006467540E+04 0.  0.
        2    1    3    3  502    0 -0.95904840905E+03  0.94487204433E+03  0.10460871379E+04  0.17049502430E+04  0.25500000920E-02 0.  1.
       -2    1    3    3    0  502  0.95904840905E+03 -0.94487204433E+03 -0.11929087281E+04  0.17987741005E+04  0.25500000920E-02 0. -1.
</event>
<event>
 5   0  0.3553585E-08  0.3500144E+04  0.7818609E-02  0.8113756E-01
       -2   -1    0    0    0  501  0.00000000000E+00  0.00000000000E+00  0.13799344260E+04  0.13799344260E+04  0.25500000920E-02 0.  1.
        2   -1    0    0  501    0  0.00000000000E+00  0.00000000000E+00 -0.22194910572E+04  0.22194910572E+04  0.25500000920E-02 0. -1.
    10030    2    1    2    0    0  0.00000000000E+00  0.00000000000E+00 -0.83955663120E+03  0.35994254832E+04  0.35001440645E+04 0.  0.
        2    1    3    3  502    0 -0.11023882416E+04 -0.13230455890E+04 -0.99425462828E+02  0.17249912720E+04  0.25500000920E-02 0. -1.
       -2    1    3    3    0  502  0.11023882416E+04  0.13230455890E+04 -0.74013116838E+03  0.18744342112E+04  0.25500000920E-02 0.  1.
</event>
<event>
 5   0  0.3467834E-08  0.3500987E+04  0.7818609E-02  0.8113556E-01
       -2   -1    0    0    0  501  0.00000000000E+00  0.00000000000E+00  0.16155509052E+04  0.16155509052E+04  0.25500000920E-02 0. -1.
        2   -1    0    0  501    0  0.00000000000E+00  0.00000000000E+00 -0.18967070844E+04  0.18967070844E+04  0.25500000920E-02 0.  1.
    10030    2    1    2    0    0  0.00000000000E+00  0.00000000000E+00 -0.28115617920E+03  0.35122579897E+04  0.35009866308E+04 0.  0.
        3    1    3    3  502    0  0.14641794539E+04  0.17215033075E+03  0.80626640209E+03  0.16803341129E+04  0.10100000352E+00 0. -1.
       -3    1    3    3    0  502 -0.14641794539E+04 -0.17215033075E+03 -0.10874225813E+04  0.18319238768E+04  0.10100000352E+00 0.  1.
</event>
<event>
 5   0  0.3628017E-08  0.3489735E+04  0.7818609E-02  0.8116227E-01
        2   -1    0    0  501    0  0.00000000000E+00  0.00000000000E+00  0.20176879023E+04  0.20176879023E+04  0.25500000920E-02 0. -1.
       -2   -1    0    0    0  501  0.00000000000E+00  0.00000000000E+00 -0.15089364742E+04  0.15089364742E+04  0.25500000920E-02 0.  1.
    10030    2    1    2    0    0  0.00000000000E+00  0.00000000000E+00  0.50875142806E+03  0.35266243765E+04  0.34897351586E+04 0.  0.
        1    1    3    3  502    0 -0.46959306251E+03 -0.15041374148E+04 -0.50295647997E+03  0.16540593181E+04  0.50400001928E-02 0.  1.
       -1    1    3    3    0  502  0.46959306251E+03  0.15041374148E+04  0.10117079080E+04  0.18725650584E+04  0.50400001928E-02 0. -1.
</event>
<event>
 5   0  0.3700096E-08  0.3497734E+04  0.7818609E-02  0.8114327E-01
        2   -1    0    0  501    0  0.00000000000E+00  0.00000000000E+00  0.21480664348E+04  0.21480664348E+04  0.25500000920E-02 0. -1.
       -2   -1    0    0    0  501  0.00000000000E+00  0.00000000000E+00 -0.14238554069E+04  0.14238554069E+04  0.25500000920E-02 0.  1.
    10030    2    1    2    0    0  0.00000000000E+00  0.00000000000E+00  0.72421102795E+03  0.35719218417E+04  0.34977341281E+04 0.  0.
        4    1    3    3  502    0  0.10678441139E+04  0.10658467689E+04  0.12652930746E+04  0.19690831785E+04  0.12699999809E+01 0. -1.
       -4    1    3    3    0  502 -0.10678441139E+04 -0.10658467689E+04 -0.54108204668E+03  0.16028386632E+04  0.12699999809E+01 0.  1.
</event>
<event>
 5   0  0.1129219E-08  0.3486565E+04  0.7818609E-02  0.8116981E-01
        1   -1    0    0  501    0  0.00000000000E+00  0.00000000000E+00  0.17264300075E+04  0.17264300075E+04  0.50400001928E-02 0. -1.
       -1   -1    0    0    0  501  0.00000000000E+00  0.00000000000E+00 -0.17602993278E+04  0.17602993278E+04  0.50400001928E-02 0.  1.
    10030    2    1    2    0    0  0.00000000000E+00  0.00000000000E+00 -0.33869320291E+02  0.34867293352E+04  0.34865648318E+04 0.  0.
        5    1    3    3  502    0  0.73219161346E+02  0.17411298487E+04 -0.62950914610E+02  0.17438116594E+04  0.46999998093E+01 0.  1.
       -5    1    3    3    0  502 -0.73219161346E+02 -0.17411298487E+04  0.29081594318E+02  0.17429176759E+04  0.46999998093E+01 0. -1.
</event>
<event>
 5   0  0.1121462E-08  0.3501411E+04  0.7818609E-02  0.8113456E-01
        1   -1    0    0  501    0  0.00000000000E+00  0.00000000000E+00  0.25399039364E+04  0.25399039364E+04  0.50400001928E-02 0.  1.
       -1   -1    0    0    0  501  0.00000000000E+00  0.00000000000E+00 -0.12067267488E+04  0.12067267488E+04  0.50400001928E-02 0. -1.
    10030    2    1    2    0    0  0.00000000000E+00  0.00000000000E+00  0.13331771876E+04  0.37466306852E+04  0.35014111552E+04 0.  0.
        4    1    3    3  502    0  0.93146869122E+03  0.26239281751E+03  0.22276968477E+04  0.24288101555E+04  0.12699999809E+01 0.  1.
       -4    1    3    3    0  502 -0.93146869122E+03 -0.26239281751E+03 -0.89451966010E+03  0.13178205297E+04  0.12699999809E+01 0. -1.
</event>
<event>
 5   0  0.1121462E-08  0.3500485E+04  0.7818609E-02  0.8113675E-01
       -3   -1    0    0    0  501  0.00000000000E+00  0.00000000000E+00  0.15500369860E+04  0.15500369893E+04  0.10100000352E+00 0. -1.
        3   -1    0    0  501    0  0.00000000000E+00  0.00000000000E+00 -0.19763067875E+04  0.19763067900E+04  0.10100000352E+00 0.  1.
    10030    2    1    2    0    0  0.00000000000E+00  0.00000000000E+00 -0.42626980150E+03  0.35263437793E+04  0.35004848959E+04 0.  0.
        4    1    3    3  502    0 -0.16186838781E+04 -0.52347767066E+03 -0.62748913246E+03  0.18132596596E+04  0.12699999809E+01 0.  1.
       -4    1    3    3    0  502  0.16186838781E+04  0.52347767066E+03  0.20121933096E+03  0.17130841197E+04  0.12699999809E+01 0. -1.
</event>
<event>
 5   0  0.3467834E-08  0.3507783E+04  0.7818609E-02  0.8111948E-01
       -2   -1    0    0    0  501  0.00000000000E+00  0.00000000000E+00  0.16106936255E+04  0.16106936255E+04  0.25500000920E-02 0.  1.
        2   -1    0    0  501    0  0.00000000000E+00  0.00000000000E+00 -0.19098207221E+04  0.19098207221E+04  0.25500000920E-02 0. -1.
    10030    2    1    2    0    0  0.00000000000E+00  0.00000000000E+00 -0.29912709661E+03  0.35205143477E+04  0.35077833816E+04 0.  0.
        3    1    3    3  502    0 -0.10247417116E+03  0.19732615460E+03  0.15964912132E+04  0.16119003601E+04  0.10100000352E+00 0.  1.
       -3    1    3    3    0  502  0.10247417116E+03 -0.19732615460E+03 -0.18956183098E+04  0.19086139876E+04  0.10100000352E+00 0. -1.
</event>
<event>
 5   0  0.3553585E-08  0.3500340E+04  0.7818609E-02  0.8113709E-01
        2   -1    0    0  501    0  0.00000000000E+00  0.00000000000E+00  0.23825528167E+04  0.23825528167E+04  0.25500000920E-02 0. -1.
       -2   -1    0    0    0  501  0.00000000000E+00  0.00000000000E+00 -0.12856355669E+04  0.12856355669E+04  0.25500000920E-02 0.  1.
    10030    2    1    2    0    0  0.00000000000E+00  0.00000000000E+00  0.10969172498E+04  0.36681883837E+04  0.35003397785E+04 0.  0.
        2    1    3    3  502    0 -0.14019136702E+04  0.66978866928E+03  0.13927697886E+04  0.20865729042E+04  0.25500000920E-02 0. -1.
       -2    1    3    3    0  502  0.14019136702E+04 -0.66978866928E+03 -0.29585253882E+03  0.15816154795E+04  0.25500000920E-02 0.  1.
</event>
<event>
 5   0  0.3554451E-08  0.3502059E+04  0.7818609E-02  0.8113302E-01
       -2   -1    0    0    0  501  0.00000000000E+00  0.00000000000E+00  0.15016144709E+04  0.15016144709E+04  0.25500000920E-02 0. -1.
        2   -1    0    0  501    0  0.00000000000E+00  0.00000000000E+00 -0.20418720748E+04  0.20418720748E+04  0.25500000920E-02 0.  1.
    10030    2    1    2    0    0  0.00000000000E+00  0.00000000000E+00 -0.54025760390E+03  0.35434865457E+04  0.35020591972E+04 0.  0.
        5    1    3    3  502    0  0.84025128595E+03  0.92312518976E+03 -0.15126208225E+04  0.19611797934E+04  0.46999998093E+01 0.  1.
       -5    1    3    3    0  502 -0.84025128595E+03 -0.92312518976E+03  0.97236321857E+03  0.15823067523E+04  0.46999998093E+01 0. -1.
</event>
<event>
 5   0  0.1121462E-08  0.3499418E+04  0.7818609E-02  0.8113928E-01
       -1   -1    0    0    0  501  0.00000000000E+00  0.00000000000E+00  0.19073470699E+04  0.19073470700E+04  0.50400001928E-02 0. -1.
        1   -1    0    0  501    0  0.00000000000E+00  0.00000000000E+00 -0.16050995631E+04  0.16050995631E+04  0.50400001928E-02 0.  1.
    10030    2    1    2    0    0  0.00000000000E+00  0.00000000000E+00  0.30224750689E+03  0.35124466330E+04  0.34994182080E+04 0.  0.
        4    1    3    3  502    0 -0.64959313305E+03  0.25103782863E+03  0.17622443232E+04  0.18948609177E+04  0.12699999809E+01 0. -1.
       -4    1    3    3    0  502  0.64959313305E+03 -0.25103782863E+03 -0.14599968163E+04  0.16175857153E+04  0.12699999809E+01 0.  1.
</event>
<event>
 5   0  0.1121462E-08  0.3500246E+04  0.7818609E-02  0.8113732E-01
       -1   -1    0    0    0  501  0.00000000000E+00  0.00000000000E+00  0.25279211205E+04  0.25279211205E+04  0.50400001928E-02 0.  1.
        1   -1    0    0  501    0  0.00000000000E+00  0.00000000000E+00 -0.12116400945E+04  0.12116400945E+04  0.50400001928E-02 0. -1.
    10030    2    1    2    0    0  0.00000000000E+00  0.00000000000E+00  0.13162810260E+04  0.37395612151E+04  0.35002460402E+04 0.  0.
        1    1    3    3  502    0 -0.10104161765E+03  0.16502361064E+04  0.12713537724E+04  0.20856243742E+04  0.50400001928E-02 0.  1.
       -1    1    3    3    0  502  0.10104161765E+03 -0.16502361064E+04  0.44927253545E+02  0.16539368409E+04  0.50400001928E-02 0. -1.
</event>
<event>
 5   0  0.3553585E-08  0.3502086E+04  0.7818609E-02  0.8113296E-01
       -2   -1    0    0    0  501  0.00000000000E+00  0.00000000000E+00  0.14900252701E+04  0.14900252701E+04  0.25500000920E-02 0.  1.
        2   -1    0    0  501    0  0.00000000000E+00  0.00000000000E+00 -0.20577844795E+04  0.20577844795E+04  0.25500000920E-02 0. -1.
    10030    2    1    2    0    0  0.00000000000E+00  0.00000000000E+00 -0.56775920940E+03  0.35478097496E+04  0.35020855929E+04 0.  0.
        2    1    3    3  502    0  0.14304542808E+04 -0.53104905001E+03  0.58636953313E+03  0.16346381166E+04  0.25500000920E-02 0.  1.
       -2    1    3    3    0  502 -0.14304542808E+04  0.53104905001E+03 -0.11541287425E+04  0.19131716330E+04  0.25500000920E-02 0. -1.
</event>
<event>
 5   0  0.1121462E-08  0.3501146E+04  0.7818609E-02  0.8113518E-01
       -1   -1    0    0    0  501  0.00000000000E+00  0.00000000000E+00  0.14498005344E+04  0.14498005344E+04  0.50400001928E-02 0. -1.
        1   -1    0    0  501    0  0.00000000000E+00  0.00000000000E+00 -0.21137434763E+04  0.21137434763E+04  0.50400001928E-02 0.  1.
    10030    2    1    2    0    0  0.00000000000E+00  0.00000000000E+00 -0.66394294189E+03  0.35635440107E+04  0.35011463388E+04 0.  0.
        4    1    3    3  502    0  0.14714959290E+04 -0.86200686954E+03 -0.73417052498E+03  0.18567078620E+04  0.12699999809E+01 0.  1.
       -4    1    3    3    0  502 -0.14714959290E+04  0.86200686954E+03  0.70227583093E+02  0.17068361487E+04  0.12699999809E+01 0. -1.
</event>
<event>
 5   0  0.3700096E-08  0.3500647E+04  0.7818609E-02  0.8113637E-01
        2   -1    0    0  501    0  0.00000000000E+00  0.00000000000E+00  0.15893211943E+04  0.15893211943E+04  0.25500000920E-02 0.  1.
       -2   -1    0    0    0  501  0.00000000000E+00  0.00000000000E+00 -0.19276361257E+04  0.19276361257E+04  0.25500000920E-02 0. -1.
    10030    2    1    2    0    0  0.00000000000E+00  0.00000000000E+00 -0.33831493142E+03  0.35169573200E+04  0.35006473398E+04 0.  0.
        4    1    3    3  502    0 -0.15474582651E+04 -0.77722362964E+03  0.86838836262E+02  0.17338530068E+04  0.12699999809E+01 0.  1.
       -4    1    3    3    0  502  0.15474582651E+04  0.77722362964E+03 -0.42515376769E+03  0.17831043132E+04  0.12699999809E+01 0. -1.
</event>
<event>
 5   0  0.1129219E-08  0.3495140E+04  0.7818609E-02  0.8114943E-01
        1   -1    0    0  501    0  0.00000000000E+00  0.00000000000E+00  0.21640114956E+04  0.21640114956E+04  0.50400001928E-02 0. -1.
       -1   -1    0    0    0  501  0.00000000000E+00  0.00000000000E+00 -0.14112683331E+04  0.14112683331E+04  0.50400001928E-02 0.  1.
    10030    2    1    2    0    0  0.00000000000E+00  0.00000000000E+00  0.75274316246E+03  0.35752798287E+04  0.34951399950E+04 0.  0.
        5    1    3    3  502    0  0.10784521484E+04  0.96754187678E+03 -0.62316267974E+03  0.15771969234E+04  0.46999998093E+01 0.  1.
       -5    1    3    3    0  502 -0.10784521484E+04 -0.96754187678E+03  0.13759058422E+04  0.19980829053E+04  0.46999998093E+01 0. -1.
</event>
<event>
 5   0  0.3554451E-08  0.3502873E+04  0.7818609E-02  0.8113109E-01
        2   -1    0    0  501    0  0.00000000000E+00  0.00000000000E+00  0.16627100447E+04  0.16627100447E+04  0.25500000920E-02 0.  1.
       -2   -1    0    0    0  501  0.00000000000E+00  0.00000000000E+00 -0.18448981166E+04  0.18448981166E+04  0.25500000920E-02 0. -1.
    10030    2    1    2    0    0  0.00000000000E+00  0.00000000000E+00 -0.18218807188E+03  0.35076081613E+04  0.35028734662E+04 0.  0.
        5    1    3    3  502    0 -0.96611683754E+03  0.12905223271E+04  0.59443259758E+03  0.17181972598E+04  0.46999998093E+01 0.  1.
       -5    1    3    3    0  502  0.96611683754E+03 -0.12905223271E+04 -0.77662066946E+03  0.17894109016E+04  0.46999998093E+01 0. -1.
</event>
<event>
 5   0  0.3628017E-08  0.3500198E+04  0.7818609E-02  0.8113743E-01
       -2   -1    0    0    0  501  0.00000000000E+00  0.00000000000E+00  0.14087432460E+04  0.14087432460E+04  0.25500000920E-02 0.  1.
        2   -1    0    0  501    0  0.00000000000E+00  0.00000000000E+00 -0.21741695407E+04  0.21741695407E+04  0.25500000920E-02 0. -1.
    10030    2    1    2    0    0  0.00000000000E+00  0.00000000000E+00 -0.76542629467E+03  0.35829127866E+04  0.35001980836E+04 0.  0.
        1    1    3    3  502    0  0.21975008981E+03 -0.88430222068E+02  0.13922580493E+04  0.14122650183E+04  0.50400001928E-02 0.  1.
       -1    1    3    3    0  502 -0.21975008981E+03  0.88430222068E+02 -0.21576843439E+04  0.21706477683E+04  0.50400001928E-02 0. -1.
</event>
<event>
 5   0  0.1140808E-08  0.3501758E+04  0.7818609E-02  0.8113373E-01
        1   -1    0    0  501    0  0.00000000000E+00  0.00000000000E+00  0.10697705068E+04  0.10697705068E+04  0.50400001928E-02 0. -1.
       -1   -1    0    0    0  501  0.00000000000E+00  0.00000000000E+00 -0.28656399736E+04  0.28656399736E+04  0.50400001928E-02 0.  1.
    10030    2    1    2    0    0  0.00000000000E+00  0.00000000000E+00 -0.17958694668E+04  0.39354104804E+04  0.35017579167E+04 0.  0.
        3    1    3    3  502    0  0.12900848155E+04  0.94927858018E+03 -0.10315880622E+03  0.16050203747E+04  0.10100000352E+00 0. -1.
       -3    1    3    3    0  502 -0.12900848155E+04 -0.94927858018E+03 -0.16927106606E+04  0.23303901057E+04  0.10100000352E+00 0.  1.
</event>
<event>
 5   0  0.1121462E-08  0.3500049E+04  0.7818609E-02  0.8113778E-01
       -1   -1    0    0    0  501  0.00000000000E+00  0.00000000000E+00  0.15346240093E+04  0.15346240093E+04  0.50400001928E-02 0. -1.
        1   -1    0    0  501    0  0.00000000000E+00  0.00000000000E+00 -0.19956589960E+04  0.19956589960E+04  0.50400001928E-02 0.  1.
    10030    2    1    2    0    0  0.00000000000E+00  0.00000000000E+00 -0.46103498666E+03  0.35302830053E+04  0.35000492623E+04 0.  0.
        4    1    3    3  502    0 -0.69347805925E+03 -0.12833044977E+04 -0.12057210161E+04  0.18924975651E+04  0.12699999809E+01 0.  1.
       -4    1    3    3    0  502  0.69347805925E+03  0.12833044977E+04  0.74468602942E+03  0.16377854401E+04  0.12699999809E+01 0. -1.
</event>
<event>
 5   0  0.1121462E-08  0.3499339E+04  0.7818609E-02  0.8113947E-01
       -1   -1    0    0    0  501  0.00000000000E+00  0.00000000000E+00  0.11485676642E+04  0.11485676643E+04  0.50400001928E-02 0. -1.
        1   -1    0    0  501    0  0.00000000000E+00  0.00000000000E+00 -0.26653579507E+04  0.26653579507E+04  0.50400001928E-02 0.  1.
    10030    2    1    2    0    0  0.00000000000E+00  0.00000000000E+00 -0.15167902864E+04  0.38139256149E+04  0.34993393409E+04 0.  0.
        4    1    3    3  502    0  0.22198960860E+03  0.98052505179E+03 -0.23191338156E+04  0.25276653321E+04  0.12699999809E+01 0.  1.
       -4    1    3    3    0  502 -0.22198960860E+03 -0.98052505179E+03  0.80234352916E+03  0.12862602828E+04  0.12699999809E+01 0. -1.
</event>
<event>
 5   0  0.1121462E-08  0.3499963E+04  0.7818609E-02  0.8113799E-01
       -1   -1    0    0    0  501  0.00000000000E+00  0.00000000000E+00  0.25975482994E+04  0.25975482994E+04  0.50400001928E-02 0. -1.
        1   -1    0    0  501    0  0.00000000000E+00  0.00000000000E+00 -0.11789715843E+04  0.11789715843E+04  0.50400001928E-02 0.  1.
    10030    2    1    2    0    0  0.00000000000E+00  0.00000000000E+00  0.14185767151E+04  0.37765198837E+04  0.34999632191E+04 0.  0.
        4    1    3    3  502    0  0.99685806715E+03  0.28465541995E+03 -0.81196466257E+03  0.13168306422E+04  0.12699999809E+01 0.  1.
       -4    1    3    3    0  502 -0.99685806715E+03 -0.28465541995E+03  0.22305413776E+04  0.24596892414E+04  0.12699999809E+01 0. -1.
</event>
<event>
 5   0  0.1140808E-08  0.3501042E+04  0.7818609E-02  0.8113543E-01
        1   -1    0    0  501    0  0.00000000000E+00  0.00000000000E+00  0.30862726420E+04  0.30862726420E+04  0.50400001928E-02 0. -1.
       -1   -1    0    0    0  501  0.00000000000E+00  0.00000000000E+00 -0.99288837503E+03  0.99288837504E+03  0.50400001928E-02 0.  1.
    10030    2    1    2    0    0  0.00000000000E+00  0.00000000000E+00  0.20933842670E+04  0.40791610171E+04  0.35010422611E+04 0.  0.
        3    1    3    3  502    0  0.93456221878E+02 -0.16530526925E+04  0.38450699740E+03  0.16997537795E+04  0.10100000352E+00 0.  1.
       -3    1    3    3    0  502 -0.93456221878E+02  0.16530526925E+04  0.17088772696E+04  0.23794072376E+04  0.10100000352E+00 0. -1.
</event>
<event>
 5   0  0.3554451E-08  0.3499780E+04  0.7818609E-02  0.8113842E-01
        2   -1    0    0  501    0  0.00000000000E+00  0.00000000000E+00  0.22066889449E+04  0.22066889449E+04  0.25500000920E-02 0.  1.
       -2   -1    0    0    0  501  0.00000000000E+00  0.00000000000E+00 -0.13876514749E+04  0.13876514749E+04  0.25500000920E-02 0. -1.
    10030    2    1    2    0    0  0.00000000000E+00  0.00000000000E+00  0.81903747000E+03  0.35943404199E+04  0.34997800898E+04 0.  0.
        5    1    3    3  502    0  0.70030962315E+02  0.12861438897E+04  0.16260150282E+04  0.20743715681E+04  0.46999998093E+01 0.  1.
       -5    1    3    3    0  502 -0.70030962315E+02 -0.12861438897E+04 -0.80697755820E+03  0.15199688517E+04  0.46999998093E+01 0. -1.
</event>
<event>
 5   0  0.3553585E-08  0.3500758E+04  0.7818609E-02  0.8113610E-01
        2   -1    0    0  501    0  0.00000000000E+00  0.00000000000E+00  0.12693801285E+04  0.12693801285E+04  0.25500000920E-02 0. -1.
       -2   -1    0    0    0  501  0.00000000000E+00  0.00000000000E+00 -0.24136400043E+04  0.24136400043E+04  0.25500000920E-02 0.  1.
    10030    2    1    2    0    0  0.00000000000E+00  0.00000000000E+00 -0.11442598759E+04  0.36830201328E+04  0.35007580086E+04 0.  0.
        2    1    3    3  502    0 -0.57634416625E+03 -0.10709541898E+04 -0.18965235073E+04  0.22529795579E+04  0.25500000920E-02 0.  1.
       -2    1    3    3    0  502  0.57634416625E+03  0.10709541898E+04  0.75226363144E+03  0.14300405749E+04  0.25500000920E-02 0. -1.
</event>
<event>
 5   0  0.1121462E-08  0.3498503E+04  0.7818609E-02  0.8114145E-01
        1   -1    0    0  501    0  0.00000000000E+00  0.00000000000E+00  0.18588053604E+04  0.18588053604E+04  0.50400001928E-02 0. -1.
       -1   -1    0    0    0  501  0.00000000000E+00  0.00000000000E+00 -0.16461540909E+04  0.16461540909E+04  0.50400001928E-02 0.  1.
    10030    2    1    2    0    0  0.00000000000E+00  0.00000000000E+00  0.21265126955E+03  0.35049594513E+04  0.34985025644E+04 0.  0.
        2    1    3    3  502    0  0.60630045544E+03  0.25575695209E+03 -0.15174272735E+04  0.16539641445E+04  0.25500000920E-02 0.  1.
       -2    1    3    3    0  502 -0.60630045544E+03 -0.25575695209E+03  0.17300785431E+04  0.18509953069E+04  0.25500000920E-02 0. -1.
</event>
<event>
 5   0  0.1121462E-08  0.3493710E+04  0.7818609E-02  0.8115282E-01
       -1   -1    0    0    0  501  0.00000000000E+00  0.00000000000E+00  0.15544066866E+04  0.15544066866E+04  0.50400001928E-02 0.  1.
        1   -1    0    0  501    0  0.00000000000E+00  0.00000000000E+00 -0.19631299562E+04  0.19631299562E+04  0.50400001928E-02 0. -1.
    10030    2    1    2    0    0  0.00000000000E+00  0.00000000000E+00 -0.40872326955E+03  0.35175366428E+04  0.34937099654E+04 0.  0.
        1    1    3    3  502    0  0.64044833988E+03  0.16061946959E+04  0.45254280376E+02  0.17297639802E+04  0.50400001928E-02 0. -1.
       -1    1    3    3    0  502 -0.64044833988E+03 -0.16061946959E+04 -0.45397754993E+03  0.17877726626E+04  0.50400001928E-02 0.  1.
</event>
<event>
 5   0  0.1140808E-08  0.3503120E+04  0.7818609E-02  0.8113051E-01
       -1   -1    0    0    0  501  0.00000000000E+00  0.00000000000E+00  0.17618709787E+04  0.17618709787E+04  0.50400001928E-02 0. -1.
        1   -1    0    0  501    0  0.00000000000E+00  0.00000000000E+00 -0.17413097528E+04  0.17413097528E+04  0.50400001928E-02 0.  1.
    10030    2    1    2    0    0  0.00000000000E+00  0.00000000000E+00  0.20561225878E+02  0.35031807314E+04  0.35031203909E+04 0.  0.
        3    1    3    3  502    0 -0.10404237012E+03  0.58025015326E+03 -0.16391258779E+04  0.17419095008E+04  0.10100000352E+00 0.  1.
       -3    1    3    3    0  502  0.10404237012E+03 -0.58025015326E+03  0.16596871038E+04  0.17612712306E+04  0.10100000352E+00 0. -1.
</event>
<event>
 5   0  0.1121462E-08  0.3499631E+04  0.7818609E-02  0.8113877E-01
        1   -1    0    0  501    0  0.00000000000E+00  0.00000000000E+00  0.20424913564E+04  0.20424913565E+04  0.50400001928E-02 0.  1.
       -1   -1    0    0    0  501  0.00000000000E+00  0.00000000000E+00 -0.14990783999E+04  0.14990783999E+04  0.50400001928E-02 0. -1.
    10030    2    1    2    0    0  0.00000000000E+00  0.00000000000E+00  0.54341295651E+03  0.35415697564E+04  0.34996312232E+04 0.  0.
        1    1    3    3  502    0 -0.12339331406E+04 -0.46862217191E+02  0.15263490030E+04  0.19632952763E+04  0.50400001928E-02 0.  1.
       -1    1    3    3    0  502  0.12339331406E+04  0.46862217191E+02 -0.98293604648E+03  0.15782744801E+04  0.50400001928E-02 0. -1.
</event>
<event>
 5   0  0.1121462E-08  0.3499323E+04  0.7818609E-02  0.8113950E-01
       -1   -1    0    0    0  501  0.00000000000E+00  0.00000000000E+00  0.15302314402E+04  0.15302314402E+04  0.50400001928E-02 0. -1.
        1   -1    0    0  501    0  0.00000000000E+00  0.00000000000E+00 -0.20005568285E+04  0.20005568285E+04  0.50400001928E-02 0.  1.
    10030    2    1    2    0    0  0.00000000000E+00  0.00000000000E+00 -0.47032538825E+03  0.35307882687E+04  0.34993227670E+04 0.  0.
        4    1    3    3  502    0  0.76566406148E+03 -0.13946840185E+04 -0.96967023827E+03  0.18632356133E+04  0.12699999809E+01 0.  1.
       -4    1    3    3    0  502 -0.76566406148E+03  0.13946840185E+04  0.49934485002E+03  0.16675526555E+04  0.12699999809E+01 0. -1.
</event>
<event>
 5   0  0.1121462E-08  0.3499327E+04  0.7818609E-02  0.8113949E-01
        1   -1    0    0  501    0  0.00000000000E+00  0.00000000000E+00  0.17872390512E+04  0.17872390512E+04  0.50400001928E-02 0.  1.
       -1   -1    0    0    0  501  0.00000000000E+00  0.00000000000E+00 -0.17128779860E+04  0.17128779860E+04  0.50400001928E-02 0. -1.
    10030    2    1    2    0    0  0.00000000000E+00  0.00000000000E+00  0.74361065122E+02  0.35001170372E+04  0.34993270362E+04 0.  0.
        4    1    3    3  502    0 -0.63677594482E+03 -0.66300951718E+03  0.15262259911E+04  0.17816937483E+04  0.12699999809E+01 0.  1.
       -4    1    3    3    0  502  0.63677594482E+03  0.66300951718E+03 -0.14518649260E+04  0.17184232889E+04  0.12699999809E+01 0. -1.
</event>
<event>
 5   0  0.1140808E-08  0.3499120E+04  0.7818609E-02  0.8113999E-01
       -1   -1    0    0    0  501  0.00000000000E+00  0.00000000000E+00  0.10369479451E+04  0.10369479452E+04  0.50400001928E-02 0. -1.
        1   -1    0    0  501    0  0.00000000000E+00  0.00000000000E+00 -0.29518932762E+04  0.29518932762E+04  0.50400001928E-02 0.  1.
    10030    2    1    2    0    0  0.00000000000E+00  0.00000000000E+00 -0.19149453310E+04  0.39888412213E+04  0.34991196990E+04 0.  0.
        3    1    3    3  502    0 -0.46773960302E+03 -0.81982049395E+03 -0.26367606852E+04  0.28006058094E+04  0.10100000352E+00 0.  1.
       -3    1    3    3    0  502  0.46773960302E+03  0.81982049395E+03  0.72181535414E+03  0.11882354120E+04  0.10100000352E+00 0. -1.
</event>
<event>
 5   0  0.3553585E-08  0.3500668E+04  0.7818609E-02  0.8113632E-01
        2   -1    0    0  501    0  0.00000000000E+00  0.00000000000E+00  0.16050426867E+04  0.16050426867E+04  0.25500000920E-02 0. -1.
       -2   -1    0    0    0  501  0.00000000000E+00  0.00000000000E+00 -0.19087771833E+04  0.19087771833E+04  0.25500000920E-02 0.  1.
    10030    2    1    2    0    0  0.00000000000E+00  0.00000000000E+00 -0.30373449661E+03  0.35138198700E+04  0.35006678555E+04 0.  0.
        2    1    3    3  502    0  0.74513922484E+03 -0.96878789410E+03  0.11057911715E+04  0.16481979745E+04  0.25500000920E-02 0. -1.
       -2    1    3    3    0  502 -0.74513922484E+03  0.96878789410E+03 -0.14095256681E+04  0.18656218955E+04  0.25500000920E-02 0.  1.
</event>
<event>
 5   0  0.1121462E-08  0.3499730E+04  0.7818609E-02  0.8113854E-01
        3   -1    0    0  501    0  0.00000000000E+00  0.00000000000E+00  0.27290664065E+04  0.27290664083E+04  0.10100000352E+00 0.  1.
       -3   -1    0    0    0  501  0.00000000000E+00  0.00000000000E+00 -0.11220054558E+04  0.11220054604E+04  0.10100000352E+00 0. -1.
    10030    2    1    2    0    0  0.00000000000E+00  0.00000000000E+00  0.16070609507E+04  0.38510718687E+04  0.34997299380E+04 0.  0.
        4    1    3    3  502    0  0.16866424326E+04  0.45124157999E+03  0.93206510155E+03  0.19791737229E+04  0.12699999809E+01 0.  1.
       -4    1    3    3    0  502 -0.16866424326E+04 -0.45124157999E+03  0.67499584910E+03  0.18718981458E+04  0.12699999809E+01 0. -1.
</event>
<event>
 5   0  0.3628017E-08  0.3491445E+04  0.7818609E-02  0.8115820E-01
       -2   -1    0    0    0  501  0.00000000000E+00  0.00000000000E+00  0.21086317309E+04  0.21086317309E+04  0.25500000920E-02 0. -1.
        2   -1    0    0  501    0  0.00000000000E+00  0.00000000000E+00 -0.14452723584E+04  0.14452723584E+04  0.25500000920E-02 0.  1.
    10030    2    1    2    0    0  0.00000000000E+00  0.00000000000E+00  0.66335937252E+03  0.35539040893E+04  0.34914450616E+04 0.  0.
        1    1    3    3  502    0  0.13784009899E+04  0.91600009617E+03 -0.23368576236E+03  0.16714228970E+04  0.50400001928E-02 0.  1.
       -1    1    3    3    0  502 -0.13784009899E+04 -0.91600009617E+03  0.89704513487E+03  0.18824811922E+04  0.50400001928E-02 0. -1.
</event>
<event>
 5   0  0.1140808E-08  0.3490334E+04  0.7818609E-02  0.8116084E-01
        1   -1    0    0  501    0  0.00000000000E+00  0.00000000000E+00  0.23815096579E+04  0.23815096579E+04  0.50400001928E-02 0. -1.
       -1   -1    0    0    0  501  0.00000000000E+00  0.00000000000E+00 -0.12788560867E+04  0.12788560867E+04  0.50400001928E-02 0.  1.
    10030    2    1    2    0    0  0.00000000000E+00  0.00000000000E+00  0.11026535712E+04  0.36603657446E+04  0.34903341511E+04 0.  0.
        3    1    3    3  502    0 -0.83710608664E+03 -0.15219484310E+04  0.37417624117E+03  0.17768178006E+04  0.10100000352E+00 0.  1.
       -3    1    3    3    0  502  0.83710608664E+03  0.15219484310E+04  0.72847733002E+03  0.18835479440E+04  0.10100000352E+00 0. -1.
</event>
<event>
 5   0  0.3628017E-08  0.3499366E+04  0.7818609E-02  0.8113940E-01
        2   -1    0    0  501    0  0.00000000000E+00  0.00000000000E+00  0.15139420655E+04  0.15139420655E+04  0.25500000920E-02 0. -1.
       -2   -1    0    0    0  501  0.00000000000E+00  0.00000000000E+00 -0.20221321671E+04  0.20221321671E+04  0.25500000920E-02 0.  1.
    10030    2    1    2    0    0  0.00000000000E+00  0.00000000000E+00 -0.50819010154E+03  0.35360742326E+04  0.34993661996E+04 0.  0.
        1    1    3    3  502    0  0.58425730483E+03  0.15949125989E+04  0.17017614216E+03  0.17070625987E+04  0.50400001928E-02 0. -1.
       -1    1    3    3    0  502 -0.58425730483E+03 -0.15949125989E+04 -0.67836624369E+03  0.18290116339E+04  0.50400001928E-02 0.  1.
</event>
<event>
 5   0  0.1121462E-08  0.3500527E+04  0.7818609E-02  0.8113665E-01
       -1   -1    0    0    0  501  0.00000000000E+00  0.00000000000E+00  0.10503102390E+04  0.10503102391E+04  0.50400001928E-02 0. -1.
        1   -1    0    0  501    0  0.00000000000E+00  0.00000000000E+00 -0.29166825378E+04  0.29166825378E+04  0.50400001928E-02 0.  1.
    10030    2    1    2    0    0  0.00000000000E+00  0.00000000000E+00 -0.18663722988E+04  0.39669927769E+04  0.35005265510E+04 0.  0.
        1    1    3    3  502    0  0.99318340635E+03  0.99234605186E+03  0.25119248671E+03  0.14262754400E+04  0.50400001928E-02 0. -1.
       -1    1    3    3    0  502 -0.99318340635E+03 -0.99234605186E+03 -0.21175647855E+04  0.25407173369E+04  0.50400001928E-02 0.  1.
</event>
<event>
 5   0  0.3554451E-08  0.3505239E+04  0.7818609E-02  0.8112549E-01
        2   -1    0    0  501    0  0.00000000000E+00  0.00000000000E+00  0.13892140880E+04  0.13892140880E+04  0.25500000920E-02 0. -1.
       -2   -1    0    0    0  501  0.00000000000E+00  0.00000000000E+00 -0.22110888462E+04  0.22110888462E+04  0.25500000920E-02 0.  1.
    10030    2    1    2    0    0  0.00000000000E+00  0.00000000000E+00 -0.82187475822E+03  0.36003029342E+04  0.35052393783E+04 0.  0.
        5    1    3    3  502    0  0.97623263201E+03  0.52924443945E+03  0.98175755935E+03  0.14822279932E+04  0.46999998093E+01 0. -1.
       -5    1    3    3    0  502 -0.97623263201E+03 -0.52924443945E+03 -0.18036323176E+04  0.21180749410E+04  0.46999998093E+01 0.  1.
</event>
<event>
 5   0  0.1121462E-08  0.3518336E+04  0.7818609E-02  0.8109458E-01
        1   -1    0    0  501    0  0.00000000000E+00  0.00000000000E+00  0.21306337359E+04  0.21306337359E+04  0.50400001928E-02 0. -1.
       -1   -1    0    0    0  501  0.00000000000E+00  0.00000000000E+00 -0.14524655202E+04  0.14524655202E+04  0.50400001928E-02 0.  1.
    10030    2    1    2    0    0  0.00000000000E+00  0.00000000000E+00  0.67816821572E+03  0.35830992561E+04  0.35183359916E+04 0.  0.
        2    1    3    3  502    0 -0.38605631347E+03  0.45276044484E+03  0.20250452721E+04  0.21106491541E+04  0.25500000920E-02 0. -1.
       -2    1    3    3    0  502  0.38605631347E+03 -0.45276044484E+03 -0.13468770564E+04  0.14724501019E+04  0.25500000920E-02 0.  1.
</event>
<event>
 5   0  0.3467834E-08  0.3501510E+04  0.7818609E-02  0.8113432E-01
       -2   -1    0    0    0  501  0.00000000000E+00  0.00000000000E+00  0.17934578626E+04  0.17934578626E+04  0.25500000920E-02 0. -1.
        2   -1    0    0  501    0  0.00000000000E+00  0.00000000000E+00 -0.17090689867E+04  0.17090689867E+04  0.25500000920E-02 0.  1.
    10030    2    1    2    0    0  0.00000000000E+00  0.00000000000E+00  0.84388875935E+02  0.35025268492E+04  0.35015100810E+04 0.  0.
        3    1    3    3  502    0  0.61465639480E+03  0.81020041588E+03 -0.13833214861E+04  0.17169174534E+04  0.10100000352E+00 0.  1.
       -3    1    3    3    0  502 -0.61465639480E+03 -0.81020041588E+03  0.14677103621E+04  0.17856093959E+04  0.10100000352E+00 0. -1.
</event>
<event>
 5   0  0.3553585E-08  0.3498824E+04  0.7818609E-02  0.8114069E-01
       -2   -1    0    0    0  501  0.00000000000E+00  0.00000000000E+00  0.11595369619E+04  0.11595369619E+04  0.25500000920E-02 0. -1.
        2   -1    0    0  501    0  0.00000000000E+00  0.00000000000E+00 -0.26393659488E+04  0.26393659488E+04  0.25500000920E-02 0.  1.
    10030    2    1    2    0    0  0.00000000000E+00  0.00000000000E+00 -0.14798289870E+04  0.37989029107E+04  0.34988240159E+04 0.  0.
        2    1    3    3  502    0  0.76754960135E+03  0.56954712194E+03  0.85099194405E+03  0.12797279412E+04  0.25500000920E-02 0. -1.
       -2    1    3    3    0  502 -0.76754960135E+03 -0.56954712194E+03 -0.23308209310E+04  0.25191749695E+04  0.25500000920E-02 0.  1.
</event>
<event>
 5   0  0.1121462E-08  0.3492345E+04  0.7818609E-02  0.8115606E-01
        1   -1    0    0  501    0  0.00000000000E+00  0.00000000000E+00  0.19834192090E+04  0.19834192090E+04  0.50400001928E-02 0.  1.
       -1   -1    0    0    0  501  0.00000000000E+00  0.00000000000E+00 -0.15373040480E+04  0.15373040480E+04  0.50400001928E-02 0. -1.
    10030    2    1    2    0    0  0.00000000000E+00  0.00000000000E+00  0.44611516104E+03  0.35207232571E+04  0.34923449881E+04 0.  0.
        2    1    3    3  502    0  0.10972715742E+04  0.11960482570E+04  0.87217010963E+03  0.18426114730E+04  0.25500000920E-02 0.  1.
       -2    1    3    3    0  502 -0.10972715742E+04 -0.11960482570E+04 -0.42605494860E+03  0.16781117840E+04  0.25500000920E-02 0. -1.
</event>
<event>
 5   0  0.3554451E-08  0.3493396E+04  0.7818609E-02  0.8115357E-01
        2   -1    0    0  501    0  0.00000000000E+00  0.00000000000E+00  0.22480714250E+04  0.22480714250E+04  0.25500000920E-02 0. -1.
       -2   -1    0    0    0  501  0.00000000000E+00  0.00000000000E+00 -0.13571425213E+04  0.13571425213E+04  0.25500000920E-02 0.  1.
    10030    2    1    2    0    0  0.00000000000E+00  0.00000000000E+00  0.89092890367E+03  0.36052139463E+04  0.34933956671E+04 0.  0.
        5    1    3    3  502    0 -0.25620856411E+03 -0.10655206353E+04 -0.95820145300E+03  0.14557297713E+04  0.46999998093E+01 0.  1.
       -5    1    3    3    0  502  0.25620856411E+03  0.10655206353E+04  0.18491303567E+04  0.21494841750E+04  0.46999998093E+01 0. -1.
</event>
<event>
 5   0  0.3554451E-08  0.3503463E+04  0.7818609E-02  0.8112970E-01
        2   -1    0    0  501    0  0.00000000000E+00  0.00000000000E+00  0.20719458922E+04  0.20719458922E+04  0.25500000920E-02 0. -1.
       -2   -1    0    0    0  501  0.00000000000E+00  0.00000000000E+00 -0.14810053176E+04  0.14810053176E+04  0.25500000920E-02 0.  1.
    10030    2    1    2    0    0  0.00000000000E+00  0.00000000000E+00  0.59094057459E+03  0.35529512099E+04  0.35034627923E+04 0.  0.
        5    1    3    3  502    0 -0.92509913362E+03 -0.14504616832E+04  0.63012141998E+03  0.18321360745E+04  0.46999998093E+01 0. -1.
       -5    1    3    3    0  502  0.92509913362E+03  0.14504616832E+04 -0.39180845396E+02  0.17208151354E+04  0.46999998093E+01 0.  1.
</event>
<event>
 5   0  0.3467834E-08  0.3499522E+04  0.7818609E-02  0.8113903E-01
       -2   -1    0    0    0  501  0.00000000000E+00  0.00000000000E+00  0.14475865888E+04  0.14475865888E+04  0.25500000920E-02 0.  1.
        2   -1    0    0  501    0  0.00000000000E+00  0.00000000000E+00 -0.21150125056E+04  0.21150125056E+04  0.25500000920E-02 0. -1.
    10030    2    1    2    0    0  0.00000000000E+00  0.00000000000E+00 -0.66742591676E+03  0.35625990944E+04  0.34995221036E+04 0.  0.
        3    1    3    3  502    0  0.44481791416E+03  0.81980453512E+03  0.11734175942E+04  0.14989500703E+04  0.10100000352E+00 0.  1.
       -3    1    3    3    0  502 -0.44481791416E+03 -0.81980453512E+03 -0.18408435110E+04  0.20636490241E+04  0.10100000352E+00 0. -1.
</event>
<event>
 5   0  0.3628017E-08  0.3500335E+04  0.7818609E-02  0.8113710E-01
       -2   -1    0    0    0  501  0.00000000000E+00  0.00000000000E+00  0.21712210323E+04  0.21712210323E+04  0.25500000920E-02 0. -1.
        2   -1    0    0  501    0  0.00000000000E+00  0.00000000000E+00 -0.14107670584E+04  0.14107670584E+04  0.25500000920E-02 0.  1.
    10030    2    1    2    0    0  0.00000000000E+00  0.00000000000E+00  0.76045397394E+03  0.35819880907E+04  0.35003354747E+04 0.  0.
        1    1    3    3  502    0 -0.51853428714E+03  0.75587438801E+03  0.19059329278E+04  0.21149005231E+04  0.50400001928E-02 0. -1.
       -1    1    3    3    0  502  0.51853428714E+03 -0.75587438801E+03 -0.11454789538E+04  0.14670875676E+04  0.50400001928E-02 0.  1.
</event>
<event>
 5   0  0.1129219E-08  0.3502398E+04  0.7818609E-02  0.8113222E-01
       -1   -1    0    0    0  501  0.00000000000E+00  0.00000000000E+00  0.17395020322E+04  0.17395020322E+04  0.50400001928E-02 0. -1.
        1   -1    0    0  501    0  0.00000000000E+00  0.00000000000E+00 -0.17629745695E+04  0.17629745695E+04  0.50400001928E-02 0.  1.
    10030    2    1    2    0    0  0.00000000000E+00  0.00000000000E+00 -0.23472537307E+02  0.35024766017E+04  0.35023979479E+04 0.  0.
        5    1    3    3  502    0  0.34505869886E+03  0.10405781325E+03 -0.17254789935E+04  0.17627232855E+04  0.46999998093E+01 0.  1.
       -5    1    3    3    0  502 -0.34505869886E+03 -0.10405781325E+03  0.17020064562E+04  0.17397533162E+04  0.46999998093E+01 0. -1.
</event>
<event>
 5   0  0.1121462E-08  0.3500409E+04  0.7818609E-02  0.8113693E-01
        1   -1    0    0  501    0  0.00000000000E+00  0.00000000000E+00  0.20677169095E+04  0.20677169095E+04  0.50400001928E-02 0.  1.
       -1   -1    0    0    0  501  0.00000000000E+00  0.00000000000E+00 -0.14814484925E+04  0.14814484925E+04  0.50400001928E-02 0. -1.
    10030    2    1    2    0    0  0.00000000000E+00  0.00000000000E+00  0.58626841703E+03  0.35491654020E+04  0.35004091752E+04 0.  0.
        1    1    3    3  502    0 -0.17235562576E+04  0.14077573375E+03  0.56661715278E+03  0.18197579449E+04  0.50400001928E-02 0.  1.
       -1    1    3    3    0  502  0.17235562576E+04 -0.14077573375E+03  0.19651264257E+02  0.17294074571E+04  0.50400001928E-02 0. -1.
</event>
<event>
 5   0  0.3553585E-08  0.3500139E+04  0.7818609E-02  0.8113757E-01
       -2   -1    0    0    0  501  0.00000000000E+00  0.00000000000E+00  0.14716480764E+04  0.14716480764E+04  0.25500000920E-02 0.  1.
        2   -1    0    0  501    0  0.00000000000E+00  0.00000000000E+00 -0.20811655611E+04  0.20811655611E+04  0.25500000920E-02 0. -1.
    10030    2    1    2    0    0  0.00000000000E+00  0.00000000000E+00 -0.60951748470E+03  0.35528136375E+04  0.35001390228E+04 0.  0.
        2    1    3    3  502    0  0.66555625927E+03  0.95533459220E+03 -0.16309873503E+04  0.20039333956E+04  0.25500000920E-02 0. -1.
       -2    1    3    3    0  502 -0.66555625927E+03 -0.95533459220E+03  0.10214698656E+04  0.15488802419E+04  0.25500000920E-02 0.  1.
</event>
<event>
 5   0  0.1121462E-08  0.3499737E+04  0.7818609E-02  0.8113852E-01
        1   -1    0    0  501    0  0.00000000000E+00  0.00000000000E+00  0.18374902257E+04  0.18374902257E+04  0.50400001928E-02 0. -1.
       -1   -1    0    0    0  501  0.00000000000E+00  0.00000000000E+00 -0.16664253994E+04  0.16664253995E+04  0.50400001928E-02 0.  1.
    10030    2    1    2    0    0  0.00000000000E+00  0.00000000000E+00  0.17106482628E+03  0.35039156252E+04  0.34997373521E+04 0.  0.
        2    1    3    3  502    0  0.53073561025E+03 -0.15863198788E+04  0.59990578184E+03  0.17770700585E+04  0.25500000920E-02 0.  1.
       -2    1    3    3    0  502 -0.53073561025E+03  0.15863198788E+04 -0.42884095555E+03  0.17268455666E+04  0.25500000920E-02 0. -1.
</event>
<event>
 5   0  0.3467834E-08  0.3499239E+04  0.7818609E-02  0.8113970E-01
       -2   -1    0    0    0  501  0.00000000000E+00  0.00000000000E+00  0.13027437848E+04  0.13027437848E+04  0.25500000920E-02 0.  1.
        2   -1    0    0  501    0  0.00000000000E+00  0.00000000000E+00 -0.23497851932E+04  0.23497851932E+04  0.25500000920E-02 0. -1.
    10030    2    1    2    0    0  0.00000000000E+00  0.00000000000E+00 -0.10470414085E+04  0.36525289780E+04  0.34992388064E+04 0.  0.
        3    1    3    3  502    0 -0.79259285677E+03  0.12446549656E+04 -0.15048092944E+04  0.21075626782E+04  0.10100000352E+00 0. -1.
       -3    1    3    3    0  502  0.79259285677E+03 -0.12446549656E+04  0.45776788593E+03  0.15449662998E+04  0.10100000352E+00 0.  1.
</event>
<event>
 5   0  0.3554451E-08  0.3498209E+04  0.7818609E-02  0.8114215E-01
       -2   -1    0    0    0  501  0.00000000000E+00  0.00000000000E+00  0.12334880809E+04  0.12334880809E+04  0.25500000920E-02 0. -1.
        2   -1    0    0  501    0  0.00000000000E+00  0.00000000000E+00 -0.24802556536E+04  0.24802556536E+04  0.25500000920E-02 0.  1.
    10030    2    1    2    0    0  0.00000000000E+00  0.00000000000E+00 -0.12467675726E+04  0.37137437345E+04  0.34982085623E+04 0.  0.
        5    1    3    3  502    0 -0.45797128981E+03 -0.14846664683E+04  0.22946319319E+03  0.15705564846E+04  0.46999998093E+01 0. -1.
       -5    1    3    3    0  502  0.45797128981E+03  0.14846664683E+04 -0.14762307658E+04  0.21431872499E+04  0.46999998093E+01 0.  1.
</event>
<event>
 5   0  0.1129219E-08  0.3499458E+04  0.7818609E-02  0.8113918E-01
        1   -1    0    0  501    0  0.00000000000E+00  0.00000000000E+00  0.21366313897E+04  0.21366313897E+04  0.50400001928E-02 0. -1.
       -1   -1    0    0    0  501  0.00000000000E+00  0.00000000000E+00 -0.14328875035E+04  0.14328875035E+04  0.50400001928E-02 0.  1.
    10030    2    1    2    0    0  0.00000000000E+00  0.00000000000E+00  0.70374388617E+03  0.35695188932E+04  0.34994584827E+04 0.  0.
        5    1    3    3  502    0  0.11571688031E+04  0.43030380257E+03 -0.91284196801E+03  0.15354164093E+04  0.46999998093E+01 0.  1.
       -5    1    3    3    0  502 -0.11571688031E+04 -0.43030380257E+03  0.16165858542E+04  0.20341024840E+04  0.46999998093E+01 0. -1.
</event>
<event>
 5   0  0.1129219E-08  0.3500117E+04  0.7818609E-02  0.8113762E-01
        1   -1    0    0  501    0  0.00000000000E+00  0.00000000000E+00  0.95213189942E+03  0.95213189944E+03  0.50400001928E-02 0.  1.
       -1   -1    0    0    0  501  0.00000000000E+00  0.00000000000E+00 -0.32166804049E+04  0.32166804049E+04  0.50400001928E-02 0. -1.
    10030    2    1    2    0    0  0.00000000000E+00  0.00000000000E+00 -0.22645485055E+04  0.41688123043E+04  0.35001165831E+04 0.  0.
        5    1    3    3  502    0  0.47309491936E+03 -0.73213664052E+03 -0.29397048349E+04  0.30662239758E+04  0.46999998093E+01 0. -1.
       -5    1    3    3    0  502 -0.47309491936E+03  0.73213664052E+03  0.67515632944E+03  0.11025883286E+04  0.46999998093E+01 0.  1.
</event>
<event>
 5   0  0.3628017E-08  0.3499047E+04  0.7818609E-02  0.8114016E-01
       -2   -1    0    0    0  501  0.00000000000E+00  0.00000000000E+00  0.13993826419E+04  0.13993826419E+04  0.25500000920E-02 0. -1.
        2   -1    0    0  501    0  0.00000000000E+00  0.00000000000E+00 -0.21872737934E+04  0.21872737934E+04  0.25500000920E-02 0.  1.
    10030    2    1    2    0    0  0.00000000000E+00  0.00000000000E+00 -0.78789115154E+03  0.35866564353E+04  0.34990472872E+04 0.  0.
        1    1    3    3  502    0 -0.37926637996E+03 -0.62135805032E+03 -0.20246596382E+04  0.21515518735E+04  0.50400001928E-02 0.  1.
       -1    1    3    3    0  502  0.37926637996E+03  0.62135805032E+03  0.12367684867E+04  0.14351045618E+04  0.50400001928E-02 0. -1.
</event>
<event>
 5   0  0.3700096E-08  0.3497634E+04  0.7818609E-02  0.8114351E-01
        2   -1    0    0  501    0  0.00000000000E+00  0.00000000000E+00  0.16790007855E+04  0.16790007855E+04  0.25500000920E-02 0. -1.
       -2   -1    0    0    0  501  0.00000000000E+00  0.00000000000E+00 -0.18215363613E+04  0.18215363613E+04  0.25500000920E-02 0.  1.
    10030    2    1    2    0    0  0.00000000000E+00  0.00000000000E+00 -0.14253557579E+03  0.35005371469E+04  0.34976340469E+04 0.  0.
        4    1    3    3  502    0 -0.17267273812E+03  0.69546420583E+03  0.15253221306E+04  0.16852583039E+04  0.12699999809E+01 0. -1.
       -4    1    3    3    0  502  0.17267273812E+03 -0.69546420583E+03 -0.16678577064E+04  0.18152788429E+04  0.12699999809E+01 0.  1.
</event>
<event>
 5   0  0.1121462E-08  0.3500500E+04  0.7818609E-02  0.8113672E-01
       -1   -1    0    0    0  501  0.00000000000E+00  0.00000000000E+00  0.22799940703E+04  0.22799940703E+04  0.50400001928E-02 0. -1.
        1   -1    0    0  501    0  0.00000000000E+00  0.00000000000E+00 -0.13435886978E+04  0.13435886978E+04  0.50400001928E-02 0.  1.
    10030    2    1    2    0    0  0.00000000000E+00  0.00000000000E+00  0.93640537253E+03  0.36235827681E+04  0.35004995437E+04 0.  0.
        2    1    3    3  502    0  0.16378433545E+04 -0.35311586927E+03  0.99211371228E+03  0.19471803432E+04  0.25500000920E-02 0. -1.
       -2    1    3    3    0  502 -0.16378433545E+04  0.35311586927E+03 -0.55708339745E+02  0.16764024249E+04  0.25500000920E-02 0.  1.
</event>
<event>
 5   0  0.1121462E-08  0.3503184E+04  0.7818609E-02  0.8113036E-01
       -1   -1    0    0    0  501  0.00000000000E+00  0.00000000000E+00  0.19443592913E+04  0.19443592913E+04  0.50400001928E-02 0.  1.
        1   -1    0    0  501    0  0.00000000000E+00  0.00000000000E+00 -0.15779359471E+04  0.15779359471E+04  0.50400001928E-02 0. -1.
    10030    2    1    2    0    0  0.00000000000E+00  0.00000000000E+00  0.36642334415E+03  0.35222952384E+04  0.35031839345E+04 0.  0.
        4    1    3    3  502    0  0.11109174812E+04  0.12900506177E+03 -0.11722126491E+04  0.16201432232E+04  0.12699999809E+01 0. -1.
       -4    1    3    3    0  502 -0.11109174812E+04 -0.12900506177E+03  0.15386359933E+04  0.19021520152E+04  0.12699999809E+01 0.  1.
</event>
<event>
 5   0  0.3554451E-08  0.3494941E+04  0.7818609E-02  0.8114990E-01
       -2   -1    0    0    0  501  0.00000000000E+00  0.00000000000E+00  0.13337757575E+04  0.13337757575E+04  0.25500000920E-02 0.  1.
        2   -1    0    0  501    0  0.00000000000E+00  0.00000000000E+00 -0.22894801629E+04  0.22894801629E+04  0.25500000920E-02 0. -1.
    10030    2    1    2    0    0  0.00000000000E+00  0.00000000000E+00 -0.95570440543E+03  0.36232559204E+04  0.34949409944E+04 0.  0.
        5    1    3    3  502    0  0.15792537742E+04 -0.28960493010E+03 -0.11928978202E+04  0.20002351858E+04  0.46999998093E+01 0. -1.
       -5    1    3    3    0  502 -0.15792537742E+04  0.28960493010E+03  0.23719341478E+03  0.16230207346E+04  0.46999998093E+01 0.  1.
</event>
<event>
 5   0  0.1121462E-08  0.3501133E+04  0.7818609E-02  0.8113521E-01
        1   -1    0    0  501    0  0.00000000000E+00  0.00000000000E+00  0.20625153951E+04  0.20625153951E+04  0.50400001928E-02 0.  1.
       -1   -1    0    0    0  501  0.00000000000E+00  0.00000000000E+00 -0.14857988446E+04  0.14857988446E+04  0.50400001928E-02 0. -1.
    10030    2    1    2    0    0  0.00000000000E+00  0.00000000000E+00  0.57671655047E+03  0.35483142398E+04  0.35011329544E+04 0.  0.
        1    1    3    3  502    0  0.10337555020E+04 -0.85947099027E+03  0.14246914038E+04  0.19588482373E+04  0.50400001928E-02 0.  1.
       -1    1    3    3    0  502 -0.10337555020E+04  0.85947099027E+03 -0.84797485330E+03  0.15894660024E+04  0.50400001928E-02 0. -1.
</event>
<event>
 5   0  0.3554451E-08  0.3501034E+04  0.7818609E-02  0.8113545E-01
       -2   -1    0    0    0  501  0.00000000000E+00  0.00000000000E+00  0.28505960198E+04  0.28505960198E+04  0.25500000920E-02 0. -1.
        2   -1    0    0  501    0  0.00000000000E+00  0.00000000000E+00 -0.10749713914E+04  0.10749713914E+04  0.25500000920E-02 0.  1.
    10030    2    1    2    0    0  0.00000000000E+00  0.00000000000E+00  0.17756246284E+04  0.39255674112E+04  0.35010336586E+04 0.  0.
        5    1    3    3  502    0 -0.14181853495E+03  0.16870893262E+04  0.38900404301E+03  0.17371612265E+04  0.46999998093E+01 0.  1.
       -5    1    3    3    0  502  0.14181853495E+03 -0.16870893262E+04  0.13866205854E+04  0.21884061847E+04  0.46999998093E+01 0. -1.
</event>
<event>
 5   0  0.1121462E-08  0.3504698E+04  0.7818609E-02  0.8112677E-01
        1   -1    0    0  501    0  0.00000000000E+00  0.00000000000E+00  0.14160328439E+04  0.14160328439E+04  0.50400001928E-02 0. -1.
       -1   -1    0    0    0  501  0.00000000000E+00  0.00000000000E+00 -0.21685423666E+04  0.21685423667E+04  0.50400001928E-02 0.  1.
    10030    2    1    2    0    0  0.00000000000E+00  0.00000000000E+00 -0.75250952276E+03  0.35845752105E+04  0.35046981123E+04 0.  0.
        2    1    3    3  502    0 -0.43321183872E+03  0.99166333900E+03 -0.17859487719E+04  0.20882245308E+04  0.25500000920E-02 0.  1.
       -2    1    3    3    0  502  0.43321183872E+03 -0.99166333900E+03  0.10334392491E+04  0.14963506798E+04  0.25500000920E-02 0. -1.
</event>
<event>
 5   0  0.3628017E-08  0.3508806E+04  0.7818609E-02  0.8111706E-01
       -2   -1    0    0    0  501  0.00000000000E+00  0.00000000000E+00  0.14176936876E+04  0.14176936876E+04  0.25500000920E-02 0. -1.
        2   -1    0    0  501    0  0.00000000000E+00  0.00000000000E+00 -0.21710822629E+04  0.21710822629E+04  0.25500000920E-02 0.  1.
    10030    2    1    2    0    0  0.00000000000E+00  0.00000000000E+00 -0.75338857534E+03  0.35887759506E+04  0.35088058478E+04 0.  0.
        1    1    3    3  502    0 -0.15663508895E+04 -0.22576369271E+03  0.39786686677E+03  0.16317850341E+04  0.50400001928E-02 0. -1.
       -1    1    3    3    0  502  0.15663508895E+04  0.22576369271E+03 -0.11512554421E+04  0.19569909164E+04  0.50400001928E-02 0.  1.
</event>
<event>
 5   0  0.3553585E-08  0.3501798E+04  0.7818609E-02  0.8113364E-01
        2   -1    0    0  501    0  0.00000000000E+00  0.00000000000E+00  0.19868533541E+04  0.19868533541E+04  0.25500000920E-02 0. -1.
       -2   -1    0    0    0  501  0.00000000000E+00  0.00000000000E+00 -0.15429663560E+04  0.15429663560E+04  0.25500000920E-02 0.  1.
    10030    2    1    2    0    0  0.00000000000E+00  0.00000000000E+00  0.44388699806E+03  0.35298197101E+04  0.35017983264E+04 0.  0.
        2    1    3    3  502    0 -0.82095245699E+03 -0.74881971619E+03  0.15858987021E+04  0.19364319242E+04  0.25500000920E-02 0. -1.
       -2    1    3    3    0  502  0.82095245699E+03  0.74881971619E+03 -0.11420117040E+04  0.15933877858E+04  0.25500000920E-02 0.  1.
</event>
<event>
 5   0  0.1121462E-08  0.3501799E+04  0.7818609E-02  0.8113364E-01
        1   -1    0    0  501    0  0.00000000000E+00  0.00000000000E+00  0.14530150901E+04  0.14530150901E+04  0.50400001928E-02 0.  1.
       -1   -1    0    0    0  501  0.00000000000E+00  0.00000000000E+00 -0.21098536444E+04  0.21098536444E+04  0.50400001928E-02 0. -1.
    10030    2    1    2    0    0  0.00000000000E+00  0.00000000000E+00 -0.65683855437E+03  0.35628687345E+04  0.35017990709E+04 0.  0.
        4    1    3    3  502    0  0.80256938047E+03  0.58547490267E+03  0.11385115520E+04  0.15109959096E+04  0.12699999809E+01 0.  1.
       -4    1    3    3    0  502 -0.80256938047E+03 -0.58547490267E+03 -0.17953501063E+04  0.20518728248E+04  0.12699999809E+01 0. -1.
</event>
<event>
 5   0  0.3700096E-08  0.3509747E+04  0.7818609E-02  0.8111484E-01
        2   -1    0    0  501    0  0.00000000000E+00  0.00000000000E+00  0.12518699844E+04  0.12518699844E+04  0.25500000920E-02 0.  1.
       -2   -1    0    0    0  501  0.00000000000E+00  0.00000000000E+00 -0.24599847337E+04  0.24599847337E+04  0.25500000920E-02 0. -1.
    10030    2    1    2    0    0  0.00000000000E+00  0.00000000000E+00 -0.12081147493E+04  0.37118547181E+04  0.35097470280E+04 0.  0.
        4    1    3    3  502    0 -0.98566593393E+03  0.98503077600E+03 -0.17321371481E+04  0.22230887692E+04  0.12699999809E+01 0. -1.
       -4    1    3    3    0  502  0.98566593393E+03 -0.98503077600E+03  0.52402239888E+03  0.14887659488E+04  0.12699999809E+01 0.  1.
</event>
<event>
 5   0  0.3554451E-08  0.3499325E+04  0.7818609E-02  0.8113950E-01
       -2   -1    0    0    0  501  0.00000000000E+00  0.00000000000E+00  0.11642345603E+04  0.11642345603E+04  0.25500000920E-02 0. -1.
        2   -1    0    0  501    0  0.00000000000E+00  0.00000000000E+00 -0.26294693981E+04  0.26294693981E+04  0.25500000920E-02 0.  1.
    10030    2    1    2    0    0  0.00000000000E+00  0.00000000000E+00 -0.14652348378E+04  0.37937039584E+04  0.34993251626E+04 0.  0.
        5    1    3    3  502    0 -0.92929649266E+03  0.82211495616E+02  0.87208685866E+03  0.12770701940E+04  0.46999998093E+01 0. -1.
       -5    1    3    3    0  502  0.92929649266E+03 -0.82211495616E+02 -0.23373216965E+04  0.25166337644E+04  0.46999998093E+01 0.  1.
</event>
<event>
 5   0  0.1121462E-08  0.3500873E+04  0.7818609E-02  0.8113583E-01
        1   -1    0    0  501    0  0.00000000000E+00  0.00000000000E+00  0.24936652587E+04  0.24936652587E+04  0.50400001928E-02 0. -1.
       -1   -1    0    0    0  501  0.00000000000E+00  0.00000000000E+00 -0.12287249435E+04  0.12287249435E+04  0.50400001928E-02 0.  1.
    10030    2    1    2    0    0  0.00000000000E+00  0.00000000000E+00  0.12649403152E+04  0.37223902023E+04  0.35008734363E+04 0.  0.
        1    1    3    3  502    0  0.16766943388E+04  0.39315802496E+03  0.29935522408E+03  0.17479961923E+04  0.50400001928E-02 0.  1.
       -1    1    3    3    0  502 -0.16766943388E+04 -0.39315802496E+03  0.96558509111E+03  0.19743940099E+04  0.50400001928E-02 0. -1.
</event>
<event>
 5   0  0.3700096E-08  0.3500972E+04  0.7818609E-02  0.8113560E-01
        2   -1    0    0  501    0  0.00000000000E+00  0.00000000000E+00  0.24957818883E+04  0.24957818883E+04  0.25500000920E-02 0. -1.
       -2   -1    0    0    0  501  0.00000000000E+00  0.00000000000E+00 -0.12277521248E+04  0.12277521248E+04  0.25500000920E-02 0.  1.
    10030    2    1    2    0    0  0.00000000000E+00  0.00000000000E+00  0.12680297634E+04  0.37235340131E+04  0.35009721601E+04 0.  0.
        4    1    3    3  502    0  0.10191826278E+04  0.54520972408E+03  0.20322020299E+04  0.23379122257E+04  0.12699999809E+01 0. -1.
       -4    1    3    3    0  502 -0.10191826278E+04 -0.54520972408E+03 -0.76417226642E+03  0.13856217874E+04  0.12699999809E+01 0.  1.
</event>
<event>
 5   0  0.1140808E-08  0.3499190E+04  0.7818609E-02  0.8113982E-01
        1   -1    0    0  501    0  0.00000000000E+00  0.00000000000E+00  0.23107823545E+04  0.23107823545E+04  0.50400001928E-02 0.  1.
       -1   -1    0    0    0  501  0.00000000000E+00  0.00000000000E+00 -0.13246952047E+04  0.13246952047E+04  0.50400001928E-02 0. -1.
    10030    2    1    2    0    0  0.00000000000E+00  0.00000000000E+00  0.98608714983E+03  0.36354775593E+04  0.34991897944E+04 0.  0.
        3    1    3    3  502    0 -0.12497578129E+03  0.15415980520E+04 -0.35669857410E+03  0.15872546685E+04  0.10100000352E+00 0. -1.
       -3    1    3    3    0  502  0.12497578129E+03 -0.15415980520E+04  0.13427857239E+04  0.20482228908E+04  0.10100000352E+00 0.  1.
</event>
<event>
 5   0  0.1121462E-08  0.3500036E+04  0.7818609E-02  0.8113781E-01
        1   -1    0    0  501    0  0.00000000000E+00  0.00000000000E+00  0.19667771774E+04  0.19667771774E+04  0.50400001928E-02 0. -1.
       -1   -1    0    0    0  501  0.00000000000E+00  0.00000000000E+00 -0.15571480520E+04  0.15571480520E+04  0.50400001928E-02 0.  1.
    10030    2    1    2    0    0  0.00000000000E+00  0.00000000000E+00  0.40962912537E+03  0.35239252295E+04  0.35000361430E+04 0.  0.
        2    1    3    3  502    0 -0.10174399971E+04  0.10456044781E+04 -0.76826556887E+03  0.16488495555E+04  0.25500000920E-02 0.  1.
       -2    1    3    3    0  502  0.10174399971E+04 -0.10456044781E+04  0.11778946942E+04  0.18750756740E+04  0.25500000920E-02 0. -1.
</event>
<event>
 5   0  0.1121462E-08  0.3512552E+04  0.7818609E-02  0.8110822E-01
        1   -1    0    0  501    0  0.00000000000E+00  0.00000000000E+00  0.14389991880E+04  0.14389991880E+04  0.50400001928E-02 0. -1.
       -1   -1    0    0    0  501  0.00000000000E+00  0.00000000000E+00 -0.21435070461E+04  0.21435070461E+04  0.50400001928E-02 0.  1.
    10030    2    1    2    0    0  0.00000000000E+00  0.00000000000E+00 -0.70450785810E+03  0.35825062342E+04  0.35125517214E+04 0.  0.
        2    1    3    3  502    0  0.12872871623E+02 -0.18079472647E+03 -0.21339423710E+04  0.21416261314E+04  0.25500000920E-02 0.  1.
       -2    1    3    3    0  502 -0.12872871623E+02  0.18079472647E+03  0.14294345129E+04  0.14408801028E+04  0.25500000920E-02 0. -1.
</event>
<event>
 5   0  0.1121462E-08  0.3501949E+04  0.7818609E-02  0.8113328E-01
        1   -1    0    0  501    0  0.00000000000E+00  0.00000000000E+00  0.21444709117E+04  0.21444709117E+04  0.50400001928E-02 0.  1.
       -1   -1    0    0    0  501  0.00000000000E+00  0.00000000000E+00 -0.14296821924E+04  0.14296821924E+04  0.50400001928E-02 0. -1.
    10030    2    1    2    0    0  0.00000000000E+00  0.00000000000E+00  0.71478871932E+03  0.35741531041E+04  0.35019490999E+04 0.  0.
        1    1    3    3  502    0  0.11729602537E+04 -0.27394670390E+03  0.16544348340E+04  0.20464694411E+04  0.50400001928E-02 0.  1.
       -1    1    3    3    0  502 -0.11729602537E+04  0.27394670390E+03 -0.93964611467E+03  0.15276836630E+04  0.50400001928E-02 0. -1.
</event>
<event>
 5   0  0.1129219E-08  0.3499217E+04  0.7818609E-02  0.8113976E-01
        1   -1    0    0  501    0  0.00000000000E+00  0.00000000000E+00  0.18250275244E+04  0.18250275244E+04  0.50400001928E-02 0. -1.
       -1   -1    0    0    0  501  0.00000000000E+00  0.00000000000E+00 -0.16773060049E+04  0.16773060049E+04  0.50400001928E-02 0.  1.
    10030    2    1    2    0    0  0.00000000000E+00  0.00000000000E+00  0.14772151949E+03  0.35023335293E+04  0.34992168414E+04 0.  0.
        5    1    3    3  502    0 -0.75802512132E+03 -0.14180111288E+04 -0.61649983488E+03  0.17220487166E+04  0.46999998093E+01 0.  1.
       -5    1    3    3    0  502  0.75802512132E+03  0.14180111288E+04  0.76422135437E+03  0.17802848127E+04  0.46999998093E+01 0. -1.
</event>
<event>
 5   0  0.1121462E-08  0.3499676E+04  0.7818609E-02  0.8113867E-01
        1   -1    0    0  501    0  0.00000000000E+00  0.00000000000E+00  0.11884485364E+04  0.11884485364E+04  0.50400001928E-02 0.  1.
       -1   -1    0    0    0  501  0.00000000000E+00  0.00000000000E+00 -0.25764124746E+04  0.25764124746E+04  0.50400001928E-02 0. -1.
    10030    2    1    2    0    0  0.00000000000E+00  0.00000000000E+00 -0.13879639382E+04  0.37648610110E+04  0.34996763477E+04 0.  0.
        2    1    3    3  502    0  0.86762880817E+03  0.15069988338E+04 -0.48397610262E+03  0.18050091695E+04  0.25500000920E-02 0. -1.
       -2    1    3    3    0  502 -0.86762880817E+03 -0.15069988338E+04 -0.90398783561E+03  0.19598518416E+04  0.25500000920E-02 0.  1.
</event>
<event>
 5   0  0.3700096E-08  0.3499471E+04  0.7818609E-02  0.8113915E-01
        2   -1    0    0  501    0  0.00000000000E+00  0.00000000000E+00  0.19008038264E+04  0.19008038264E+04  0.25500000920E-02 0. -1.
       -2   -1    0    0    0  501  0.00000000000E+00  0.00000000000E+00 -0.16106734153E+04  0.16106734153E+04  0.25500000920E-02 0.  1.
    10030    2    1    2    0    0  0.00000000000E+00  0.00000000000E+00  0.29013041113E+03  0.35114772417E+04  0.34994709263E+04 0.  0.
        4    1    3    3  502    0 -0.30207570144E+02  0.13385746445E+04 -0.98524435864E+03  0.16623485300E+04  0.12699999809E+01 0.  1.
       -4    1    3    3    0  502  0.30207570144E+02 -0.13385746445E+04  0.12753747698E+04  0.18491287117E+04  0.12699999809E+01 0. -1.
</event>
<event>
 5   0  0.3700096E-08  0.3499410E+04  0.7818609E-02  0.8113930E-01
       -2   -1    0    0    0  501  0.00000000000E+00  0.00000000000E+00  0.15623150940E+04  0.15623150940E+04  0.25500000920E-02 0.  1.
        2   -1    0    0  501    0  0.00000000000E+00  0.00000000000E+00 -0.19595714738E+04  0.19595714738E+04  0.25500000920E-02 0. -1.
    10030    2    1    2    0    0  0.00000000000E+00  0.00000000000E+00 -0.39725637982E+03  0.35218865677E+04  0.34994102881E+04 0.  0.
        4    1    3    3  502    0  0.12378954520E+04  0.84249761844E+03  0.71232578566E+03  0.16581908892E+04  0.12699999809E+01 0. -1.
       -4    1    3    3    0  502 -0.12378954520E+04 -0.84249761844E+03 -0.11095821655E+04  0.18636956785E+04  0.12699999809E+01 0.  1.
</event>
<event>
 5   0  0.3628017E-08  0.3499601E+04  0.7818609E-02  0.8113885E-01
        2   -1    0    0  501    0  0.00000000000E+00  0.00000000000E+00  0.16263225753E+04  0.16263225753E+04  0.25500000920E-02 0.  1.
       -2   -1    0    0    0  501  0.00000000000E+00  0.00000000000E+00 -0.18826531073E+04  0.18826531073E+04  0.25500000920E-02 0. -1.
    10030    2    1    2    0    0  0.00000000000E+00  0.00000000000E+00 -0.25633053201E+03  0.35089756826E+04  0.34996006914E+04 0.  0.
        1    1    3    3  502    0 -0.93983502172E+03 -0.82906006818E+03  0.10962410412E+04  0.16650450100E+04  0.50400001928E-02 0.  1.
       -1    1    3    3    0  502  0.93983502172E+03  0.82906006818E+03 -0.13525715732E+04  0.18439306726E+04  0.50400001928E-02 0. -1.
</event>
<event>
 5   0  0.1121462E-08  0.3494434E+04  0.7818609E-02  0.8115110E-01
        1   -1    0    0  501    0  0.00000000000E+00  0.00000000000E+00  0.14337526568E+04  0.14337526568E+04  0.50400001928E-02 0. -1.
       -1   -1    0    0    0  501  0.00000000000E+00  0.00000000000E+00 -0.21292148593E+04  0.21292148593E+04  0.50400001928E-02 0.  1.
    10030    2    1    2    0    0  0.00000000000E+00  0.00000000000E+00 -0.69546220255E+03  0.35629675161E+04  0.34944341238E+04 0.  0.
        4    1    3    3  502    0 -0.89364187949E+03 -0.13356537036E+04 -0.10468901118E+04  0.19179538952E+04  0.12699999809E+01 0.  1.
       -4    1    3    3    0  502  0.89364187949E+03  0.13356537036E+04  0.35142790926E+03  0.16450136210E+04  0.12699999809E+01 0. -1.
</event>
<event>
 5   0  0.1121462E-08  0.3496268E+04  0.7818609E-02  0.8114675E-01
        1   -1    0    0  501    0  0.00000000000E+00  0.00000000000E+00  0.24620166203E+04  0.24620166203E+04  0.50400001928E-02 0.  1.
       -1   -1    0    0    0  501  0.00000000000E+00  0.00000000000E+00 -0.12412473803E+04  0.12412473803E+04  0.50400001928E-02 0. -1.
    10030    2    1    2    0    0  0.00000000000E+00  0.00000000000E+00  0.12207692400E+04  0.37032640006E+04  0.34962675414E+04 0.  0.
        4    1    3    3  502    0  0.15000164986E+04 -0.88757885188E+03  0.46778733019E+03  0.18046252557E+04  0.12699999809E+01 0. -1.
       -4    1    3    3    0  502 -0.15000164986E+04  0.88757885188E+03  0.75298190978E+03  0.18986387449E+04  0.12699999809E+01 0.  1.
</event>
<event>
 5   0  0.3554451E-08  0.3501591E+04  0.7818609E-02  0.8113413E-01
       -2   -1    0    0    0  501  0.00000000000E+00  0.00000000000E+00  0.13172277247E+04  0.13172277247E+04  0.25500000920E-02 0. -1.
        2   -1    0    0  501    0  0.00000000000E+00  0.00000000000E+00 -0.23270728263E+04  0.23270728264E+04  0.25500000920E-02 0.  1.
    10030    2    1    2    0    0  0.00000000000E+00  0.00000000000E+00 -0.10098451017E+04  0.36443005510E+04  0.35015909779E+04 0.  0.
        5    1    3    3  502    0 -0.39047234960E+03 -0.14669547175E+04 -0.14127323303E+04  0.20737067117E+04  0.46999998093E+01 0.  1.
       -5    1    3    3    0  502  0.39047234960E+03  0.14669547175E+04  0.40288722860E+03  0.15705938393E+04  0.46999998093E+01 0. -1.
</event>
<event>
 5   0  0.1129219E-08  0.3500819E+04  0.7818609E-02  0.8113596E-01
       -1   -1    0    0    0  501  0.00000000000E+00  0.00000000000E+00  0.10938122042E+04  0.10938122042E+04  0.50400001928E-02 0. -1.
        1   -1    0    0  501    0  0.00000000000E+00  0.00000000000E+00 -0.28011513598E+04  0.28011513598E+04  0.50400001928E-02 0.  1.
    10030    2    1    2    0    0  0.00000000000E+00  0.00000000000E+00 -0.17073391556E+04  0.38949635640E+04  0.35008190717E+04 0.  0.
        5    1    3    3  502    0  0.16455352568E+04  0.39524871159E+03 -0.13511134336E+04  0.21655339817E+04  0.46999998093E+01 0. -1.
       -5    1    3    3    0  502 -0.16455352568E+04 -0.39524871159E+03 -0.35622572201E+03  0.17294295824E+04  0.46999998093E+01 0.  1.
</event>
<event>
 5   0  0.1121462E-08  0.3500463E+04  0.7818609E-02  0.8113680E-01
       -3   -1    0    0    0  501  0.00000000000E+00  0.00000000000E+00  0.18629761034E+04  0.18629761062E+04  0.10100000352E+00 0.  1.
        3   -1    0    0  501    0  0.00000000000E+00  0.00000000000E+00 -0.16443102620E+04  0.16443102651E+04  0.10100000352E+00 0. -1.
    10030    2    1    2    0    0  0.00000000000E+00  0.00000000000E+00  0.21866584139E+03  0.35072863713E+04  0.35004632465E+04 0.  0.
        1    1    3    3  502    0 -0.57328894190E+03  0.14916108577E+04  0.82469067465E+03  0.17982429955E+04  0.50400001928E-02 0. -1.
       -1    1    3    3    0  502  0.57328894190E+03 -0.14916108577E+04 -0.60602483326E+03  0.17090433758E+04  0.50400001928E-02 0.  1.
</event>
<event>
 5   0  0.3553585E-08  0.3508828E+04  0.7818609E-02  0.8111701E-01
       -2   -1    0    0    0  501  0.00000000000E+00  0.00000000000E+00  0.15128881626E+04  0.15128881626E+04  0.25500000920E-02 0. -1.
        2   -1    0    0  501    0  0.00000000000E+00  0.00000000000E+00 -0.20344989229E+04  0.20344989230E+04  0.25500000920E-02 0.  1.
    10030    2    1    2    0    0  0.00000000000E+00  0.00000000000E+00 -0.52161076034E+03  0.35473870856E+04  0.35088284868E+04 0.  0.
        2    1    3    3  502    0 -0.56005013705E+03 -0.36243282755E+03 -0.19012750695E+04  0.20149095763E+04  0.25500000920E-02 0.  1.
       -2    1    3    3    0  502  0.56005013705E+03  0.36243282755E+03  0.13796643092E+04  0.15324775093E+04  0.25500000920E-02 0. -1.
</event>
<event>
 5   0  0.1140808E-08  0.3500353E+04  0.7818609E-02  0.8113706E-01
        1   -1    0    0  501    0  0.00000000000E+00  0.00000000000E+00  0.11159192832E+04  0.11159192832E+04  0.50400001928E-02 0. -1.
       -1   -1    0    0    0  501  0.00000000000E+00  0.00000000000E+00 -0.27449271641E+04  0.27449271642E+04  0.50400001928E-02 0.  1.
    10030    2    1    2    0    0  0.00000000000E+00  0.00000000000E+00 -0.16290078810E+04  0.38608464473E+04  0.35003526413E+04 0.  0.
        3    1    3    3  502    0  0.16777347416E+04 -0.33673508764E+03 -0.40934126248E+03  0.17594728363E+04  0.10100000352E+00 0.  1.
       -3    1    3    3    0  502 -0.16777347416E+04  0.33673508764E+03 -0.12196666185E+04  0.21013736110E+04  0.10100000352E+00 0. -1.
</event>
<event>
 5   0  0.3467834E-08  0.3507735E+04  0.7818609E-02  0.8111959E-01
       -2   -1    0    0    0  501  0.00000000000E+00  0.00000000000E+00  0.21733636022E+04  0.21733636022E+04  0.25500000920E-02 0. -1.
        2   -1    0    0  501    0  0.00000000000E+00  0.00000000000E+00 -0.14153416330E+04  0.14153416330E+04  0.25500000920E-02 0.  1.
    10030    2    1    2    0    0  0.00000000000E+00  0.00000000000E+00  0.75802196916E+03  0.35887052352E+04  0.35077354461E+04 0.  0.
        3    1    3    3  502    0  0.35926931292E+03 -0.15187498388E+04  0.11977182397E+04  0.19672835342E+04  0.10100000352E+00 0.  1.
       -3    1    3    3    0  502 -0.35926931292E+03  0.15187498388E+04 -0.43969627057E+03  0.16214217010E+04  0.10100000352E+00 0. -1.
</event>
<event>
 5   0  0.3700096E-08  0.3487297E+04  0.7818609E-02  0.8116807E-01
       -2   -1    0    0    0  501  0.00000000000E+00  0.00000000000E+00  0.12162936123E+04  0.12162936123E+04  0.25500000920E-02 0.  1.
        2   -1    0    0  501    0  0.00000000000E+00  0.00000000000E+00 -0.24996516073E+04  0.24996516073E+04  0.25500000920E-02 0. -1.
    10030    2    1    2    0    0  0.00000000000E+00  0.00000000000E+00 -0.12833579950E+04  0.37159452196E+04  0.34872971097E+04 0.  0.
        4    1    3    3  502    0 -0.46340976820E+03 -0.87837918651E+03 -0.21688287864E+04  0.23853969326E+04  0.12699999809E+01 0. -1.
       -4    1    3    3    0  502  0.46340976820E+03  0.87837918651E+03  0.88547079138E+03  0.13305482869E+04  0.12699999809E+01 0.  1.
</event>
<event>
 5   0  0.3700096E-08  0.3499606E+04  0.7818609E-02  0.8113883E-01
       -2   -1    0    0    0  501  0.00000000000E+00  0.00000000000E+00  0.10549114014E+04  0.10549114014E+04  0.25500000920E-02 0.  1.
        2   -1    0    0  501    0  0.00000000000E+00  0.00000000000E+00 -0.29024336093E+04  0.29024336093E+04  0.25500000920E-02 0. -1.
    10030    2    1    2    0    0  0.00000000000E+00  0.00000000000E+00 -0.18475222079E+04  0.39573450107E+04  0.34996058671E+04 0.  0.
        4    1    3    3  502    0 -0.10236051263E+04 -0.86092768466E+03  0.35200922795E+03  0.13830676203E+04  0.12699999809E+01 0.  1.
       -4    1    3    3    0  502  0.10236051263E+04  0.86092768466E+03 -0.21995314359E+04  0.25742773905E+04  0.12699999809E+01 0. -1.
</event>
<event>
 5   0  0.1121462E-08  0.3500626E+04  0.7818609E-02  0.8113642E-01
        1   -1    0    0  501    0  0.00000000000E+00  0.00000000000E+00  0.19075650728E+04  0.19075650728E+04  0.50400001928E-02 0. -1.
       -1   -1    0    0    0  501  0.00000000000E+00  0.00000000000E+00 -0.16060237459E+04  0.16060237459E+04  0.50400001928E-02 0.  1.
    10030    2    1    2    0    0  0.00000000000E+00  0.00000000000E+00  0.30154132689E+03  0.35135888187E+04  0.35006255463E+04 0.  0.
        4    1    3    3  502    0 -0.38632554716E+03 -0.52021619407E+03 -0.14812027473E+04  0.16167360664E+04  0.12699999809E+01 0.  1.
       -4    1    3    3    0  502  0.38632554716E+03  0.52021619407E+03  0.17827440742E+04  0.18968527523E+04  0.12699999809E+01 0. -1.
</event>
<event>
 5   0  0.3628017E-08  0.3488505E+04  0.7818609E-02  0.8116520E-01
       -2   -1    0    0    0  501  0.00000000000E+00  0.00000000000E+00  0.10464683738E+04  0.10464683738E+04  0.25500000920E-02 0.  1.
        2   -1    0    0  501    0  0.00000000000E+00  0.00000000000E+00 -0.29073181650E+04  0.29073181650E+04  0.25500000920E-02 0. -1.
    10030    2    1    2    0    0  0.00000000000E+00  0.00000000000E+00 -0.18608497912E+04  0.39537865389E+04  0.34885048444E+04 0.  0.
        1    1    3    3  502    0 -0.52025942061E+03 -0.76694919350E+03 -0.26051904684E+04  0.27651217527E+04  0.50400001928E-02 0. -1.
       -1    1    3    3    0  502  0.52025942061E+03  0.76694919350E+03  0.74434067723E+03  0.11886647862E+04  0.50400001928E-02 0.  1.
</event>
<event>
 5   0  0.1121462E-08  0.3503969E+04  0.7818609E-02  0.8112850E-01
       -1   -1    0    0    0  501  0.00000000000E+00  0.00000000000E+00  0.14992082660E+04  0.14992082660E+04  0.50400001928E-02 0.  1.
        1   -1    0    0  501    0  0.00000000000E+00  0.00000000000E+00 -0.20473806906E+04  0.20473806907E+04  0.50400001928E-02 0. -1.
    10030    2    1    2    0    0  0.00000000000E+00  0.00000000000E+00 -0.54817242462E+03  0.35465889567E+04  0.35039692094E+04 0.  0.
        1    1    3    3  502    0  0.13374727934E+04  0.65740703367E+03  0.65822142800E+03  0.16291939508E+04  0.50400001928E-02 0.  1.
       -1    1    3    3    0  502 -0.13374727934E+04 -0.65740703367E+03 -0.12063938526E+04  0.19173950059E+04  0.50400001928E-02 0. -1.
</event>
<event>
 5   0  0.1129219E-08  0.3500489E+04  0.7818609E-02  0.8113674E-01
        1   -1    0    0  501    0  0.00000000000E+00  0.00000000000E+00  0.25994459727E+04  0.25994459727E+04  0.50400001928E-02 0. -1.
       -1   -1    0    0    0  501  0.00000000000E+00  0.00000000000E+00 -0.11784649022E+04  0.11784649022E+04  0.50400001928E-02 0.  1.
    10030    2    1    2    0    0  0.00000000000E+00  0.00000000000E+00  0.14209810705E+04  0.37779108749E+04  0.35004890195E+04 0.  0.
        5    1    3    3  502    0 -0.40659242137E+02  0.16016813525E+04  0.14708063072E+04  0.21749320937E+04  0.46999998093E+01 0. -1.
       -5    1    3    3    0  502  0.40659242137E+02 -0.16016813525E+04 -0.49825236772E+02  0.16029787812E+04  0.46999998093E+01 0.  1.
</event>
<event>
 5   0  0.3628017E-08  0.3497456E+04  0.7818609E-02  0.8114393E-01
       -2   -1    0    0    0  501  0.00000000000E+00  0.00000000000E+00  0.11691458917E+04  0.11691458917E+04  0.25500000920E-02 0. -1.
        2   -1    0    0  501    0  0.00000000000E+00  0.00000000000E+00 -0.26156275903E+04  0.26156275903E+04  0.25500000920E-02 0.  1.
    10030    2    1    2    0    0  0.00000000000E+00  0.00000000000E+00 -0.14464816986E+04  0.37847734821E+04  0.34974563623E+04 0.  0.
        1    1    3    3  502    0  0.42569678934E+03  0.15480527487E+04 -0.14732617197E+04  0.21790330801E+04  0.50400001928E-02 0.  1.
       -1    1    3    3    0  502 -0.42569678934E+03 -0.15480527487E+04  0.26780021133E+02  0.16057404020E+04  0.50400001928E-02 0. -1.
</event>
<event>
 5   0  0.1129219E-08  0.3498742E+04  0.7818609E-02  0.8114088E-01
       -1   -1    0    0    0  501  0.00000000000E+00  0.00000000000E+00  0.18085059814E+04  0.18085059814E+04  0.50400001928E-02 0.  1.
        1   -1    0    0  501    0  0.00000000000E+00  0.00000000000E+00 -0.16921694629E+04  0.16921694629E+04  0.50400001928E-02 0. -1.
    10030    2    1    2    0    0  0.00000000000E+00  0.00000000000E+00  0.11633651848E+03  0.35006754443E+04  0.34987418282E+04 0.  0.
        5    1    3    3  502    0 -0.16054951619E+04  0.44037532888E+03  0.59580251121E+03  0.17682047018E+04  0.46999998093E+01 0.  1.
       -5    1    3    3    0  502  0.16054951619E+04 -0.44037532888E+03 -0.47946599273E+03  0.17324707424E+04  0.46999998093E+01 0. -1.
</event>
<event>
 5   0  0.1129219E-08  0.3499921E+04  0.7818609E-02  0.8113809E-01
       -1   -1    0    0    0  501  0.00000000000E+00  0.00000000000E+00  0.18114433640E+04  0.18114433640E+04  0.50400001928E-02 0.  1.
        1   -1    0    0  501    0  0.00000000000E+00  0.00000000000E+00 -0.16905645768E+04  0.16905645768E+04  0.50400001928E-02 0. -1.
    10030    2    1    2    0    0  0.00000000000E+00  0.00000000000E+00  0.12087878717E+03  0.35020079408E+04  0.34999211328E+04 0.  0.
        5    1    3    3  502    0 -0.87481209907E+03  0.13786672466E+04 -0.56947572507E+03  0.17292611940E+04  0.46999998093E+01 0. -1.
       -5    1    3    3    0  502  0.87481209907E+03 -0.13786672466E+04  0.69035451224E+03  0.17727467468E+04  0.46999998093E+01 0.  1.
</event>
<event>
 5   0  0.1121462E-08  0.3497268E+04  0.7818609E-02  0.8114438E-01
       -1   -1    0    0    0  501  0.00000000000E+00  0.00000000000E+00  0.11364222221E+04  0.11364222221E+04  0.50400001928E-02 0.  1.
        1   -1    0    0  501    0  0.00000000000E+00  0.00000000000E+00 -0.26906558364E+04  0.26906558364E+04  0.50400001928E-02 0. -1.
    10030    2    1    2    0    0  0.00000000000E+00  0.00000000000E+00 -0.15542336143E+04  0.38270780585E+04  0.34972681250E+04 0.  0.
        4    1    3    3  502    0 -0.95378825804E+03  0.11427269475E+04  0.22713243115E+03  0.15056984001E+04  0.12699999809E+01 0.  1.
       -4    1    3    3    0  502  0.95378825804E+03 -0.11427269475E+04 -0.17813660455E+04  0.23213796585E+04  0.12699999809E+01 0. -1.
</event>
<event>
 5   0  0.3554451E-08  0.3501868E+04  0.7818609E-02  0.8113347E-01
        2   -1    0    0  501    0  0.00000000000E+00  0.00000000000E+00  0.15886613555E+04  0.15886613555E+04  0.25500000920E-02 0.  1.
       -2   -1    0    0    0  501  0.00000000000E+00  0.00000000000E+00 -0.19297814317E+04  0.19297814317E+04  0.25500000920E-02 0. -1.
    10030    2    1    2    0    0  0.00000000000E+00  0.00000000000E+00 -0.34112007617E+03  0.35184427871E+04  0.35018676074E+04 0.  0.
        5    1    3    3  502    0 -0.53071589404E+02 -0.63744616158E+03  0.14670604897E+04  0.16004508030E+04  0.46999998093E+01 0.  1.
       -5    1    3    3    0  502  0.53071589404E+02  0.63744616158E+03 -0.18081805658E+04  0.19179919841E+04  0.46999998093E+01 0. -1.
</event>
<event>
 5   0  0.3628017E-08  0.3499346E+04  0.7818609E-02  0.8113945E-01
       -2   -1    0    0    0  501  0.00000000000E+00  0.00000000000E+00  0.12050062859E+04  0.12050062859E+04  0.25500000920E-02 0. -1.
        2   -1    0    0  501    0  0.00000000000E+00  0.00000000000E+00 -0.25405305524E+04  0.25405305524E+04  0.25500000920E-02 0.  1.
    10030    2    1    2    0    0  0.00000000000E+00  0.00000000000E+00 -0.13355242665E+04  0.37455368383E+04  0.34993458161E+04 0.  0.
        1    1    3    3  502    0  0.71548240267E+03 -0.15286232860E+04 -0.11614620825E+04  0.20488041360E+04  0.50400001928E-02 0.  1.
       -1    1    3    3    0  502 -0.71548240267E+03  0.15286232860E+04 -0.17406218407E+03  0.16967327022E+04  0.50400001928E-02 0. -1.
</event>
<event>
 5   0  0.1121462E-08  0.3500175E+04  0.7818609E-02  0.8113749E-01
       -1   -1    0    0    0  501  0.00000000000E+00  0.00000000000E+00  0.11328815992E+04  0.11328815992E+04  0.50400001928E-02 0.  1.
        1   -1    0    0  501    0  0.00000000000E+00  0.00000000000E+00 -0.27035535148E+04  0.27035535148E+04  0.50400001928E-02 0. -1.
    10030    2    1    2    0    0  0.00000000000E+00  0.00000000000E+00 -0.15706719156E+04  0.38364351139E+04  0.35001748695E+04 0.  0.
        2    1    3    3  502    0 -0.13251018098E+04 -0.11377395794E+04 -0.66298851107E+03  0.18681273840E+04  0.25500000920E-02 0.  1.
       -2    1    3    3    0  502  0.13251018098E+04  0.11377395794E+04 -0.90768340452E+03  0.19683077300E+04  0.25500000920E-02 0. -1.
</event>
<event>
 5   0  0.1129219E-08  0.3499487E+04  0.7818609E-02  0.8113911E-01
       -1   -1    0    0    0  501  0.00000000000E+00  0.00000000000E+00  0.27057645590E+04  0.27057645590E+04  0.50400001928E-02 0.  1.
        1   -1    0    0  501    0  0.00000000000E+00  0.00000000000E+00 -0.11315111473E+04  0.11315111473E+04  0.50400001928E-02 0. -1.
    10030    2    1    2    0    0  0.00000000000E+00  0.00000000000E+00  0.15742534117E+04  0.38372757063E+04  0.34994872542E+04 0.  0.
        5    1    3    3  502    0  0.35912906948E+03  0.13931009154E+04 -0.30493570535E+03  0.14706161033E+04  0.46999998093E+01 0. -1.
       -5    1    3    3    0  502 -0.35912906948E+03 -0.13931009154E+04  0.18791891170E+04  0.23666596030E+04  0.46999998093E+01 0.  1.
</event>
<event>
 5   0  0.3467834E-08  0.3501231E+04  0.7818609E-02  0.8113498E-01
        2   -1    0    0  501    0  0.00000000000E+00  0.00000000000E+00  0.20920066389E+04  0.20920066389E+04  0.25500000920E-02 0.  1.
       -2   -1    0    0    0  501  0.00000000000E+00  0.00000000000E+00 -0.14649352726E+04  0.14649352726E+04  0.25500000920E-02 0. -1.
    10030    2    1    2    0    0  0.00000000000E+00  0.00000000000E+00  0.62707136632E+03  0.35569419116E+04  0.35012308213E+04 0.  0.
        3    1    3    3  502    0  0.95722892451E+03  0.15040822368E+03  0.17947283650E+04  0.20395979412E+04  0.10100000352E+00 0.  1.
       -3    1    3    3    0  502 -0.95722892451E+03 -0.15040822368E+03 -0.11676569986E+04  0.15173439703E+04  0.10100000352E+00 0. -1.
</event>
<event>
 5   0  0.3628017E-08  0.3500882E+04  0.7818609E-02  0.8113581E-01
        2   -1    0    0  501    0  0.00000000000E+00  0.00000000000E+00  0.14269707448E+04  0.14269707448E+04  0.25500000920E-02 0.  1.
       -2   -1    0    0    0  501  0.00000000000E+00  0.00000000000E+00 -0.21472368750E+04  0.21472368750E+04  0.25500000920E-02 0. -1.
    10030    2    1    2    0    0  0.00000000000E+00  0.00000000000E+00 -0.72026613019E+03  0.35742076198E+04  0.35008822904E+04 0.  0.
        1    1    3    3  502    0 -0.12188991429E+04 -0.90160474675E+03  0.53308452377E+03  0.16071046480E+04  0.50400001928E-02 0.  1.
       -1    1    3    3    0  502  0.12188991429E+04  0.90160474675E+03 -0.12533506540E+04  0.19671029718E+04  0.50400001928E-02 0. -1.
</event>
<event>
 5   0  0.1121462E-08  0.3497828E+04  0.7818609E-02  0.8114305E-01
        3   -1    0    0  501    0  0.00000000000E+00  0.00000000000E+00  0.17503061843E+04  0.17503061872E+04  0.10100000352E+00 0. -1.
       -3   -1    0    0    0  501  0.00000000000E+00  0.00000000000E+00 -0.17475226128E+04  0.17475226157E+04  0.10100000352E+00 0.  1.
    10030    2    1    2    0    0  0.00000000000E+00  0.00000000000E+00  0.27835714886E+01  0.34978288030E+04  0.34978276954E+04 0.  0.
        5    1    3    3  502    0  0.30107775581E+03  0.39661515021E+02 -0.17209492329E+04  0.17475437628E+04  0.46999998093E+01 0.  1.
       -5    1    3    3    0  502 -0.30107775581E+03 -0.39661515021E+02  0.17237328044E+04  0.17502850401E+04  0.46999998093E+01 0. -1.
</event>
<event>
 5   0  0.1121462E-08  0.3499802E+04  0.7818609E-02  0.8113837E-01
        1   -1    0    0  501    0  0.00000000000E+00  0.00000000000E+00  0.25026574299E+04  0.25026574299E+04  0.50400001928E-02 0.  1.
       -1   -1    0    0    0  501  0.00000000000E+00  0.00000000000E+00 -0.12235605731E+04  0.12235605731E+04  0.50400001928E-02 0. -1.
    10030    2    1    2    0    0  0.00000000000E+00  0.00000000000E+00  0.12790968568E+04  0.37262180030E+04  0.34998016853E+04 0.  0.
        2    1    3    3  502    0 -0.14491155382E+04  0.71374411455E+03  0.13559747559E+04  0.21090362830E+04  0.25500000920E-02 0. -1.
       -2    1    3    3    0  502  0.14491155382E+04 -0.71374411455E+03 -0.76877899116E+02  0.16171817200E+04  0.25500000920E-02 0.  1.
</event>
<event>
 5   0  0.1129219E-08  0.3489251E+04  0.7818609E-02  0.8116342E-01
       -1   -1    0    0    0  501  0.00000000000E+00  0.00000000000E+00  0.29330966320E+04  0.29330966320E+04  0.50400001928E-02 0.  1.
        1   -1    0    0  501    0  0.00000000000E+00  0.00000000000E+00 -0.10377148780E+04  0.10377148780E+04  0.50400001928E-02 0. -1.
    10030    2    1    2    0    0  0.00000000000E+00  0.00000000000E+00  0.18953817539E+04  0.39708115100E+04  0.34892509303E+04 0.  0.
        5    1    3    3  502    0  0.14390055487E+04  0.11498713739E+03  0.20625581539E+04  0.25175637508E+04  0.46999998093E+01 0.  1.
       -5    1    3    3    0  502 -0.14390055487E+04 -0.11498713739E+03 -0.16717639997E+03  0.14532477592E+04  0.46999998093E+01 0. -1.
</event>
<event>
 5   0  0.1121462E-08  0.3500163E+04  0.7818609E-02  0.8113751E-01
       -1   -1    0    0    0  501  0.00000000000E+00  0.00000000000E+00  0.11410333841E+04  0.11410333841E+04  0.50400001928E-02 0. -1.
        1   -1    0    0  501    0  0.00000000000E+00  0.00000000000E+00 -0.26842204189E+04  0.26842204189E+04  0.50400001928E-02 0.  1.
    10030    2    1    2    0    0  0.00000000000E+00  0.00000000000E+00 -0.15431870348E+04  0.38252538030E+04  0.35001629152E+04 0.  0.
        2    1    3    3  502    0  0.82075937758E+03 -0.11946902908E+04 -0.18434253059E+04  0.23450261630E+04  0.25500000920E-02 0.  1.
       -2    1    3    3    0  502 -0.82075937758E+03  0.11946902908E+04  0.30023827107E+03  0.14802276400E+04  0.25500000920E-02 0. -1.
</event>
<event>
 5   0  0.1129219E-08  0.3500324E+04  0.7818609E-02  0.8113713E-01
       -1   -1    0    0    0  501  0.00000000000E+00  0.00000000000E+00  0.25060548851E+04  0.25060548851E+04  0.50400001928E-02 0. -1.
        1   -1    0    0  501    0  0.00000000000E+00  0.00000000000E+00 -0.12222666644E+04  0.12222666644E+04  0.50400001928E-02 0.  1.
    10030    2    1    2    0    0  0.00000000000E+00  0.00000000000E+00  0.12837882208E+04  0.37283215495E+04  0.35003241822E+04 0.  0.
        5    1    3    3  502    0 -0.23526890072E+03  0.16687318449E+04  0.13887484181E+03  0.16909540909E+04  0.46999998093E+01 0. -1.
       -5    1    3    3    0  502  0.23526890072E+03 -0.16687318449E+04  0.11449133790E+04  0.20373674586E+04  0.46999998093E+01 0.  1.
</event>
<event>
 5   0  0.1121462E-08  0.3499895E+04  0.7818609E-02  0.8113815E-01
       -1   -1    0    0    0  501  0.00000000000E+00  0.00000000000E+00  0.13934964886E+04  0.13934964886E+04  0.50400001928E-02 0. -1.
        1   -1    0    0  501    0  0.00000000000E+00  0.00000000000E+00 -0.21975768613E+04  0.21975768613E+04  0.50400001928E-02 0.  1.
    10030    2    1    2    0    0  0.00000000000E+00  0.00000000000E+00 -0.80408037274E+03  0.35910733499E+04  0.34998946496E+04 0.  0.
        2    1    3    3  502    0  0.17347892320E+04 -0.14937065576E+02 -0.16672096374E+03  0.17428461421E+04  0.25500000920E-02 0. -1.
       -2    1    3    3    0  502 -0.17347892320E+04  0.14937065576E+02 -0.63735940900E+03  0.18482272078E+04  0.25500000920E-02 0.  1.
</event>
<event>
 5   0  0.3467834E-08  0.3506841E+04  0.7818609E-02  0.8112171E-01
       -2   -1    0    0    0  501  0.00000000000E+00  0.00000000000E+00  0.10287809344E+04  0.10287809344E+04  0.25500000920E-02 0. -1.
        2   -1    0    0  501    0  0.00000000000E+00  0.00000000000E+00 -0.29884725056E+04  0.29884725056E+04  0.25500000920E-02 0.  1.
    10030    2    1    2    0    0  0.00000000000E+00  0.00000000000E+00 -0.19596915712E+04  0.40172534400E+04  0.35068410496E+04 0.  0.
        3    1    3    3  502    0 -0.56494374290E+03 -0.54300815319E+03  0.81704498665E+03  0.11320697008E+04  0.10100000352E+00 0. -1.
       -3    1    3    3    0  502  0.56494374290E+03  0.54300815319E+03 -0.27767365579E+04  0.28851837392E+04  0.10100000352E+00 0.  1.
</event>
<event>
 5   0  0.3553585E-08  0.3499966E+04  0.7818609E-02  0.8113798E-01
        2   -1    0    0  501    0  0.00000000000E+00  0.00000000000E+00  0.25797972727E+04  0.25797972727E+04  0.25500000920E-02 0.  1.
       -2   -1    0    0    0  501  0.00000000000E+00  0.00000000000E+00 -0.11870857009E+04  0.11870857009E+04  0.25500000920E-02 0. -1.
    10030    2    1    2    0    0  0.00000000000E+00  0.00000000000E+00  0.13927115718E+04  0.37668829737E+04  0.34999659734E+04 0.  0.
        2    1    3    3  502    0  0.10491607882E+04 -0.13265169509E+04  0.11801414231E+04  0.20623092297E+04  0.25500000920E-02 0. -1.
       -2    1    3    3    0  502 -0.10491607882E+04  0.13265169509E+04  0.21257014872E+03  0.17045737440E+04  0.25500000920E-02 0.  1.
</event>
<event>
 5   0  0.3628017E-08  0.3499709E+04  0.7818609E-02  0.8113859E-01
        2   -1    0    0  501    0  0.00000000000E+00  0.00000000000E+00  0.21385901080E+04  0.21385901080E+04  0.25500000920E-02 0. -1.
       -2   -1    0    0    0  501  0.00000000000E+00  0.00000000000E+00 -0.14317800043E+04  0.14317800043E+04  0.25500000920E-02 0.  1.
    10030    2    1    2    0    0  0.00000000000E+00  0.00000000000E+00  0.70681010373E+03  0.35703701123E+04  0.34997088759E+04 0.  0.
        1    1    3    3  502    0  0.11129578189E+04 -0.13159008740E+04  0.66237350634E+03  0.18463501507E+04  0.50400001928E-02 0. -1.
       -1    1    3    3    0  502 -0.11129578189E+04  0.13159008740E+04  0.44436597392E+02  0.17240199617E+04  0.50400001928E-02 0.  1.
</event>
<event>
 5   0  0.1121462E-08  0.3499219E+04  0.7818609E-02  0.8113975E-01
       -1   -1    0    0    0  501  0.00000000000E+00  0.00000000000E+00  0.20236113504E+04  0.20236113505E+04  0.50400001928E-02 0.  1.
        1   -1    0    0  501    0  0.00000000000E+00  0.00000000000E+00 -0.15127084312E+04  0.15127084312E+04  0.50400001928E-02 0. -1.
    10030    2    1    2    0    0  0.00000000000E+00  0.00000000000E+00  0.51090291926E+03  0.35363197817E+04  0.34992193137E+04 0.  0.
        2    1    3    3  502    0  0.14337403621E+04 -0.58391770853E+03  0.10793018037E+04  0.18871840662E+04  0.25500000920E-02 0.  1.
       -2    1    3    3    0  502 -0.14337403621E+04  0.58391770853E+03 -0.56839888442E+03  0.16491357155E+04  0.25500000920E-02 0. -1.
</event>
<event>
 5   0  0.3700096E-08  0.3497260E+04  0.7818609E-02  0.8114440E-01
       -2   -1    0    0    0  501  0.00000000000E+00  0.00000000000E+00  0.26049281323E+04  0.26049281323E+04  0.25500000920E-02 0.  1.
        2   -1    0    0  501    0  0.00000000000E+00  0.00000000000E+00 -0.11738161241E+04  0.11738161241E+04  0.25500000920E-02 0. -1.
    10030    2    1    2    0    0  0.00000000000E+00  0.00000000000E+00  0.14311120082E+04  0.37787442564E+04  0.34972598667E+04 0.  0.
        4    1    3    3  502    0 -0.27814496286E+03 -0.16999841189E+04  0.10404116158E+04  0.20124036792E+04  0.12699999809E+01 0. -1.
       -4    1    3    3    0  502  0.27814496286E+03  0.16999841189E+04  0.39070039237E+03  0.17663405771E+04  0.12699999809E+01 0.  1.
</event>
<event>
 5   0  0.1121462E-08  0.3499794E+04  0.7818609E-02  0.8113839E-01
        1   -1    0    0  501    0  0.00000000000E+00  0.00000000000E+00  0.17146818576E+04  0.17146818576E+04  0.50400001928E-02 0. -1.
       -1   -1    0    0    0  501  0.00000000000E+00  0.00000000000E+00 -0.17858354365E+04  0.17858354366E+04  0.50400001928E-02 0.  1.
    10030    2    1    2    0    0  0.00000000000E+00  0.00000000000E+00 -0.71153578934E+02  0.35005172942E+04  0.34997940647E+04 0.  0.
        1    1    3    3  502    0 -0.93469452903E+03  0.12885647430E+04 -0.76242267698E+03  0.17650329452E+04  0.50400001928E-02 0.  1.
       -1    1    3    3    0  502  0.93469452903E+03 -0.12885647430E+04  0.69126909804E+03  0.17354843489E+04  0.50400001928E-02 0. -1.
</event>
<event>
 5   0  0.1121462E-08  0.3472657E+04  0.7818609E-02  0.8120301E-01
       -1   -1    0    0    0  501  0.00000000000E+00  0.00000000000E+00  0.18818929112E+04  0.18818929112E+04  0.50400001928E-02 0. -1.
        1   -1    0    0  501    0  0.00000000000E+00  0.00000000000E+00 -0.16020233680E+04  0.16020233680E+04  0.50400001928E-02 0.  1.
    10030    2    1    2    0    0  0.00000000000E+00  0.00000000000E+00  0.27986954317E+03  0.34839162792E+04  0.34726568618E+04 0.  0.
        4    1    3    3  502    0  0.11841728492E+04 -0.11592343756E+04 -0.38015239999E+03  0.17001785596E+04  0.12699999809E+01 0. -1.
       -4    1    3    3    0  502 -0.11841728492E+04  0.11592343756E+04  0.66002194315E+03  0.17837377197E+04  0.12699999809E+01 0.  1.
</event>
<event>
 5   0  0.3467834E-08  0.3502080E+04  0.7818609E-02  0.8113297E-01
       -2   -1    0    0    0  501  0.00000000000E+00  0.00000000000E+00  0.31186699277E+04  0.31186699277E+04  0.25500000920E-02 0.  1.
        2   -1    0    0  501    0  0.00000000000E+00  0.00000000000E+00 -0.98315687428E+03  0.98315687428E+03  0.25500000920E-02 0. -1.
    10030    2    1    2    0    0  0.00000000000E+00  0.00000000000E+00  0.21355130534E+04  0.41018268020E+04  0.35020803977E+04 0.  0.
        3    1    3    3  502    0 -0.83904958244E+03  0.11542552361E+04 -0.12084007842E+03  0.14321004457E+04  0.10100000352E+00 0. -1.
       -3    1    3    3    0  502  0.83904958244E+03 -0.11542552361E+04  0.22563531319E+04  0.26697263563E+04  0.10100000352E+00 0.  1.
</event>
<event>
 5   0  0.1129219E-08  0.3499908E+04  0.7818609E-02  0.8113812E-01
        1   -1    0    0  501    0  0.00000000000E+00  0.00000000000E+00  0.15607316884E+04  0.15607316884E+04  0.50400001928E-02 0.  1.
       -1   -1    0    0    0  501  0.00000000000E+00  0.00000000000E+00 -0.19621172704E+04  0.19621172704E+04  0.50400001928E-02 0. -1.
    10030    2    1    2    0    0  0.00000000000E+00  0.00000000000E+00 -0.40138558193E+03  0.35228489588E+04  0.34999077704E+04 0.  0.
        5    1    3    3  502    0  0.74535697902E+03  0.58959490391E+03  0.12783391626E+04  0.15929068653E+04  0.46999998093E+01 0.  1.
       -5    1    3    3    0  502 -0.74535697902E+03 -0.58959490391E+03 -0.16797247445E+04  0.19299420935E+04  0.46999998093E+01 0. -1.
</event>
<event>
 5   0  0.3467834E-08  0.3511471E+04  0.7818609E-02  0.8111077E-01
       -2   -1    0    0    0  501  0.00000000000E+00  0.00000000000E+00  0.18600582838E+04  0.18600582838E+04  0.25500000920E-02 0.  1.
        2   -1    0    0  501    0  0.00000000000E+00  0.00000000000E+00 -0.16572641283E+04  0.16572641283E+04  0.25500000920E-02 0. -1.
    10030    2    1    2    0    0  0.00000000000E+00  0.00000000000E+00  0.20279415549E+03  0.35173224120E+04  0.35114714125E+04 0.  0.
        3    1    3    3  502    0  0.44949890373E+03  0.98761000563E+03  0.14839813979E+04  0.18383752574E+04  0.10100000352E+00 0.  1.
       -3    1    3    3    0  502 -0.44949890373E+03 -0.98761000563E+03 -0.12811872424E+04  0.16789471546E+04  0.10100000352E+00 0. -1.
</event>
<event>
 5   0  0.1121462E-08  0.3501325E+04  0.7818609E-02  0.8113476E-01
       -1   -1    0    0    0  501  0.00000000000E+00  0.00000000000E+00  0.25654554690E+04  0.25654554690E+04  0.50400001928E-02 0.  1.
        1   -1    0    0  501    0  0.00000000000E+00  0.00000000000E+00 -0.11946492997E+04  0.11946492998E+04  0.50400001928E-02 0. -1.
    10030    2    1    2    0    0  0.00000000000E+00  0.00000000000E+00  0.13708061692E+04  0.37601047687E+04  0.35013252232E+04 0.  0.
        1    1    3    3  502    0  0.70253017846E+03  0.21246772222E+03 -0.10214463155E+04  0.12577932104E+04  0.50400001928E-02 0. -1.
       -1    1    3    3    0  502 -0.70253017846E+03 -0.21246772222E+03  0.23922524847E+04  0.25023115584E+04  0.50400001928E-02 0.  1.
</event>
<event>
 5   0  0.1129219E-08  0.3501946E+04  0.7818609E-02  0.8113329E-01
        1   -1    0    0  501    0  0.00000000000E+00  0.00000000000E+00  0.18303401423E+04  0.18303401423E+04  0.50400001928E-02 0. -1.
       -1   -1    0    0    0  501  0.00000000000E+00  0.00000000000E+00 -0.16750471657E+04  0.16750471657E+04  0.50400001928E-02 0.  1.
    10030    2    1    2    0    0  0.00000000000E+00  0.00000000000E+00  0.15529297666E+03  0.35053873080E+04  0.35019457835E+04 0.  0.
        5    1    3    3  502    0  0.20352872511E+03  0.16964738677E+04 -0.30539974015E+03  0.17357242341E+04  0.46999998093E+01 0. -1.
       -5    1    3    3    0  502 -0.20352872511E+03 -0.16964738677E+04  0.46069271681E+03  0.17696630739E+04  0.46999998093E+01 0.  1.
</event>
<event>
 5   0  0.3554451E-08  0.3497242E+04  0.7818609E-02  0.8114444E-01
       -2   -1    0    0    0  501  0.00000000000E+00  0.00000000000E+00  0.10938020237E+04  0.10938020237E+04  0.25500000920E-02 0.  1.
        2   -1    0    0  501    0  0.00000000000E+00  0.00000000000E+00 -0.27954559550E+04  0.27954559550E+04  0.25500000920E-02 0. -1.
    10030    2    1    2    0    0  0.00000000000E+00  0.00000000000E+00 -0.17016539313E+04  0.38892579787E+04  0.34972419880E+04 0.  0.
        5    1    3    3  502    0 -0.12249123524E+04  0.12008647465E+04 -0.12282295489E+04  0.21097526692E+04  0.46999998093E+01 0. -1.
       -5    1    3    3    0  502  0.12249123524E+04 -0.12008647465E+04 -0.47342438242E+03  0.17795053094E+04  0.46999998093E+01 0.  1.
</event>
<event>
 5   0  0.1121462E-08  0.3500068E+04  0.7818609E-02  0.8113774E-01
        1   -1    0    0  501    0  0.00000000000E+00  0.00000000000E+00  0.17981745334E+04  0.17981745334E+04  0.50400001928E-02 0.  1.
       -1   -1    0    0    0  501  0.00000000000E+00  0.00000000000E+00 -0.17031819556E+04  0.17031819556E+04  0.50400001928E-02 0. -1.
    10030    2    1    2    0    0  0.00000000000E+00  0.00000000000E+00  0.94992577779E+02  0.35013564890E+04  0.35000676670E+04 0.  0.
        1    1    3    3  502    0 -0.48638795726E+03 -0.35847497544E+03 -0.15955277067E+04  0.17061026393E+04  0.50400001928E-02 0. -1.
       -1    1    3    3    0  502  0.48638795726E+03  0.35847497544E+03  0.16905202844E+04  0.17952538498E+04  0.50400001928E-02 0.  1.
</event>
<event>
 5   0  0.3554451E-08  0.3506980E+04  0.7818609E-02  0.8112138E-01
       -2   -1    0    0    0  501  0.00000000000E+00  0.00000000000E+00  0.15035436469E+04  0.15035436469E+04  0.25500000920E-02 0. -1.
        2   -1    0    0  501    0  0.00000000000E+00  0.00000000000E+00 -0.20449870605E+04  0.20449870605E+04  0.25500000920E-02 0.  1.
    10030    2    1    2    0    0  0.00000000000E+00  0.00000000000E+00 -0.54144341356E+03  0.35485307074E+04  0.35069800700E+04 0.  0.
        5    1    3    3  502    0 -0.14615129743E+04 -0.96395132682E+03 -0.17218787781E+03  0.17592308233E+04  0.46999998093E+01 0. -1.
       -5    1    3    3    0  502  0.14615129743E+04  0.96395132682E+03 -0.36925553575E+03  0.17892998841E+04  0.46999998093E+01 0.  1.
</event>
<event>
 5   0  0.1121462E-08  0.3493113E+04  0.7818609E-02  0.8115424E-01
       -1   -1    0    0    0  501  0.00000000000E+00  0.00000000000E+00  0.12679608410E+04  0.12679608410E+04  0.50400001928E-02 0.  1.
        1   -1    0    0  501    0  0.00000000000E+00  0.00000000000E+00 -0.24057997234E+04  0.24057997234E+04  0.50400001928E-02 0. -1.
    10030    2    1    2    0    0  0.00000000000E+00  0.00000000000E+00 -0.11378388825E+04  0.36737605644E+04  0.34931131333E+04 0.  0.
        2    1    3    3  502    0  0.11197093919E+04  0.12513640811E+04 -0.63659539680E+02  0.16803909434E+04  0.25500000920E-02 0.  1.
       -2    1    3    3    0  502 -0.11197093919E+04 -0.12513640811E+04 -0.10741793428E+04  0.19933696210E+04  0.25500000920E-02 0. -1.
</event>
<event>
 5   0  0.1140808E-08  0.3500642E+04  0.7818609E-02  0.8113638E-01
       -1   -1    0    0    0  501  0.00000000000E+00  0.00000000000E+00  0.20074210535E+04  0.20074210535E+04  0.50400001928E-02 0.  1.
        1   -1    0    0  501    0  0.00000000000E+00  0.00000000000E+00 -0.15261487300E+04  0.15261487300E+04  0.50400001928E-02 0. -1.
    10030    2    1    2    0    0  0.00000000000E+00  0.00000000000E+00  0.48127232348E+03  0.35335697835E+04  0.35006417077E+04 0.  0.
        3    1    3    3  502    0 -0.16526277229E+04 -0.26894973484E+03 -0.27417166914E+03  0.16966680479E+04  0.10100000352E+00 0. -1.
       -3    1    3    3    0  502  0.16526277229E+04  0.26894973484E+03  0.75544399262E+03  0.18369017357E+04  0.10100000352E+00 0.  1.
</event>
<event>
 5   0  0.1129219E-08  0.3499222E+04  0.7818609E-02  0.8113974E-01
       -1   -1    0    0    0  501  0.00000000000E+00  0.00000000000E+00  0.16243599094E+04  0.16243599094E+04  0.50400001928E-02 0. -1.
        1   -1    0    0  501    0  0.00000000000E+00  0.00000000000E+00 -0.18845202051E+04  0.18845202051E+04  0.50400001928E-02 0.  1.
    10030    2    1    2    0    0  0.00000000000E+00  0.00000000000E+00 -0.26016029574E+03  0.35088801145E+04  0.34992222391E+04 0.  0.
        5    1    3    3  502    0  0.14029704378E+03 -0.30658218189E+03 -0.18516298710E+04  0.18820816040E+04  0.46999998093E+01 0.  1.
       -5    1    3    3    0  502 -0.14029704378E+03  0.30658218189E+03  0.15914695753E+04  0.16267985105E+04  0.46999998093E+01 0. -1.
</event>
<event>
 5   0  0.3553585E-08  0.3481881E+04  0.7818609E-02  0.8118097E-01
        2   -1    0    0  501    0  0.00000000000E+00  0.00000000000E+00  0.20977490625E+04  0.20977490625E+04  0.25500000920E-02 0. -1.
       -2   -1    0    0    0  501  0.00000000000E+00  0.00000000000E+00 -0.14448218663E+04  0.14448218663E+04  0.25500000920E-02 0.  1.
    10030    2    1    2    0    0  0.00000000000E+00  0.00000000000E+00  0.65292719618E+03  0.35425709288E+04  0.34818809374E+04 0.  0.
        2    1    3    3  502    0 -0.85965029816E+03 -0.60230880379E+03 -0.10866657527E+04  0.15108332100E+04  0.25500000920E-02 0.  1.
       -2    1    3    3    0  502  0.85965029816E+03  0.60230880379E+03  0.17395929489E+04  0.20317377188E+04  0.25500000920E-02 0. -1.
</event>
<event>
 5   0  0.3628017E-08  0.3498972E+04  0.7818609E-02  0.8114034E-01
       -2   -1    0    0    0  501  0.00000000000E+00  0.00000000000E+00  0.14571077062E+04  0.14571077062E+04  0.25500000920E-02 0. -1.
        2   -1    0    0  501    0  0.00000000000E+00  0.00000000000E+00 -0.21005317248E+04  0.21005317248E+04  0.25500000920E-02 0.  1.
    10030    2    1    2    0    0  0.00000000000E+00  0.00000000000E+00 -0.64342401857E+03  0.35576394311E+04  0.34989718281E+04 0.  0.
        1    1    3    3  502    0  0.15114730540E+04  0.83546443088E+03 -0.60595134752E+03  0.18302263914E+04  0.50400001928E-02 0.  1.
       -1    1    3    3    0  502 -0.15114730540E+04 -0.83546443088E+03 -0.37472671049E+02  0.17274130396E+04  0.50400001928E-02 0. -1.
</event>
<event>
 5   0  0.1121462E-08  0.3501057E+04  0.7818609E-02  0.8113540E-01
       -1   -1    0    0    0  501  0.00000000000E+00  0.00000000000E+00  0.15303979015E+04  0.15303979015E+04  0.50400001928E-02 0. -1.
        1   -1    0    0  501    0  0.00000000000E+00  0.00000000000E+00 -0.20023218727E+04  0.20023218727E+04  0.50400001928E-02 0.  1.
    10030    2    1    2    0    0  0.00000000000E+00  0.00000000000E+00 -0.47192397123E+03  0.35327197742E+04  0.35010565217E+04 0.  0.
        1    1    3    3  502    0 -0.69497950422E+03  0.15422536470E+04  0.21845113448E+03  0.17056563901E+04  0.50400001928E-02 0. -1.
       -1    1    3    3    0  502  0.69497950422E+03 -0.15422536470E+04 -0.69037510571E+03  0.18270633841E+04  0.50400001928E-02 0.  1.
</event>
<event>
 5   0  0.1140808E-08  0.3499719E+04  0.7818609E-02  0.8113857E-01
       -1   -1    0    0    0  501  0.00000000000E+00  0.00000000000E+00  0.11550121097E+04  0.11550121097E+04  0.50400001928E-02 0. -1.
        1   -1    0    0  501    0  0.00000000000E+00  0.00000000000E+00 -0.26510613878E+04  0.26510613878E+04  0.50400001928E-02 0.  1.
    10030    2    1    2    0    0  0.00000000000E+00  0.00000000000E+00 -0.14960492781E+04  0.38060734975E+04  0.34997188495E+04 0.  0.
        3    1    3    3  502    0 -0.57918667550E+03  0.31596903481E+02 -0.25434662412E+04  0.26087690775E+04  0.10100000352E+00 0.  1.
       -3    1    3    3    0  502  0.57918667550E+03 -0.31596903481E+02  0.10474169631E+04  0.11973044200E+04  0.10100000352E+00 0. -1.
</event>
<event>
 5   0  0.1140808E-08  0.3501114E+04  0.7818609E-02  0.8113526E-01
       -1   -1    0    0    0  501  0.00000000000E+00  0.00000000000E+00  0.11716060573E+04  0.11716060573E+04  0.50400001928E-02 0. -1.
        1   -1    0    0  501    0  0.00000000000E+00  0.00000000000E+00 -0.26155978339E+04  0.26155978339E+04  0.50400001928E-02 0.  1.
    10030    2    1    2    0    0  0.00000000000E+00  0.00000000000E+00 -0.14439917766E+04  0.37872038913E+04  0.35011142602E+04 0.  0.
        3    1    3    3  502    0 -0.13543765406E+04  0.36944456734E+02 -0.19210646482E+04  0.23507849964E+04  0.10100000352E+00 0.  1.
       -3    1    3    3    0  502  0.13543765406E+04 -0.36944456734E+02  0.47707287161E+03  0.14364188949E+04  0.10100000352E+00 0. -1.
</event>
<event>
 5   0  0.1121462E-08  0.3499476E+04  0.7818609E-02  0.8113914E-01
       -1   -1    0    0    0  501  0.00000000000E+00  0.00000000000E+00  0.14170865886E+04  0.14170865886E+04  0.50400001928E-02 0.  1.
        1   -1    0    0  501    0  0.00000000000E+00  0.00000000000E+00 -0.21604773057E+04  0.21604773057E+04  0.50400001928E-02 0. -1.
    10030    2    1    2    0    0  0.00000000000E+00  0.00000000000E+00 -0.74339071712E+03  0.35775638943E+04  0.34994761978E+04 0.  0.
        4    1    3    3  502    0 -0.87344122462E+03 -0.14111944910E+04 -0.93833073022E+03  0.19065244914E+04  0.12699999809E+01 0. -1.
       -4    1    3    3    0  502  0.87344122462E+03  0.14111944910E+04  0.19494001309E+03  0.16710394028E+04  0.12699999809E+01 0.  1.
</event>
<event>
 5   0  0.3628017E-08  0.3498261E+04  0.7818609E-02  0.8114202E-01
       -2   -1    0    0    0  501  0.00000000000E+00  0.00000000000E+00  0.22509004818E+04  0.22509004818E+04  0.25500000920E-02 0. -1.
        2   -1    0    0  501    0  0.00000000000E+00  0.00000000000E+00 -0.13592147099E+04  0.13592147099E+04  0.25500000920E-02 0.  1.
    10030    2    1    2    0    0  0.00000000000E+00  0.00000000000E+00  0.89168577194E+03  0.36101151917E+04  0.34982607367E+04 0.  0.
        1    1    3    3  502    0 -0.10243387596E+03  0.17440644098E+04  0.53343118932E+03  0.18266915991E+04  0.50400001928E-02 0.  1.
       -1    1    3    3    0  502  0.10243387596E+03 -0.17440644098E+04  0.35825458262E+03  0.17834235926E+04  0.50400001928E-02 0. -1.
</event>
<event>
 5   0  0.3467834E-08  0.3502891E+04  0.7818609E-02  0.8113105E-01
       -2   -1    0    0    0  501  0.00000000000E+00  0.00000000000E+00  0.14871347306E+04  0.14871347306E+04  0.25500000920E-02 0. -1.
        2   -1    0    0  501    0  0.00000000000E+00  0.00000000000E+00 -0.20627329011E+04  0.20627329011E+04  0.25500000920E-02 0.  1.
    10030    2    1    2    0    0  0.00000000000E+00  0.00000000000E+00 -0.57559817045E+03  0.35498676317E+04  0.35028912271E+04 0.  0.
        3    1    3    3  502    0 -0.10880533858E+04 -0.13372758052E+04  0.25203743544E+02  0.17241815416E+04  0.10100000352E+00 0. -1.
       -3    1    3    3    0  502  0.10880533858E+04  0.13372758052E+04 -0.60080191399E+03  0.18256860901E+04  0.10100000352E+00 0.  1.
</event>
<event>
 5   0  0.1140808E-08  0.3499753E+04  0.7818609E-02  0.8113848E-01
        1   -1    0    0  501    0  0.00000000000E+00  0.00000000000E+00  0.24393845519E+04  0.24393845519E+04  0.50400001928E-02 0.  1.
       -1   -1    0    0    0  501  0.00000000000E+00  0.00000000000E+00 -0.12552624684E+04  0.12552624684E+04  0.50400001928E-02 0. -1.
    10030    2    1    2    0    0  0.00000000000E+00  0.00000000000E+00  0.11841220834E+04  0.36946470203E+04  0.34997530622E+04 0.  0.
        3    1    3    3  502    0  0.54800707240E+03  0.16557623712E+04  0.44199329609E+03  0.17992272967E+04  0.10100000352E+00 0. -1.
       -3    1    3    3    0  502 -0.54800707240E+03 -0.16557623712E+04  0.74212878735E+03  0.18954197236E+04  0.10100000352E+00 0.  1.
</event>
<event>
 5   0  0.3700096E-08  0.3500751E+04  0.7818609E-02  0.8113612E-01
        2   -1    0    0  501    0  0.00000000000E+00  0.00000000000E+00  0.19656129018E+04  0.19656129018E+04  0.25500000920E-02 0.  1.
       -2   -1    0    0    0  501  0.00000000000E+00  0.00000000000E+00 -0.15587070185E+04  0.15587070185E+04  0.25500000920E-02 0. -1.
    10030    2    1    2    0    0  0.00000000000E+00  0.00000000000E+00  0.40690588329E+03  0.35243199202E+04  0.35007511340E+04 0.  0.
        4    1    3    3  502    0 -0.14056012806E+04  0.68858502763E+03  0.99227697308E+03  0.18532348757E+04  0.12699999809E+01 0.  1.
       -4    1    3    3    0  502  0.14056012806E+04 -0.68858502763E+03 -0.58537108978E+03  0.16710850445E+04  0.12699999809E+01 0. -1.
</event>
<event>
 5   0  0.1140808E-08  0.3502242E+04  0.7818609E-02  0.8113259E-01
       -1   -1    0    0    0  501  0.00000000000E+00  0.00000000000E+00  0.11950493948E+04  0.11950493948E+04  0.50400001928E-02 0.  1.
        1   -1    0    0  501    0  0.00000000000E+00  0.00000000000E+00 -0.25659395465E+04  0.25659395465E+04  0.50400001928E-02 0. -1.
    10030    2    1    2    0    0  0.00000000000E+00  0.00000000000E+00 -0.13708901517E+04  0.37609889413E+04  0.35022418547E+04 0.  0.
        3    1    3    3  502    0 -0.10893153177E+04 -0.78499778027E+03 -0.18925913319E+04  0.23205023888E+04  0.10100000352E+00 0.  1.
       -3    1    3    3    0  502  0.10893153177E+04  0.78499778027E+03  0.52170118022E+03  0.14404865526E+04  0.10100000352E+00 0. -1.
</event>
<event>
 5   0  0.1140808E-08  0.3499668E+04  0.7818609E-02  0.8113869E-01
        1   -1    0    0  501    0  0.00000000000E+00  0.00000000000E+00  0.23433696917E+04  0.23433696917E+04  0.50400001928E-02 0.  1.
       -1   -1    0    0    0  501  0.00000000000E+00  0.00000000000E+00 -0.13066308313E+04  0.13066308314E+04  0.50400001928E-02 0. -1.
    10030    2    1    2    0    0  0.00000000000E+00  0.00000000000E+00  0.10367388603E+04  0.36500005230E+04  0.34996680348E+04 0.  0.
        3    1    3    3  502    0  0.15797407841E+04  0.71018871433E+03  0.25873800560E+03  0.17512550701E+04  0.10100000352E+00 0. -1.
       -3    1    3    3    0  502 -0.15797407841E+04 -0.71018871433E+03  0.77800085473E+03  0.18987454529E+04  0.10100000352E+00 0.  1.
</event>
<event>
 5   0  0.3554451E-08  0.3474646E+04  0.7818609E-02  0.8119825E-01
       -2   -1    0    0    0  501  0.00000000000E+00  0.00000000000E+00  0.12998082962E+04  0.12998082962E+04  0.25500000920E-02 0. -1.
        2   -1    0    0  501    0  0.00000000000E+00  0.00000000000E+00 -0.23221043634E+04  0.23221043634E+04  0.25500000920E-02 0.  1.
    10030    2    1    2    0    0  0.00000000000E+00  0.00000000000E+00 -0.10222960672E+04  0.36219126596E+04  0.34746456028E+04 0.  0.
        5    1    3    3  502    0  0.70268155463E+03 -0.67399203050E+03  0.98866800971E+03  0.13876286059E+04  0.46999998093E+01 0. -1.
       -5    1    3    3    0  502 -0.70268155463E+03  0.67399203050E+03 -0.20109640769E+04  0.22342840538E+04  0.46999998093E+01 0.  1.
</event>
<event>
 5   0  0.1121462E-08  0.3498516E+04  0.7818609E-02  0.8114142E-01
        1   -1    0    0  501    0  0.00000000000E+00  0.00000000000E+00  0.14287104891E+04  0.14287104891E+04  0.50400001928E-02 0.  1.
       -1   -1    0    0    0  501  0.00000000000E+00  0.00000000000E+00 -0.21417244810E+04  0.21417244810E+04  0.50400001928E-02 0. -1.
    10030    2    1    2    0    0  0.00000000000E+00  0.00000000000E+00 -0.71301399191E+03  0.35704349701E+04  0.34985163889E+04 0.  0.
        4    1    3    3  502    0  0.51171436308E+03  0.99779867347E+03 -0.17266588024E+04  0.20588360826E+04  0.12699999809E+01 0. -1.
       -4    1    3    3    0  502 -0.51171436308E+03 -0.99779867347E+03  0.10136448105E+04  0.15115988876E+04  0.12699999809E+01 0.  1.
</event>
<event>
 5   0  0.1140808E-08  0.3509467E+04  0.7818609E-02  0.8111550E-01
        1   -1    0    0  501    0  0.00000000000E+00  0.00000000000E+00  0.11815724646E+04  0.11815724646E+04  0.50400001928E-02 0. -1.
       -1   -1    0    0    0  501  0.00000000000E+00  0.00000000000E+00 -0.26059256818E+04  0.26059256818E+04  0.50400001928E-02 0.  1.
    10030    2    1    2    0    0  0.00000000000E+00  0.00000000000E+00 -0.14243532172E+04  0.37874981463E+04  0.35094672133E+04 0.  0.
        3    1    3    3  502    0  0.11652335550E+04 -0.87023725080E+03  0.34744678608E+03  0.14952596395E+04  0.10100000352E+00 0. -1.
       -3    1    3    3    0  502 -0.11652335550E+04  0.87023725080E+03 -0.17718000033E+04  0.22922385068E+04  0.10100000352E+00 0.  1.
</event>
<event>
 5   0  0.3553585E-08  0.3500416E+04  0.7818609E-02  0.8113691E-01
       -2   -1    0    0    0  501  0.00000000000E+00  0.00000000000E+00  0.14424637027E+04  0.14424637027E+04  0.25500000920E-02 0. -1.
        2   -1    0    0  501    0  0.00000000000E+00  0.00000000000E+00 -0.21236085021E+04  0.21236085021E+04  0.25500000920E-02 0.  1.
    10030    2    1    2    0    0  0.00000000000E+00  0.00000000000E+00 -0.68114479948E+03  0.35660722048E+04  0.35004160798E+04 0.  0.
        2    1    3    3  502    0  0.41315841863E+03 -0.12055495591E+04 -0.15627316612E+04  0.20164770922E+04  0.25500000920E-02 0.  1.
       -2    1    3    3    0  502 -0.41315841863E+03  0.12055495591E+04  0.88158686168E+03  0.15495951126E+04  0.25500000920E-02 0. -1.
</event>
<event>
 5   0  0.1121462E-08  0.3501682E+04  0.7818609E-02  0.8113392E-01
       -1   -1    0    0    0  501  0.00000000000E+00  0.00000000000E+00  0.26063525505E+04  0.26063525505E+04  0.50400001928E-02 0.  1.
        1   -1    0    0  501    0  0.00000000000E+00  0.00000000000E+00 -0.11761431067E+04  0.11761431067E+04  0.50400001928E-02 0. -1.
    10030    2    1    2    0    0  0.00000000000E+00  0.00000000000E+00  0.14302094437E+04  0.37824956572E+04  0.35016816451E+04 0.  0.
        1    1    3    3  502    0 -0.47185398517E+03 -0.16849630407E+04  0.78078330852E+03  0.19160817328E+04  0.50400001928E-02 0. -1.
       -1    1    3    3    0  502  0.47185398517E+03  0.16849630407E+04  0.64942613521E+03  0.18664139244E+04  0.50400001928E-02 0.  1.
</event>
<event>
 5   0  0.3628017E-08  0.3502376E+04  0.7818609E-02  0.8113227E-01
       -2   -1    0    0    0  501  0.00000000000E+00  0.00000000000E+00  0.24417293009E+04  0.24417293009E+04  0.25500000920E-02 0.  1.
        2   -1    0    0  501    0  0.00000000000E+00  0.00000000000E+00 -0.12559372067E+04  0.12559372067E+04  0.25500000920E-02 0. -1.
    10030    2    1    2    0    0  0.00000000000E+00  0.00000000000E+00  0.11857920942E+04  0.36976665076E+04  0.35023755811E+04 0.  0.
        1    1    3    3  502    0 -0.37060985370E+03  0.15884126534E+04 -0.80023147630E+02  0.16330370863E+04  0.50400001928E-02 0.  1.
       -1    1    3    3    0  502  0.37060985370E+03 -0.15884126534E+04  0.12658152418E+04  0.20646294213E+04  0.50400001928E-02 0. -1.
</event>
<event>
 5   0  0.1121462E-08  0.3499220E+04  0.7818609E-02  0.8113975E-01
       -1   -1    0    0    0  501  0.00000000000E+00  0.00000000000E+00  0.22444017525E+04  0.22444017525E+04  0.50400001928E-02 0.  1.
        1   -1    0    0  501    0  0.00000000000E+00  0.00000000000E+00 -0.13638983010E+04  0.13638983011E+04  0.50400001928E-02 0. -1.
    10030    2    1    2    0    0  0.00000000000E+00  0.00000000000E+00  0.88050345144E+03  0.36083000535E+04  0.34992203344E+04 0.  0.
        2    1    3    3  502    0  0.14374244013E+04  0.71047442712E+03  0.11621998807E+04  0.19803210305E+04  0.25500000920E-02 0.  1.
       -2    1    3    3    0  502 -0.14374244013E+04 -0.71047442712E+03 -0.28169642926E+03  0.16279790230E+04  0.25500000920E-02 0. -1.
</event>
<event>
 5   0  0.1121462E-08  0.3500666E+04  0.7818609E-02  0.8113632E-01
       -1   -1    0    0    0  501  0.00000000000E+00  0.00000000000E+00  0.13384987468E+04  0.13384987468E+04  0.50400001928E-02 0. -1.
        1   -1    0    0  501    0  0.00000000000E+00  0.00000000000E+00 -0.22888821993E+04  0.22888821993E+04  0.50400001928E-02 0.  1.
    10030    2    1    2    0    0  0.00000000000E+00  0.00000000000E+00 -0.95038345243E+03  0.36273809461E+04  0.35006661968E+04 0.  0.
        4    1    3    3  502    0  0.70478825290E+03 -0.13117785112E+04  0.47798309394E+03  0.15639561359E+04  0.12699999809E+01 0. -1.
       -4    1    3    3    0  502 -0.70478825290E+03  0.13117785112E+04 -0.14283665464E+04  0.20634248103E+04  0.12699999809E+01 0.  1.
</event>
<event>
 5   0  0.3467834E-08  0.3502912E+04  0.7818609E-02  0.8113100E-01
       -2   -1    0    0    0  501  0.00000000000E+00  0.00000000000E+00  0.20551421183E+04  0.20551421183E+04  0.25500000920E-02 0.  1.
        2   -1    0    0  501    0  0.00000000000E+00  0.00000000000E+00 -0.14926453386E+04  0.14926453386E+04  0.25500000920E-02 0. -1.
    10030    2    1    2    0    0  0.00000000000E+00  0.00000000000E+00  0.56249677975E+03  0.35477874569E+04  0.35029121045E+04 0.  0.
        3    1    3    3  502    0 -0.12090220612E+03 -0.14700432919E+04  0.12377803865E+04  0.19255505496E+04  0.10100000352E+00 0.  1.
       -3    1    3    3    0  502  0.12090220612E+03  0.14700432919E+04 -0.67528360677E+03  0.16222369073E+04  0.10100000352E+00 0. -1.
</event>
<event>
 5   0  0.1140808E-08  0.3502735E+04  0.7818609E-02  0.8113142E-01
       -1   -1    0    0    0  501  0.00000000000E+00  0.00000000000E+00  0.17542974906E+04  0.17542974906E+04  0.50400001928E-02 0.  1.
        1   -1    0    0  501    0  0.00000000000E+00  0.00000000000E+00 -0.17484428641E+04  0.17484428641E+04  0.50400001928E-02 0. -1.
    10030    2    1    2    0    0  0.00000000000E+00  0.00000000000E+00  0.58546264802E+01  0.35027403548E+04  0.35027354619E+04 0.  0.
        3    1    3    3  502    0  0.36463115900E+03 -0.16013358608E+04  0.61125085515E+03  0.17523869548E+04  0.10100000352E+00 0.  1.
       -3    1    3    3    0  502 -0.36463115900E+03  0.16013358608E+04 -0.60539622867E+03  0.17503534000E+04  0.10100000352E+00 0. -1.
</event>
<event>
 5   0  0.3553585E-08  0.3499617E+04  0.7818609E-02  0.8113881E-01
       -2   -1    0    0    0  501  0.00000000000E+00  0.00000000000E+00  0.11952011505E+04  0.11952011505E+04  0.25500000920E-02 0.  1.
        2   -1    0    0  501    0  0.00000000000E+00  0.00000000000E+00 -0.25617697284E+04  0.25617697284E+04  0.25500000920E-02 0. -1.
    10030    2    1    2    0    0  0.00000000000E+00  0.00000000000E+00 -0.13665685778E+04  0.37569708789E+04  0.34996171944E+04 0.  0.
        2    1    3    3  502    0 -0.11541416271E+04 -0.12367493464E+04 -0.20289773140E+03  0.17037486113E+04  0.25500000920E-02 0.  1.
       -2    1    3    3    0  502  0.11541416271E+04  0.12367493464E+04 -0.11636708464E+04  0.20532222676E+04  0.25500000920E-02 0. -1.
</event>
<event>
 5   0  0.3467834E-08  0.3500444E+04  0.7818609E-02  0.8113685E-01
        2   -1    0    0  501    0  0.00000000000E+00  0.00000000000E+00  0.30816029377E+04  0.30816029377E+04  0.25500000920E-02 0.  1.
       -2   -1    0    0    0  501  0.00000000000E+00  0.00000000000E+00 -0.99405340113E+03  0.99405340113E+03  0.25500000920E-02 0. -1.
    10030    2    1    2    0    0  0.00000000000E+00  0.00000000000E+00  0.20875495366E+04  0.40756563388E+04  0.35004444753E+04 0.  0.
        3    1    3    3  502    0 -0.81908083888E+03  0.14954496841E+04  0.15036681013E+04  0.22733853495E+04  0.10100000352E+00 0.  1.
       -3    1    3    3    0  502  0.81908083888E+03 -0.14954496841E+04  0.58388143524E+03  0.18022709893E+04  0.10100000352E+00 0. -1.
</event>
<event>
 5   0  0.3553585E-08  0.3500406E+04  0.7818609E-02  0.8113694E-01
        2   -1    0    0  501    0  0.00000000000E+00  0.00000000000E+00  0.20761315320E+04  0.20761315320E+04  0.25500000920E-02 0. -1.
       -2   -1    0    0    0  501  0.00000000000E+00  0.00000000000E+00 -0.14754414657E+04  0.14754414657E+04  0.25500000920E-02 0.  1.
    10030    2    1    2    0    0  0.00000000000E+00  0.00000000000E+00  0.60069006636E+03  0.35515729977E+04  0.35004060054E+04 0.  0.
        2    1    3    3  502    0 -0.11295802274E+04  0.44781644307E+03  0.15784084500E+04  0.19919498719E+04  0.25500000920E-02 0. -1.
       -2    1    3    3    0  502  0.11295802274E+04 -0.44781644307E+03 -0.97771838368E+03  0.15596231259E+04  0.25500000920E-02 0.  1.
</event>
<event>
 5   0  0.3553585E-08  0.3498991E+04  0.7818609E-02  0.8114029E-01
        2   -1    0    0  501    0  0.00000000000E+00  0.00000000000E+00  0.13182551062E+04  0.13182551062E+04  0.25500000920E-02 0. -1.
       -2   -1    0    0    0  501  0.00000000000E+00  0.00000000000E+00 -0.23218072395E+04  0.23218072395E+04  0.25500000920E-02 0.  1.
    10030    2    1    2    0    0  0.00000000000E+00  0.00000000000E+00 -0.10035521333E+04  0.36400623456E+04  0.34989908539E+04 0.  0.
        2    1    3    3  502    0  0.92689096776E+02 -0.42996448143E+03  0.12597966578E+04  0.13343718908E+04  0.25500000920E-02 0. -1.
       -2    1    3    3    0  502 -0.92689096776E+02  0.42996448143E+03 -0.22633487910E+04  0.23056904549E+04  0.25500000920E-02 0.  1.
</event>
<event>
 5   0  0.1129219E-08  0.3499514E+04  0.7818609E-02  0.8113905E-01
       -1   -1    0    0    0  501  0.00000000000E+00  0.00000000000E+00  0.10269683577E+04  0.10269683577E+04  0.50400001928E-02 0. -1.
        1   -1    0    0  501    0  0.00000000000E+00  0.00000000000E+00 -0.29812507251E+04  0.29812507251E+04  0.50400001928E-02 0.  1.
    10030    2    1    2    0    0  0.00000000000E+00  0.00000000000E+00 -0.19542823673E+04  0.40082190828E+04  0.34995143441E+04 0.  0.
        5    1    3    3  502    0  0.12895376050E+04 -0.11089650382E+04 -0.14478809010E+04  0.22336275169E+04  0.46999998093E+01 0.  1.
       -5    1    3    3    0  502 -0.12895376050E+04  0.11089650382E+04 -0.50640146634E+03  0.17745915659E+04  0.46999998093E+01 0. -1.
</event>
<event>
 5   0  0.1121462E-08  0.3500803E+04  0.7818609E-02  0.8113600E-01
        1   -1    0    0  501    0  0.00000000000E+00  0.00000000000E+00  0.21088220050E+04  0.21088220050E+04  0.50400001928E-02 0.  1.
       -1   -1    0    0    0  501  0.00000000000E+00  0.00000000000E+00 -0.14528989108E+04  0.14528989109E+04  0.50400001928E-02 0. -1.
    10030    2    1    2    0    0  0.00000000000E+00  0.00000000000E+00  0.65592309414E+03  0.35617209159E+04  0.35008028761E+04 0.  0.
        1    1    3    3  502    0 -0.43253638332E+03 -0.73029269802E+03 -0.12295231427E+04  0.14940355772E+04  0.50400001928E-02 0. -1.
       -1    1    3    3    0  502  0.43253638332E+03  0.73029269802E+03  0.18854462368E+04  0.20676853386E+04  0.50400001928E-02 0.  1.
</event>
<event>
 5   0  0.3553585E-08  0.3505103E+04  0.7818609E-02  0.8112582E-01
        2   -1    0    0  501    0  0.00000000000E+00  0.00000000000E+00  0.18470225319E+04  0.18470225319E+04  0.25500000920E-02 0. -1.
       -2   -1    0    0    0  501  0.00000000000E+00  0.00000000000E+00 -0.16629120867E+04  0.16629120867E+04  0.25500000920E-02 0.  1.
    10030    2    1    2    0    0  0.00000000000E+00  0.00000000000E+00  0.18411044516E+03  0.35099346186E+04  0.35051026191E+04 0.  0.
        2    1    3    3  502    0  0.10292684752E+04 -0.12050178493E+04 -0.65729080170E+03  0.17156610415E+04  0.25500000920E-02 0.  1.
       -2    1    3    3    0  502 -0.10292684752E+04  0.12050178493E+04  0.84140124686E+03  0.17942735771E+04  0.25500000920E-02 0. -1.
</event>
<event>
 5   0  0.3553585E-08  0.3500717E+04  0.7818609E-02  0.8113620E-01
        2   -1    0    0  501    0  0.00000000000E+00  0.00000000000E+00  0.17769746454E+04  0.17769746454E+04  0.25500000920E-02 0. -1.
       -2   -1    0    0    0  501  0.00000000000E+00  0.00000000000E+00 -0.17241407416E+04  0.17241407416E+04  0.25500000920E-02 0.  1.
    10030    2    1    2    0    0  0.00000000000E+00  0.00000000000E+00  0.52833903825E+02  0.35011153870E+04  0.35007167169E+04 0.  0.
        2    1    3    3  502    0  0.74687010895E+02 -0.49069024448E+03 -0.16522852428E+04  0.17252250836E+04  0.25500000920E-02 0.  1.
       -2    1    3    3    0  502 -0.74687010895E+02  0.49069024448E+03  0.17051191466E+04  0.17758903034E+04  0.25500000920E-02 0. -1.
</event>
<event>
 5   0  0.3467834E-08  0.3500246E+04  0.7818609E-02  0.8113732E-01
       -2   -1    0    0    0  501  0.00000000000E+00  0.00000000000E+00  0.20053304035E+04  0.20053304035E+04  0.25500000920E-02 0. -1.
        2   -1    0    0  501    0  0.00000000000E+00  0.00000000000E+00 -0.15273947588E+04  0.15273947588E+04  0.25500000920E-02 0.  1.
    10030    2    1    2    0    0  0.00000000000E+00  0.00000000000E+00  0.47793564473E+03  0.35327251624E+04  0.35002463616E+04 0.  0.
        3    1    3    3  502    0 -0.16717395355E+04  0.14642370027E+03  0.74034504789E+03  0.18341929491E+04  0.10100000352E+00 0. -1.
       -3    1    3    3    0  502  0.16717395355E+04 -0.14642370027E+03 -0.26240940316E+03  0.16985322133E+04  0.10100000352E+00 0.  1.
</event>
<event>
 5   0  0.1121462E-08  0.3498589E+04  0.7818609E-02  0.8114124E-01
       -1   -1    0    0    0  501  0.00000000000E+00  0.00000000000E+00  0.24018198880E+04  0.24018198880E+04  0.50400001928E-02 0.  1.
        1   -1    0    0  501    0  0.00000000000E+00  0.00000000000E+00 -0.12740466675E+04  0.12740466675E+04  0.50400001928E-02 0. -1.
    10030    2    1    2    0    0  0.00000000000E+00  0.00000000000E+00  0.11277732205E+04  0.36758665555E+04  0.34985886436E+04 0.  0.
        2    1    3    3  502    0  0.11199099434E+04  0.85726126801E+03  0.16511843981E+04  0.21715213744E+04  0.25500000920E-02 0.  1.
       -2    1    3    3    0  502 -0.11199099434E+04 -0.85726126801E+03 -0.52341117757E+03  0.15043451811E+04  0.25500000920E-02 0. -1.
</event>
<event>
 5   0  0.1121462E-08  0.3499718E+04  0.7818609E-02  0.8113857E-01
       -1   -1    0    0    0  501  0.00000000000E+00  0.00000000000E+00  0.15064752171E+04  0.15064752171E+04  0.50400001928E-02 0. -1.
        1   -1    0    0  501    0  0.00000000000E+00  0.00000000000E+00 -0.20325638192E+04  0.20325638192E+04  0.50400001928E-02 0.  1.
    10030    2    1    2    0    0  0.00000000000E+00  0.00000000000E+00 -0.52608860214E+03  0.35390390363E+04  0.34997182863E+04 0.  0.
        1    1    3    3  502    0  0.89563905181E+03  0.12456493706E+04 -0.11140428181E+04  0.18960229604E+04  0.50400001928E-02 0.  1.
       -1    1    3    3    0  502 -0.89563905181E+03 -0.12456493706E+04  0.58795421594E+03  0.16430160759E+04  0.50400001928E-02 0. -1.
</event>
<event>
 5   0  0.3553585E-08  0.3502075E+04  0.7818609E-02  0.8113298E-01
       -2   -1    0    0    0  501  0.00000000000E+00  0.00000000000E+00  0.13641019053E+04  0.13641019053E+04  0.25500000920E-02 0. -1.
        2   -1    0    0  501    0  0.00000000000E+00  0.00000000000E+00 -0.22477293291E+04  0.22477293291E+04  0.25500000920E-02 0.  1.
    10030    2    1    2    0    0  0.00000000000E+00  0.00000000000E+00 -0.88362742387E+03  0.36118312344E+04  0.35020747339E+04 0.  0.
        2    1    3    3  502    0 -0.47296708205E+03  0.74963954112E+03 -0.19992656570E+04  0.21869431793E+04  0.25500000920E-02 0.  1.
       -2    1    3    3    0  502  0.47296708205E+03 -0.74963954112E+03  0.11156382331E+04  0.14248880551E+04  0.25500000920E-02 0. -1.
</event>
<event>
 5   0  0.3554451E-08  0.3486297E+04  0.7818609E-02  0.8117045E-01
       -2   -1    0    0    0  501  0.00000000000E+00  0.00000000000E+00  0.12752381291E+04  0.12752381291E+04  0.25500000920E-02 0.  1.
        2   -1    0    0  501    0  0.00000000000E+00  0.00000000000E+00 -0.23827440418E+04  0.23827440418E+04  0.25500000920E-02 0. -1.
    10030    2    1    2    0    0  0.00000000000E+00  0.00000000000E+00 -0.11075059127E+04  0.36579821708E+04  0.34862966333E+04 0.  0.
        5    1    3    3  502    0  0.12177146839E+04  0.13221405348E+03  0.74758021858E+03  0.14349940350E+04  0.46999998093E+01 0.  1.
       -5    1    3    3    0  502 -0.12177146839E+04 -0.13221405348E+03 -0.18550861313E+04  0.22229881358E+04  0.46999998093E+01 0. -1.
</event>
<event>
 5   0  0.1121462E-08  0.3499599E+04  0.7818609E-02  0.8113885E-01
       -1   -1    0    0    0  501  0.00000000000E+00  0.00000000000E+00  0.32439808016E+04  0.32439808016E+04  0.50400001928E-02 0. -1.
        1   -1    0    0  501    0  0.00000000000E+00  0.00000000000E+00 -0.94383998252E+03  0.94383998253E+03  0.50400001928E-02 0.  1.
    10030    2    1    2    0    0  0.00000000000E+00  0.00000000000E+00  0.23001408190E+04  0.41878207841E+04  0.34995992817E+04 0.  0.
        2    1    3    3  502    0  0.10934171821E+04 -0.10768956613E+04  0.21559271088E+04  0.26463724413E+04  0.25500000920E-02 0. -1.
       -2    1    3    3    0  502 -0.10934171821E+04  0.10768956613E+04  0.14421371026E+03  0.15414483428E+04  0.25500000920E-02 0.  1.
</event>
<event>
 5   0  0.1129219E-08  0.3500298E+04  0.7818609E-02  0.8113719E-01
       -1   -1    0    0    0  501  0.00000000000E+00  0.00000000000E+00  0.21346663527E+04  0.21346663527E+04  0.50400001928E-02 0. -1.
        1   -1    0    0  501    0  0.00000000000E+00  0.00000000000E+00 -0.14348946447E+04  0.14348946447E+04  0.50400001928E-02 0.  1.
    10030    2    1    2    0    0  0.00000000000E+00  0.00000000000E+00  0.69977170798E+03  0.35695609973E+04  0.35002978831E+04 0.  0.
        5    1    3    3  502    0 -0.10592077250E+04 -0.92085611004E+03 -0.71631787209E+03  0.15757634226E+04  0.46999998093E+01 0.  1.
       -5    1    3    3    0  502  0.10592077250E+04  0.92085611004E+03  0.14160895801E+04  0.19937975747E+04  0.46999998093E+01 0. -1.
</event>
<event>
 5   0  0.3700096E-08  0.3498309E+04  0.7818609E-02  0.8114191E-01
        2   -1    0    0  501    0  0.00000000000E+00  0.00000000000E+00  0.18671812439E+04  0.18671812439E+04  0.25500000920E-02 0.  1.
       -2   -1    0    0    0  501  0.00000000000E+00  0.00000000000E+00 -0.16385885391E+04  0.16385885391E+04  0.25500000920E-02 0. -1.
    10030    2    1    2    0    0  0.00000000000E+00  0.00000000000E+00  0.22859270480E+03  0.35057697830E+04  0.34983091840E+04 0.  0.
        4    1    3    3  502    0 -0.40023852753E+03  0.46815698066E+03  0.17549127559E+04  0.18598608096E+04  0.12699999809E+01 0.  1.
       -4    1    3    3    0  502  0.40023852753E+03 -0.46815698066E+03 -0.15263200511E+04  0.16459089734E+04  0.12699999809E+01 0. -1.
</event>
<event>
 5   0  0.1140808E-08  0.3501202E+04  0.7818609E-02  0.8113505E-01
       -1   -1    0    0    0  501  0.00000000000E+00  0.00000000000E+00  0.16298164652E+04  0.16298164652E+04  0.50400001928E-02 0.  1.
        1   -1    0    0  501    0  0.00000000000E+00  0.00000000000E+00 -0.18803363747E+04  0.18803363747E+04  0.50400001928E-02 0. -1.
    10030    2    1    2    0    0  0.00000000000E+00  0.00000000000E+00 -0.25051990945E+03  0.35101528399E+04  0.35012016129E+04 0.  0.
        3    1    3    3  502    0 -0.48053149617E+03  0.14545150133E+04  0.72430177171E+03  0.16944431266E+04  0.10100000352E+00 0.  1.
       -3    1    3    3    0  502  0.48053149617E+03 -0.14545150133E+04 -0.97482168116E+03  0.18157097133E+04  0.10100000352E+00 0. -1.
</event>
<event>
 5   0  0.1121462E-08  0.3500401E+04  0.7818609E-02  0.8113695E-01
        1   -1    0    0  501    0  0.00000000000E+00  0.00000000000E+00  0.20790526718E+04  0.20790526718E+04  0.50400001928E-02 0. -1.
       -1   -1    0    0    0  501  0.00000000000E+00  0.00000000000E+00 -0.14733645282E+04  0.14733645282E+04  0.50400001928E-02 0.  1.
    10030    2    1    2    0    0  0.00000000000E+00  0.00000000000E+00  0.60568814355E+03  0.35524172000E+04  0.35004013821E+04 0.  0.
        2    1    3    3  502    0 -0.23679989578E+03 -0.17178428987E+04  0.62375700540E+02  0.17352086743E+04  0.25500000920E-02 0. -1.
       -2    1    3    3    0  502  0.23679989578E+03  0.17178428987E+04  0.54331244301E+03  0.18172085257E+04  0.25500000920E-02 0.  1.
</event>
<event>
 5   0  0.3553585E-08  0.3497483E+04  0.7818609E-02  0.8114387E-01
       -2   -1    0    0    0  501  0.00000000000E+00  0.00000000000E+00  0.18250047378E+04  0.18250047378E+04  0.25500000920E-02 0. -1.
        2   -1    0    0  501    0  0.00000000000E+00  0.00000000000E+00 -0.16756649752E+04  0.16756649752E+04  0.25500000920E-02 0.  1.
    10030    2    1    2    0    0  0.00000000000E+00  0.00000000000E+00  0.14933976261E+03  0.35006697130E+04  0.34974828198E+04 0.  0.
        2    1    3    3  502    0 -0.24814902742E+03 -0.14060211033E+04 -0.93601416245E+03  0.17072187309E+04  0.25500000920E-02 0.  1.
       -2    1    3    3    0  502  0.24814902742E+03  0.14060211033E+04  0.10853539251E+04  0.17934509821E+04  0.25500000920E-02 0. -1.
</event>
<event>
 5   0  0.3554451E-08  0.3507285E+04  0.7818609E-02  0.8112066E-01
       -2   -1    0    0    0  501  0.00000000000E+00  0.00000000000E+00  0.18515837543E+04  0.18515837543E+04  0.25500000920E-02 0.  1.
        2   -1    0    0  501    0  0.00000000000E+00  0.00000000000E+00 -0.16608820419E+04  0.16608820419E+04  0.25500000920E-02 0. -1.
    10030    2    1    2    0    0  0.00000000000E+00  0.00000000000E+00  0.19070171246E+03  0.35124657962E+04  0.35072851076E+04 0.  0.
        5    1    3    3  502    0 -0.13521488340E+04 -0.65722037236E+03  0.99945511026E+03  0.18053192777E+04  0.46999998093E+01 0.  1.
       -5    1    3    3    0  502  0.13521488340E+04  0.65722037236E+03 -0.80875339781E+03  0.17071465185E+04  0.46999998093E+01 0. -1.
</event>
<event>
 5   0  0.1121462E-08  0.3502332E+04  0.7818609E-02  0.8113238E-01
        1   -1    0    0  501    0  0.00000000000E+00  0.00000000000E+00  0.23463163290E+04  0.23463163290E+04  0.50400001928E-02 0. -1.
       -1   -1    0    0    0  501  0.00000000000E+00  0.00000000000E+00 -0.13069771314E+04  0.13069771314E+04  0.50400001928E-02 0.  1.
    10030    2    1    2    0    0  0.00000000000E+00  0.00000000000E+00  0.10393391976E+04  0.36532934604E+04  0.35023316719E+04 0.  0.
        4    1    3    3  502    0 -0.35678527854E+03 -0.13154887055E+04 -0.62716246176E+03  0.15003801637E+04  0.12699999809E+01 0.  1.
       -4    1    3    3    0  502  0.35678527854E+03  0.13154887055E+04  0.16665016594E+04  0.21529132967E+04  0.12699999809E+01 0. -1.
</event>
<event>
 5   0  0.3554451E-08  0.3498704E+04  0.7818609E-02  0.8114097E-01
       -2   -1    0    0    0  501  0.00000000000E+00  0.00000000000E+00  0.11782989609E+04  0.11782989609E+04  0.25500000920E-02 0.  1.
        2   -1    0    0  501    0  0.00000000000E+00  0.00000000000E+00 -0.25971609116E+04  0.25971609116E+04  0.25500000920E-02 0. -1.
    10030    2    1    2    0    0  0.00000000000E+00  0.00000000000E+00 -0.14188619507E+04  0.37754598725E+04  0.34987037620E+04 0.  0.
        5    1    3    3  502    0  0.23838535353E+03  0.16914931081E+04 -0.11164019964E+04  0.20406744030E+04  0.46999998093E+01 0. -1.
       -5    1    3    3    0  502 -0.23838535353E+03 -0.16914931081E+04 -0.30245995431E+03  0.17347854696E+04  0.46999998093E+01 0.  1.
</event>
<event>
 5   0  0.1140808E-08  0.3500656E+04  0.7818609E-02  0.8113634E-01
       -1   -1    0    0    0  501  0.00000000000E+00  0.00000000000E+00  0.13359247671E+04  0.13359247671E+04  0.50400001928E-02 0. -1.
        1   -1    0    0  501    0  0.00000000000E+00  0.00000000000E+00 -0.22932793424E+04  0.22932793424E+04  0.50400001928E-02 0.  1.
    10030    2    1    2    0    0  0.00000000000E+00  0.00000000000E+00 -0.95735457527E+03  0.36292041095E+04  0.35006563221E+04 0.  0.
        3    1    3    3  502    0  0.82747848770E+03 -0.61918250507E+03 -0.19431869788E+04  0.22009278196E+04  0.10100000352E+00 0.  1.
       -3    1    3    3    0  502 -0.82747848770E+03  0.61918250507E+03  0.98583240357E+03  0.14282762899E+04  0.10100000352E+00 0. -1.
</event>
<event>
 5   0  0.3553585E-08  0.3502343E+04  0.7818609E-02  0.8113235E-01
       -2   -1    0    0    0  501  0.00000000000E+00  0.00000000000E+00  0.14406829037E+04  0.14406829037E+04  0.25500000920E-02 0.  1.
        2   -1    0    0  501    0  0.00000000000E+00  0.00000000000E+00 -0.21285755029E+04  0.21285755029E+04  0.25500000920E-02 0. -1.
    10030    2    1    2    0    0  0.00000000000E+00  0.00000000000E+00 -0.68789259921E+03  0.35692584066E+04  0.35023434076E+04 0.  0.
        2    1    3    3  502    0  0.37377540019E+03  0.14766833624E+04 -0.12243384068E+04  0.19543045661E+04  0.25500000920E-02 0. -1.
       -2    1    3    3    0  502 -0.37377540019E+03 -0.14766833624E+04  0.53644580758E+03  0.16149538405E+04  0.25500000920E-02 0.  1.
</event>
<event>
 5   0  0.3467834E-08  0.3500495E+04  0.7818609E-02  0.8113673E-01
        2   -1    0    0  501    0  0.00000000000E+00  0.00000000000E+00  0.11047829592E+04  0.11047829592E+04  0.25500000920E-02 0. -1.
       -2   -1    0    0    0  501  0.00000000000E+00  0.00000000000E+00 -0.27728210811E+04  0.27728210811E+04  0.25500000920E-02 0.  1.
    10030    2    1    2    0    0  0.00000000000E+00  0.00000000000E+00 -0.16680381219E+04  0.38776040403E+04  0.35004945246E+04 0.  0.
        3    1    3    3  502    0  0.15588051735E+04 -0.51616808415E+03 -0.16289314168E+03  0.16501021925E+04  0.10100000352E+00 0. -1.
       -3    1    3    3    0  502 -0.15588051735E+04  0.51616808415E+03 -0.15051449803E+04  0.22275018478E+04  0.10100000352E+00 0.  1.
</event>
<event>
 5   0  0.3628017E-08  0.3500319E+04  0.7818609E-02  0.8113714E-01
       -2   -1    0    0    0  501  0.00000000000E+00  0.00000000000E+00  0.18208154752E+04  0.18208154752E+04  0.25500000920E-02 0. -1.
        2   -1    0    0  501    0  0.00000000000E+00  0.00000000000E+00 -0.16822450340E+04  0.16822450340E+04  0.25500000920E-02 0.  1.
    10030    2    1    2    0    0  0.00000000000E+00  0.00000000000E+00  0.13857044124E+03  0.35030605092E+04  0.35003187231E+04 0.  0.
        1    1    3    3  502    0 -0.76605811148E+03 -0.50138191107E+03  0.15620396226E+04  0.18105790879E+04  0.50400001928E-02 0. -1.
       -1    1    3    3    0  502  0.76605811148E+03  0.50138191107E+03 -0.14234691814E+04  0.16924814212E+04  0.50400001928E-02 0.  1.
</event>
<event>
 5   0  0.1121462E-08  0.3500657E+04  0.7818609E-02  0.8113634E-01
       -1   -1    0    0    0  501  0.00000000000E+00  0.00000000000E+00  0.20471297777E+04  0.20471297777E+04  0.50400001928E-02 0.  1.
        1   -1    0    0  501    0  0.00000000000E+00  0.00000000000E+00 -0.14965585735E+04  0.14965585735E+04  0.50400001928E-02 0. -1.
    10030    2    1    2    0    0  0.00000000000E+00  0.00000000000E+00  0.55057120416E+03  0.35436883512E+04  0.35006568641E+04 0.  0.
        1    1    3    3  502    0 -0.14724415024E+04  0.58889883469E+03  0.10251775788E+04  0.18883524257E+04  0.50400001928E-02 0.  1.
       -1    1    3    3    0  502  0.14724415024E+04 -0.58889883469E+03 -0.47460637464E+03  0.16553359256E+04  0.50400001928E-02 0. -1.
</event>
<event>
 5   0  0.3467834E-08  0.3481344E+04  0.7818609E-02  0.8118225E-01
       -2   -1    0    0    0  501  0.00000000000E+00  0.00000000000E+00  0.18749216634E+04  0.18749216634E+04  0.25500000920E-02 0.  1.
        2   -1    0    0  501    0  0.00000000000E+00  0.00000000000E+00 -0.16160353824E+04  0.16160353824E+04  0.25500000920E-02 0. -1.
    10030    2    1    2    0    0  0.00000000000E+00  0.00000000000E+00  0.25888628106E+03  0.34909570458E+04  0.34813444227E+04 0.  0.
        3    1    3    3  502    0 -0.73078896299E+03 -0.50143192597E+01 -0.14547488205E+04  0.16279962509E+04  0.10100000352E+00 0. -1.
       -3    1    3    3    0  502  0.73078896299E+03  0.50143192597E+01  0.17136351016E+04  0.18629607949E+04  0.10100000352E+00 0.  1.
</event>
<event>
 5   0  0.1121462E-08  0.3499895E+04  0.7818609E-02  0.8113815E-01
       -1   -1    0    0    0  501  0.00000000000E+00  0.00000000000E+00  0.14404234484E+04  0.14404234484E+04  0.50400001928E-02 0.  1.
        1   -1    0    0  501    0  0.00000000000E+00  0.00000000000E+00 -0.21259831746E+04  0.21259831746E+04  0.50400001928E-02 0. -1.
    10030    2    1    2    0    0  0.00000000000E+00  0.00000000000E+00 -0.68555972620E+03  0.35664066231E+04  0.34998948645E+04 0.  0.
        4    1    3    3  502    0 -0.10812913615E+04  0.91499377263E+03 -0.13898825343E+04  0.19844847403E+04  0.12699999809E+01 0. -1.
       -4    1    3    3    0  502  0.10812913615E+04 -0.91499377263E+03  0.70432280810E+03  0.15819218828E+04  0.12699999809E+01 0.  1.
</event>
<event>
 5   0  0.3554451E-08  0.3499610E+04  0.7818609E-02  0.8113882E-01
       -2   -1    0    0    0  501  0.00000000000E+00  0.00000000000E+00  0.13414019568E+04  0.13414019568E+04  0.25500000920E-02 0.  1.
        2   -1    0    0  501    0  0.00000000000E+00  0.00000000000E+00 -0.22825502708E+04  0.22825502708E+04  0.25500000920E-02 0. -1.
    10030    2    1    2    0    0  0.00000000000E+00  0.00000000000E+00 -0.94114831398E+03  0.36239522275E+04  0.34996099209E+04 0.  0.
        5    1    3    3  502    0 -0.10730236626E+04  0.48491713662E+03 -0.18108844330E+04  0.21600576218E+04  0.46999998093E+01 0. -1.
       -5    1    3    3    0  502  0.10730236626E+04 -0.48491713662E+03  0.86973611899E+03  0.14638946057E+04  0.46999998093E+01 0.  1.
</event>
<event>
 5   0  0.1121462E-08  0.3498165E+04  0.7818609E-02  0.8114225E-01
       -1   -1    0    0    0  501  0.00000000000E+00  0.00000000000E+00  0.18044488733E+04  0.18044488733E+04  0.50400001928E-02 0.  1.
        1   -1    0    0  501    0  0.00000000000E+00  0.00000000000E+00 -0.16954146413E+04  0.16954146413E+04  0.50400001928E-02 0. -1.
    10030    2    1    2    0    0  0.00000000000E+00  0.00000000000E+00  0.10903423199E+03  0.34998635146E+04  0.34981646841E+04 0.  0.
        4    1    3    3  502    0 -0.74425130727E+02  0.33791395199E+03  0.17698649782E+04  0.18033714517E+04  0.12699999809E+01 0.  1.
       -4    1    3    3    0  502  0.74425130727E+02 -0.33791395199E+03 -0.16608307462E+04  0.16964920629E+04  0.12699999809E+01 0. -1.
</event>
<event>
 5   0  0.1129219E-08  0.3502339E+04  0.7818609E-02  0.8113236E-01
        1   -1    0    0  501    0  0.00000000000E+00  0.00000000000E+00  0.22372217469E+04  0.22372217469E+04  0.50400001928E-02 0.  1.
       -1   -1    0    0    0  501  0.00000000000E+00  0.00000000000E+00 -0.13707156478E+04  0.13707156478E+04  0.50400001928E-02 0. -1.
    10030    2    1    2    0    0  0.00000000000E+00  0.00000000000E+00  0.86650609909E+03  0.36079373948E+04  0.35023391362E+04 0.  0.
        5    1    3    3  502    0  0.11107146516E+04  0.41386462143E+03  0.17611496940E+04  0.21228851351E+04  0.46999998093E+01 0.  1.
       -5    1    3    3    0  502 -0.11107146516E+04 -0.41386462143E+03 -0.89464359491E+03  0.14850522597E+04  0.46999998093E+01 0. -1.
</event>
<event>
 5   0  0.3628017E-08  0.3500531E+04  0.7818609E-02  0.8113664E-01
       -2   -1    0    0    0  501  0.00000000000E+00  0.00000000000E+00  0.12864686737E+04  0.12864686737E+04  0.25500000920E-02 0. -1.
        2   -1    0    0  501    0  0.00000000000E+00  0.00000000000E+00 -0.23812697362E+04  0.23812697363E+04  0.25500000920E-02 0.  1.
    10030    2    1    2    0    0  0.00000000000E+00  0.00000000000E+00 -0.10948010626E+04  0.36677384099E+04  0.35005307707E+04 0.  0.
        1    1    3    3  502    0 -0.33040427370E+03 -0.12324502613E+04  0.70787792691E+03  0.14591750375E+04  0.50400001928E-02 0. -1.
       -1    1    3    3    0  502  0.33040427370E+03  0.12324502613E+04 -0.18026789895E+04  0.22085633724E+04  0.50400001928E-02 0.  1.
</event>
<event>
 5   0  0.3700096E-08  0.3499461E+04  0.7818609E-02  0.8113918E-01
        2   -1    0    0  501    0  0.00000000000E+00  0.00000000000E+00  0.17511520799E+04  0.17511520799E+04  0.25500000920E-02 0.  1.
       -2   -1    0    0    0  501  0.00000000000E+00  0.00000000000E+00 -0.17483098951E+04  0.17483098951E+04  0.25500000920E-02 0. -1.
    10030    2    1    2    0    0  0.00000000000E+00  0.00000000000E+00  0.28421848103E+01  0.34994619749E+04  0.34994608208E+04 0.  0.
        4    1    3    3  502    0  0.53928040026E+03 -0.16064455062E+04  0.43738497507E+03  0.17500850676E+04  0.12699999809E+01 0. -1.
       -4    1    3    3    0  502 -0.53928040026E+03  0.16064455062E+04 -0.43454279026E+03  0.17493769073E+04  0.12699999809E+01 0.  1.
</event>
<event>
 5   0  0.3467834E-08  0.3499680E+04  0.7818609E-02  0.8113866E-01
       -2   -1    0    0    0  501  0.00000000000E+00  0.00000000000E+00  0.14364757159E+04  0.14364757159E+04  0.25500000920E-02 0. -1.
        2   -1    0    0  501    0  0.00000000000E+00  0.00000000000E+00 -0.21315645983E+04  0.21315645983E+04  0.25500000920E-02 0.  1.
    10030    2    1    2    0    0  0.00000000000E+00  0.00000000000E+00 -0.69508888245E+03  0.35680403142E+04  0.34996804324E+04 0.  0.
        3    1    3    3  502    0  0.14304398730E+04  0.97807468661E+03 -0.59550792499E+03  0.18323258503E+04  0.10100000352E+00 0.  1.
       -3    1    3    3    0  502 -0.14304398730E+04 -0.97807468661E+03 -0.99580957459E+02  0.17357144639E+04  0.10100000352E+00 0. -1.
</event>
<event>
 5   0  0.1121462E-08  0.3500734E+04  0.7818609E-02  0.8113616E-01
        1   -1    0    0  501    0  0.00000000000E+00  0.00000000000E+00  0.10387028079E+04  0.10387028079E+04  0.50400001928E-02 0. -1.
       -1   -1    0    0    0  501  0.00000000000E+00  0.00000000000E+00 -0.29496253033E+04  0.29496253033E+04  0.50400001928E-02 0.  1.
    10030    2    1    2    0    0  0.00000000000E+00  0.00000000000E+00 -0.19109224953E+04  0.39883281112E+04  0.35007336858E+04 0.  0.
        4    1    3    3  502    0 -0.17401246603E+04 -0.28662228474E+02 -0.74254286278E+03  0.18921487449E+04  0.12699999809E+01 0.  1.
       -4    1    3    3    0  502  0.17401246603E+04  0.28662228474E+02 -0.11683796326E+04  0.20961793663E+04  0.12699999809E+01 0. -1.
</event>
<event>
 5   0  0.1121462E-08  0.3498661E+04  0.7818609E-02  0.8114107E-01
       -1   -1    0    0    0  501  0.00000000000E+00  0.00000000000E+00  0.14278636430E+04  0.14278636430E+04  0.50400001928E-02 0.  1.
        1   -1    0    0  501    0  0.00000000000E+00  0.00000000000E+00 -0.21431723692E+04  0.21431723692E+04  0.50400001928E-02 0. -1.
    10030    2    1    2    0    0  0.00000000000E+00  0.00000000000E+00 -0.71530872617E+03  0.35710360122E+04  0.34986614050E+04 0.  0.
        2    1    3    3  502    0  0.94107281513E+03 -0.13211288926E+04  0.31099907213E+03  0.16515810658E+04  0.25500000920E-02 0.  1.
       -2    1    3    3    0  502 -0.94107281513E+03  0.13211288926E+04 -0.10263077983E+04  0.19194549463E+04  0.25500000920E-02 0. -1.
</event>
<event>
 5   0  0.3554451E-08  0.3499244E+04  0.7818609E-02  0.8113969E-01
       -2   -1    0    0    0  501  0.00000000000E+00  0.00000000000E+00  0.15199242411E+04  0.15199242411E+04  0.25500000920E-02 0. -1.
        2   -1    0    0  501    0  0.00000000000E+00  0.00000000000E+00 -0.20140330615E+04  0.20140330615E+04  0.25500000920E-02 0.  1.
    10030    2    1    2    0    0  0.00000000000E+00  0.00000000000E+00 -0.49410882039E+03  0.35339573026E+04  0.34992443028E+04 0.  0.
        5    1    3    3  502    0  0.17202423061E+04 -0.42254049452E+02 -0.56663723038E+03  0.18116618992E+04  0.46999998093E+01 0.  1.
       -5    1    3    3    0  502 -0.17202423061E+04  0.42254049452E+02  0.72528409987E+02  0.17222954034E+04  0.46999998093E+01 0. -1.
</event>
<event>
 5   0  0.1121462E-08  0.3501185E+04  0.7818609E-02  0.8113509E-01
       -1   -1    0    0    0  501  0.00000000000E+00  0.00000000000E+00  0.18465423633E+04  0.18465423633E+04  0.50400001928E-02 0. -1.
        1   -1    0    0  501    0  0.00000000000E+00  0.00000000000E+00 -0.16596286939E+04  0.16596286939E+04  0.50400001928E-02 0.  1.
    10030    2    1    2    0    0  0.00000000000E+00  0.00000000000E+00  0.18691366939E+03  0.35061710573E+04  0.35011853369E+04 0.  0.
        1    1    3    3  502    0 -0.14688226070E+04 -0.77255077035E+03 -0.46438231503E+03  0.17233471728E+04  0.50400001928E-02 0.  1.
       -1    1    3    3    0  502  0.14688226070E+04  0.77255077035E+03  0.65129598442E+03  0.17828238844E+04  0.50400001928E-02 0. -1.
</event>
<event>
 5   0  0.3467834E-08  0.3498720E+04  0.7818609E-02  0.8114093E-01
        2   -1    0    0  501    0  0.00000000000E+00  0.00000000000E+00  0.19302016566E+04  0.19302016566E+04  0.25500000920E-02 0.  1.
       -2   -1    0    0    0  501  0.00000000000E+00  0.00000000000E+00 -0.15854611784E+04  0.15854611784E+04  0.25500000920E-02 0. -1.
    10030    2    1    2    0    0  0.00000000000E+00  0.00000000000E+00  0.34474047820E+03  0.35156628349E+04  0.34987196475E+04 0.  0.
        3    1    3    3  502    0 -0.11956413756E+04 -0.73600262346E+03  0.12209762367E+04  0.18606561052E+04  0.10100000352E+00 0.  1.
       -3    1    3    3    0  502  0.11956413756E+04  0.73600262346E+03 -0.87623575850E+03  0.16550067298E+04  0.10100000352E+00 0. -1.
</event>
<event>
 5   0  0.1121462E-08  0.3497558E+04  0.7818609E-02  0.8114369E-01
       -1   -1    0    0    0  501  0.00000000000E+00  0.00000000000E+00  0.17167074941E+04  0.17167074942E+04  0.50400001928E-02 0. -1.
        1   -1    0    0  501    0  0.00000000000E+00  0.00000000000E+00 -0.17814492169E+04  0.17814492169E+04  0.50400001928E-02 0.  1.
    10030    2    1    2    0    0  0.00000000000E+00  0.00000000000E+00 -0.64741722776E+02  0.34981567111E+04  0.34975575599E+04 0.  0.
        2    1    3    3  502    0  0.47236442040E+02 -0.12076718648E+04 -0.12965195802E+04  0.17724744389E+04  0.25500000920E-02 0.  1.
       -2    1    3    3    0  502 -0.47236442040E+02  0.12076718648E+04  0.12317778575E+04  0.17256822722E+04  0.25500000920E-02 0. -1.
</event>
<event>
 5   0  0.1121462E-08  0.3499267E+04  0.7818609E-02  0.8113964E-01
        1   -1    0    0  501    0  0.00000000000E+00  0.00000000000E+00  0.17162707991E+04  0.17162707991E+04  0.50400001928E-02 0. -1.
       -1   -1    0    0    0  501  0.00000000000E+00  0.00000000000E+00 -0.17836442544E+04  0.17836442544E+04  0.50400001928E-02 0.  1.
    10030    2    1    2    0    0  0.00000000000E+00  0.00000000000E+00 -0.67373455333E+02  0.34999150534E+04  0.34992665230E+04 0.  0.
        4    1    3    3  502    0 -0.33295202563E+03  0.15179478893E+04 -0.83769645066E+03  0.17654347347E+04  0.12699999809E+01 0.  1.
       -4    1    3    3    0  502  0.33295202563E+03 -0.15179478893E+04  0.77032299532E+03  0.17344803188E+04  0.12699999809E+01 0. -1.
</event>
<event>
 5   0  0.1121462E-08  0.3495991E+04  0.7818609E-02  0.8114741E-01
       -3   -1    0    0    0  501  0.00000000000E+00  0.00000000000E+00  0.19132030348E+04  0.19132030375E+04  0.10100000352E+00 0. -1.
        3   -1    0    0  501    0  0.00000000000E+00  0.00000000000E+00 -0.15970539758E+04  0.15970539790E+04  0.10100000352E+00 0.  1.
    10030    2    1    2    0    0  0.00000000000E+00  0.00000000000E+00  0.31614905903E+03  0.35102570164E+04  0.34959911461E+04 0.  0.
        5    1    3    3  502    0 -0.16770384722E+04 -0.45429120767E+03  0.35023965388E+03  0.17724357375E+04  0.46999998093E+01 0. -1.
       -5    1    3    3    0  502  0.16770384722E+04  0.45429120767E+03 -0.34090594841E+02  0.17378212789E+04  0.46999998093E+01 0.  1.
</event>
<event>
 5   0  0.3700096E-08  0.3499642E+04  0.7818609E-02  0.8113875E-01
       -2   -1    0    0    0  501  0.00000000000E+00  0.00000000000E+00  0.11263937097E+04  0.11263937097E+04  0.25500000920E-02 0. -1.
        2   -1    0    0  501    0  0.00000000000E+00  0.00000000000E+00 -0.27182978754E+04  0.27182978754E+04  0.25500000920E-02 0.  1.
    10030    2    1    2    0    0  0.00000000000E+00  0.00000000000E+00 -0.15919041657E+04  0.38446915851E+04  0.34996420548E+04 0.  0.
        4    1    3    3  502    0  0.11726926615E+04  0.12671635176E+04 -0.48336241253E+03  0.17929172578E+04  0.12699999809E+01 0. -1.
       -4    1    3    3    0  502 -0.11726926615E+04 -0.12671635176E+04 -0.11085417532E+04  0.20517743273E+04  0.12699999809E+01 0.  1.
</event>
<event>
 5   0  0.1129219E-08  0.3508578E+04  0.7818609E-02  0.8111760E-01
        1   -1    0    0  501    0  0.00000000000E+00  0.00000000000E+00  0.20838282799E+04  0.20838282799E+04  0.50400001928E-02 0.  1.
       -1   -1    0    0    0  501  0.00000000000E+00  0.00000000000E+00 -0.14768631796E+04  0.14768631796E+04  0.50400001928E-02 0. -1.
    10030    2    1    2    0    0  0.00000000000E+00  0.00000000000E+00  0.60696510034E+03  0.35606914595E+04  0.35085776373E+04 0.  0.
        5    1    3    3  502    0  0.22703926867E+03 -0.16702527169E+04  0.79672232687E+03  0.18644247166E+04  0.46999998093E+01 0.  1.
       -5    1    3    3    0  502 -0.22703926867E+03  0.16702527169E+04 -0.18975722653E+03  0.16962667429E+04  0.46999998093E+01 0. -1.
</event>
<event>
 5   0  0.3553585E-08  0.3499751E+04  0.7818609E-02  0.8113849E-01
        2   -1    0    0  501    0  0.00000000000E+00  0.00000000000E+00  0.17717110880E+04  0.17717110880E+04  0.25500000920E-02 0.  1.
       -2   -1    0    0    0  501  0.00000000000E+00  0.00000000000E+00 -0.17283092301E+04  0.17283092302E+04  0.25500000920E-02 0. -1.
    10030    2    1    2    0    0  0.00000000000E+00  0.00000000000E+00  0.43401857867E+02  0.35000203182E+04  0.34997512063E+04 0.  0.
        2    1    3    3  502    0  0.16562958527E+04  0.56456700363E+03  0.25275194117E+02  0.17500544816E+04  0.25500000920E-02 0.  1.
       -2    1    3    3    0  502 -0.16562958527E+04 -0.56456700363E+03  0.18126663750E+02  0.17499658366E+04  0.25500000920E-02 0. -1.
</event>
<event>
 5   0  0.1121462E-08  0.3500196E+04  0.7818609E-02  0.8113743E-01
       -1   -1    0    0    0  501  0.00000000000E+00  0.00000000000E+00  0.11020097048E+04  0.11020097048E+04  0.50400001928E-02 0. -1.
        1   -1    0    0  501    0  0.00000000000E+00  0.00000000000E+00 -0.27793249711E+04  0.27793249711E+04  0.50400001928E-02 0.  1.
    10030    2    1    2    0    0  0.00000000000E+00  0.00000000000E+00 -0.16773152663E+04  0.38813346759E+04  0.35001960465E+04 0.  0.
        4    1    3    3  502    0 -0.15545094990E+04  0.41511834787E+03 -0.75197530190E+02  0.16107387457E+04  0.12699999809E+01 0.  1.
       -4    1    3    3    0  502  0.15545094990E+04 -0.41511834787E+03 -0.16021177361E+04  0.22705959303E+04  0.12699999809E+01 0. -1.
</event>
<event>
 5   0  0.1121462E-08  0.3501837E+04  0.7818609E-02  0.8113355E-01
       -1   -1    0    0    0  501  0.00000000000E+00  0.00000000000E+00  0.22498027467E+04  0.22498027467E+04  0.50400001928E-02 0.  1.
        1   -1    0    0  501    0  0.00000000000E+00  0.00000000000E+00 -0.13626597509E+04  0.13626597509E+04  0.50400001928E-02 0. -1.
    10030    2    1    2    0    0  0.00000000000E+00  0.00000000000E+00  0.88714299574E+03  0.36124624976E+04  0.35018370325E+04 0.  0.
        1    1    3    3  502    0 -0.73816111650E+03 -0.55109207878E+03 -0.10924706276E+04  0.14290123812E+04  0.50400001928E-02 0. -1.
       -1    1    3    3    0  502  0.73816111650E+03  0.55109207878E+03  0.19796136234E+04  0.21834501165E+04  0.50400001928E-02 0.  1.
</event>
<event>
 5   0  0.3553585E-08  0.3501814E+04  0.7818609E-02  0.8113360E-01
        2   -1    0    0  501    0  0.00000000000E+00  0.00000000000E+00  0.27234422383E+04  0.27234422383E+04  0.25500000920E-02 0.  1.
       -2   -1    0    0    0  501  0.00000000000E+00  0.00000000000E+00 -0.11256622076E+04  0.11256622076E+04  0.25500000920E-02 0. -1.
    10030    2    1    2    0    0  0.00000000000E+00  0.00000000000E+00  0.15977800307E+04  0.38491044459E+04  0.35018143881E+04 0.  0.
        2    1    3    3  502    0  0.46535519136E+03 -0.48920816126E+03 -0.97681101729E+03  0.11874509854E+04  0.25500000920E-02 0. -1.
       -2    1    3    3    0  502 -0.46535519136E+03  0.48920816126E+03  0.25745910480E+04  0.26616534605E+04  0.25500000920E-02 0.  1.
</event>
<event>
 5   0  0.3628017E-08  0.3499707E+04  0.7818609E-02  0.8113859E-01
        2   -1    0    0  501    0  0.00000000000E+00  0.00000000000E+00  0.16727712109E+04  0.16727712109E+04  0.25500000920E-02 0. -1.
       -2   -1    0    0    0  501  0.00000000000E+00  0.00000000000E+00 -0.18304879147E+04  0.18304879147E+04  0.25500000920E-02 0.  1.
    10030    2    1    2    0    0  0.00000000000E+00  0.00000000000E+00 -0.15771670381E+03  0.35032591257E+04  0.34997071225E+04 0.  0.
        1    1    3    3  502    0  0.35257465130E+03  0.41010260919E+03 -0.17447272128E+04  0.18266269685E+04  0.50400001928E-02 0.  1.
       -1    1    3    3    0  502 -0.35257465130E+03 -0.41010260919E+03  0.15870105090E+04  0.16766321572E+04  0.50400001928E-02 0. -1.
</event>
<event>
 5   0  0.1121462E-08  0.3500138E+04  0.7818609E-02  0.8113757E-01
       -1   -1    0    0    0  501  0.00000000000E+00  0.00000000000E+00  0.20489423128E+04  0.20489423128E+04  0.50400001928E-02 0. -1.
        1   -1    0    0  501    0  0.00000000000E+00  0.00000000000E+00 -0.14947914608E+04  0.14947914608E+04  0.50400001928E-02 0.  1.
    10030    2    1    2    0    0  0.00000000000E+00  0.00000000000E+00  0.55415085204E+03  0.35437337736E+04  0.35001379818E+04 0.  0.
        2    1    3    3  502    0 -0.15358221160E+04 -0.18286123409E+03  0.11061482776E+04  0.19015130331E+04  0.25500000920E-02 0. -1.
       -2    1    3    3    0  502  0.15358221160E+04  0.18286123409E+03 -0.55199742553E+03  0.16422207406E+04  0.25500000920E-02 0.  1.
</event>
<event>
 5   0  0.1121462E-08  0.3500041E+04  0.7818609E-02  0.8113780E-01
       -1   -1    0    0    0  501  0.00000000000E+00  0.00000000000E+00  0.15028465156E+04  0.15028465156E+04  0.50400001928E-02 0.  1.
        1   -1    0    0  501    0  0.00000000000E+00  0.00000000000E+00 -0.20378474752E+04  0.20378474752E+04  0.50400001928E-02 0. -1.
    10030    2    1    2    0    0  0.00000000000E+00  0.00000000000E+00 -0.53500095961E+03  0.35406939908E+04  0.35000411297E+04 0.  0.
        1    1    3    3  502    0  0.14958703766E+04  0.29477898970E+03 -0.11365767375E+04  0.19016649328E+04  0.50400001928E-02 0. -1.
       -1    1    3    3    0  502 -0.14958703766E+04 -0.29477898970E+03  0.60157577792E+03  0.16390290580E+04  0.50400001928E-02 0.  1.
</event>
<event>
 5   0  0.1121462E-08  0.3501220E+04  0.7818609E-02  0.8113501E-01
       -1   -1    0    0    0  501  0.00000000000E+00  0.00000000000E+00  0.14770999155E+04  0.14770999155E+04  0.50400001928E-02 0. -1.
        1   -1    0    0  501    0  0.00000000000E+00  0.00000000000E+00 -0.20747653080E+04  0.20747653080E+04  0.50400001928E-02 0.  1.
    10030    2    1    2    0    0  0.00000000000E+00  0.00000000000E+00 -0.59766539255E+03  0.35518652235E+04  0.35012201651E+04 0.  0.
        1    1    3    3  502    0  0.96173015594E+02 -0.10306100334E+04  0.11334069650E+04  0.15349324539E+04  0.50400001928E-02 0. -1.
       -1    1    3    3    0  502 -0.96173015594E+02  0.10306100334E+04 -0.17310723576E+04  0.20169327696E+04  0.50400001928E-02 0.  1.
</event>
<event>
 5   0  0.3700096E-08  0.3501517E+04  0.7818609E-02  0.8113431E-01
        2   -1    0    0  501    0  0.00000000000E+00  0.00000000000E+00  0.20187844190E+04  0.20187844190E+04  0.25500000920E-02 0.  1.
       -2   -1    0    0    0  501  0.00000000000E+00  0.00000000000E+00 -0.15183173811E+04  0.15183173811E+04  0.25500000920E-02 0. -1.
    10030    2    1    2    0    0  0.00000000000E+00  0.00000000000E+00  0.50046703793E+03  0.35371018001E+04  0.35015170838E+04 0.  0.
        4    1    3    3  502    0 -0.12988366446E+04  0.45613577428E+02 -0.93475945546E+03  0.16008854051E+04  0.12699999809E+01 0. -1.
       -4    1    3    3    0  502  0.12988366446E+04 -0.45613577428E+02  0.14352264934E+04  0.19362163950E+04  0.12699999809E+01 0.  1.
</event>
<event>
 5   0  0.1140808E-08  0.3499026E+04  0.7818609E-02  0.8114021E-01
       -1   -1    0    0    0  501  0.00000000000E+00  0.00000000000E+00  0.16132047751E+04  0.16132047751E+04  0.50400001928E-02 0. -1.
        1   -1    0    0  501    0  0.00000000000E+00  0.00000000000E+00 -0.18973385144E+04  0.18973385144E+04  0.50400001928E-02 0.  1.
    10030    2    1    2    0    0  0.00000000000E+00  0.00000000000E+00 -0.28413373932E+03  0.35105432895E+04  0.34990258938E+04 0.  0.
        3    1    3    3  502    0 -0.47889324913E+03 -0.35168932509E+03 -0.17930140394E+04  0.18888947777E+04  0.10100000352E+00 0.  1.
       -3    1    3    3    0  502  0.47889324913E+03  0.35168932509E+03  0.15088803001E+04  0.16216485118E+04  0.10100000352E+00 0. -1.
</event>
<event>
 5   0  0.1121462E-08  0.3500677E+04  0.7818609E-02  0.8113630E-01
        1   -1    0    0  501    0  0.00000000000E+00  0.00000000000E+00  0.22882529864E+04  0.22882529864E+04  0.50400001928E-02 0. -1.
       -1   -1    0    0    0  501  0.00000000000E+00  0.00000000000E+00 -0.13388748720E+04  0.13388748721E+04  0.50400001928E-02 0.  1.
    10030    2    1    2    0    0  0.00000000000E+00  0.00000000000E+00  0.94937811431E+03  0.36271278584E+04  0.35006767485E+04 0.  0.
        1    1    3    3  502    0 -0.13939630385E+03 -0.13406220998E+04 -0.68233277359E+03  0.15107206751E+04  0.50400001928E-02 0.  1.
       -1    1    3    3    0  502  0.13939630385E+03  0.13406220998E+04  0.16317108879E+04  0.21164071834E+04  0.50400001928E-02 0. -1.
</event>
<event>
 5   0  0.1121462E-08  0.3502366E+04  0.7818609E-02  0.8113230E-01
       -1   -1    0    0    0  501  0.00000000000E+00  0.00000000000E+00  0.15062195718E+04  0.15062195718E+04  0.50400001928E-02 0. -1.
        1   -1    0    0  501    0  0.00000000000E+00  0.00000000000E+00 -0.20359855864E+04  0.20359855864E+04  0.50400001928E-02 0.  1.
    10030    2    1    2    0    0  0.00000000000E+00  0.00000000000E+00 -0.52976601459E+03  0.35422051582E+04  0.35023656794E+04 0.  0.
        1    1    3    3  502    0  0.50241679898E+03  0.69784239937E+03 -0.18077635886E+04  0.20018531031E+04  0.50400001928E-02 0.  1.
       -1    1    3    3    0  502 -0.50241679898E+03 -0.69784239937E+03  0.12779975740E+04  0.15403520550E+04  0.50400001928E-02 0. -1.
</event>
<event>
 5   0  0.3700096E-08  0.3498934E+04  0.7818609E-02  0.8114043E-01
       -2   -1    0    0    0  501  0.00000000000E+00  0.00000000000E+00  0.16897308081E+04  0.16897308081E+04  0.25500000920E-02 0.  1.
        2   -1    0    0  501    0  0.00000000000E+00  0.00000000000E+00 -0.18113146820E+04  0.18113146820E+04  0.25500000920E-02 0. -1.
    10030    2    1    2    0    0  0.00000000000E+00  0.00000000000E+00 -0.12158387396E+03  0.35010454901E+04  0.34989336783E+04 0.  0.
        4    1    3    3  502    0 -0.75714190325E+03 -0.14522980865E+03 -0.16321782783E+04  0.18050936552E+04  0.12699999809E+01 0. -1.
       -4    1    3    3    0  502  0.75714190325E+03  0.14522980865E+03  0.15105944043E+04  0.16959518349E+04  0.12699999809E+01 0.  1.
</event>
<event>
 5   0  0.3467834E-08  0.3493016E+04  0.7818609E-02  0.8115447E-01
       -2   -1    0    0    0  501  0.00000000000E+00  0.00000000000E+00  0.10705688834E+04  0.10705688834E+04  0.25500000920E-02 0.  1.
        2   -1    0    0  501    0  0.00000000000E+00  0.00000000000E+00 -0.28492238810E+04  0.28492238810E+04  0.25500000920E-02 0. -1.
    10030    2    1    2    0    0  0.00000000000E+00  0.00000000000E+00 -0.17786549976E+04  0.39197927645E+04  0.34930161345E+04 0.  0.
        3    1    3    3  502    0  0.69338921996E+03  0.10246077075E+04 -0.22726986391E+04  0.25876183410E+04  0.10100000352E+00 0.  1.
       -3    1    3    3    0  502 -0.69338921996E+03 -0.10246077075E+04  0.49404364148E+03  0.13321744234E+04  0.10100000352E+00 0. -1.
</event>
<event>
 5   0  0.3554451E-08  0.3500001E+04  0.7818609E-02  0.8113790E-01
        2   -1    0    0  501    0  0.00000000000E+00  0.00000000000E+00  0.14302844946E+04  0.14302844946E+04  0.25500000920E-02 0.  1.
       -2   -1    0    0    0  501  0.00000000000E+00  0.00000000000E+00 -0.21411834889E+04  0.21411834889E+04  0.25500000920E-02 0. -1.
    10030    2    1    2    0    0  0.00000000000E+00  0.00000000000E+00 -0.71089899430E+03  0.35714679835E+04  0.35000008824E+04 0.  0.
        5    1    3    3  502    0  0.90178004232E+02 -0.10003062257E+04  0.11068986944E+04  0.14946542835E+04  0.46999998093E+01 0.  1.
       -5    1    3    3    0  502 -0.90178004232E+02  0.10003062257E+04 -0.18177976887E+04  0.20768137000E+04  0.46999998093E+01 0. -1.
</event>
<event>
 5   0  0.3467834E-08  0.3501141E+04  0.7818609E-02  0.8113520E-01
        2   -1    0    0  501    0  0.00000000000E+00  0.00000000000E+00  0.24445713434E+04  0.24445713434E+04  0.25500000920E-02 0.  1.
       -2   -1    0    0    0  501  0.00000000000E+00  0.00000000000E+00 -0.12535925664E+04  0.12535925664E+04  0.25500000920E-02 0. -1.
    10030    2    1    2    0    0  0.00000000000E+00  0.00000000000E+00  0.11909787769E+04  0.36981639098E+04  0.35011406508E+04 0.  0.
        3    1    3    3  502    0  0.11574330625E+04  0.20006681710E+03  0.19665389372E+04  0.22906229343E+04  0.10100000352E+00 0.  1.
       -3    1    3    3    0  502 -0.11574330625E+04 -0.20006681710E+03 -0.77556016026E+03  0.14075409755E+04  0.10100000352E+00 0. -1.
</event>
<event>
 5   0  0.1129219E-08  0.3500090E+04  0.7818609E-02  0.8113769E-01
       -1   -1    0    0    0  501  0.00000000000E+00  0.00000000000E+00  0.14567147531E+04  0.14567147531E+04  0.50400001928E-02 0.  1.
        1   -1    0    0  501    0  0.00000000000E+00  0.00000000000E+00 -0.21024413825E+04  0.21024413825E+04  0.50400001928E-02 0. -1.
    10030    2    1    2    0    0  0.00000000000E+00  0.00000000000E+00 -0.64572662934E+03  0.35591561356E+04  0.35000899299E+04 0.  0.
        5    1    3    3  502    0  0.15484740494E+04 -0.39529177223E+03 -0.10480659190E+04  0.19111493210E+04  0.46999998093E+01 0. -1.
       -5    1    3    3    0  502 -0.15484740494E+04  0.39529177223E+03  0.40233928969E+03  0.16480068145E+04  0.46999998093E+01 0.  1.
</event>
<event>
 5   0  0.3554451E-08  0.3500949E+04  0.7818609E-02  0.8113565E-01
        2   -1    0    0  501    0  0.00000000000E+00  0.00000000000E+00  0.23214720950E+04  0.23214720950E+04  0.25500000920E-02 0.  1.
       -2   -1    0    0    0  501  0.00000000000E+00  0.00000000000E+00 -0.13199213620E+04  0.13199213620E+04  0.25500000920E-02 0. -1.
    10030    2    1    2    0    0  0.00000000000E+00  0.00000000000E+00  0.10015507330E+04  0.36413934570E+04  0.35009487911E+04 0.  0.
        5    1    3    3  502    0  0.27863427436E+02  0.11780958199E+04  0.18470941178E+04  0.21909963262E+04  0.46999998093E+01 0.  1.
       -5    1    3    3    0  502 -0.27863427436E+02 -0.11780958199E+04 -0.84554338479E+03  0.14503971308E+04  0.46999998093E+01 0. -1.
</event>
<event>
 5   0  0.3553585E-08  0.3484466E+04  0.7818609E-02  0.8117481E-01
        2   -1    0    0  501    0  0.00000000000E+00  0.00000000000E+00  0.27633140991E+04  0.27633140991E+04  0.25500000920E-02 0. -1.
       -2   -1    0    0    0  501  0.00000000000E+00  0.00000000000E+00 -0.10984547095E+04  0.10984547095E+04  0.25500000920E-02 0.  1.
    10030    2    1    2    0    0  0.00000000000E+00  0.00000000000E+00  0.16648593896E+04  0.38617688087E+04  0.34844657474E+04 0.  0.
        2    1    3    3  502    0 -0.98943741313E+03  0.13841606264E+04  0.12478332695E+04  0.21099703559E+04  0.25500000920E-02 0. -1.
       -2    1    3    3    0  502  0.98943741313E+03 -0.13841606264E+04  0.41702612009E+03  0.17517984528E+04  0.25500000920E-02 0.  1.
</event>
<event>
 5   0  0.3554451E-08  0.3499013E+04  0.7818609E-02  0.8114024E-01
        2   -1    0    0  501    0  0.00000000000E+00  0.00000000000E+00  0.26108972238E+04  0.26108972238E+04  0.25500000920E-02 0.  1.
       -2   -1    0    0    0  501  0.00000000000E+00  0.00000000000E+00 -0.11723069959E+04  0.11723069959E+04  0.25500000920E-02 0. -1.
    10030    2    1    2    0    0  0.00000000000E+00  0.00000000000E+00  0.14385902279E+04  0.37832042197E+04  0.34990130500E+04 0.  0.
        5    1    3    3  502    0  0.11830022971E+04 -0.83033018246E+03  0.17851658411E+04  0.22969070110E+04  0.46999998093E+01 0.  1.
       -5    1    3    3    0  502 -0.11830022971E+04  0.83033018246E+03 -0.34657561319E+03  0.14862972087E+04  0.46999998093E+01 0. -1.
</event>
<event>
 5   0  0.1121462E-08  0.3498667E+04  0.7818609E-02  0.8114106E-01
       -1   -1    0    0    0  501  0.00000000000E+00  0.00000000000E+00  0.23911519899E+04  0.23911519899E+04  0.50400001928E-02 0.  1.
        1   -1    0    0  501    0  0.00000000000E+00  0.00000000000E+00 -0.12797878075E+04  0.12797878075E+04  0.50400001928E-02 0. -1.
    10030    2    1    2    0    0  0.00000000000E+00  0.00000000000E+00  0.11113641824E+04  0.36709397975E+04  0.34986666961E+04 0.  0.
        1    1    3    3  502    0 -0.91045664918E+03 -0.10738822673E+04  0.16450802468E+04  0.21652813795E+04  0.50400001928E-02 0.  1.
       -1    1    3    3    0  502  0.91045664918E+03  0.10738822673E+04 -0.53371606436E+03  0.15056584179E+04  0.50400001928E-02 0. -1.
</event>
<event>
 5   0  0.3553585E-08  0.3501233E+04  0.7818609E-02  0.8113498E-01
        2   -1    0    0  501    0  0.00000000000E+00  0.00000000000E+00  0.22646604500E+04  0.22646604500E+04  0.25500000920E-02 0.  1.
       -2   -1    0    0    0  501  0.00000000000E+00  0.00000000000E+00 -0.13532529220E+04  0.13532529220E+04  0.25500000920E-02 0. -1.
    10030    2    1    2    0    0  0.00000000000E+00  0.00000000000E+00  0.91140752806E+03  0.36179133720E+04  0.35012331378E+04 0.  0.
        2    1    3    3  502    0  0.17935325011E+03 -0.15061896045E+04  0.13588347505E+04  0.20364691484E+04  0.25500000920E-02 0.  1.
       -2    1    3    3    0  502 -0.17935325011E+03  0.15061896045E+04 -0.44742722240E+03  0.15814442236E+04  0.25500000920E-02 0. -1.
</event>
<event>
 5   0  0.1129219E-08  0.3509023E+04  0.7818609E-02  0.8111655E-01
        1   -1    0    0  501    0  0.00000000000E+00  0.00000000000E+00  0.18135813937E+04  0.18135813938E+04  0.50400001928E-02 0. -1.
       -1   -1    0    0    0  501  0.00000000000E+00  0.00000000000E+00 -0.16973651085E+04  0.16973651085E+04  0.50400001928E-02 0.  1.
    10030    2    1    2    0    0  0.00000000000E+00  0.00000000000E+00  0.11621628525E+03  0.35109465023E+04  0.35090225301E+04 0.  0.
        5    1    3    3  502    0  0.68462807323E+03  0.75206953335E+03 -0.13723482543E+04  0.17081235326E+04  0.46999998093E+01 0.  1.
       -5    1    3    3    0  502 -0.68462807323E+03 -0.75206953335E+03  0.14885645395E+04  0.18028229697E+04  0.46999998093E+01 0. -1.
</event>
<event>
 5   0  0.1140808E-08  0.3505751E+04  0.7818609E-02  0.8112428E-01
       -1   -1    0    0    0  501  0.00000000000E+00  0.00000000000E+00  0.11442929338E+04  0.11442929339E+04  0.50400001928E-02 0.  1.
        1   -1    0    0  501    0  0.00000000000E+00  0.00000000000E+00 -0.26851269357E+04  0.26851269357E+04  0.50400001928E-02 0. -1.
    10030    2    1    2    0    0  0.00000000000E+00  0.00000000000E+00 -0.15408340018E+04  0.38294198695E+04  0.35057505781E+04 0.  0.
        3    1    3    3  502    0 -0.89536656148E+03  0.62923203299E+03  0.72529400869E+03  0.13128844732E+04  0.10100000352E+00 0.  1.
       -3    1    3    3    0  502  0.89536656148E+03 -0.62923203299E+03 -0.22661280105E+04  0.25165353963E+04  0.10100000352E+00 0. -1.
</event>
<event>
 5   0  0.3700096E-08  0.3501391E+04  0.7818609E-02  0.8113460E-01
        2   -1    0    0  501    0  0.00000000000E+00  0.00000000000E+00  0.19110923248E+04  0.19110923248E+04  0.25500000920E-02 0.  1.
       -2   -1    0    0    0  501  0.00000000000E+00  0.00000000000E+00 -0.16037608379E+04  0.16037608380E+04  0.25500000920E-02 0. -1.
    10030    2    1    2    0    0  0.00000000000E+00  0.00000000000E+00  0.30733148689E+03  0.35148531628E+04  0.35013911683E+04 0.  0.
        4    1    3    3  502    0 -0.46301379857E+03  0.60775897504E+03  0.17348983043E+04  0.18956862843E+04  0.12699999809E+01 0.  1.
       -4    1    3    3    0  502  0.46301379857E+03 -0.60775897504E+03 -0.14275668174E+04  0.16191668785E+04  0.12699999809E+01 0. -1.
</event>
<event>
 5   0  0.1129219E-08  0.3499925E+04  0.7818609E-02  0.8113808E-01
       -1   -1    0    0    0  501  0.00000000000E+00  0.00000000000E+00  0.16437035214E+04  0.16437035214E+04  0.50400001928E-02 0. -1.
        1   -1    0    0  501    0  0.00000000000E+00  0.00000000000E+00 -0.18630903034E+04  0.18630903034E+04  0.50400001928E-02 0.  1.
    10030    2    1    2    0    0  0.00000000000E+00  0.00000000000E+00 -0.21938678201E+03  0.35067938248E+04  0.34999246234E+04 0.  0.
        5    1    3    3  502    0 -0.13437575018E+04  0.42733650928E+03  0.92870220777E+03  0.16884343625E+04  0.46999998093E+01 0. -1.
       -5    1    3    3    0  502  0.13437575018E+04 -0.42733650928E+03 -0.11480889898E+04  0.18183594623E+04  0.46999998093E+01 0.  1.
</event>
<event>
 5   0  0.1121462E-08  0.3501054E+04  0.7818609E-02  0.8113540E-01
        1   -1    0    0  501    0  0.00000000000E+00  0.00000000000E+00  0.25505052485E+04  0.25505052485E+04  0.50400001928E-02 0. -1.
       -1   -1    0    0    0  501  0.00000000000E+00  0.00000000000E+00 -0.12014657774E+04  0.12014657774E+04  0.50400001928E-02 0.  1.
    10030    2    1    2    0    0  0.00000000000E+00  0.00000000000E+00  0.13490394711E+04  0.37519710259E+04  0.35010539962E+04 0.  0.
        1    1    3    3  502    0  0.91447653200E+03 -0.14061587884E+04  0.13783403765E+03  0.16830175542E+04  0.50400001928E-02 0.  1.
       -1    1    3    3    0  502 -0.91447653200E+03  0.14061587884E+04  0.12112054334E+04  0.20689534717E+04  0.50400001928E-02 0. -1.
</event>
<event>
 5   0  0.1129219E-08  0.3499389E+04  0.7818609E-02  0.8113935E-01
        1   -1    0    0  501    0  0.00000000000E+00  0.00000000000E+00  0.19310164258E+04  0.19310164258E+04  0.50400001928E-02 0. -1.
       -1   -1    0    0    0  501  0.00000000000E+00  0.00000000000E+00 -0.15853989882E+04  0.15853989882E+04  0.50400001928E-02 0.  1.
    10030    2    1    2    0    0  0.00000000000E+00  0.00000000000E+00  0.34561743764E+03  0.35164154140E+04  0.34993893682E+04 0.  0.
        5    1    3    3  502    0  0.73049911925E+03  0.38128998394E+02 -0.14243668400E+04  0.16012263327E+04  0.46999998093E+01 0.  1.
       -5    1    3    3    0  502 -0.73049911925E+03 -0.38128998394E+02  0.17699842776E+04  0.19151890812E+04  0.46999998093E+01 0. -1.
</event>
<event>
 5   0  0.3554451E-08  0.3500932E+04  0.7818609E-02  0.8113569E-01
        2   -1    0    0  501    0  0.00000000000E+00  0.00000000000E+00  0.17635288519E+04  0.17635288519E+04  0.25500000920E-02 0.  1.
       -2   -1    0    0    0  501  0.00000000000E+00  0.00000000000E+00 -0.17374999489E+04  0.17374999489E+04  0.25500000920E-02 0. -1.
    10030    2    1    2    0    0  0.00000000000E+00  0.00000000000E+00  0.26028903015E+02  0.35010288007E+04  0.35009320416E+04 0.  0.
        5    1    3    3  502    0  0.76932065512E+03  0.15608782096E+04  0.20252996435E+03  0.17519233808E+04  0.46999998093E+01 0.  1.
       -5    1    3    3    0  502 -0.76932065512E+03 -0.15608782096E+04 -0.17650106133E+03  0.17491054200E+04  0.46999998093E+01 0. -1.
</event>
<event>
 5   0  0.1121462E-08  0.3514648E+04  0.7818609E-02  0.8110327E-01
        1   -1    0    0  501    0  0.00000000000E+00  0.00000000000E+00  0.18049492542E+04  0.18049492542E+04  0.50400001928E-02 0. -1.
       -1   -1    0    0    0  501  0.00000000000E+00  0.00000000000E+00 -0.17109554762E+04  0.17109554762E+04  0.50400001928E-02 0.  1.
    10030    2    1    2    0    0  0.00000000000E+00  0.00000000000E+00  0.93993777954E+02  0.35159047304E+04  0.35146480966E+04 0.  0.
        1    1    3    3  502    0  0.97744378934E+03  0.91896130313E+03  0.11824364430E+04  0.17883070709E+04  0.50400001928E-02 0. -1.
       -1    1    3    3    0  502 -0.97744378934E+03 -0.91896130313E+03 -0.10884426651E+04  0.17275976595E+04  0.50400001928E-02 0.  1.
</event>
<event>
 5   0  0.1121462E-08  0.3500915E+04  0.7818609E-02  0.8113573E-01
       -3   -1    0    0    0  501  0.00000000000E+00  0.00000000000E+00  0.17551427360E+04  0.17551427389E+04  0.10100000352E+00 0.  1.
        3   -1    0    0  501    0  0.00000000000E+00  0.00000000000E+00 -0.17457844184E+04  0.17457844213E+04  0.10100000352E+00 0. -1.
    10030    2    1    2    0    0  0.00000000000E+00  0.00000000000E+00  0.93583176511E+01  0.35009271602E+04  0.35009146524E+04 0.  0.
        1    1    3    3  502    0 -0.15897774505E+04  0.27227664793E+03 -0.67545115298E+03  0.17486455259E+04  0.50400001928E-02 0. -1.
       -1    1    3    3    0  502  0.15897774505E+04 -0.27227664793E+03  0.68480947063E+03  0.17522816344E+04  0.50400001928E-02 0.  1.
</event>
<event>
 5   0  0.3554451E-08  0.3500996E+04  0.7818609E-02  0.8113554E-01
        2   -1    0    0  501    0  0.00000000000E+00  0.00000000000E+00  0.25967480012E+04  0.25967480012E+04  0.25500000920E-02 0. -1.
       -2   -1    0    0    0  501  0.00000000000E+00  0.00000000000E+00 -0.11800311342E+04  0.11800311342E+04  0.25500000920E-02 0.  1.
    10030    2    1    2    0    0  0.00000000000E+00  0.00000000000E+00  0.14167168670E+04  0.37767791354E+04  0.35009961378E+04 0.  0.
        5    1    3    3  502    0  0.85443388784E+02 -0.17820401698E+03  0.25846677260E+04  0.25922165396E+04  0.46999998093E+01 0. -1.
       -5    1    3    3    0  502 -0.85443388784E+02  0.17820401698E+03 -0.11679508590E+04  0.11845625958E+04  0.46999998093E+01 0.  1.
</event>
<event>
 5   0  0.1129219E-08  0.3499407E+04  0.7818609E-02  0.8113930E-01
        1   -1    0    0  501    0  0.00000000000E+00  0.00000000000E+00  0.16257303100E+04  0.16257303100E+04  0.50400001928E-02 0.  1.
       -1   -1    0    0    0  501  0.00000000000E+00  0.00000000000E+00 -0.18831305713E+04  0.18831305713E+04  0.50400001928E-02 0. -1.
    10030    2    1    2    0    0  0.00000000000E+00  0.00000000000E+00 -0.25740026127E+03  0.35088608812E+04  0.34994070626E+04 0.  0.
        5    1    3    3  502    0  0.16781432686E+04 -0.22480137045E+03  0.31378545218E+03  0.17219709307E+04  0.46999998093E+01 0.  1.
       -5    1    3    3    0  502 -0.16781432686E+04  0.22480137045E+03 -0.57118571345E+03  0.17868899506E+04  0.46999998093E+01 0. -1.
</event>
<event>
 5   0  0.3700096E-08  0.3499921E+04  0.7818609E-02  0.8113809E-01
        2   -1    0    0  501    0  0.00000000000E+00  0.00000000000E+00  0.18096314293E+04  0.18096314293E+04  0.25500000920E-02 0.  1.
       -2   -1    0    0    0  501  0.00000000000E+00  0.00000000000E+00 -0.16922572059E+04  0.16922572059E+04  0.25500000920E-02 0. -1.
    10030    2    1    2    0    0  0.00000000000E+00  0.00000000000E+00  0.11737422340E+03  0.35018886353E+04  0.34999210428E+04 0.  0.
        4    1    3    3  502    0 -0.13228204704E+03  0.10038844544E+04  0.14867517938E+04  0.17988093415E+04  0.12699999809E+01 0.  1.
       -4    1    3    3    0  502  0.13228204704E+03 -0.10038844544E+04 -0.13693775704E+04  0.17030792938E+04  0.12699999809E+01 0. -1.
</event>
<event>
 5   0  0.1121462E-08  0.3500417E+04  0.7818609E-02  0.8113691E-01
       -1   -1    0    0    0  501  0.00000000000E+00  0.00000000000E+00  0.19256690136E+04  0.19256690136E+04  0.50400001928E-02 0. -1.
        1   -1    0    0  501    0  0.00000000000E+00  0.00000000000E+00 -0.15907351118E+04  0.15907351118E+04  0.50400001928E-02 0.  1.
    10030    2    1    2    0    0  0.00000000000E+00  0.00000000000E+00  0.33493390183E+03  0.35164041255E+04  0.35004167259E+04 0.  0.
        4    1    3    3  502    0 -0.15449741443E+04 -0.21920488267E+03  0.96369778785E+03  0.18340422368E+04  0.12699999809E+01 0. -1.
       -4    1    3    3    0  502  0.15449741443E+04  0.21920488267E+03 -0.62876388602E+03  0.16823618887E+04  0.12699999809E+01 0.  1.
</event>
<event>
 5   0  0.1121462E-08  0.3500024E+04  0.7818609E-02  0.8113784E-01
        1   -1    0    0  501    0  0.00000000000E+00  0.00000000000E+00  0.22901298607E+04  0.22901298607E+04  0.50400001928E-02 0. -1.
       -1   -1    0    0    0  501  0.00000000000E+00  0.00000000000E+00 -0.13372789995E+04  0.13372789995E+04  0.50400001928E-02 0.  1.
    10030    2    1    2    0    0  0.00000000000E+00  0.00000000000E+00  0.95285086126E+03  0.36274088602E+04  0.35000243249E+04 0.  0.
        2    1    3    3  502    0 -0.94294129837E+03 -0.13714253565E+04  0.10370346160E+04  0.19609657303E+04  0.25500000920E-02 0. -1.
       -2    1    3    3    0  502  0.94294129837E+03  0.13714253565E+04 -0.84183754769E+02  0.16664431299E+04  0.25500000920E-02 0.  1.
</event>
<event>
 5   0  0.1140808E-08  0.3514203E+04  0.7818609E-02  0.8110432E-01
        1   -1    0    0  501    0  0.00000000000E+00  0.00000000000E+00  0.19443885781E+04  0.19443885781E+04  0.50400001928E-02 0. -1.
       -1   -1    0    0    0  501  0.00000000000E+00  0.00000000000E+00 -0.15878542122E+04  0.15878542122E+04  0.50400001928E-02 0.  1.
    10030    2    1    2    0    0  0.00000000000E+00  0.00000000000E+00  0.35653436593E+03  0.35322427903E+04  0.35142029503E+04 0.  0.
        3    1    3    3  502    0 -0.33549678069E+03 -0.13619007319E+04 -0.88550111905E+03  0.16587477010E+04  0.10100000352E+00 0.  1.
       -3    1    3    3    0  502  0.33549678069E+03  0.13619007319E+04  0.12420354850E+04  0.18734950893E+04  0.10100000352E+00 0. -1.
</event>
<event>
 5   0  0.3467834E-08  0.3501536E+04  0.7818609E-02  0.8113426E-01
       -2   -1    0    0    0  501  0.00000000000E+00  0.00000000000E+00  0.24617140185E+04  0.24617140185E+04  0.25500000920E-02 0.  1.
        2   -1    0    0  501    0  0.00000000000E+00  0.00000000000E+00 -0.12451444098E+04  0.12451444098E+04  0.25500000920E-02 0. -1.
    10030    2    1    2    0    0  0.00000000000E+00  0.00000000000E+00  0.12165696087E+04  0.37068584283E+04  0.35015364906E+04 0.  0.
        3    1    3    3  502    0 -0.16100306777E+04  0.36555082005E+03  0.12249930433E+04  0.20558293099E+04  0.10100000352E+00 0.  1.
       -3    1    3    3    0  502  0.16100306777E+04 -0.36555082005E+03 -0.84234345888E+01  0.16510291184E+04  0.10100000352E+00 0. -1.
</event>
<event>
 5   0  0.1121462E-08  0.3514328E+04  0.7818609E-02  0.8110403E-01
       -1   -1    0    0    0  501  0.00000000000E+00  0.00000000000E+00  0.18181877233E+04  0.18181877233E+04  0.50400001928E-02 0.  1.
        1   -1    0    0  501    0  0.00000000000E+00  0.00000000000E+00 -0.16981880618E+04  0.16981880618E+04  0.50400001928E-02 0. -1.
    10030    2    1    2    0    0  0.00000000000E+00  0.00000000000E+00  0.11999966148E+03  0.35163757851E+04  0.35143276374E+04 0.  0.
        2    1    3    3  502    0  0.96614756364E+03 -0.11365135772E+04  0.98926088417E+03  0.17898998080E+04  0.25500000920E-02 0.  1.
       -2    1    3    3    0  502 -0.96614756364E+03  0.11365135772E+04 -0.86926122269E+03  0.17264759770E+04  0.25500000920E-02 0. -1.
</event>
<event>
 5   0  0.1121462E-08  0.3501976E+04  0.7818609E-02  0.8113322E-01
        1   -1    0    0  501    0  0.00000000000E+00  0.00000000000E+00  0.20646913388E+04  0.20646913388E+04  0.50400001928E-02 0.  1.
       -1   -1    0    0    0  501  0.00000000000E+00  0.00000000000E+00 -0.14849481460E+04  0.14849481460E+04  0.50400001928E-02 0. -1.
    10030    2    1    2    0    0  0.00000000000E+00  0.00000000000E+00  0.57974319276E+03  0.35496394848E+04  0.35019763423E+04 0.  0.
        4    1    3    3  502    0  0.11865251849E+04 -0.12793405419E+04  0.14158027651E+03  0.17506001326E+04  0.12699999809E+01 0. -1.
       -4    1    3    3    0  502 -0.11865251849E+04  0.12793405419E+04  0.43816291625E+03  0.17990393522E+04  0.12699999809E+01 0.  1.
</event>
<event>
 5   0  0.3554451E-08  0.3490454E+04  0.7818609E-02  0.8116056E-01
        2   -1    0    0  501    0  0.00000000000E+00  0.00000000000E+00  0.23339502446E+04  0.23339502446E+04  0.25500000920E-02 0. -1.
       -2   -1    0    0    0  501  0.00000000000E+00  0.00000000000E+00 -0.13050056019E+04  0.13050056019E+04  0.25500000920E-02 0.  1.
    10030    2    1    2    0    0  0.00000000000E+00  0.00000000000E+00  0.10289446426E+04  0.36389558465E+04  0.34904544941E+04 0.  0.
        5    1    3    3  502    0  0.55213933106E+03 -0.80368159144E+03  0.20234761966E+04  0.22461611584E+04  0.46999998093E+01 0. -1.
       -5    1    3    3    0  502 -0.55213933106E+03  0.80368159144E+03 -0.99453155396E+03  0.13927946881E+04  0.46999998093E+01 0.  1.
</event>
<event>
 5   0  0.3700096E-08  0.3504017E+04  0.7818609E-02  0.8112839E-01
        2   -1    0    0  501    0  0.00000000000E+00  0.00000000000E+00  0.18685189065E+04  0.18685189065E+04  0.25500000920E-02 0. -1.
       -2   -1    0    0    0  501  0.00000000000E+00  0.00000000000E+00 -0.16427626690E+04  0.16427626690E+04  0.25500000920E-02 0.  1.
    10030    2    1    2    0    0  0.00000000000E+00  0.00000000000E+00  0.22575623746E+03  0.35112815755E+04  0.35040166130E+04 0.  0.
        4    1    3    3  502    0  0.27797765776E+03 -0.13448116075E+04 -0.97737657824E+03  0.16855433624E+04  0.12699999809E+01 0.  1.
       -4    1    3    3    0  502 -0.27797765776E+03  0.13448116075E+04  0.12031328157E+04  0.18257382132E+04  0.12699999809E+01 0. -1.
</event>
<event>
 5   0  0.1121462E-08  0.3494377E+04  0.7818609E-02  0.8115124E-01
       -1   -1    0    0    0  501  0.00000000000E+00  0.00000000000E+00  0.13970713020E+04  0.13970713020E+04  0.50400001928E-02 0.  1.
        1   -1    0    0  501    0  0.00000000000E+00  0.00000000000E+00 -0.21850482979E+04  0.21850482979E+04  0.50400001928E-02 0. -1.
    10030    2    1    2    0    0  0.00000000000E+00  0.00000000000E+00 -0.78797699583E+03  0.35821195999E+04  0.34943773526E+04 0.  0.
        2    1    3    3  502    0  0.13932736000E+04 -0.49598514444E+03 -0.13476465870E+04  0.20008408012E+04  0.25500000920E-02 0. -1.
       -2    1    3    3    0  502 -0.13932736000E+04  0.49598514444E+03  0.55966959120E+03  0.15812787988E+04  0.25500000920E-02 0.  1.
</event>
<event>
 5   0  0.1140808E-08  0.3499456E+04  0.7818609E-02  0.8113919E-01
        1   -1    0    0  501    0  0.00000000000E+00  0.00000000000E+00  0.18973157701E+04  0.18973157701E+04  0.50400001928E-02 0. -1.
       -1   -1    0    0    0  501  0.00000000000E+00  0.00000000000E+00 -0.16136205071E+04  0.16136205072E+04  0.50400001928E-02 0.  1.
    10030    2    1    2    0    0  0.00000000000E+00  0.00000000000E+00  0.28369526295E+03  0.35109362773E+04  0.34994557492E+04 0.  0.
        3    1    3    3  502    0 -0.52563816614E+03 -0.51307589648E+03  0.17351398520E+04  0.18842114196E+04  0.10100000352E+00 0. -1.
       -3    1    3    3    0  502  0.52563816614E+03  0.51307589648E+03 -0.14514445891E+04  0.16267248577E+04  0.10100000352E+00 0.  1.
</event>
<event>
 5   0  0.1129219E-08  0.3500754E+04  0.7818609E-02  0.8113611E-01
        1   -1    0    0  501    0  0.00000000000E+00  0.00000000000E+00  0.16708552072E+04  0.16708552072E+04  0.50400001928E-02 0.  1.
       -1   -1    0    0    0  501  0.00000000000E+00  0.00000000000E+00 -0.18336835834E+04  0.18336835834E+04  0.50400001928E-02 0. -1.
    10030    2    1    2    0    0  0.00000000000E+00  0.00000000000E+00 -0.16282837617E+03  0.35045387905E+04  0.35007540694E+04 0.  0.
        5    1    3    3  502    0  0.91384231044E+03 -0.14920966192E+04 -0.33013346568E+02  0.17500205885E+04  0.46999998093E+01 0. -1.
       -5    1    3    3    0  502 -0.91384231044E+03  0.14920966192E+04 -0.12981502960E+03  0.17545182020E+04  0.46999998093E+01 0.  1.
</event>
<event>
 5   0  0.3553585E-08  0.3500115E+04  0.7818609E-02  0.8113763E-01
       -2   -1    0    0    0  501  0.00000000000E+00  0.00000000000E+00  0.14485993663E+04  0.14485993663E+04  0.25500000920E-02 0.  1.
        2   -1    0    0  501    0  0.00000000000E+00  0.00000000000E+00 -0.21142496159E+04  0.21142496160E+04  0.25500000920E-02 0. -1.
    10030    2    1    2    0    0  0.00000000000E+00  0.00000000000E+00 -0.66565024960E+03  0.35628489823E+04  0.35001146575E+04 0.  0.
        2    1    3    3  502    0  0.77280913458E+03  0.81343272706E+03 -0.16999513028E+04  0.20368458930E+04  0.25500000920E-02 0. -1.
       -2    1    3    3    0  502 -0.77280913458E+03 -0.81343272706E+03  0.10343010532E+04  0.15260030893E+04  0.25500000920E-02 0.  1.
</event>
<event>
 5   0  0.1121462E-08  0.3500417E+04  0.7818609E-02  0.8113691E-01
       -1   -1    0    0    0  501  0.00000000000E+00  0.00000000000E+00  0.20129349768E+04  0.20129349768E+04  0.50400001928E-02 0.  1.
        1   -1    0    0  501    0  0.00000000000E+00  0.00000000000E+00 -0.15217726627E+04  0.15217726627E+04  0.50400001928E-02 0. -1.
    10030    2    1    2    0    0  0.00000000000E+00  0.00000000000E+00  0.49116231415E+03  0.35347076395E+04  0.35004167863E+04 0.  0.
        1    1    3    3  502    0  0.14543590405E+04  0.42441788055E+03  0.11304868874E+04  0.18903151480E+04  0.50400001928E-02 0.  1.
       -1    1    3    3    0  502 -0.14543590405E+04 -0.42441788055E+03 -0.63932457325E+03  0.16443924915E+04  0.50400001928E-02 0. -1.
</event>
<event>
 5   0  0.3554451E-08  0.3497389E+04  0.7818609E-02  0.8114409E-01
       -2   -1    0    0    0  501  0.00000000000E+00  0.00000000000E+00  0.15876199492E+04  0.15876199492E+04  0.25500000920E-02 0. -1.
        2   -1    0    0  501    0  0.00000000000E+00  0.00000000000E+00 -0.19261111991E+04  0.19261111991E+04  0.25500000920E-02 0.  1.
    10030    2    1    2    0    0  0.00000000000E+00  0.00000000000E+00 -0.33849124986E+03  0.35137311483E+04  0.34973890627E+04 0.  0.
        5    1    3    3  502    0  0.11972685904E+04  0.10059675696E+04 -0.95551841640E+03  0.18326102594E+04  0.46999998093E+01 0.  1.
       -5    1    3    3    0  502 -0.11972685904E+04 -0.10059675696E+04  0.61702716654E+03  0.16811208889E+04  0.46999998093E+01 0. -1.
</event>
<event>
 5   0  0.1140808E-08  0.3501646E+04  0.7818609E-02  0.8113400E-01
       -1   -1    0    0    0  501  0.00000000000E+00  0.00000000000E+00  0.23448880777E+04  0.23448880777E+04  0.50400001928E-02 0.  1.
        1   -1    0    0  501    0  0.00000000000E+00  0.00000000000E+00 -0.13072609871E+04  0.13072609871E+04  0.50400001928E-02 0. -1.
    10030    2    1    2    0    0  0.00000000000E+00  0.00000000000E+00  0.10376270906E+04  0.36521490647E+04  0.35016457291E+04 0.  0.
        3    1    3    3  502    0  0.11324443860E+04  0.94951020130E+03 -0.46035640873E+03  0.15478785298E+04  0.10100000352E+00 0.  1.
       -3    1    3    3    0  502 -0.11324443860E+04 -0.94951020130E+03  0.14979834994E+04  0.21042705350E+04  0.10100000352E+00 0. -1.
</event>
<event>
 5   0  0.3553585E-08  0.3496261E+04  0.7818609E-02  0.8114677E-01
       -2   -1    0    0    0  501  0.00000000000E+00  0.00000000000E+00  0.12227274959E+04  0.12227274959E+04  0.25500000920E-02 0. -1.
        2   -1    0    0  501    0  0.00000000000E+00  0.00000000000E+00 -0.24992981712E+04  0.24992981712E+04  0.25500000920E-02 0.  1.
    10030    2    1    2    0    0  0.00000000000E+00  0.00000000000E+00 -0.12765706754E+04  0.37220256671E+04  0.34962611998E+04 0.  0.
        2    1    3    3  502    0 -0.10184018459E+04  0.80941763821E+03 -0.18814502982E+04  0.22873903159E+04  0.25500000920E-02 0.  1.
       -2    1    3    3    0  502  0.10184018459E+04 -0.80941763821E+03  0.60487962280E+03  0.14346353512E+04  0.25500000920E-02 0. -1.
</event>
<event>
 5   0  0.3554451E-08  0.3500315E+04  0.7818609E-02  0.8113715E-01
       -2   -1    0    0    0  501  0.00000000000E+00  0.00000000000E+00  0.19216571449E+04  0.19216571449E+04  0.25500000920E-02 0.  1.
        2   -1    0    0  501    0  0.00000000000E+00  0.00000000000E+00 -0.15939631297E+04  0.15939631297E+04  0.25500000920E-02 0. -1.
    10030    2    1    2    0    0  0.00000000000E+00  0.00000000000E+00  0.32769401518E+03  0.35156202746E+04  0.35003146355E+04 0.  0.
        5    1    3    3  502    0 -0.10993165792E+03  0.13108648688E+04  0.13232676076E+04  0.18658807371E+04  0.46999998093E+01 0.  1.
       -5    1    3    3    0  502  0.10993165792E+03 -0.13108648688E+04 -0.99557359240E+03  0.16497395375E+04  0.46999998093E+01 0. -1.
</event>
<event>
 5   0  0.1121462E-08  0.3492101E+04  0.7818609E-02  0.8115664E-01
       -1   -1    0    0    0  501  0.00000000000E+00  0.00000000000E+00  0.17185995894E+04  0.17185995894E+04  0.50400001928E-02 0. -1.
        1   -1    0    0  501    0  0.00000000000E+00  0.00000000000E+00 -0.17739401196E+04  0.17739401196E+04  0.50400001928E-02 0.  1.
    10030    2    1    2    0    0  0.00000000000E+00  0.00000000000E+00 -0.55340530196E+02  0.34925397089E+04  0.34921012362E+04 0.  0.
        1    1    3    3  502    0 -0.85808423296E+03 -0.24882875235E+03 -0.15280147725E+04  0.17700433452E+04  0.50400001928E-02 0.  1.
       -1    1    3    3    0  502  0.85808423296E+03  0.24882875235E+03  0.14726742423E+04  0.17224963637E+04  0.50400001928E-02 0. -1.
</event>
<event>
 5   0  0.1121462E-08  0.3498411E+04  0.7818609E-02  0.8114167E-01
        1   -1    0    0  501    0  0.00000000000E+00  0.00000000000E+00  0.20531864557E+04  0.20531864557E+04  0.50400001928E-02 0.  1.
       -1   -1    0    0    0  501  0.00000000000E+00  0.00000000000E+00 -0.14902295723E+04  0.14902295723E+04  0.50400001928E-02 0. -1.
    10030    2    1    2    0    0  0.00000000000E+00  0.00000000000E+00  0.56295688344E+03  0.35434160280E+04  0.34984105956E+04 0.  0.
        4    1    3    3  502    0 -0.45708770851E+03  0.13388271147E+04 -0.76050781258E+03  0.16061634294E+04  0.12699999809E+01 0. -1.
       -4    1    3    3    0  502  0.45708770851E+03 -0.13388271147E+04  0.13234646960E+04  0.19372525986E+04  0.12699999809E+01 0.  1.
</event>
<event>
 5   0  0.3467834E-08  0.3500721E+04  0.7818609E-02  0.8113619E-01
       -2   -1    0    0    0  501  0.00000000000E+00  0.00000000000E+00  0.12171668211E+04  0.12171668211E+04  0.25500000920E-02 0.  1.
        2   -1    0    0  501    0  0.00000000000E+00  0.00000000000E+00 -0.25171259030E+04  0.25171259030E+04  0.25500000920E-02 0. -1.
    10030    2    1    2    0    0  0.00000000000E+00  0.00000000000E+00 -0.12999590819E+04  0.37342927241E+04  0.35007211450E+04 0.  0.
        3    1    3    3  502    0 -0.11550425800E+04  0.10352850063E+04  0.21519873206E+03  0.15659658075E+04  0.10100000352E+00 0.  1.
       -3    1    3    3    0  502  0.11550425800E+04 -0.10352850063E+04 -0.15151578139E+04  0.21683269166E+04  0.10100000352E+00 0. -1.
</event>
<event>
 5   0  0.1129219E-08  0.3499865E+04  0.7818609E-02  0.8113822E-01
       -1   -1    0    0    0  501  0.00000000000E+00  0.00000000000E+00  0.27082353515E+04  0.27082353515E+04  0.50400001928E-02 0. -1.
        1   -1    0    0  501    0  0.00000000000E+00  0.00000000000E+00 -0.11307230472E+04  0.11307230472E+04  0.50400001928E-02 0.  1.
    10030    2    1    2    0    0  0.00000000000E+00  0.00000000000E+00  0.15775123043E+04  0.38389583987E+04  0.34998652140E+04 0.  0.
        5    1    3    3  502    0  0.55388882936E+03 -0.10401318163E+04 -0.63025130443E+03  0.13363778760E+04  0.46999998093E+01 0.  1.
       -5    1    3    3    0  502 -0.55388882936E+03  0.10401318163E+04  0.22077636087E+04  0.25025805227E+04  0.46999998093E+01 0. -1.
</event>
<event>
 5   0  0.3628017E-08  0.3499960E+04  0.7818609E-02  0.8113799E-01
        2   -1    0    0  501    0  0.00000000000E+00  0.00000000000E+00  0.23345881013E+04  0.23345881013E+04  0.25500000920E-02 0. -1.
       -2   -1    0    0    0  501  0.00000000000E+00  0.00000000000E+00 -0.13117648002E+04  0.13117648002E+04  0.25500000920E-02 0.  1.
    10030    2    1    2    0    0  0.00000000000E+00  0.00000000000E+00  0.10228233011E+04  0.36463529016E+04  0.34999602823E+04 0.  0.
        1    1    3    3  502    0 -0.68179684533E+03 -0.70038974938E+03  0.20236900225E+04  0.22473793731E+04  0.50400001928E-02 0. -1.
       -1    1    3    3    0  502  0.68179684533E+03  0.70038974938E+03 -0.10008667214E+04  0.13989735285E+04  0.50400001928E-02 0.  1.
</event>
<event>
 5   0  0.1121462E-08  0.3498479E+04  0.7818609E-02  0.8114151E-01
       -1   -1    0    0    0  501  0.00000000000E+00  0.00000000000E+00  0.16363980487E+04  0.16363980487E+04  0.50400001928E-02 0. -1.
        1   -1    0    0  501    0  0.00000000000E+00  0.00000000000E+00 -0.18698620204E+04  0.18698620204E+04  0.50400001928E-02 0.  1.
    10030    2    1    2    0    0  0.00000000000E+00  0.00000000000E+00 -0.23346397169E+03  0.35062600691E+04  0.34984788475E+04 0.  0.
        1    1    3    3  502    0 -0.77858008298E+03  0.11976450256E+04 -0.11285804137E+04  0.18205038597E+04  0.50400001928E-02 0.  1.
       -1    1    3    3    0  502  0.77858008298E+03 -0.11976450256E+04  0.89511644202E+03  0.16857562094E+04  0.50400001928E-02 0. -1.
</event>
<event>
 5   0  0.3553585E-08  0.3500657E+04  0.7818609E-02  0.8113634E-01
        2   -1    0    0  501    0  0.00000000000E+00  0.00000000000E+00  0.15318106091E+04  0.15318106091E+04  0.25500000920E-02 0. -1.
       -2   -1    0    0    0  501  0.00000000000E+00  0.00000000000E+00 -0.20000186524E+04  0.20000186524E+04  0.25500000920E-02 0.  1.
    10030    2    1    2    0    0  0.00000000000E+00  0.00000000000E+00 -0.46820804331E+03  0.35318292615E+04  0.35006569613E+04 0.  0.
        2    1    3    3  502    0  0.28061239362E+02  0.30056328040E+03 -0.19735575693E+04  0.19965107558E+04  0.25500000920E-02 0.  1.
       -2    1    3    3    0  502 -0.28061239362E+02 -0.30056328040E+03  0.15053495260E+04  0.15353185057E+04  0.25500000920E-02 0. -1.
</event>
<event>
 5   0  0.1140808E-08  0.3505049E+04  0.7818609E-02  0.8112594E-01
       -1   -1    0    0    0  501  0.00000000000E+00  0.00000000000E+00  0.18810493868E+04  0.18810493868E+04  0.50400001928E-02 0.  1.
        1   -1    0    0  501    0  0.00000000000E+00  0.00000000000E+00 -0.16327816230E+04  0.16327816230E+04  0.50400001928E-02 0. -1.
    10030    2    1    2    0    0  0.00000000000E+00  0.00000000000E+00  0.24826776374E+03  0.35138310098E+04  0.35050494266E+04 0.  0.
        3    1    3    3  502    0 -0.11387591262E+04  0.81424062628E+03  0.11810916068E+04  0.18315942615E+04  0.10100000352E+00 0.  1.
       -3    1    3    3    0  502  0.11387591262E+04 -0.81424062628E+03 -0.93282384304E+03  0.16822367483E+04  0.10100000352E+00 0. -1.
</event>
<event>
 5   0  0.3700096E-08  0.3498385E+04  0.7818609E-02  0.8114173E-01
       -2   -1    0    0    0  501  0.00000000000E+00  0.00000000000E+00  0.27663785053E+04  0.27663785053E+04  0.25500000920E-02 0. -1.
        2   -1    0    0  501    0  0.00000000000E+00  0.00000000000E+00 -0.11060216228E+04  0.11060216228E+04  0.25500000920E-02 0.  1.
    10030    2    1    2    0    0  0.00000000000E+00  0.00000000000E+00  0.16603568824E+04  0.38724001281E+04  0.34983850238E+04 0.  0.
        4    1    3    3  502    0 -0.32772469517E+03  0.11703651871E+03  0.27276740282E+04  0.27497833078E+04  0.12699999809E+01 0. -1.
       -4    1    3    3    0  502  0.32772469517E+03 -0.11703651871E+03 -0.10673171458E+04  0.11226168203E+04  0.12699999809E+01 0.  1.
</event>
<event>
 5   0  0.3628017E-08  0.3498251E+04  0.7818609E-02  0.8114205E-01
       -2   -1    0    0    0  501  0.00000000000E+00  0.00000000000E+00  0.16981465365E+04  0.16981465365E+04  0.25500000920E-02 0. -1.
        2   -1    0    0  501    0  0.00000000000E+00  0.00000000000E+00 -0.18016348074E+04  0.18016348074E+04  0.25500000920E-02 0.  1.
    10030    2    1    2    0    0  0.00000000000E+00  0.00000000000E+00 -0.10348827088E+03  0.34997813439E+04  0.34982509391E+04 0.  0.
        1    1    3    3  502    0 -0.11295090816E+03 -0.14915798590E+04 -0.95871204123E+03  0.17767096446E+04  0.50400001928E-02 0.  1.
       -1    1    3    3    0  502  0.11295090816E+03  0.14915798590E+04  0.85522377035E+03  0.17230716993E+04  0.50400001928E-02 0. -1.
</event>
<event>
 5   0  0.1140808E-08  0.3499101E+04  0.7818609E-02  0.8114003E-01
        1   -1    0    0  501    0  0.00000000000E+00  0.00000000000E+00  0.28565052148E+04  0.28565052149E+04  0.50400001928E-02 0. -1.
       -1   -1    0    0    0  501  0.00000000000E+00  0.00000000000E+00 -0.10715634941E+04  0.10715634941E+04  0.50400001928E-02 0.  1.
    10030    2    1    2    0    0  0.00000000000E+00  0.00000000000E+00  0.17849417207E+04  0.39280687090E+04  0.34991008611E+04 0.  0.
        3    1    3    3  502    0  0.15184127792E+04  0.85677139250E+03  0.72866403865E+03  0.18895993963E+04  0.10100000352E+00 0.  1.
       -3    1    3    3    0  502 -0.15184127792E+04 -0.85677139250E+03  0.10562776821E+04  0.20384693127E+04  0.10100000352E+00 0. -1.
</event>
<event>
 5   0  0.1129219E-08  0.3500308E+04  0.7818609E-02  0.8113717E-01
        1   -1    0    0  501    0  0.00000000000E+00  0.00000000000E+00  0.15720891990E+04  0.15720891990E+04  0.50400001928E-02 0.  1.
       -1   -1    0    0    0  501  0.00000000000E+00  0.00000000000E+00 -0.19483878829E+04  0.19483878829E+04  0.50400001928E-02 0. -1.
    10030    2    1    2    0    0  0.00000000000E+00  0.00000000000E+00 -0.37629868387E+03  0.35204770819E+04  0.35003082985E+04 0.  0.
        5    1    3    3  502    0 -0.10785619933E+04 -0.42224782247E+03 -0.15077413842E+04  0.19012878184E+04  0.46999998093E+01 0. -1.
       -5    1    3    3    0  502  0.10785619933E+04  0.42224782247E+03  0.11314427003E+04  0.16191892635E+04  0.46999998093E+01 0.  1.
</event>
<event>
 5   0  0.1140808E-08  0.3499981E+04  0.7818609E-02  0.8113794E-01
        1   -1    0    0  501    0  0.00000000000E+00  0.00000000000E+00  0.16676212405E+04  0.16676212405E+04  0.50400001928E-02 0. -1.
       -1   -1    0    0    0  501  0.00000000000E+00  0.00000000000E+00 -0.18364284108E+04  0.18364284108E+04  0.50400001928E-02 0.  1.
    10030    2    1    2    0    0  0.00000000000E+00  0.00000000000E+00 -0.16880717034E+03  0.35040496513E+04  0.34999811568E+04 0.  0.
        3    1    3    3  502    0 -0.95497268515E+03  0.99902651788E+03 -0.11591691542E+04  0.18038015276E+04  0.10100000352E+00 0.  1.
       -3    1    3    3    0  502  0.95497268515E+03 -0.99902651788E+03  0.99036198386E+03  0.17002481237E+04  0.10100000352E+00 0. -1.
</event>
<event>
 5   0  0.1121462E-08  0.3499715E+04  0.7818609E-02  0.8113857E-01
       -3   -1    0    0    0  501  0.00000000000E+00  0.00000000000E+00  0.25582169123E+04  0.25582169143E+04  0.10100000352E+00 0.  1.
        3   -1    0    0  501    0  0.00000000000E+00  0.00000000000E+00 -0.11969279709E+04  0.11969279751E+04  0.10100000352E+00 0. -1.
    10030    2    1    2    0    0  0.00000000000E+00  0.00000000000E+00  0.13612889414E+04  0.37551448894E+04  0.34997150682E+04 0.  0.
        1    1    3    3  502    0 -0.25210020525E+03  0.14945560290E+04  0.16189699588E+04  0.22177276579E+04  0.50400001928E-02 0.  1.
       -1    1    3    3    0  502  0.25210020525E+03 -0.14945560290E+04 -0.25768101734E+03  0.15374172316E+04  0.50400001928E-02 0. -1.
</event>
<event>
 5   0  0.3553585E-08  0.3503351E+04  0.7818609E-02  0.8112996E-01
        2   -1    0    0  501    0  0.00000000000E+00  0.00000000000E+00  0.17806231542E+04  0.17806231542E+04  0.25500000920E-02 0. -1.
       -2   -1    0    0    0  501  0.00000000000E+00  0.00000000000E+00 -0.17231984337E+04  0.17231984337E+04  0.25500000920E-02 0.  1.
    10030    2    1    2    0    0  0.00000000000E+00  0.00000000000E+00  0.57424720460E+02  0.35038215879E+04  0.35033509846E+04 0.  0.
        2    1    3    3  502    0  0.72516492729E+03  0.10694701250E+04  0.12115531435E+04  0.17712965702E+04  0.25500000920E-02 0. -1.
       -2    1    3    3    0  502 -0.72516492729E+03 -0.10694701250E+04 -0.11541284230E+04  0.17325250177E+04  0.25500000920E-02 0.  1.
</event>
<event>
 5   0  0.1140808E-08  0.3503156E+04  0.7818609E-02  0.8113042E-01
       -1   -1    0    0    0  501  0.00000000000E+00  0.00000000000E+00  0.10402485601E+04  0.10402485601E+04  0.50400001928E-02 0. -1.
        1   -1    0    0  501    0  0.00000000000E+00  0.00000000000E+00 -0.29493191292E+04  0.29493191292E+04  0.50400001928E-02 0.  1.
    10030    2    1    2    0    0  0.00000000000E+00  0.00000000000E+00 -0.19090705690E+04  0.39895676893E+04  0.35031557073E+04 0.  0.
        3    1    3    3  502    0 -0.13296825369E+04  0.11093252861E+04 -0.12544805431E+04  0.21383123445E+04  0.10100000352E+00 0.  1.
       -3    1    3    3    0  502  0.13296825369E+04 -0.11093252861E+04 -0.65459002595E+03  0.18512553448E+04  0.10100000352E+00 0. -1.
</event>
<event>
 5   0  0.3628017E-08  0.3501994E+04  0.7818609E-02  0.8113318E-01
        2   -1    0    0  501    0  0.00000000000E+00  0.00000000000E+00  0.32320735916E+04  0.32320735916E+04  0.25500000920E-02 0.  1.
       -2   -1    0    0    0  501  0.00000000000E+00  0.00000000000E+00 -0.94861390805E+03  0.94861390806E+03  0.25500000920E-02 0. -1.
    10030    2    1    2    0    0  0.00000000000E+00  0.00000000000E+00  0.22834596835E+04  0.41806874996E+04  0.35019936955E+04 0.  0.
        1    1    3    3  502    0  0.50951949882E+03 -0.15947066342E+04  0.17542917917E+04  0.24249204232E+04  0.50400001928E-02 0. -1.
       -1    1    3    3    0  502 -0.50951949882E+03  0.15947066342E+04  0.52916789186E+03  0.17557670764E+04  0.50400001928E-02 0.  1.
</event>
<event>
 5   0  0.3700096E-08  0.3499355E+04  0.7818609E-02  0.8113943E-01
       -2   -1    0    0    0  501  0.00000000000E+00  0.00000000000E+00  0.10465528345E+04  0.10465528345E+04  0.25500000920E-02 0.  1.
        2   -1    0    0  501    0  0.00000000000E+00  0.00000000000E+00 -0.29251946504E+04  0.29251946504E+04  0.25500000920E-02 0. -1.
    10030    2    1    2    0    0  0.00000000000E+00  0.00000000000E+00 -0.18786418159E+04  0.39717474849E+04  0.34993546564E+04 0.  0.
        4    1    3    3  502    0  0.34640477852E+03 -0.10106902316E+04 -0.25119651866E+04  0.27297365672E+04  0.12699999809E+01 0. -1.
       -4    1    3    3    0  502 -0.34640477852E+03  0.10106902316E+04  0.63332337065E+03  0.12420109177E+04  0.12699999809E+01 0.  1.
</event>
<event>
 5   0  0.1129219E-08  0.3500722E+04  0.7818609E-02  0.8113619E-01
       -1   -1    0    0    0  501  0.00000000000E+00  0.00000000000E+00  0.20096069413E+04  0.20096069413E+04  0.50400001928E-02 0. -1.
        1   -1    0    0  501    0  0.00000000000E+00  0.00000000000E+00 -0.15245584962E+04  0.15245584962E+04  0.50400001928E-02 0.  1.
    10030    2    1    2    0    0  0.00000000000E+00  0.00000000000E+00  0.48504844507E+03  0.35341654375E+04  0.35007218320E+04 0.  0.
        5    1    3    3  502    0  0.88809415164E+03  0.75895801450E+03 -0.10733900342E+04  0.15864793555E+04  0.46999998093E+01 0.  1.
       -5    1    3    3    0  502 -0.88809415164E+03 -0.75895801450E+03  0.15584384793E+04  0.19476860819E+04  0.46999998093E+01 0. -1.
</event>
<event>
 5   0  0.3467834E-08  0.3498844E+04  0.7818609E-02  0.8114064E-01
        2   -1    0    0  501    0  0.00000000000E+00  0.00000000000E+00  0.20122810555E+04  0.20122810555E+04  0.25500000920E-02 0.  1.
       -2   -1    0    0    0  501  0.00000000000E+00  0.00000000000E+00 -0.15208993865E+04  0.15208993865E+04  0.25500000920E-02 0. -1.
    10030    2    1    2    0    0  0.00000000000E+00  0.00000000000E+00  0.49138166898E+03  0.35331804421E+04  0.34988438221E+04 0.  0.
        3    1    3    3  502    0  0.10925656884E+03 -0.11554634495E+04  0.15675227915E+04  0.19504257210E+04  0.10100000352E+00 0.  1.
       -3    1    3    3    0  502 -0.10925656884E+03  0.11554634495E+04 -0.10761411226E+04  0.15827547210E+04  0.10100000352E+00 0. -1.
</event>
<event>
 5   0  0.3467834E-08  0.3499634E+04  0.7818609E-02  0.8113877E-01
       -2   -1    0    0    0  501  0.00000000000E+00  0.00000000000E+00  0.11859442718E+04  0.11859442718E+04  0.25500000920E-02 0.  1.
        2   -1    0    0  501    0  0.00000000000E+00  0.00000000000E+00 -0.25817906477E+04  0.25817906477E+04  0.25500000920E-02 0. -1.
    10030    2    1    2    0    0  0.00000000000E+00  0.00000000000E+00 -0.13958463759E+04  0.37677349194E+04  0.34996341691E+04 0.  0.
        3    1    3    3  502    0  0.11241723633E+04  0.82177274144E+03  0.44286801342E+03  0.14612344194E+04  0.10100000352E+00 0.  1.
       -3    1    3    3    0  502 -0.11241723633E+04 -0.82177274144E+03 -0.18387143893E+04  0.23065005000E+04  0.10100000352E+00 0. -1.
</event>
<event>
 5   0  0.1121462E-08  0.3496602E+04  0.7818609E-02  0.8114596E-01
       -1   -1    0    0    0  501  0.00000000000E+00  0.00000000000E+00  0.29996652442E+04  0.29996652442E+04  0.50400001928E-02 0. -1.
        1   -1    0    0  501    0  0.00000000000E+00  0.00000000000E+00 -0.10189658930E+04  0.10189658931E+04  0.50400001928E-02 0.  1.
    10030    2    1    2    0    0  0.00000000000E+00  0.00000000000E+00  0.19806993512E+04  0.40186311373E+04  0.34966021074E+04 0.  0.
        2    1    3    3  502    0  0.12592187535E+04 -0.10382932434E+04  0.17107226040E+04  0.23643723388E+04  0.25500000920E-02 0. -1.
       -2    1    3    3    0  502 -0.12592187535E+04  0.10382932434E+04  0.26997674713E+03  0.16542587985E+04  0.25500000920E-02 0.  1.
</event>
<event>
 5   0  0.1129219E-08  0.3500385E+04  0.7818609E-02  0.8113699E-01
       -1   -1    0    0    0  501  0.00000000000E+00  0.00000000000E+00  0.14761379979E+04  0.14761379979E+04  0.50400001928E-02 0. -1.
        1   -1    0    0  501    0  0.00000000000E+00  0.00000000000E+00 -0.20751265053E+04  0.20751265053E+04  0.50400001928E-02 0.  1.
    10030    2    1    2    0    0  0.00000000000E+00  0.00000000000E+00 -0.59898850740E+03  0.35512645033E+04  0.35003845989E+04 0.  0.
        5    1    3    3  502    0  0.12805542961E+04  0.38077219116E+03 -0.14465675339E+04  0.19691080435E+04  0.46999998093E+01 0.  1.
       -5    1    3    3    0  502 -0.12805542961E+04 -0.38077219116E+03  0.84757902650E+03  0.15821564597E+04  0.46999998093E+01 0. -1.
</event>
<event>
 5   0  0.1121462E-08  0.3501044E+04  0.7818609E-02  0.8113542E-01
       -1   -1    0    0    0  501  0.00000000000E+00  0.00000000000E+00  0.18783495458E+04  0.18783495458E+04  0.50400001928E-02 0. -1.
        1   -1    0    0  501    0  0.00000000000E+00  0.00000000000E+00 -0.16313938649E+04  0.16313938649E+04  0.50400001928E-02 0.  1.
    10030    2    1    2    0    0  0.00000000000E+00  0.00000000000E+00  0.24695568087E+03  0.35097434107E+04  0.35010443728E+04 0.  0.
        1    1    3    3  502    0  0.14578633831E+04  0.62830513405E+02 -0.84588630075E+03  0.16866644453E+04  0.50400001928E-02 0. -1.
       -1    1    3    3    0  502 -0.14578633831E+04 -0.62830513405E+02  0.10928419816E+04  0.18230789654E+04  0.50400001928E-02 0.  1.
</event>
<event>
 5   0  0.3554451E-08  0.3499700E+04  0.7818609E-02  0.8113861E-01
       -2   -1    0    0    0  501  0.00000000000E+00  0.00000000000E+00  0.13683744689E+04  0.13683744689E+04  0.25500000920E-02 0. -1.
        2   -1    0    0  501    0  0.00000000000E+00  0.00000000000E+00 -0.22376733485E+04  0.22376733485E+04  0.25500000920E-02 0.  1.
    10030    2    1    2    0    0  0.00000000000E+00  0.00000000000E+00 -0.86929887959E+03  0.36060478173E+04  0.34997000327E+04 0.  0.
        5    1    3    3  502    0  0.10562717422E+04  0.87789426409E+03 -0.15518219117E+04  0.20723372476E+04  0.46999998093E+01 0.  1.
       -5    1    3    3    0  502 -0.10562717422E+04 -0.87789426409E+03  0.68252303207E+03  0.15337105697E+04  0.46999998093E+01 0. -1.
</event>
<event>
 5   0  0.3467834E-08  0.3498454E+04  0.7818609E-02  0.8114156E-01
       -2   -1    0    0    0  501  0.00000000000E+00  0.00000000000E+00  0.20626440440E+04  0.20626440440E+04  0.25500000920E-02 0. -1.
        2   -1    0    0  501    0  0.00000000000E+00  0.00000000000E+00 -0.14834331985E+04  0.14834331985E+04  0.25500000920E-02 0.  1.
    10030    2    1    2    0    0  0.00000000000E+00  0.00000000000E+00  0.57921084551E+03  0.35460772425E+04  0.34984537450E+04 0.  0.
        3    1    3    3  502    0  0.16811200889E+04  0.29691337057E+03  0.67620579233E+03  0.18361853357E+04  0.10100000352E+00 0.  1.
       -3    1    3    3    0  502 -0.16811200889E+04 -0.29691337057E+03 -0.96994946819E+02  0.17098919068E+04  0.10100000352E+00 0. -1.
</event>
<event>
 5   0  0.3700096E-08  0.3500820E+04  0.7818609E-02  0.8113596E-01
        2   -1    0    0  501    0  0.00000000000E+00  0.00000000000E+00  0.22613691825E+04  0.22613691825E+04  0.25500000920E-02 0. -1.
       -2   -1    0    0    0  501  0.00000000000E+00  0.00000000000E+00 -0.13549028759E+04  0.13549028759E+04  0.25500000920E-02 0.  1.
    10030    2    1    2    0    0  0.00000000000E+00  0.00000000000E+00  0.90646630653E+03  0.36162720584E+04  0.35008202518E+04 0.  0.
        4    1    3    3  502    0 -0.13144822137E+04 -0.60603078737E+03  0.14699680234E+04  0.20629940398E+04  0.12699999809E+01 0. -1.
       -4    1    3    3    0  502  0.13144822137E+04  0.60603078737E+03 -0.56350171686E+03  0.15532780186E+04  0.12699999809E+01 0.  1.
</event>
<event>
 5   0  0.3467834E-08  0.3504995E+04  0.7818609E-02  0.8112607E-01
       -2   -1    0    0    0  501  0.00000000000E+00  0.00000000000E+00  0.19557773384E+04  0.19557773384E+04  0.25500000920E-02 0.  1.
        2   -1    0    0  501    0  0.00000000000E+00  0.00000000000E+00 -0.15703460132E+04  0.15703460132E+04  0.25500000920E-02 0. -1.
    10030    2    1    2    0    0  0.00000000000E+00  0.00000000000E+00  0.38543132517E+03  0.35261233516E+04  0.35049948051E+04 0.  0.
        3    1    3    3  502    0  0.15077750531E+04 -0.71162774984E+03 -0.35039742402E+03  0.17036954042E+04  0.10100000352E+00 0. -1.
       -3    1    3    3    0  502 -0.15077750531E+04  0.71162774984E+03  0.73582874919E+03  0.18224279474E+04  0.10100000352E+00 0.  1.
</event>
<event>
 5   0  0.1129219E-08  0.3506588E+04  0.7818609E-02  0.8112230E-01
        1   -1    0    0  501    0  0.00000000000E+00  0.00000000000E+00  0.19413677777E+04  0.19413677777E+04  0.50400001928E-02 0.  1.
       -1   -1    0    0    0  501  0.00000000000E+00  0.00000000000E+00 -0.15834403954E+04  0.15834403954E+04  0.50400001928E-02 0. -1.
    10030    2    1    2    0    0  0.00000000000E+00  0.00000000000E+00  0.35792738231E+03  0.35248081731E+04  0.35065881775E+04 0.  0.
        5    1    3    3  502    0  0.16153338211E+04  0.48801198146E+03 -0.29949164772E+03  0.17138192392E+04  0.46999998093E+01 0. -1.
       -5    1    3    3    0  502 -0.16153338211E+04 -0.48801198146E+03  0.65741903004E+03  0.18109889339E+04  0.46999998093E+01 0.  1.
</event>
<event>
 5   0  0.1121462E-08  0.3501335E+04  0.7818609E-02  0.8113474E-01
        1   -1    0    0  501    0  0.00000000000E+00  0.00000000000E+00  0.19726216594E+04  0.19726216594E+04  0.50400001928E-02 0.  1.
       -1   -1    0    0    0  501  0.00000000000E+00  0.00000000000E+00 -0.15536869701E+04  0.15536869701E+04  0.50400001928E-02 0. -1.
    10030    2    1    2    0    0  0.00000000000E+00  0.00000000000E+00  0.41893468924E+03  0.35263086295E+04  0.35013349278E+04 0.  0.
        4    1    3    3  502    0  0.73963422077E+03  0.15376874509E+04 -0.18485238213E+03  0.17163080997E+04  0.12699999809E+01 0. -1.
       -4    1    3    3    0  502 -0.73963422077E+03 -0.15376874509E+04  0.60378707137E+03  0.18100005297E+04  0.12699999809E+01 0.  1.
</event>
<event>
 5   0  0.1129219E-08  0.3499210E+04  0.7818609E-02  0.8113977E-01
       -1   -1    0    0    0  501  0.00000000000E+00  0.00000000000E+00  0.19912064493E+04  0.19912064493E+04  0.50400001928E-02 0.  1.
        1   -1    0    0  501    0  0.00000000000E+00  0.00000000000E+00 -0.15373178473E+04  0.15373178473E+04  0.50400001928E-02 0. -1.
    10030    2    1    2    0    0  0.00000000000E+00  0.00000000000E+00  0.45388860205E+03  0.35285242966E+04  0.34992097463E+04 0.  0.
        5    1    3    3  502    0 -0.84648850991E+03 -0.14367253764E+04 -0.30699373238E+03  0.16955795016E+04  0.46999998093E+01 0. -1.
       -5    1    3    3    0  502  0.84648850991E+03  0.14367253764E+04  0.76088233443E+03  0.18329447950E+04  0.46999998093E+01 0.  1.
</event>
<event>
 5   0  0.1121462E-08  0.3500406E+04  0.7818609E-02  0.8113694E-01
        1   -1    0    0  501    0  0.00000000000E+00  0.00000000000E+00  0.16442707412E+04  0.16442707413E+04  0.50400001928E-02 0. -1.
       -1   -1    0    0    0  501  0.00000000000E+00  0.00000000000E+00 -0.18629598092E+04  0.18629598092E+04  0.50400001928E-02 0.  1.
    10030    2    1    2    0    0  0.00000000000E+00  0.00000000000E+00 -0.21868906794E+03  0.35072305505E+04  0.35004058658E+04 0.  0.
        4    1    3    3  502    0  0.12059625817E+04 -0.11700418000E+03 -0.13748085581E+04  0.18325217355E+04  0.12699999809E+01 0.  1.
       -4    1    3    3    0  502 -0.12059625817E+04  0.11700418000E+03  0.11561194901E+04  0.16747088150E+04  0.12699999809E+01 0. -1.
</event>
<event>
 5   0  0.3467834E-08  0.3499409E+04  0.7818609E-02  0.8113930E-01
        2   -1    0    0  501    0  0.00000000000E+00  0.00000000000E+00  0.24909566088E+04  0.24909566088E+04  0.25500000920E-02 0. -1.
       -2   -1    0    0    0  501  0.00000000000E+00  0.00000000000E+00 -0.12290319048E+04  0.12290319048E+04  0.25500000920E-02 0.  1.
    10030    2    1    2    0    0  0.00000000000E+00  0.00000000000E+00  0.12619247040E+04  0.37199885136E+04  0.34994086047E+04 0.  0.
        3    1    3    3  502    0 -0.95882929452E+03 -0.87517358449E+03 -0.61609088245E+03  0.14369587345E+04  0.10100000352E+00 0. -1.
       -3    1    3    3    0  502  0.95882929452E+03  0.87517358449E+03  0.18780155865E+04  0.22830297791E+04  0.10100000352E+00 0.  1.
</event>
<event>
 5   0  0.1140808E-08  0.3502399E+04  0.7818609E-02  0.8113222E-01
       -1   -1    0    0    0  501  0.00000000000E+00  0.00000000000E+00  0.13851309446E+04  0.13851309446E+04  0.50400001928E-02 0.  1.
        1   -1    0    0  501    0  0.00000000000E+00  0.00000000000E+00 -0.22140145916E+04  0.22140145916E+04  0.50400001928E-02 0. -1.
    10030    2    1    2    0    0  0.00000000000E+00  0.00000000000E+00 -0.82888364692E+03  0.35991455362E+04  0.35023992477E+04 0.  0.
        3    1    3    3  502    0 -0.48770599824E+03 -0.58978176006E+03  0.12041866603E+04  0.14268024349E+04  0.10100000352E+00 0.  1.
       -3    1    3    3    0  502  0.48770599824E+03  0.58978176006E+03 -0.20330703072E+04  0.21723431013E+04  0.10100000352E+00 0. -1.
</event>
<event>
 5   0  0.1121462E-08  0.3499892E+04  0.7818609E-02  0.8113816E-01
        1   -1    0    0  501    0  0.00000000000E+00  0.00000000000E+00  0.14096651427E+04  0.14096651428E+04  0.50400001928E-02 0.  1.
       -1   -1    0    0    0  501  0.00000000000E+00  0.00000000000E+00 -0.21723676816E+04  0.21723676816E+04  0.50400001928E-02 0. -1.
    10030    2    1    2    0    0  0.00000000000E+00  0.00000000000E+00 -0.76270253884E+03  0.35820328243E+04  0.34998919972E+04 0.  0.
        2    1    3    3  502    0  0.11500137543E+04  0.63528645106E+03 -0.15644176318E+04  0.20429202228E+04  0.25500000920E-02 0. -1.
       -2    1    3    3    0  502 -0.11500137543E+04 -0.63528645106E+03  0.80171509294E+03  0.15391126016E+04  0.25500000920E-02 0.  1.
</event>
<event>
 5   0  0.3467834E-08  0.3499995E+04  0.7818609E-02  0.8113791E-01
       -2   -1    0    0    0  501  0.00000000000E+00  0.00000000000E+00  0.94621056010E+03  0.94621056010E+03  0.25500000920E-02 0. -1.
        2   -1    0    0  501    0  0.00000000000E+00  0.00000000000E+00 -0.32365860992E+04  0.32365860992E+04  0.25500000920E-02 0.  1.
    10030    2    1    2    0    0  0.00000000000E+00  0.00000000000E+00 -0.22903755391E+04  0.41827966593E+04  0.34999953976E+04 0.  0.
        3    1    3    3  502    0 -0.12520259100E+04 -0.34767146721E+03 -0.25460652996E+04  0.28584773654E+04  0.10100000352E+00 0.  1.
       -3    1    3    3    0  502  0.12520259100E+04  0.34767146721E+03  0.25568976053E+03  0.13243192939E+04  0.10100000352E+00 0. -1.
</event>
<event>
 5   0  0.1140808E-08  0.3501545E+04  0.7818609E-02  0.8113424E-01
       -1   -1    0    0    0  501  0.00000000000E+00  0.00000000000E+00  0.15575583763E+04  0.15575583763E+04  0.50400001928E-02 0. -1.
        1   -1    0    0  501    0  0.00000000000E+00  0.00000000000E+00 -0.19679543886E+04  0.19679543886E+04  0.50400001928E-02 0.  1.
    10030    2    1    2    0    0  0.00000000000E+00  0.00000000000E+00 -0.41039601225E+03  0.35255127649E+04  0.35015447118E+04 0.  0.
        3    1    3    3  502    0 -0.41238364126E+03  0.14920375066E+04  0.61830496663E+03  0.16668944870E+04  0.10100000352E+00 0. -1.
       -3    1    3    3    0  502  0.41238364126E+03 -0.14920375066E+04 -0.10287009789E+04  0.18586182779E+04  0.10100000352E+00 0.  1.
</event>
<event>
 5   0  0.3700096E-08  0.3500413E+04  0.7818609E-02  0.8113692E-01
       -2   -1    0    0    0  501  0.00000000000E+00  0.00000000000E+00  0.12008278760E+04  0.12008278760E+04  0.25500000920E-02 0. -1.
        2   -1    0    0  501    0  0.00000000000E+00  0.00000000000E+00 -0.25509258260E+04  0.25509258260E+04  0.25500000920E-02 0.  1.
    10030    2    1    2    0    0  0.00000000000E+00  0.00000000000E+00 -0.13500979500E+04  0.37517537020E+04  0.35004130279E+04 0.  0.
        4    1    3    3  502    0 -0.87184450884E+01 -0.95149539502E+03  0.89937174544E+03  0.13093092253E+04  0.12699999809E+01 0. -1.
       -4    1    3    3    0  502  0.87184450884E+01  0.95149539502E+03 -0.22494696955E+04  0.24424444767E+04  0.12699999809E+01 0.  1.
</event>
<event>
 5   0  0.1121462E-08  0.3500115E+04  0.7818609E-02  0.8113763E-01
        1   -1    0    0  501    0  0.00000000000E+00  0.00000000000E+00  0.28215979707E+04  0.28215979707E+04  0.50400001928E-02 0.  1.
       -1   -1    0    0    0  501  0.00000000000E+00  0.00000000000E+00 -0.10854490100E+04  0.10854490101E+04  0.50400001928E-02 0. -1.
    10030    2    1    2    0    0  0.00000000000E+00  0.00000000000E+00  0.17361489606E+04  0.39070469808E+04  0.35001146976E+04 0.  0.
        2    1    3    3  502    0  0.16565794805E+04  0.22048438258E+03  0.28822815253E+03  0.16958609631E+04  0.25500000920E-02 0. -1.
       -2    1    3    3    0  502 -0.16565794805E+04 -0.22048438258E+03  0.14479208081E+04  0.22111860177E+04  0.25500000920E-02 0.  1.
</event>
<event>
 5   0  0.1121462E-08  0.3501113E+04  0.7818609E-02  0.8113526E-01
       -1   -1    0    0    0  501  0.00000000000E+00  0.00000000000E+00  0.14017345305E+04  0.14017345305E+04  0.50400001928E-02 0.  1.
        1   -1    0    0  501    0  0.00000000000E+00  0.00000000000E+00 -0.21861826242E+04  0.21861826242E+04  0.50400001928E-02 0. -1.
    10030    2    1    2    0    0  0.00000000000E+00  0.00000000000E+00 -0.78444809370E+03  0.35879171547E+04  0.35011127799E+04 0.  0.
        2    1    3    3  502    0 -0.53005798797E+03 -0.12904749963E+04 -0.14758724034E+04  0.20308831915E+04  0.25500000920E-02 0. -1.
       -2    1    3    3    0  502  0.53005798797E+03  0.12904749963E+04  0.69142430966E+03  0.15570339632E+04  0.25500000920E-02 0.  1.
</event>
<event>
 5   0  0.1121462E-08  0.3501242E+04  0.7818609E-02  0.8113496E-01
       -1   -1    0    0    0  501  0.00000000000E+00  0.00000000000E+00  0.14774281381E+04  0.14774281381E+04  0.50400001928E-02 0.  1.
        1   -1    0    0  501    0  0.00000000000E+00  0.00000000000E+00 -0.20743299337E+04  0.20743299337E+04  0.50400001928E-02 0. -1.
    10030    2    1    2    0    0  0.00000000000E+00  0.00000000000E+00 -0.59690179559E+03  0.35517580718E+04  0.35012417293E+04 0.  0.
        4    1    3    3  502    0 -0.14504862723E+04  0.16459341311E+03 -0.12786585105E+04  0.19406108876E+04  0.12699999809E+01 0. -1.
       -4    1    3    3    0  502  0.14504862723E+04 -0.16459341311E+03  0.68175671495E+03  0.16111471842E+04  0.12699999809E+01 0.  1.
</event>
<event>
 5   0  0.1140808E-08  0.3501082E+04  0.7818609E-02  0.8113534E-01
        1   -1    0    0  501    0  0.00000000000E+00  0.00000000000E+00  0.30887743509E+04  0.30887743509E+04  0.50400001928E-02 0.  1.
       -1   -1    0    0    0  501  0.00000000000E+00  0.00000000000E+00 -0.99210658736E+03  0.99210658737E+03  0.50400001928E-02 0. -1.
    10030    2    1    2    0    0  0.00000000000E+00  0.00000000000E+00  0.20966677635E+04  0.40808809383E+04  0.35010817645E+04 0.  0.
        3    1    3    3  502    0 -0.49527096641E+03  0.42240477777E+03  0.29424608413E+04  0.30136016557E+04  0.10100000352E+00 0.  1.
       -3    1    3    3    0  502  0.49527096641E+03 -0.42240477777E+03 -0.84579307775E+03  0.10672792826E+04  0.10100000352E+00 0. -1.
</event>
<event>
 5   0  0.1129219E-08  0.3500640E+04  0.7818609E-02  0.8113638E-01
        1   -1    0    0  501    0  0.00000000000E+00  0.00000000000E+00  0.22442056435E+04  0.22442056436E+04  0.50400001928E-02 0.  1.
       -1   -1    0    0    0  501  0.00000000000E+00  0.00000000000E+00 -0.13651246304E+04  0.13651246304E+04  0.50400001928E-02 0. -1.
    10030    2    1    2    0    0  0.00000000000E+00  0.00000000000E+00  0.87908101312E+03  0.36093302740E+04  0.35006401699E+04 0.  0.
        5    1    3    3  502    0 -0.71932609918E+03 -0.13805358329E+04 -0.38548467068E+03  0.16037237120E+04  0.46999998093E+01 0. -1.
       -5    1    3    3    0  502  0.71932609918E+03  0.13805358329E+04  0.12645656838E+04  0.20056065620E+04  0.46999998093E+01 0.  1.
</event>
<event>
 5   0  0.3467834E-08  0.3499965E+04  0.7818609E-02  0.8113798E-01
        2   -1    0    0  501    0  0.00000000000E+00  0.00000000000E+00  0.13232636144E+04  0.13232636144E+04  0.25500000920E-02 0.  1.
       -2   -1    0    0    0  501  0.00000000000E+00  0.00000000000E+00 -0.23143073410E+04  0.23143073410E+04  0.25500000920E-02 0. -1.
    10030    2    1    2    0    0  0.00000000000E+00  0.00000000000E+00 -0.99104372661E+03  0.36375709553E+04  0.34999649694E+04 0.  0.
        3    1    3    3  502    0  0.74961800930E+03 -0.43326475106E+03 -0.20761007456E+04  0.22494087713E+04  0.10100000352E+00 0. -1.
       -3    1    3    3    0  502 -0.74961800930E+03  0.43326475106E+03  0.10850570190E+04  0.13881621840E+04  0.10100000352E+00 0.  1.
</event>
<event>
 5   0  0.1121462E-08  0.3498840E+04  0.7818609E-02  0.8114065E-01
       -1   -1    0    0    0  501  0.00000000000E+00  0.00000000000E+00  0.13174142372E+04  0.13174142372E+04  0.50400001928E-02 0. -1.
        1   -1    0    0  501    0  0.00000000000E+00  0.00000000000E+00 -0.23230882120E+04  0.23230882120E+04  0.50400001928E-02 0.  1.
    10030    2    1    2    0    0  0.00000000000E+00  0.00000000000E+00 -0.10056739748E+04  0.36405024492E+04  0.34988395132E+04 0.  0.
        1    1    3    3  502    0  0.45046001576E+03  0.66742262301E+03 -0.21188139553E+04  0.22666582805E+04  0.50400001928E-02 0.  1.
       -1    1    3    3    0  502 -0.45046001576E+03 -0.66742262301E+03  0.11131399805E+04  0.13738441687E+04  0.50400001928E-02 0. -1.
</event>
<event>
 5   0  0.3628017E-08  0.3499328E+04  0.7818609E-02  0.8113949E-01
        2   -1    0    0  501    0  0.00000000000E+00  0.00000000000E+00  0.23043487862E+04  0.23043487862E+04  0.25500000920E-02 0. -1.
       -2   -1    0    0    0  501  0.00000000000E+00  0.00000000000E+00 -0.13284982953E+04  0.13284982953E+04  0.25500000920E-02 0.  1.
    10030    2    1    2    0    0  0.00000000000E+00  0.00000000000E+00  0.97585049089E+03  0.36328470815E+04  0.34993276121E+04 0.  0.
        1    1    3    3  502    0 -0.90232999896E+03  0.97959325410E+03 -0.69005955040E+03  0.14999948512E+04  0.50400001928E-02 0.  1.
       -1    1    3    3    0  502  0.90232999896E+03 -0.97959325410E+03  0.16659100413E+04  0.21328522303E+04  0.50400001928E-02 0. -1.
</event>
<event>
 5   0  0.1140808E-08  0.3499167E+04  0.7818609E-02  0.8113987E-01
        1   -1    0    0  501    0  0.00000000000E+00  0.00000000000E+00  0.20151278865E+04  0.20151278865E+04  0.50400001928E-02 0. -1.
       -1   -1    0    0    0  501  0.00000000000E+00  0.00000000000E+00 -0.15190312926E+04  0.15190312927E+04  0.50400001928E-02 0.  1.
    10030    2    1    2    0    0  0.00000000000E+00  0.00000000000E+00  0.49609659385E+03  0.35341591792E+04  0.34991669399E+04 0.  0.
        3    1    3    3  502    0  0.85190105688E+03  0.15050247069E+04  0.51566504442E+03  0.18046454575E+04  0.10100000352E+00 0. -1.
       -3    1    3    3    0  502 -0.85190105688E+03 -0.15050247069E+04 -0.19568450571E+02  0.17295137217E+04  0.10100000352E+00 0.  1.
</event>
<event>
 5   0  0.1121462E-08  0.3499846E+04  0.7818609E-02  0.8113827E-01
        1   -1    0    0  501    0  0.00000000000E+00  0.00000000000E+00  0.11194527402E+04  0.11194527402E+04  0.50400001928E-02 0.  1.
       -1   -1    0    0    0  501  0.00000000000E+00  0.00000000000E+00 -0.27354703985E+04  0.27354703985E+04  0.50400001928E-02 0. -1.
    10030    2    1    2    0    0  0.00000000000E+00  0.00000000000E+00 -0.16160176583E+04  0.38549231388E+04  0.34998456157E+04 0.  0.
        2    1    3    3  502    0 -0.11008462115E+04 -0.60646082650E+03  0.53313340154E+03  0.13652429598E+04  0.25500000920E-02 0.  1.
       -2    1    3    3    0  502  0.11008462115E+04  0.60646082650E+03 -0.21491510598E+04  0.24896801790E+04  0.25500000920E-02 0. -1.
</event>
<event>
 5   0  0.1129219E-08  0.3499659E+04  0.7818609E-02  0.8113871E-01
        1   -1    0    0  501    0  0.00000000000E+00  0.00000000000E+00  0.23852513989E+04  0.23852513990E+04  0.50400001928E-02 0. -1.
       -1   -1    0    0    0  501  0.00000000000E+00  0.00000000000E+00 -0.12836812195E+04  0.12836812196E+04  0.50400001928E-02 0.  1.
    10030    2    1    2    0    0  0.00000000000E+00  0.00000000000E+00  0.11015701794E+04  0.36689326185E+04  0.34996585118E+04 0.  0.
        5    1    3    3  502    0  0.13968485426E+04  0.35188168310E+03  0.15922505437E+04  0.21471586932E+04  0.46999998093E+01 0. -1.
       -5    1    3    3    0  502 -0.13968485426E+04 -0.35188168310E+03 -0.49068036433E+03  0.15217739253E+04  0.46999998093E+01 0.  1.
</event>
<event>
 5   0  0.3554451E-08  0.3504347E+04  0.7818609E-02  0.8112761E-01
       -2   -1    0    0    0  501  0.00000000000E+00  0.00000000000E+00  0.26475071582E+04  0.26475071582E+04  0.25500000920E-02 0.  1.
        2   -1    0    0  501    0  0.00000000000E+00  0.00000000000E+00 -0.11596237396E+04  0.11596237396E+04  0.25500000920E-02 0. -1.
    10030    2    1    2    0    0  0.00000000000E+00  0.00000000000E+00  0.14878834186E+04  0.38071308979E+04  0.35043471012E+04 0.  0.
        5    1    3    3  502    0  0.10444747334E+04 -0.76812714744E+03 -0.53651297734E+03  0.14031446996E+04  0.46999998093E+01 0. -1.
       -5    1    3    3    0  502 -0.10444747334E+04  0.76812714744E+03  0.20243963960E+04  0.24039861982E+04  0.46999998093E+01 0.  1.
</event>
<event>
 5   0  0.3554451E-08  0.3495622E+04  0.7818609E-02  0.8114828E-01
        2   -1    0    0  501    0  0.00000000000E+00  0.00000000000E+00  0.26612381511E+04  0.26612381511E+04  0.25500000920E-02 0.  1.
       -2   -1    0    0    0  501  0.00000000000E+00  0.00000000000E+00 -0.11479027131E+04  0.11479027131E+04  0.25500000920E-02 0. -1.
    10030    2    1    2    0    0  0.00000000000E+00  0.00000000000E+00  0.15133354380E+04  0.38091408642E+04  0.34956215435E+04 0.  0.
        5    1    3    3  502    0  0.15413116972E+04 -0.13019229528E+03 -0.13009331256E+03  0.15522687079E+04  0.46999998093E+01 0. -1.
       -5    1    3    3    0  502 -0.15413116972E+04  0.13019229528E+03  0.16434287506E+04  0.22568721563E+04  0.46999998093E+01 0.  1.
</event>
<event>
 5   0  0.3554451E-08  0.3499520E+04  0.7818609E-02  0.8113904E-01
       -2   -1    0    0    0  501  0.00000000000E+00  0.00000000000E+00  0.16809879644E+04  0.16809879644E+04  0.25500000920E-02 0.  1.
        2   -1    0    0  501    0  0.00000000000E+00  0.00000000000E+00 -0.18213456490E+04  0.18213456490E+04  0.25500000920E-02 0. -1.
    10030    2    1    2    0    0  0.00000000000E+00  0.00000000000E+00 -0.14035768466E+03  0.35023336134E+04  0.34995200328E+04 0.  0.
        5    1    3    3  502    0 -0.17164867335E+04  0.33591453945E+02 -0.40836017058E+03  0.17647195842E+04  0.46999998093E+01 0.  1.
       -5    1    3    3    0  502  0.17164867335E+04 -0.33591453945E+02  0.26800248592E+03  0.17376140292E+04  0.46999998093E+01 0. -1.
</event>
<event>
 5   0  0.1121462E-08  0.3499459E+04  0.7818609E-02  0.8113918E-01
        1   -1    0    0  501    0  0.00000000000E+00  0.00000000000E+00  0.28869534332E+04  0.28869534332E+04  0.50400001928E-02 0.  1.
       -1   -1    0    0    0  501  0.00000000000E+00  0.00000000000E+00 -0.10604791455E+04  0.10604791455E+04  0.50400001928E-02 0. -1.
    10030    2    1    2    0    0  0.00000000000E+00  0.00000000000E+00  0.18264742876E+04  0.39474325787E+04  0.34994593354E+04 0.  0.
        4    1    3    3  502    0 -0.10121742088E+04 -0.13793895153E+04  0.13266812630E+04  0.21650165935E+04  0.12699999809E+01 0. -1.
       -4    1    3    3    0  502  0.10121742088E+04  0.13793895153E+04  0.49979302463E+03  0.17824159852E+04  0.12699999809E+01 0.  1.
</event>
<event>
 5   0  0.3553585E-08  0.3501465E+04  0.7818609E-02  0.8113443E-01
        2   -1    0    0  501    0  0.00000000000E+00  0.00000000000E+00  0.22141112338E+04  0.22141112338E+04  0.25500000920E-02 0. -1.
       -2   -1    0    0    0  501  0.00000000000E+00  0.00000000000E+00 -0.13843316403E+04  0.13843316403E+04  0.25500000920E-02 0.  1.
    10030    2    1    2    0    0  0.00000000000E+00  0.00000000000E+00  0.82977959347E+03  0.35984428742E+04  0.35014649712E+04 0.  0.
        2    1    3    3  502    0  0.12810670112E+04  0.89059884793E+03  0.12310937673E+04  0.19874332339E+04  0.25500000920E-02 0. -1.
       -2    1    3    3    0  502 -0.12810670112E+04 -0.89059884793E+03 -0.40131417388E+03  0.16110096403E+04  0.25500000920E-02 0.  1.
</event>
<event>
 5   0  0.3467834E-08  0.3500800E+04  0.7818609E-02  0.8113600E-01
       -2   -1    0    0    0  501  0.00000000000E+00  0.00000000000E+00  0.19286882363E+04  0.19286882363E+04  0.25500000920E-02 0.  1.
        2   -1    0    0  501    0  0.00000000000E+00  0.00000000000E+00 -0.15885923830E+04  0.15885923830E+04  0.25500000920E-02 0. -1.
    10030    2    1    2    0    0  0.00000000000E+00  0.00000000000E+00  0.34009585330E+03  0.35172806193E+04  0.35007995895E+04 0.  0.
        3    1    3    3  502    0 -0.52784100162E+02  0.17220324154E+04  0.48088709504E+03  0.17886962317E+04  0.10100000352E+00 0.  1.
       -3    1    3    3    0  502  0.52784100162E+02 -0.17220324154E+04 -0.14079124174E+03  0.17285843876E+04  0.10100000352E+00 0. -1.
</event>
<event>
 5   0  0.1140808E-08  0.3500588E+04  0.7818609E-02  0.8113651E-01
        1   -1    0    0  501    0  0.00000000000E+00  0.00000000000E+00  0.21111616697E+04  0.21111616698E+04  0.50400001928E-02 0.  1.
       -1   -1    0    0    0  501  0.00000000000E+00  0.00000000000E+00 -0.14511104571E+04  0.14511104571E+04  0.50400001928E-02 0. -1.
    10030    2    1    2    0    0  0.00000000000E+00  0.00000000000E+00  0.66005121268E+03  0.35622721268E+04  0.35005878224E+04 0.  0.
        3    1    3    3  502    0 -0.75318769914E+03 -0.45508102883E+03 -0.12096248396E+04  0.14958551787E+04  0.10100000352E+00 0. -1.
       -3    1    3    3    0  502  0.75318769914E+03  0.45508102883E+03  0.18696760523E+04  0.20664169481E+04  0.10100000352E+00 0.  1.
</event>
<event>
 5   0  0.3467834E-08  0.3495305E+04  0.7818609E-02  0.8114903E-01
       -2   -1    0    0    0  501  0.00000000000E+00  0.00000000000E+00  0.15713157208E+04  0.15713157208E+04  0.25500000920E-02 0.  1.
        2   -1    0    0  501    0  0.00000000000E+00  0.00000000000E+00 -0.19437787613E+04  0.19437787613E+04  0.25500000920E-02 0. -1.
    10030    2    1    2    0    0  0.00000000000E+00  0.00000000000E+00 -0.37246304051E+03  0.35150944821E+04  0.34953054947E+04 0.  0.
        3    1    3    3  502    0  0.11581465187E+04 -0.56852273700E+03 -0.13717903767E+04  0.18831702815E+04  0.10100000352E+00 0. -1.
       -3    1    3    3    0  502 -0.11581465187E+04  0.56852273700E+03  0.99932733616E+03  0.16319242006E+04  0.10100000352E+00 0.  1.
</event>
<event>
 5   0  0.1121462E-08  0.3500062E+04  0.7818609E-02  0.8113775E-01
        1   -1    0    0  501    0  0.00000000000E+00  0.00000000000E+00  0.18461725699E+04  0.18461725699E+04  0.50400001928E-02 0.  1.
       -1   -1    0    0    0  501  0.00000000000E+00  0.00000000000E+00 -0.16588961495E+04  0.16588961495E+04  0.50400001928E-02 0. -1.
    10030    2    1    2    0    0  0.00000000000E+00  0.00000000000E+00  0.18727642047E+03  0.35050687194E+04  0.35000620380E+04 0.  0.
        1    1    3    3  502    0 -0.61891874757E+03  0.16343877915E+04  0.18500851074E+03  0.17574162905E+04  0.50400001928E-02 0.  1.
       -1    1    3    3    0  502  0.61891874757E+03 -0.16343877915E+04  0.22679097324E+01  0.17476524289E+04  0.50400001928E-02 0. -1.
</event>
<event>
 5   0  0.3554451E-08  0.3499696E+04  0.7818609E-02  0.8113862E-01
       -2   -1    0    0    0  501  0.00000000000E+00  0.00000000000E+00  0.16602010275E+04  0.16602010275E+04  0.25500000920E-02 0.  1.
        2   -1    0    0  501    0  0.00000000000E+00  0.00000000000E+00 -0.18443360821E+04  0.18443360821E+04  0.25500000920E-02 0. -1.
    10030    2    1    2    0    0  0.00000000000E+00  0.00000000000E+00 -0.18413505461E+03  0.35045371096E+04  0.34996963631E+04 0.  0.
        5    1    3    3  502    0  0.40946874791E+03 -0.16809838343E+04  0.17016347422E+03  0.17384904385E+04  0.46999998093E+01 0.  1.
       -5    1    3    3    0  502 -0.40946874791E+03  0.16809838343E+04 -0.35429852883E+03  0.17660466711E+04  0.46999998093E+01 0. -1.
</event>
<event>
 5   0  0.1140808E-08  0.3500192E+04  0.7818609E-02  0.8113745E-01
       -1   -1    0    0    0  501  0.00000000000E+00  0.00000000000E+00  0.15852192369E+04  0.15852192369E+04  0.50400001928E-02 0.  1.
        1   -1    0    0  501    0  0.00000000000E+00  0.00000000000E+00 -0.19321208629E+04  0.19321208629E+04  0.50400001928E-02 0. -1.
    10030    2    1    2    0    0  0.00000000000E+00  0.00000000000E+00 -0.34690162596E+03  0.35173400998E+04  0.35001915147E+04 0.  0.
        3    1    3    3  502    0  0.30932146531E+03  0.16708061459E+04 -0.59450507443E+03  0.18001970003E+04  0.10100000352E+00 0. -1.
       -3    1    3    3    0  502 -0.30932146531E+03 -0.16708061459E+04  0.24760344848E+03  0.17171430995E+04  0.10100000352E+00 0.  1.
</event>
<event>
 5   0  0.3553585E-08  0.3500625E+04  0.7818609E-02  0.8113642E-01
       -2   -1    0    0    0  501  0.00000000000E+00  0.00000000000E+00  0.12595764433E+04  0.12595764433E+04  0.25500000920E-02 0. -1.
        2   -1    0    0  501    0  0.00000000000E+00  0.00000000000E+00 -0.24322407030E+04  0.24322407030E+04  0.25500000920E-02 0.  1.
    10030    2    1    2    0    0  0.00000000000E+00  0.00000000000E+00 -0.11726642597E+04  0.36918171463E+04  0.35006245693E+04 0.  0.
        2    1    3    3  502    0 -0.10366106559E+04  0.37024622843E+03  0.84885713578E+03  0.13900368192E+04  0.25500000920E-02 0. -1.
       -2    1    3    3    0  502  0.10366106559E+04 -0.37024622843E+03 -0.20215213955E+04  0.23017803271E+04  0.25500000920E-02 0.  1.
</event>
<event>
 5   0  0.1129219E-08  0.3499482E+04  0.7818609E-02  0.8113913E-01
       -1   -1    0    0    0  501  0.00000000000E+00  0.00000000000E+00  0.16510223868E+04  0.16510223868E+04  0.50400001928E-02 0.  1.
        1   -1    0    0  501    0  0.00000000000E+00  0.00000000000E+00 -0.18543626143E+04  0.18543626143E+04  0.50400001928E-02 0. -1.
    10030    2    1    2    0    0  0.00000000000E+00  0.00000000000E+00 -0.20334022747E+03  0.35053850011E+04  0.34994823557E+04 0.  0.
        5    1    3    3  502    0  0.92584650096E+03  0.20620483874E+03  0.13711363821E+04  0.16672580026E+04  0.46999998093E+01 0.  1.
       -5    1    3    3    0  502 -0.92584650096E+03 -0.20620483874E+03 -0.15744766095E+04  0.18381269986E+04  0.46999998093E+01 0. -1.
</event>
<event>
 5   0  0.1121462E-08  0.3501017E+04  0.7818609E-02  0.8113549E-01
       -1   -1    0    0    0  501  0.00000000000E+00  0.00000000000E+00  0.22050981909E+04  0.22050981909E+04  0.50400001928E-02 0.  1.
        1   -1    0    0  501    0  0.00000000000E+00  0.00000000000E+00 -0.13896344102E+04  0.13896344102E+04  0.50400001928E-02 0. -1.
    10030    2    1    2    0    0  0.00000000000E+00  0.00000000000E+00  0.81546378074E+03  0.35947326011E+04  0.35010171802E+04 0.  0.
        2    1    3    3  502    0  0.15488340049E+04 -0.71771866705E+03  0.97040065389E+01  0.17070738201E+04  0.25500000920E-02 0. -1.
       -2    1    3    3    0  502 -0.15488340049E+04  0.71771866705E+03  0.80575977421E+03  0.18876587810E+04  0.25500000920E-02 0.  1.
</event>
<event>
 5   0  0.1121462E-08  0.3499469E+04  0.7818609E-02  0.8113916E-01
       -3   -1    0    0    0  501  0.00000000000E+00  0.00000000000E+00  0.15058550309E+04  0.15058550343E+04  0.10100000352E+00 0. -1.
        3   -1    0    0  501    0  0.00000000000E+00  0.00000000000E+00 -0.20331107774E+04  0.20331107799E+04  0.10100000352E+00 0.  1.
    10030    2    1    2    0    0  0.00000000000E+00  0.00000000000E+00 -0.52725574650E+03  0.35389658141E+04  0.34994685899E+04 0.  0.
        2    1    3    3  502    0 -0.96245713165E+03  0.60619539162E+03  0.10809550144E+04  0.15691591144E+04  0.25500000920E-02 0. -1.
       -2    1    3    3    0  502  0.96245713165E+03 -0.60619539162E+03 -0.16082107609E+04  0.19698066998E+04  0.25500000920E-02 0.  1.
</event>
<event>
 5   0  0.3554451E-08  0.3498920E+04  0.7818609E-02  0.8114046E-01
       -2   -1    0    0    0  501  0.00000000000E+00  0.00000000000E+00  0.13992983501E+04  0.13992983501E+04  0.25500000920E-02 0.  1.
        2   -1    0    0  501    0  0.00000000000E+00  0.00000000000E+00 -0.21872461198E+04  0.21872461198E+04  0.25500000920E-02 0. -1.
    10030    2    1    2    0    0  0.00000000000E+00  0.00000000000E+00 -0.78794776967E+03  0.35865444699E+04  0.34989197685E+04 0.  0.
        5    1    3    3  502    0  0.54269690186E+03  0.38246509781E+03  0.12651367098E+04  0.14287730621E+04  0.46999998093E+01 0.  1.
       -5    1    3    3    0  502 -0.54269690186E+03 -0.38246509781E+03 -0.20530844795E+04  0.21577714078E+04  0.46999998093E+01 0. -1.
</event>
<event>
 5   0  0.1129219E-08  0.3498079E+04  0.7818609E-02  0.8114245E-01
        1   -1    0    0  501    0  0.00000000000E+00  0.00000000000E+00  0.14717327347E+04  0.14717327347E+04  0.50400001928E-02 0. -1.
       -1   -1    0    0    0  501  0.00000000000E+00  0.00000000000E+00 -0.20785968027E+04  0.20785968027E+04  0.50400001928E-02 0.  1.
    10030    2    1    2    0    0  0.00000000000E+00  0.00000000000E+00 -0.60686406798E+03  0.35503295374E+04  0.34980788767E+04 0.  0.
        5    1    3    3  502    0 -0.14364672324E+04  0.50280950883E+03  0.57133609300E+03  0.16256391153E+04  0.46999998093E+01 0. -1.
       -5    1    3    3    0  502  0.14364672324E+04 -0.50280950883E+03 -0.11782001610E+04  0.19246904222E+04  0.46999998093E+01 0.  1.
</event>
<event>
 5   0  0.3628017E-08  0.3500963E+04  0.7818609E-02  0.8113562E-01
        2   -1    0    0  501    0  0.00000000000E+00  0.00000000000E+00  0.25705306519E+04  0.25705306519E+04  0.25500000920E-02 0. -1.
       -2   -1    0    0    0  501  0.00000000000E+00  0.00000000000E+00 -0.11920437774E+04  0.11920437774E+04  0.25500000920E-02 0.  1.
    10030    2    1    2    0    0  0.00000000000E+00  0.00000000000E+00  0.13784868745E+04  0.37625744293E+04  0.35009627637E+04 0.  0.
        1    1    3    3  502    0 -0.77662409982E+03  0.15684900269E+04  0.72110884869E+03  0.18929616818E+04  0.50400001928E-02 0.  1.
       -1    1    3    3    0  502  0.77662409982E+03 -0.15684900269E+04  0.65737802580E+03  0.18696127475E+04  0.50400001928E-02 0. -1.
</event>
<event>
 5   0  0.3554451E-08  0.3500200E+04  0.7818609E-02  0.8113743E-01
       -2   -1    0    0    0  501  0.00000000000E+00  0.00000000000E+00  0.12539009487E+04  0.12539009487E+04  0.25500000920E-02 0. -1.
        2   -1    0    0  501    0  0.00000000000E+00  0.00000000000E+00 -0.24426569500E+04  0.24426569500E+04  0.25500000920E-02 0.  1.
    10030    2    1    2    0    0  0.00000000000E+00  0.00000000000E+00 -0.11887560013E+04  0.36965578987E+04  0.35001999182E+04 0.  0.
        5    1    3    3  502    0  0.14823686371E+04  0.85736833469E+03 -0.21311228105E+03  0.17256697749E+04  0.46999998093E+01 0.  1.
       -5    1    3    3    0  502 -0.14823686371E+04 -0.85736833469E+03 -0.97564372024E+03  0.19708881238E+04  0.46999998093E+01 0. -1.
</event>
<event>
 5   0  0.3554451E-08  0.3502226E+04  0.7818609E-02  0.8113263E-01
       -2   -1    0    0    0  501  0.00000000000E+00  0.00000000000E+00  0.21590916318E+04  0.21590916318E+04  0.25500000920E-02 0.  1.
        2   -1    0    0  501    0  0.00000000000E+00  0.00000000000E+00 -0.14202256568E+04  0.14202256568E+04  0.25500000920E-02 0. -1.
    10030    2    1    2    0    0  0.00000000000E+00  0.00000000000E+00  0.73886597497E+03  0.35793172886E+04  0.35022263381E+04 0.  0.
        5    1    3    3  502    0  0.16009721782E+04 -0.68258084584E+03  0.56693984920E+03  0.18304292964E+04  0.46999998093E+01 0. -1.
       -5    1    3    3    0  502 -0.16009721782E+04  0.68258084584E+03  0.17192612577E+03  0.17488879922E+04  0.46999998093E+01 0.  1.
</event>
<event>
 5   0  0.1129219E-08  0.3500234E+04  0.7818609E-02  0.8113735E-01
        1   -1    0    0  501    0  0.00000000000E+00  0.00000000000E+00  0.20152317525E+04  0.20152317525E+04  0.50400001928E-02 0.  1.
       -1   -1    0    0    0  501  0.00000000000E+00  0.00000000000E+00 -0.15198791721E+04  0.15198791721E+04  0.50400001928E-02 0. -1.
    10030    2    1    2    0    0  0.00000000000E+00  0.00000000000E+00  0.49535258038E+03  0.35351109246E+04  0.35002335737E+04 0.  0.
        5    1    3    3  502    0  0.38053030578E+03  0.14064541770E+04  0.12268573823E+04  0.19047618728E+04  0.46999998093E+01 0.  1.
       -5    1    3    3    0  502 -0.38053030578E+03 -0.14064541770E+04 -0.73150480189E+03  0.16303490518E+04  0.46999998093E+01 0. -1.
</event>
<event>
 5   0  0.1129219E-08  0.3497534E+04  0.7818609E-02  0.8114375E-01
       -1   -1    0    0    0  501  0.00000000000E+00  0.00000000000E+00  0.16385977501E+04  0.16385977501E+04  0.50400001928E-02 0.  1.
        1   -1    0    0  501    0  0.00000000000E+00  0.00000000000E+00 -0.18663434758E+04  0.18663434758E+04  0.50400001928E-02 0. -1.
    10030    2    1    2    0    0  0.00000000000E+00  0.00000000000E+00 -0.22774572572E+03  0.35049412259E+04  0.34975341144E+04 0.  0.
        5    1    3    3  502    0  0.56641047172E+03 -0.13306872095E+04  0.87137502795E+03  0.16884507104E+04  0.46999998093E+01 0.  1.
       -5    1    3    3    0  502 -0.56641047172E+03  0.13306872095E+04 -0.10991207537E+04  0.18164905156E+04  0.46999998093E+01 0. -1.
</event>
<event>
 5   0  0.3554451E-08  0.3505416E+04  0.7818609E-02  0.8112508E-01
        2   -1    0    0  501    0  0.00000000000E+00  0.00000000000E+00  0.14497666992E+04  0.14497666992E+04  0.25500000920E-02 0. -1.
       -2   -1    0    0    0  501  0.00000000000E+00  0.00000000000E+00 -0.21189510269E+04  0.21189510269E+04  0.25500000920E-02 0.  1.
    10030    2    1    2    0    0  0.00000000000E+00  0.00000000000E+00 -0.66918432779E+03  0.35687177261E+04  0.35054156022E+04 0.  0.
        5    1    3    3  502    0  0.16545008227E+04 -0.20837498955E+03  0.21475334268E+03  0.16813489217E+04  0.46999998093E+01 0. -1.
       -5    1    3    3    0  502 -0.16545008227E+04  0.20837498955E+03 -0.88393767047E+03  0.18873688044E+04  0.46999998093E+01 0.  1.
</event>
<event>
 5   0  0.1121462E-08  0.3501448E+04  0.7818609E-02  0.8113447E-01
        1   -1    0    0  501    0  0.00000000000E+00  0.00000000000E+00  0.15403638672E+04  0.15403638672E+04  0.50400001928E-02 0. -1.
       -1   -1    0    0    0  501  0.00000000000E+00  0.00000000000E+00 -0.19898123816E+04  0.19898123816E+04  0.50400001928E-02 0.  1.
    10030    2    1    2    0    0  0.00000000000E+00  0.00000000000E+00 -0.44944851440E+03  0.35301762488E+04  0.35014483262E+04 0.  0.
        4    1    3    3  502    0  0.10005851385E+04  0.81284700982E+03  0.96953762931E+03  0.16130392768E+04  0.12699999809E+01 0. -1.
       -4    1    3    3    0  502 -0.10005851385E+04 -0.81284700982E+03 -0.14189861437E+04  0.19171369721E+04  0.12699999809E+01 0.  1.
</event>
<event>
 5   0  0.3628017E-08  0.3499338E+04  0.7818609E-02  0.8113947E-01
       -2   -1    0    0    0  501  0.00000000000E+00  0.00000000000E+00  0.12643057900E+04  0.12643057900E+04  0.25500000920E-02 0.  1.
        2   -1    0    0  501    0  0.00000000000E+00  0.00000000000E+00 -0.24213618043E+04  0.24213618043E+04  0.25500000920E-02 0. -1.
    10030    2    1    2    0    0  0.00000000000E+00  0.00000000000E+00 -0.11570560143E+04  0.36856675944E+04  0.34993380797E+04 0.  0.
        1    1    3    3  502    0 -0.12968252337E+04 -0.15555321148E+03 -0.18047307451E+04  0.22277804090E+04  0.50400001928E-02 0. -1.
       -1    1    3    3    0  502  0.12968252337E+04  0.15555321148E+03  0.64767473075E+03  0.14578871854E+04  0.50400001928E-02 0.  1.
</event>
<event>
 5   0  0.1129219E-08  0.3498446E+04  0.7818609E-02  0.8114158E-01
        1   -1    0    0  501    0  0.00000000000E+00  0.00000000000E+00  0.20051324534E+04  0.20051324534E+04  0.50400001928E-02 0.  1.
       -1   -1    0    0    0  501  0.00000000000E+00  0.00000000000E+00 -0.15259742666E+04  0.15259742666E+04  0.50400001928E-02 0. -1.
    10030    2    1    2    0    0  0.00000000000E+00  0.00000000000E+00  0.47915818680E+03  0.35311067201E+04  0.34984456693E+04 0.  0.
        5    1    3    3  502    0 -0.16835555660E+04  0.10261424212E+03 -0.22828854208E+03  0.17020654438E+04  0.46999998093E+01 0. -1.
       -5    1    3    3    0  502  0.16835555660E+04 -0.10261424212E+03  0.70744672888E+03  0.18290412763E+04  0.46999998093E+01 0.  1.
</event>
<event>
 5   0  0.1121462E-08  0.3499707E+04  0.7818609E-02  0.8113859E-01
        1   -1    0    0  501    0  0.00000000000E+00  0.00000000000E+00  0.23758423858E+04  0.23758423859E+04  0.50400001928E-02 0.  1.
       -1   -1    0    0    0  501  0.00000000000E+00  0.00000000000E+00 -0.12888009767E+04  0.12888009767E+04  0.50400001928E-02 0. -1.
    10030    2    1    2    0    0  0.00000000000E+00  0.00000000000E+00  0.10870414092E+04  0.36646433625E+04  0.34997074091E+04 0.  0.
        1    1    3    3  502    0  0.13262388138E+04 -0.56037827886E+03  0.15849029101E+04  0.21412263872E+04  0.50400001928E-02 0.  1.
       -1    1    3    3    0  502 -0.13262388138E+04  0.56037827886E+03 -0.49786150093E+03  0.15234169754E+04  0.50400001928E-02 0. -1.
</event>
<event>
 5   0  0.1121462E-08  0.3505112E+04  0.7818609E-02  0.8112580E-01
       -1   -1    0    0    0  501  0.00000000000E+00  0.00000000000E+00  0.11721383697E+04  0.11721383698E+04  0.50400001928E-02 0. -1.
        1   -1    0    0  501    0  0.00000000000E+00  0.00000000000E+00 -0.26203836656E+04  0.26203836656E+04  0.50400001928E-02 0.  1.
    10030    2    1    2    0    0  0.00000000000E+00  0.00000000000E+00 -0.14482452958E+04  0.37925220353E+04  0.35051118315E+04 0.  0.
        1    1    3    3  502    0 -0.16195879568E+04 -0.98684838266E+02 -0.75099418416E+01  0.16226090861E+04  0.50400001928E-02 0. -1.
       -1    1    3    3    0  502  0.16195879568E+04  0.98684838266E+02 -0.14407353540E+04  0.21699129492E+04  0.50400001928E-02 0.  1.
</event>
<event>
 5   0  0.1121462E-08  0.3501720E+04  0.7818609E-02  0.8113382E-01
       -1   -1    0    0    0  501  0.00000000000E+00  0.00000000000E+00  0.21519256521E+04  0.21519256521E+04  0.50400001928E-02 0.  1.
        1   -1    0    0  501    0  0.00000000000E+00  0.00000000000E+00 -0.14245433928E+04  0.14245433928E+04  0.50400001928E-02 0. -1.
    10030    2    1    2    0    0  0.00000000000E+00  0.00000000000E+00  0.72738225933E+03  0.35764690449E+04  0.35017204168E+04 0.  0.
        4    1    3    3  502    0 -0.30551003503E+03 -0.31933098582E+03 -0.13666398074E+04  0.14363198237E+04  0.12699999809E+01 0. -1.
       -4    1    3    3    0  502  0.30551003503E+03  0.31933098582E+03  0.20940220667E+04  0.21401492211E+04  0.12699999809E+01 0.  1.
</event>
<event>
 5   0  0.3700096E-08  0.3497143E+04  0.7818609E-02  0.8114467E-01
       -2   -1    0    0    0  501  0.00000000000E+00  0.00000000000E+00  0.98167782402E+03  0.98167782403E+03  0.25500000920E-02 0.  1.
        2   -1    0    0  501    0  0.00000000000E+00  0.00000000000E+00 -0.31145677955E+04  0.31145677955E+04  0.25500000920E-02 0. -1.
    10030    2    1    2    0    0  0.00000000000E+00  0.00000000000E+00 -0.21328899714E+04  0.40962456195E+04  0.34971429117E+04 0.  0.
        4    1    3    3  502    0  0.51665877264E+03  0.10660143379E+04  0.44003611036E+03  0.12637073424E+04  0.12699999809E+01 0.  1.
       -4    1    3    3    0  502 -0.51665877264E+03 -0.10660143379E+04 -0.25729260818E+04  0.28325382771E+04  0.12699999809E+01 0. -1.
</event>
<event>
 5   0  0.3467834E-08  0.3496463E+04  0.7818609E-02  0.8114629E-01
       -2   -1    0    0    0  501  0.00000000000E+00  0.00000000000E+00  0.13793641197E+04  0.13793641197E+04  0.25500000920E-02 0. -1.
        2   -1    0    0  501    0  0.00000000000E+00  0.00000000000E+00 -0.22157410250E+04  0.22157410250E+04  0.25500000920E-02 0.  1.
    10030    2    1    2    0    0  0.00000000000E+00  0.00000000000E+00 -0.83637690535E+03  0.35951051447E+04  0.34964631664E+04 0.  0.
        3    1    3    3  502    0  0.39536382401E+03 -0.50094969974E+03  0.12553194136E+04  0.14082222819E+04  0.10100000352E+00 0. -1.
       -3    1    3    3    0  502 -0.39536382401E+03  0.50094969974E+03 -0.20916963189E+04  0.21868828628E+04  0.10100000352E+00 0.  1.
</event>
<event>
 5   0  0.1121462E-08  0.3500050E+04  0.7818609E-02  0.8113778E-01
        1   -1    0    0  501    0  0.00000000000E+00  0.00000000000E+00  0.11253367255E+04  0.11253367255E+04  0.50400001928E-02 0. -1.
       -1   -1    0    0    0  501  0.00000000000E+00  0.00000000000E+00 -0.27214861862E+04  0.27214861862E+04  0.50400001928E-02 0.  1.
    10030    2    1    2    0    0  0.00000000000E+00  0.00000000000E+00 -0.15961494607E+04  0.38468229118E+04  0.35000504873E+04 0.  0.
        1    1    3    3  502    0  0.71640452324E+03  0.81937598988E+03  0.70809145244E+03  0.12984629216E+04  0.50400001928E-02 0. -1.
       -1    1    3    3    0  502 -0.71640452324E+03 -0.81937598988E+03 -0.23042409131E+04  0.25483599902E+04  0.50400001928E-02 0.  1.
</event>
<event>
 5   0  0.3554451E-08  0.3499342E+04  0.7818609E-02  0.8113946E-01
        2   -1    0    0  501    0  0.00000000000E+00  0.00000000000E+00  0.17729113342E+04  0.17729113342E+04  0.25500000920E-02 0.  1.
       -2   -1    0    0    0  501  0.00000000000E+00  0.00000000000E+00 -0.17267357693E+04  0.17267357693E+04  0.25500000920E-02 0. -1.
    10030    2    1    2    0    0  0.00000000000E+00  0.00000000000E+00  0.46175564963E+02  0.34996471035E+04  0.34993424620E+04 0.  0.
        5    1    3    3  502    0  0.79447547344E+03  0.10402809248E+04 -0.11380264897E+04  0.17345034049E+04  0.46999998093E+01 0. -1.
       -5    1    3    3    0  502 -0.79447547344E+03 -0.10402809248E+04  0.11842020546E+04  0.17651436986E+04  0.46999998093E+01 0.  1.
</event>
<event>
 5   0  0.3467834E-08  0.3499850E+04  0.7818609E-02  0.8113825E-01
        2   -1    0    0  501    0  0.00000000000E+00  0.00000000000E+00  0.16999280987E+04  0.16999280987E+04  0.25500000920E-02 0. -1.
       -2   -1    0    0    0  501  0.00000000000E+00  0.00000000000E+00 -0.18013928716E+04  0.18013928716E+04  0.25500000920E-02 0.  1.
    10030    2    1    2    0    0  0.00000000000E+00  0.00000000000E+00 -0.10146477291E+03  0.35013209703E+04  0.34998504878E+04 0.  0.
        3    1    3    3  502    0  0.15864577545E+04 -0.45662247767E+03  0.52993034163E+03  0.17338334612E+04  0.10100000352E+00 0.  1.
       -3    1    3    3    0  502 -0.15864577545E+04  0.45662247767E+03 -0.63139511454E+03  0.17674875091E+04  0.10100000352E+00 0. -1.
</event>
<event>
 5   0  0.3700096E-08  0.3500066E+04  0.7818609E-02  0.8113774E-01
        2   -1    0    0  501    0  0.00000000000E+00  0.00000000000E+00  0.10453875994E+04  0.10453875994E+04  0.25500000920E-02 0.  1.
       -2   -1    0    0    0  501  0.00000000000E+00  0.00000000000E+00 -0.29296457936E+04  0.29296457936E+04  0.25500000920E-02 0. -1.
    10030    2    1    2    0    0  0.00000000000E+00  0.00000000000E+00 -0.18842581942E+04  0.39750333929E+04  0.35000659326E+04 0.  0.
        4    1    3    3  502    0  0.12284115816E+04 -0.33019442845E+03  0.42288431157E+03  0.13404686226E+04  0.12699999809E+01 0.  1.
       -4    1    3    3    0  502 -0.12284115816E+04  0.33019442845E+03 -0.23071425058E+04  0.26345647703E+04  0.12699999809E+01 0. -1.
</event>
<event>
 5   0  0.3553585E-08  0.3499360E+04  0.7818609E-02  0.8113942E-01
        2   -1    0    0  501    0  0.00000000000E+00  0.00000000000E+00  0.20241909822E+04  0.20241909822E+04  0.25500000920E-02 0. -1.
       -2   -1    0    0    0  501  0.00000000000E+00  0.00000000000E+00 -0.15123970096E+04  0.15123970097E+04  0.25500000920E-02 0.  1.
    10030    2    1    2    0    0  0.00000000000E+00  0.00000000000E+00  0.51179397254E+03  0.35365879918E+04  0.34993601635E+04 0.  0.
        2    1    3    3  502    0 -0.48267374643E+02 -0.23660726864E+03  0.20072689059E+04  0.20217421200E+04  0.25500000920E-02 0. -1.
       -2    1    3    3    0  502  0.48267374643E+02  0.23660726864E+03 -0.14954749334E+04  0.15148458718E+04  0.25500000920E-02 0.  1.
</event>
<event>
 5   0  0.3553585E-08  0.3501779E+04  0.7818609E-02  0.8113369E-01
        2   -1    0    0  501    0  0.00000000000E+00  0.00000000000E+00  0.10233615763E+04  0.10233615763E+04  0.25500000920E-02 0.  1.
       -2   -1    0    0    0  501  0.00000000000E+00  0.00000000000E+00 -0.29956310177E+04  0.29956310177E+04  0.25500000920E-02 0. -1.
    10030    2    1    2    0    0  0.00000000000E+00  0.00000000000E+00 -0.19722694414E+04  0.40189925940E+04  0.35017787939E+04 0.  0.
        2    1    3    3  502    0  0.71096595601E+03  0.68227503132E+03  0.67491788904E+03  0.11943558791E+04  0.25500000920E-02 0.  1.
       -2    1    3    3    0  502 -0.71096595601E+03 -0.68227503132E+03 -0.26471873304E+04  0.28246367149E+04  0.25500000920E-02 0. -1.
</event>
<event>
 5   0  0.3553585E-08  0.3498247E+04  0.7818609E-02  0.8114205E-01
        2   -1    0    0  501    0  0.00000000000E+00  0.00000000000E+00  0.22625316088E+04  0.22625316088E+04  0.25500000920E-02 0.  1.
       -2   -1    0    0    0  501  0.00000000000E+00  0.00000000000E+00 -0.13522169692E+04  0.13522169692E+04  0.25500000920E-02 0. -1.
    10030    2    1    2    0    0  0.00000000000E+00  0.00000000000E+00  0.91031463956E+03  0.36147485780E+04  0.34982473525E+04 0.  0.
        2    1    3    3  502    0  0.33779793182E+03  0.16310765546E+04  0.10067082139E+04  0.19462732588E+04  0.25500000920E-02 0.  1.
       -2    1    3    3    0  502 -0.33779793182E+03 -0.16310765546E+04 -0.96393574372E+02  0.16684753193E+04  0.25500000920E-02 0. -1.
</event>
<event>
 5   0  0.3467834E-08  0.3497204E+04  0.7818609E-02  0.8114453E-01
       -2   -1    0    0    0  501  0.00000000000E+00  0.00000000000E+00  0.27113873174E+04  0.27113873174E+04  0.25500000920E-02 0. -1.
        2   -1    0    0  501    0  0.00000000000E+00  0.00000000000E+00 -0.11276917002E+04  0.11276917002E+04  0.25500000920E-02 0.  1.
    10030    2    1    2    0    0  0.00000000000E+00  0.00000000000E+00  0.15836956172E+04  0.38390790176E+04  0.34972040111E+04 0.  0.
        3    1    3    3  502    0  0.15517863781E+04 -0.73178648378E+03  0.42111059247E+03  0.17666031140E+04  0.10100000352E+00 0. -1.
       -3    1    3    3    0  502 -0.15517863781E+04  0.73178648378E+03  0.11625850248E+04  0.20724759036E+04  0.10100000352E+00 0.  1.
</event>
<event>
 5   0  0.3700096E-08  0.3499359E+04  0.7818609E-02  0.8113942E-01
       -2   -1    0    0    0  501  0.00000000000E+00  0.00000000000E+00  0.15272620228E+04  0.15272620228E+04  0.25500000920E-02 0.  1.
        2   -1    0    0  501    0  0.00000000000E+00  0.00000000000E+00 -0.20044882530E+04  0.20044882530E+04  0.25500000920E-02 0. -1.
    10030    2    1    2    0    0  0.00000000000E+00  0.00000000000E+00 -0.47722623022E+03  0.35317502758E+04  0.34993592465E+04 0.  0.
        4    1    3    3  502    0  0.91906328793E+03  0.73973311716E+03 -0.15426623482E+04  0.19420842272E+04  0.12699999809E+01 0. -1.
       -4    1    3    3    0  502 -0.91906328793E+03 -0.73973311716E+03  0.10654361180E+04  0.15896660487E+04  0.12699999809E+01 0.  1.
</event>
<event>
 5   0  0.3628017E-08  0.3495812E+04  0.7818609E-02  0.8114783E-01
        2   -1    0    0  501    0  0.00000000000E+00  0.00000000000E+00  0.26453953103E+04  0.26453953103E+04  0.25500000920E-02 0. -1.
       -2   -1    0    0    0  501  0.00000000000E+00  0.00000000000E+00 -0.11549034420E+04  0.11549034420E+04  0.25500000920E-02 0.  1.
    10030    2    1    2    0    0  0.00000000000E+00  0.00000000000E+00  0.14904918683E+04  0.38002987523E+04  0.34958124373E+04 0.  0.
        1    1    3    3  502    0 -0.84548803601E+03 -0.13529554870E+04 -0.30975334080E+02  0.15957123927E+04  0.50400001928E-02 0.  1.
       -1    1    3    3    0  502  0.84548803601E+03  0.13529554870E+04  0.15214672024E+04  0.22045863596E+04  0.50400001928E-02 0. -1.
</event>
<event>
 5   0  0.1121462E-08  0.3497685E+04  0.7818609E-02  0.8114339E-01
        1   -1    0    0  501    0  0.00000000000E+00  0.00000000000E+00  0.21205943777E+04  0.21205943777E+04  0.50400001928E-02 0. -1.
       -1   -1    0    0    0  501  0.00000000000E+00  0.00000000000E+00 -0.14422607225E+04  0.14422607225E+04  0.50400001928E-02 0.  1.
    10030    2    1    2    0    0  0.00000000000E+00  0.00000000000E+00  0.67833365529E+03  0.35628551002E+04  0.34976849368E+04 0.  0.
        1    1    3    3  502    0  0.52052986302E+03  0.42153546075E+03 -0.13064231262E+04  0.14681229062E+04  0.50400001928E-02 0.  1.
       -1    1    3    3    0  502 -0.52052986302E+03 -0.42153546075E+03  0.19847567815E+04  0.20947321940E+04  0.50400001928E-02 0. -1.
</event>
<event>
 5   0  0.1140808E-08  0.3500575E+04  0.7818609E-02  0.8113654E-01
        1   -1    0    0  501    0  0.00000000000E+00  0.00000000000E+00  0.21083467510E+04  0.21083467510E+04  0.50400001928E-02 0.  1.
       -1   -1    0    0    0  501  0.00000000000E+00  0.00000000000E+00 -0.14530368981E+04  0.14530368981E+04  0.50400001928E-02 0. -1.
    10030    2    1    2    0    0  0.00000000000E+00  0.00000000000E+00  0.65530985284E+03  0.35613836491E+04  0.35005745947E+04 0.  0.
        3    1    3    3  502    0 -0.92427163835E+02 -0.47090779540E+03 -0.13847982513E+04  0.14655931016E+04  0.10100000352E+00 0. -1.
       -3    1    3    3    0  502  0.92427163835E+02  0.47090779540E+03  0.20401081041E+04  0.20957905475E+04  0.10100000352E+00 0.  1.
</event>
<event>
 5   0  0.1121462E-08  0.3498013E+04  0.7818609E-02  0.8114261E-01
        1   -1    0    0  501    0  0.00000000000E+00  0.00000000000E+00  0.23749804047E+04  0.23749804047E+04  0.50400001928E-02 0.  1.
       -1   -1    0    0    0  501  0.00000000000E+00  0.00000000000E+00 -0.12880207537E+04  0.12880207537E+04  0.50400001928E-02 0. -1.
    10030    2    1    2    0    0  0.00000000000E+00  0.00000000000E+00  0.10869596510E+04  0.36630011584E+04  0.34980131794E+04 0.  0.
        1    1    3    3  502    0 -0.91467150476E+03  0.13727234524E+04  0.11523062621E+04  0.20121638502E+04  0.50400001928E-02 0. -1.
       -1    1    3    3    0  502  0.91467150476E+03 -0.13727234524E+04 -0.65346611135E+02  0.16508373082E+04  0.50400001928E-02 0.  1.
</event>
<event>
 5   0  0.3700096E-08  0.3498244E+04  0.7818609E-02  0.8114206E-01
        2   -1    0    0  501    0  0.00000000000E+00  0.00000000000E+00  0.24703892806E+04  0.24703892806E+04  0.25500000920E-02 0. -1.
       -2   -1    0    0    0  501  0.00000000000E+00  0.00000000000E+00 -0.12384394578E+04  0.12384394578E+04  0.25500000920E-02 0.  1.
    10030    2    1    2    0    0  0.00000000000E+00  0.00000000000E+00  0.12319498227E+04  0.37088287384E+04  0.34982438801E+04 0.  0.
        4    1    3    3  502    0  0.84462719372E+03 -0.13778314774E+04 -0.93336919545E+02  0.16188045188E+04  0.12699999809E+01 0.  1.
       -4    1    3    3    0  502 -0.84462719372E+03  0.13778314774E+04  0.13252867423E+04  0.20900242196E+04  0.12699999809E+01 0. -1.
</event>
<event>
 5   0  0.3553585E-08  0.3500525E+04  0.7818609E-02  0.8113665E-01
       -2   -1    0    0    0  501  0.00000000000E+00  0.00000000000E+00  0.22124714305E+04  0.22124714305E+04  0.25500000920E-02 0. -1.
        2   -1    0    0  501    0  0.00000000000E+00  0.00000000000E+00 -0.13846143374E+04  0.13846143374E+04  0.25500000920E-02 0.  1.
    10030    2    1    2    0    0  0.00000000000E+00  0.00000000000E+00  0.82785709304E+03  0.35970857679E+04  0.35005254827E+04 0.  0.
        2    1    3    3  502    0 -0.10751162624E+04 -0.58663167011E+03  0.16987823378E+04  0.20942476276E+04  0.25500000920E-02 0. -1.
       -2    1    3    3    0  502  0.10751162624E+04  0.58663167011E+03 -0.87092524481E+03  0.15028381404E+04  0.25500000920E-02 0.  1.
</event>
<event>
 5   0  0.3553585E-08  0.3498912E+04  0.7818609E-02  0.8114048E-01
        2   -1    0    0  501    0  0.00000000000E+00  0.00000000000E+00  0.27458648172E+04  0.27458648172E+04  0.25500000920E-02 0. -1.
       -2   -1    0    0    0  501  0.00000000000E+00  0.00000000000E+00 -0.11146200743E+04  0.11146200743E+04  0.25500000920E-02 0.  1.
    10030    2    1    2    0    0  0.00000000000E+00  0.00000000000E+00  0.16312447429E+04  0.38604848915E+04  0.34989118574E+04 0.  0.
        2    1    3    3  502    0  0.32127838159E+03  0.15302640655E+04 -0.50107084133E+02  0.15644291702E+04  0.25500000920E-02 0.  1.
       -2    1    3    3    0  502 -0.32127838159E+03 -0.15302640655E+04  0.16813518271E+04  0.22960557213E+04  0.25500000920E-02 0. -1.
</event>
<event>
 5   0  0.3628017E-08  0.3503172E+04  0.7818609E-02  0.8113039E-01
       -2   -1    0    0    0  501  0.00000000000E+00  0.00000000000E+00  0.11277931100E+04  0.11277931100E+04  0.25500000920E-02 0.  1.
        2   -1    0    0  501    0  0.00000000000E+00  0.00000000000E+00 -0.27204051709E+04  0.27204051709E+04  0.25500000920E-02 0. -1.
    10030    2    1    2    0    0  0.00000000000E+00  0.00000000000E+00 -0.15926120609E+04  0.38481982808E+04  0.35031723955E+04 0.  0.
        1    1    3    3  502    0  0.15358442170E+04 -0.13904753110E+03 -0.17087155357E+04  0.23017081607E+04  0.50400001928E-02 0. -1.
       -1    1    3    3    0  502 -0.15358442170E+04  0.13904753110E+03  0.11610347483E+03  0.15464901202E+04  0.50400001928E-02 0.  1.
</event>
<event>
 5   0  0.3554451E-08  0.3498043E+04  0.7818609E-02  0.8114254E-01
        2   -1    0    0  501    0  0.00000000000E+00  0.00000000000E+00  0.24075944172E+04  0.24075944172E+04  0.25500000920E-02 0. -1.
       -2   -1    0    0    0  501  0.00000000000E+00  0.00000000000E+00 -0.12705945643E+04  0.12705945643E+04  0.25500000920E-02 0.  1.
    10030    2    1    2    0    0  0.00000000000E+00  0.00000000000E+00  0.11369998529E+04  0.36781889815E+04  0.34980430983E+04 0.  0.
        5    1    3    3  502    0 -0.22236787565E+03  0.17321954666E+04  0.46816199569E+03  0.18080780821E+04  0.46999998093E+01 0. -1.
       -5    1    3    3    0  502  0.22236787565E+03 -0.17321954666E+04  0.66883785725E+03  0.18701108994E+04  0.46999998093E+01 0.  1.
</event>
<event>
 5   0  0.1121462E-08  0.3522142E+04  0.7818609E-02  0.8108563E-01
       -1   -1    0    0    0  501  0.00000000000E+00  0.00000000000E+00  0.12985954915E+04  0.12985954915E+04  0.50400001928E-02 0.  1.
        1   -1    0    0  501    0  0.00000000000E+00  0.00000000000E+00 -0.23882500602E+04  0.23882500602E+04  0.50400001928E-02 0. -1.
    10030    2    1    2    0    0  0.00000000000E+00  0.00000000000E+00 -0.10896545687E+04  0.36868455517E+04  0.35221418261E+04 0.  0.
        2    1    3    3  502    0 -0.95111690634E+03  0.98003715942E+03 -0.17087002236E+04  0.21874077483E+04  0.25500000920E-02 0. -1.
       -2    1    3    3    0  502  0.95111690634E+03 -0.98003715942E+03  0.61904565490E+03  0.14994378034E+04  0.25500000920E-02 0.  1.
</event>
<event>
 5   0  0.1140808E-08  0.3500194E+04  0.7818609E-02  0.8113744E-01
        1   -1    0    0  501    0  0.00000000000E+00  0.00000000000E+00  0.12530224905E+04  0.12530224905E+04  0.50400001928E-02 0.  1.
       -1   -1    0    0    0  501  0.00000000000E+00  0.00000000000E+00 -0.24443608070E+04  0.24443608070E+04  0.50400001928E-02 0. -1.
    10030    2    1    2    0    0  0.00000000000E+00  0.00000000000E+00 -0.11913383165E+04  0.36973832975E+04  0.35001937467E+04 0.  0.
        3    1    3    3  502    0  0.25751380416E+03 -0.17136213628E+04 -0.33686121813E+03  0.17653008313E+04  0.10100000352E+00 0. -1.
       -3    1    3    3    0  502 -0.25751380416E+03  0.17136213628E+04 -0.85447709832E+03  0.19320824662E+04  0.10100000352E+00 0.  1.
</event>
<event>
 5   0  0.1121462E-08  0.3498500E+04  0.7818609E-02  0.8114146E-01
        1   -1    0    0  501    0  0.00000000000E+00  0.00000000000E+00  0.15609495243E+04  0.15609495243E+04  0.50400001928E-02 0.  1.
       -1   -1    0    0    0  501  0.00000000000E+00  0.00000000000E+00 -0.19602649982E+04  0.19602649982E+04  0.50400001928E-02 0. -1.
    10030    2    1    2    0    0  0.00000000000E+00  0.00000000000E+00 -0.39931547391E+03  0.35212145225E+04  0.34984995163E+04 0.  0.
        1    1    3    3  502    0 -0.95578551519E+03  0.84627068101E+03 -0.14033215709E+04  0.18971060719E+04  0.50400001928E-02 0. -1.
       -1    1    3    3    0  502  0.95578551519E+03 -0.84627068101E+03  0.10040060970E+04  0.16241084506E+04  0.50400001928E-02 0.  1.
</event>
<event>
 5   0  0.1121462E-08  0.3500886E+04  0.7818609E-02  0.8113580E-01
        1   -1    0    0  501    0  0.00000000000E+00  0.00000000000E+00  0.21523856811E+04  0.21523856811E+04  0.50400001928E-02 0.  1.
       -1   -1    0    0    0  501  0.00000000000E+00  0.00000000000E+00 -0.14235605212E+04  0.14235605212E+04  0.50400001928E-02 0. -1.
    10030    2    1    2    0    0  0.00000000000E+00  0.00000000000E+00  0.72882515994E+03  0.35759462023E+04  0.35008863346E+04 0.  0.
        2    1    3    3  502    0  0.11536335704E+04 -0.15380590250E+03 -0.97110818472E+03  0.15157762951E+04  0.25500000920E-02 0. -1.
       -2    1    3    3    0  502 -0.11536335704E+04  0.15380590250E+03  0.16999333447E+04  0.20601699072E+04  0.25500000920E-02 0.  1.
</event>
<event>
 5   0  0.3467834E-08  0.3500884E+04  0.7818609E-02  0.8113581E-01
       -2   -1    0    0    0  501  0.00000000000E+00  0.00000000000E+00  0.17429523621E+04  0.17429523621E+04  0.25500000920E-02 0.  1.
        2   -1    0    0  501    0  0.00000000000E+00  0.00000000000E+00 -0.17579635719E+04  0.17579635719E+04  0.25500000920E-02 0. -1.
    10030    2    1    2    0    0  0.00000000000E+00  0.00000000000E+00 -0.15011209789E+02  0.35009159339E+04  0.35008837513E+04 0.  0.
        3    1    3    3  502    0  0.15731319319E+04 -0.74293850654E+03  0.18574484617E+03  0.17496293486E+04  0.10100000352E+00 0. -1.
       -3    1    3    3    0  502 -0.15731319319E+04  0.74293850654E+03 -0.20075605596E+03  0.17512865853E+04  0.10100000352E+00 0.  1.
</event>
<event>
 5   0  0.1121462E-08  0.3500014E+04  0.7818609E-02  0.8113787E-01
        1   -1    0    0  501    0  0.00000000000E+00  0.00000000000E+00  0.18344526860E+04  0.18344526860E+04  0.50400001928E-02 0. -1.
       -1   -1    0    0    0  501  0.00000000000E+00  0.00000000000E+00 -0.16694490634E+04  0.16694490634E+04  0.50400001928E-02 0.  1.
    10030    2    1    2    0    0  0.00000000000E+00  0.00000000000E+00  0.16500362265E+03  0.35039017494E+04  0.35000144677E+04 0.  0.
        2    1    3    3  502    0 -0.12488609153E+04 -0.12119519624E+04  0.26721737047E+03  0.17606493882E+04  0.25500000920E-02 0.  1.
       -2    1    3    3    0  502  0.12488609153E+04  0.12119519624E+04 -0.10221374782E+03  0.17432523613E+04  0.25500000920E-02 0. -1.
</event>
<event>
 5   0  0.3554451E-08  0.3499596E+04  0.7818609E-02  0.8113886E-01
       -2   -1    0    0    0  501  0.00000000000E+00  0.00000000000E+00  0.13480031151E+04  0.13480031151E+04  0.25500000920E-02 0. -1.
        2   -1    0    0  501    0  0.00000000000E+00  0.00000000000E+00 -0.22713549683E+04  0.22713549683E+04  0.25500000920E-02 0.  1.
    10030    2    1    2    0    0  0.00000000000E+00  0.00000000000E+00 -0.92335185316E+03  0.36193580834E+04  0.34995963040E+04 0.  0.
        5    1    3    3  502    0  0.22219983677E+02  0.20475012602E+03  0.13354176937E+04  0.13512138426E+04  0.46999998093E+01 0. -1.
       -5    1    3    3    0  502 -0.22219983677E+02 -0.20475012602E+03 -0.22587695468E+04  0.22681442409E+04  0.46999998093E+01 0.  1.
</event>
<event>
 5   0  0.3628017E-08  0.3498969E+04  0.7818609E-02  0.8114034E-01
        2   -1    0    0  501    0  0.00000000000E+00  0.00000000000E+00  0.23018038608E+04  0.23018038608E+04  0.25500000920E-02 0. -1.
       -2   -1    0    0    0  501  0.00000000000E+00  0.00000000000E+00 -0.13296946694E+04  0.13296946694E+04  0.25500000920E-02 0.  1.
    10030    2    1    2    0    0  0.00000000000E+00  0.00000000000E+00  0.97210919146E+03  0.36314985302E+04  0.34989691760E+04 0.  0.
        1    1    3    3  502    0  0.64870717221E+03  0.16178803757E+04  0.33093310653E+03  0.17742250777E+04  0.50400001928E-02 0.  1.
       -1    1    3    3    0  502 -0.64870717221E+03 -0.16178803757E+04  0.64117608493E+03  0.18572734525E+04  0.50400001928E-02 0. -1.
</event>
<event>
 5   0  0.1129219E-08  0.3499896E+04  0.7818609E-02  0.8113815E-01
        1   -1    0    0  501    0  0.00000000000E+00  0.00000000000E+00  0.19046599731E+04  0.19046599731E+04  0.50400001928E-02 0.  1.
       -1   -1    0    0    0  501  0.00000000000E+00  0.00000000000E+00 -0.16078028480E+04  0.16078028480E+04  0.50400001928E-02 0. -1.
    10030    2    1    2    0    0  0.00000000000E+00  0.00000000000E+00  0.29685712508E+03  0.35124628211E+04  0.34998958438E+04 0.  0.
        5    1    3    3  502    0 -0.17497801939E+04 -0.23633630790E+02  0.15096028339E+03  0.17564453799E+04  0.46999998093E+01 0.  1.
       -5    1    3    3    0  502  0.17497801939E+04  0.23633630790E+02  0.14589684169E+03  0.17560174412E+04  0.46999998093E+01 0. -1.
</event>
<event>
 5   0  0.1140808E-08  0.3498875E+04  0.7818609E-02  0.8114057E-01
        1   -1    0    0  501    0  0.00000000000E+00  0.00000000000E+00  0.18861685217E+04  0.18861685217E+04  0.50400001928E-02 0. -1.
       -1   -1    0    0    0  501  0.00000000000E+00  0.00000000000E+00 -0.16226180740E+04  0.16226180740E+04  0.50400001928E-02 0.  1.
    10030    2    1    2    0    0  0.00000000000E+00  0.00000000000E+00  0.26355044774E+03  0.35087865957E+04  0.34988747528E+04 0.  0.
        3    1    3    3  502    0  0.49231375598E+03  0.40242729383E+03  0.17661806985E+04  0.18771560487E+04  0.10100000352E+00 0. -1.
       -3    1    3    3    0  502 -0.49231375598E+03 -0.40242729383E+03 -0.15026302508E+04  0.16316305470E+04  0.10100000352E+00 0.  1.
</event>
<event>
 5   0  0.1121462E-08  0.3500007E+04  0.7818609E-02  0.8113788E-01
        1   -1    0    0  501    0  0.00000000000E+00  0.00000000000E+00  0.27344662758E+04  0.27344662758E+04  0.50400001928E-02 0.  1.
       -1   -1    0    0    0  501  0.00000000000E+00  0.00000000000E+00 -0.11199670620E+04  0.11199670620E+04  0.50400001928E-02 0. -1.
    10030    2    1    2    0    0  0.00000000000E+00  0.00000000000E+00  0.16144992138E+04  0.38544333377E+04  0.35000069491E+04 0.  0.
        1    1    3    3  502    0 -0.71312400352E+03 -0.15868436392E+04  0.59860842756E+03  0.18398235321E+04  0.50400001928E-02 0. -1.
       -1    1    3    3    0  502  0.71312400352E+03  0.15868436392E+04  0.10158907863E+04  0.20146098057E+04  0.50400001928E-02 0.  1.
</event>
<event>
 5   0  0.1129219E-08  0.3501746E+04  0.7818609E-02  0.8113376E-01
       -1   -1    0    0    0  501  0.00000000000E+00  0.00000000000E+00  0.16839887739E+04  0.16839887739E+04  0.50400001928E-02 0.  1.
        1   -1    0    0  501    0  0.00000000000E+00  0.00000000000E+00 -0.18204132334E+04  0.18204132334E+04  0.50400001928E-02 0. -1.
    10030    2    1    2    0    0  0.00000000000E+00  0.00000000000E+00 -0.13642445949E+03  0.35044020073E+04  0.35017455355E+04 0.  0.
        5    1    3    3  502    0 -0.11194693004E+04  0.11389733788E+04 -0.78643451301E+03  0.17801610055E+04  0.46999998093E+01 0. -1.
       -5    1    3    3    0  502  0.11194693004E+04 -0.11389733788E+04  0.65001005352E+03  0.17242410017E+04  0.46999998093E+01 0.  1.
</event>
<event>
 5   0  0.3553585E-08  0.3500643E+04  0.7818609E-02  0.8113638E-01
       -2   -1    0    0    0  501  0.00000000000E+00  0.00000000000E+00  0.13896338558E+04  0.13896338558E+04  0.25500000920E-02 0. -1.
        2   -1    0    0  501    0  0.00000000000E+00  0.00000000000E+00 -0.22046278083E+04  0.22046278083E+04  0.25500000920E-02 0.  1.
    10030    2    1    2    0    0  0.00000000000E+00  0.00000000000E+00 -0.81499395251E+03  0.35942616641E+04  0.35006430505E+04 0.  0.
        2    1    3    3  502    0  0.15277275650E+04  0.15271213736E+03  0.45542740036E+03  0.16014639012E+04  0.25500000920E-02 0. -1.
       -2    1    3    3    0  502 -0.15277275650E+04 -0.15271213736E+03 -0.12704213529E+04  0.19927977629E+04  0.25500000920E-02 0.  1.
</event>
<event>
 5   0  0.1121462E-08  0.3498185E+04  0.7818609E-02  0.8114220E-01
       -1   -1    0    0    0  501  0.00000000000E+00  0.00000000000E+00  0.18392975664E+04  0.18392975664E+04  0.50400001928E-02 0.  1.
        1   -1    0    0  501    0  0.00000000000E+00  0.00000000000E+00 -0.16633115019E+04  0.16633115019E+04  0.50400001928E-02 0. -1.
    10030    2    1    2    0    0  0.00000000000E+00  0.00000000000E+00  0.17598606454E+03  0.35026090683E+04  0.34981851281E+04 0.  0.
        2    1    3    3  502    0 -0.10091833341E+04  0.14076745623E+04 -0.15588453871E+03  0.17390510816E+04  0.25500000920E-02 0. -1.
       -2    1    3    3    0  502  0.10091833341E+04 -0.14076745623E+04  0.33187060325E+03  0.17635579867E+04  0.25500000920E-02 0.  1.
</event>
<event>
 5   0  0.3554451E-08  0.3499971E+04  0.7818609E-02  0.8113797E-01
        2   -1    0    0  501    0  0.00000000000E+00  0.00000000000E+00  0.19141621068E+04  0.19141621068E+04  0.25500000920E-02 0.  1.
       -2   -1    0    0    0  501  0.00000000000E+00  0.00000000000E+00 -0.15998905353E+04  0.15998905353E+04  0.25500000920E-02 0. -1.
    10030    2    1    2    0    0  0.00000000000E+00  0.00000000000E+00  0.31427157151E+03  0.35140526420E+04  0.34999713356E+04 0.  0.
        5    1    3    3  502    0  0.14045290561E+04 -0.43817017470E+03  0.11084353907E+04  0.18421037095E+04  0.46999998093E+01 0.  1.
       -5    1    3    3    0  502 -0.14045290561E+04  0.43817017470E+03 -0.79416381915E+03  0.16719489325E+04  0.46999998093E+01 0. -1.
</event>
<event>
 5   0  0.1121462E-08  0.3500485E+04  0.7818609E-02  0.8113675E-01
        1   -1    0    0  501    0  0.00000000000E+00  0.00000000000E+00  0.23458058727E+04  0.23458058727E+04  0.50400001928E-02 0. -1.
       -1   -1    0    0    0  501  0.00000000000E+00  0.00000000000E+00 -0.13058833520E+04  0.13058833521E+04  0.50400001928E-02 0.  1.
    10030    2    1    2    0    0  0.00000000000E+00  0.00000000000E+00  0.10399225206E+04  0.36516892247E+04  0.35004850157E+04 0.  0.
        1    1    3    3  502    0 -0.17095939990E+04  0.37493776151E+03  0.51195717232E+03  0.18235652203E+04  0.50400001928E-02 0.  1.
       -1    1    3    3    0  502  0.17095939990E+04 -0.37493776151E+03  0.52796534831E+03  0.18281240044E+04  0.50400001928E-02 0. -1.
</event>
<event>
 5   0  0.3467834E-08  0.3499761E+04  0.7818609E-02  0.8113846E-01
        2   -1    0    0  501    0  0.00000000000E+00  0.00000000000E+00  0.93933241798E+03  0.93933241798E+03  0.25500000920E-02 0. -1.
       -2   -1    0    0    0  501  0.00000000000E+00  0.00000000000E+00 -0.32598497157E+04  0.32598497157E+04  0.25500000920E-02 0.  1.
    10030    2    1    2    0    0  0.00000000000E+00  0.00000000000E+00 -0.23205172977E+04  0.41991821337E+04  0.34997614294E+04 0.  0.
        3    1    3    3  502    0  0.31013057669E+02  0.33249275964E+03  0.90074698160E+03  0.96065518268E+03  0.10100000352E+00 0. -1.
       -3    1    3    3    0  502 -0.31013057669E+02 -0.33249275964E+03 -0.32212642793E+04  0.32385269510E+04  0.10100000352E+00 0.  1.
</event>
<event>
 5   0  0.3554451E-08  0.3501512E+04  0.7818609E-02  0.8113432E-01
       -2   -1    0    0    0  501  0.00000000000E+00  0.00000000000E+00  0.17729759615E+04  0.17729759615E+04  0.25500000920E-02 0. -1.
        2   -1    0    0  501    0  0.00000000000E+00  0.00000000000E+00 -0.17288146195E+04  0.17288146195E+04  0.25500000920E-02 0.  1.
    10030    2    1    2    0    0  0.00000000000E+00  0.00000000000E+00  0.44161342014E+02  0.35017905810E+04  0.35015121089E+04 0.  0.
        5    1    3    3  502    0 -0.10302096450E+04 -0.14044876693E+04 -0.15458882388E+03  0.17486672983E+04  0.46999998093E+01 0.  1.
       -5    1    3    3    0  502  0.10302096450E+04  0.14044876693E+04  0.19875016590E+03  0.17531232827E+04  0.46999998093E+01 0. -1.
</event>
<event>
 5   0  0.3554451E-08  0.3492559E+04  0.7818609E-02  0.8115556E-01
       -2   -1    0    0    0  501  0.00000000000E+00  0.00000000000E+00  0.12165608357E+04  0.12165608357E+04  0.25500000920E-02 0. -1.
        2   -1    0    0  501    0  0.00000000000E+00  0.00000000000E+00 -0.25066496970E+04  0.25066496970E+04  0.25500000920E-02 0.  1.
    10030    2    1    2    0    0  0.00000000000E+00  0.00000000000E+00 -0.12900888613E+04  0.37232105327E+04  0.34925588615E+04 0.  0.
        5    1    3    3  502    0 -0.16606817720E+04 -0.50134443974E+03 -0.85894325615E+03  0.19357210032E+04  0.46999998093E+01 0. -1.
       -5    1    3    3    0  502  0.16606817720E+04  0.50134443974E+03 -0.43114560511E+03  0.17874895294E+04  0.46999998093E+01 0.  1.
</event>
<event>
 5   0  0.3467834E-08  0.3501795E+04  0.7818609E-02  0.8113365E-01
       -2   -1    0    0    0  501  0.00000000000E+00  0.00000000000E+00  0.12504046171E+04  0.12504046171E+04  0.25500000920E-02 0.  1.
        2   -1    0    0  501    0  0.00000000000E+00  0.00000000000E+00 -0.24517201110E+04  0.24517201110E+04  0.25500000920E-02 0. -1.
    10030    2    1    2    0    0  0.00000000000E+00  0.00000000000E+00 -0.12013154939E+04  0.37021247281E+04  0.35017950521E+04 0.  0.
        3    1    3    3  502    0  0.95868955947E+03  0.81384949048E+03  0.68731696419E+03  0.14331229131E+04  0.10100000352E+00 0. -1.
       -3    1    3    3    0  502 -0.95868955947E+03 -0.81384949048E+03 -0.18886324581E+04  0.22690018150E+04  0.10100000352E+00 0.  1.
</event>
<event>
 5   0  0.1121462E-08  0.3497737E+04  0.7818609E-02  0.8114327E-01
        1   -1    0    0  501    0  0.00000000000E+00  0.00000000000E+00  0.29748396395E+04  0.29748396396E+04  0.50400001928E-02 0. -1.
       -1   -1    0    0    0  501  0.00000000000E+00  0.00000000000E+00 -0.10281362208E+04  0.10281362208E+04  0.50400001928E-02 0.  1.
    10030    2    1    2    0    0  0.00000000000E+00  0.00000000000E+00  0.19467034187E+04  0.40029758604E+04  0.34977366308E+04 0.  0.
        1    1    3    3  502    0 -0.79064009538E+03  0.14352282290E+04  0.16728221982E+04  0.23416502593E+04  0.50400001928E-02 0. -1.
       -1    1    3    3    0  502  0.79064009538E+03 -0.14352282290E+04  0.27388122049E+03  0.16613256011E+04  0.50400001928E-02 0.  1.
</event>
<event>
 5   0  0.1121462E-08  0.3498753E+04  0.7818609E-02  0.8114086E-01
       -1   -1    0    0    0  501  0.00000000000E+00  0.00000000000E+00  0.21340722909E+04  0.21340722909E+04  0.50400001928E-02 0.  1.
        1   -1    0    0  501    0  0.00000000000E+00  0.00000000000E+00 -0.14340272094E+04  0.14340272094E+04  0.50400001928E-02 0. -1.
    10030    2    1    2    0    0  0.00000000000E+00  0.00000000000E+00  0.70004508155E+03  0.35680995003E+04  0.34987527675E+04 0.  0.
        4    1    3    3  502    0  0.97757186965E+03 -0.43657543412E+03  0.17609437164E+04  0.20608661420E+04  0.12699999809E+01 0.  1.
       -4    1    3    3    0  502 -0.97757186965E+03  0.43657543412E+03 -0.10608986349E+04  0.15072333583E+04  0.12699999809E+01 0. -1.
</event>
<event>
 5   0  0.1129219E-08  0.3501034E+04  0.7818609E-02  0.8113545E-01
        1   -1    0    0  501    0  0.00000000000E+00  0.00000000000E+00  0.18017199023E+04  0.18017199023E+04  0.50400001928E-02 0.  1.
       -1   -1    0    0    0  501  0.00000000000E+00  0.00000000000E+00 -0.17007688054E+04  0.17007688054E+04  0.50400001928E-02 0. -1.
    10030    2    1    2    0    0  0.00000000000E+00  0.00000000000E+00  0.10095109688E+03  0.35024887076E+04  0.35010335650E+04 0.  0.
        5    1    3    3  502    0  0.13701156611E+04  0.99278917607E+02  0.11359212942E+04  0.17825298048E+04  0.46999998093E+01 0.  1.
       -5    1    3    3    0  502 -0.13701156611E+04 -0.99278917607E+02 -0.10349701973E+04  0.17199589029E+04  0.46999998093E+01 0. -1.
</event>
<event>
 5   0  0.3553585E-08  0.3501451E+04  0.7818609E-02  0.8113446E-01
       -2   -1    0    0    0  501  0.00000000000E+00  0.00000000000E+00  0.13467984897E+04  0.13467984897E+04  0.25500000920E-02 0. -1.
        2   -1    0    0  501    0  0.00000000000E+00  0.00000000000E+00 -0.22757962368E+04  0.22757962368E+04  0.25500000920E-02 0.  1.
    10030    2    1    2    0    0  0.00000000000E+00  0.00000000000E+00 -0.92899774716E+03  0.36225947265E+04  0.35014505192E+04 0.  0.
        2    1    3    3  502    0 -0.96600358770E+03 -0.11193356525E+04 -0.14344664720E+04  0.20600410903E+04  0.25500000920E-02 0. -1.
       -2    1    3    3    0  502  0.96600358770E+03  0.11193356525E+04  0.50546872483E+03  0.15625536362E+04  0.25500000920E-02 0.  1.
</event>
<event>
 5   0  0.1140808E-08  0.3500560E+04  0.7818609E-02  0.8113657E-01
       -1   -1    0    0    0  501  0.00000000000E+00  0.00000000000E+00  0.16516084538E+04  0.16516084538E+04  0.50400001928E-02 0. -1.
        1   -1    0    0  501    0  0.00000000000E+00  0.00000000000E+00 -0.18548466680E+04  0.18548466680E+04  0.50400001928E-02 0.  1.
    10030    2    1    2    0    0  0.00000000000E+00  0.00000000000E+00 -0.20323821424E+03  0.35064551218E+04  0.35005602051E+04 0.  0.
        3    1    3    3  502    0  0.57542660749E+03 -0.54912353370E+03 -0.16633559211E+04  0.18437476418E+04  0.10100000352E+00 0.  1.
       -3    1    3    3    0  502 -0.57542660749E+03  0.54912353370E+03  0.14601177069E+04  0.16627074800E+04  0.10100000352E+00 0. -1.
</event>
<event>
 5   0  0.1121462E-08  0.3501719E+04  0.7818609E-02  0.8113383E-01
       -1   -1    0    0    0  501  0.00000000000E+00  0.00000000000E+00  0.15789633428E+04  0.15789633428E+04  0.50400001928E-02 0.  1.
        1   -1    0    0  501    0  0.00000000000E+00  0.00000000000E+00 -0.19414695166E+04  0.19414695166E+04  0.50400001928E-02 0. -1.
    10030    2    1    2    0    0  0.00000000000E+00  0.00000000000E+00 -0.36250617387E+03  0.35204328594E+04  0.35017191194E+04 0.  0.
        4    1    3    3  502    0  0.11238963572E+04 -0.13195638512E+04  0.67284186873E+02  0.17346240381E+04  0.12699999809E+01 0.  1.
       -4    1    3    3    0  502 -0.11238963572E+04  0.13195638512E+04 -0.42979036075E+03  0.17858088213E+04  0.12699999809E+01 0. -1.
</event>
<event>
 5   0  0.3700096E-08  0.3501720E+04  0.7818609E-02  0.8113382E-01
        2   -1    0    0  501    0  0.00000000000E+00  0.00000000000E+00  0.22327681346E+04  0.22327681346E+04  0.25500000920E-02 0. -1.
       -2   -1    0    0    0  501  0.00000000000E+00  0.00000000000E+00 -0.13729644316E+04  0.13729644316E+04  0.25500000920E-02 0.  1.
    10030    2    1    2    0    0  0.00000000000E+00  0.00000000000E+00  0.85980370309E+03  0.36057325662E+04  0.35017202817E+04 0.  0.
        4    1    3    3  502    0  0.14392030514E+04 -0.95476924434E+03  0.13392730885E+03  0.17322897766E+04  0.12699999809E+01 0. -1.
       -4    1    3    3    0  502 -0.14392030514E+04  0.95476924434E+03  0.72587639424E+03  0.18734427896E+04  0.12699999809E+01 0.  1.
</event>
<event>
 5   0  0.1121462E-08  0.3500312E+04  0.7818609E-02  0.8113716E-01
        1   -1    0    0  501    0  0.00000000000E+00  0.00000000000E+00  0.11218917831E+04  0.11218917832E+04  0.50400001928E-02 0.  1.
       -1   -1    0    0    0  501  0.00000000000E+00  0.00000000000E+00 -0.27302510804E+04  0.27302510804E+04  0.50400001928E-02 0. -1.
    10030    2    1    2    0    0  0.00000000000E+00  0.00000000000E+00 -0.16083592972E+04  0.38521428635E+04  0.35003121307E+04 0.  0.
        4    1    3    3  502    0  0.31911871049E+03 -0.10718303839E+04  0.67738683031E+03  0.13074829460E+04  0.12699999809E+01 0.  1.
       -4    1    3    3    0  502 -0.31911871049E+03  0.10718303839E+04 -0.22857461276E+04  0.25446599175E+04  0.12699999809E+01 0. -1.
</event>
<event>
 5   0  0.1121462E-08  0.3501374E+04  0.7818609E-02  0.8113464E-01
       -1   -1    0    0    0  501  0.00000000000E+00  0.00000000000E+00  0.31819362983E+04  0.31819362984E+04  0.50400001928E-02 0.  1.
        1   -1    0    0  501    0  0.00000000000E+00  0.00000000000E+00 -0.96321992787E+03  0.96321992789E+03  0.50400001928E-02 0. -1.
    10030    2    1    2    0    0  0.00000000000E+00  0.00000000000E+00  0.22187163705E+04  0.41451562262E+04  0.35013737029E+04 0.  0.
        4    1    3    3  502    0  0.76441429644E+03  0.15404042859E+04  0.72078998397E+03  0.18645949679E+04  0.12699999809E+01 0.  1.
       -4    1    3    3    0  502 -0.76441429644E+03 -0.15404042859E+04  0.14979263865E+04  0.22805612583E+04  0.12699999809E+01 0. -1.
</event>
<event>
 5   0  0.1121462E-08  0.3499747E+04  0.7818609E-02  0.8113850E-01
        1   -1    0    0  501    0  0.00000000000E+00  0.00000000000E+00  0.10078403300E+04  0.10078403300E+04  0.50400001928E-02 0. -1.
       -1   -1    0    0    0  501  0.00000000000E+00  0.00000000000E+00 -0.30382368832E+04  0.30382368832E+04  0.50400001928E-02 0.  1.
    10030    2    1    2    0    0  0.00000000000E+00  0.00000000000E+00 -0.20303965532E+04  0.40460772132E+04  0.34997472269E+04 0.  0.
        1    1    3    3  502    0  0.10925275030E+04  0.24305048375E+03  0.53991100895E+03  0.12426559380E+04  0.50400001928E-02 0. -1.
       -1    1    3    3    0  502 -0.10925275030E+04 -0.24305048375E+03 -0.25703075621E+04  0.28034212752E+04  0.50400001928E-02 0.  1.
</event>
<event>
 5   0  0.3628017E-08  0.3499982E+04  0.7818609E-02  0.8113794E-01
       -2   -1    0    0    0  501  0.00000000000E+00  0.00000000000E+00  0.21144923367E+04  0.21144923367E+04  0.25500000920E-02 0.  1.
        2   -1    0    0  501    0  0.00000000000E+00  0.00000000000E+00 -0.14483234769E+04  0.14483234769E+04  0.25500000920E-02 0. -1.
    10030    2    1    2    0    0  0.00000000000E+00  0.00000000000E+00  0.66616885976E+03  0.35628158136E+04  0.34999822245E+04 0.  0.
        1    1    3    3  502    0 -0.97976574592E+03  0.14086845371E+04 -0.16794983648E+02  0.17159880866E+04  0.50400001928E-02 0.  1.
       -1    1    3    3    0  502  0.97976574592E+03 -0.14086845371E+04  0.68296384341E+03  0.18468277270E+04  0.50400001928E-02 0. -1.
</event>
<event>
 5   0  0.1140808E-08  0.3499532E+04  0.7818609E-02  0.8113901E-01
        1   -1    0    0  501    0  0.00000000000E+00  0.00000000000E+00  0.19975851013E+04  0.19975851013E+04  0.50400001928E-02 0. -1.
       -1   -1    0    0    0  501  0.00000000000E+00  0.00000000000E+00 -0.15326910758E+04  0.15326910758E+04  0.50400001928E-02 0.  1.
    10030    2    1    2    0    0  0.00000000000E+00  0.00000000000E+00  0.46489402554E+03  0.35302761771E+04  0.34995318875E+04 0.  0.
        3    1    3    3  502    0 -0.85350080435E+03 -0.12502841309E+04 -0.65276237663E+03  0.16485668811E+04  0.10100000352E+00 0.  1.
       -3    1    3    3    0  502  0.85350080435E+03  0.12502841309E+04  0.11176564022E+04  0.18817092960E+04  0.10100000352E+00 0. -1.
</event>
<event>
 5   0  0.3553585E-08  0.3500578E+04  0.7818609E-02  0.8113653E-01
        2   -1    0    0  501    0  0.00000000000E+00  0.00000000000E+00  0.16669965010E+04  0.16669965010E+04  0.25500000920E-02 0. -1.
       -2   -1    0    0    0  501  0.00000000000E+00  0.00000000000E+00 -0.18377434028E+04  0.18377434028E+04  0.25500000920E-02 0.  1.
    10030    2    1    2    0    0  0.00000000000E+00  0.00000000000E+00 -0.17074690184E+03  0.35047399038E+04  0.35005781363E+04 0.  0.
        2    1    3    3  502    0 -0.14769710328E+04  0.49405356745E+03 -0.88505921843E+03  0.17913297238E+04  0.25500000920E-02 0.  1.
       -2    1    3    3    0  502  0.14769710328E+04 -0.49405356745E+03  0.71431231659E+03  0.17134101800E+04  0.25500000920E-02 0. -1.
</event>
<event>
 5   0  0.3467834E-08  0.3524686E+04  0.7818609E-02  0.8107964E-01
       -2   -1    0    0    0  501  0.00000000000E+00  0.00000000000E+00  0.13958235827E+04  0.13958235827E+04  0.25500000920E-02 0.  1.
        2   -1    0    0  501    0  0.00000000000E+00  0.00000000000E+00 -0.22251042223E+04  0.22251042223E+04  0.25500000920E-02 0. -1.
    10030    2    1    2    0    0  0.00000000000E+00  0.00000000000E+00 -0.82928063963E+03  0.36209278050E+04  0.35246860554E+04 0.  0.
        3    1    3    3  502    0  0.96339297958E+03  0.37595312296E+03 -0.18806252069E+04  0.21462101394E+04  0.10100000352E+00 0. -1.
       -3    1    3    3    0  502 -0.96339297958E+03 -0.37595312296E+03  0.10513445672E+04  0.14747176655E+04  0.10100000352E+00 0.  1.
</event>
<event>
 5   0  0.1129219E-08  0.3499865E+04  0.7818609E-02  0.8113822E-01
        1   -1    0    0  501    0  0.00000000000E+00  0.00000000000E+00  0.21049454051E+04  0.21049454051E+04  0.50400001928E-02 0. -1.
       -1   -1    0    0    0  501  0.00000000000E+00  0.00000000000E+00 -0.14547950319E+04  0.14547950319E+04  0.50400001928E-02 0.  1.
    10030    2    1    2    0    0  0.00000000000E+00  0.00000000000E+00  0.65015037320E+03  0.35597404370E+04  0.34998652076E+04 0.  0.
        5    1    3    3  502    0  0.11329834499E+04 -0.66092955689E+03  0.15032367848E+04  0.19950494475E+04  0.46999998093E+01 0. -1.
       -5    1    3    3    0  502 -0.11329834499E+04  0.66092955689E+03 -0.85308641157E+03  0.15646909895E+04  0.46999998093E+01 0.  1.
</event>
<event>
 5   0  0.3700096E-08  0.3502602E+04  0.7818609E-02  0.8113174E-01
        2   -1    0    0  501    0  0.00000000000E+00  0.00000000000E+00  0.28866926671E+04  0.28866926671E+04  0.25500000920E-02 0.  1.
       -2   -1    0    0    0  501  0.00000000000E+00  0.00000000000E+00 -0.10624808129E+04  0.10624808129E+04  0.25500000920E-02 0. -1.
    10030    2    1    2    0    0  0.00000000000E+00  0.00000000000E+00  0.18242118542E+04  0.39491734800E+04  0.35026022163E+04 0.  0.
        4    1    3    3  502    0  0.75952345041E+02 -0.16116788198E+04  0.16799442808E+04  0.23292685067E+04  0.12699999809E+01 0.  1.
       -4    1    3    3    0  502 -0.75952345041E+02  0.16116788198E+04  0.14426757344E+03  0.16199049733E+04  0.12699999809E+01 0. -1.
</event>
<event>
 5   0  0.3700096E-08  0.3500156E+04  0.7818609E-02  0.8113753E-01
       -2   -1    0    0    0  501  0.00000000000E+00  0.00000000000E+00  0.16656356535E+04  0.16656356535E+04  0.25500000920E-02 0.  1.
        2   -1    0    0  501    0  0.00000000000E+00  0.00000000000E+00 -0.18388011895E+04  0.18388011895E+04  0.25500000920E-02 0. -1.
    10030    2    1    2    0    0  0.00000000000E+00  0.00000000000E+00 -0.17316553599E+03  0.35044368430E+04  0.35001558942E+04 0.  0.
        4    1    3    3  502    0 -0.24186012275E+02 -0.16717060782E+04 -0.60450166694E+03  0.17778104660E+04  0.12699999809E+01 0. -1.
       -4    1    3    3    0  502  0.24186012275E+02  0.16717060782E+04  0.43133613095E+03  0.17266263770E+04  0.12699999809E+01 0.  1.
</event>
<event>
 5   0  0.3553585E-08  0.3498992E+04  0.7818609E-02  0.8114029E-01
        2   -1    0    0  501    0  0.00000000000E+00  0.00000000000E+00  0.10290186455E+04  0.10290186455E+04  0.25500000920E-02 0.  1.
       -2   -1    0    0    0  501  0.00000000000E+00  0.00000000000E+00 -0.29744224393E+04  0.29744224393E+04  0.25500000920E-02 0. -1.
    10030    2    1    2    0    0  0.00000000000E+00  0.00000000000E+00 -0.19454037938E+04  0.40034410848E+04  0.34989919403E+04 0.  0.
        2    1    3    3  502    0  0.11608942194E+04  0.10051608988E+04 -0.13567897488E+02  0.15356457628E+04  0.25500000920E-02 0.  1.
       -2    1    3    3    0  502 -0.11608942194E+04 -0.10051608988E+04 -0.19318358963E+04  0.24677953220E+04  0.25500000920E-02 0. -1.
</event>
<event>
 5   0  0.1129219E-08  0.3498633E+04  0.7818609E-02  0.8114114E-01
       -1   -1    0    0    0  501  0.00000000000E+00  0.00000000000E+00  0.13122635797E+04  0.13122635797E+04  0.50400001928E-02 0.  1.
        1   -1    0    0  501    0  0.00000000000E+00  0.00000000000E+00 -0.23319315854E+04  0.23319315854E+04  0.50400001928E-02 0. -1.
    10030    2    1    2    0    0  0.00000000000E+00  0.00000000000E+00 -0.10196680057E+04  0.36441951651E+04  0.34986333845E+04 0.  0.
        5    1    3    3  502    0  0.12913378532E+04  0.11724556658E+04 -0.37055045287E+03  0.17831251968E+04  0.46999998093E+01 0.  1.
       -5    1    3    3    0  502 -0.12913378532E+04 -0.11724556658E+04 -0.64911755285E+03  0.18610699683E+04  0.46999998093E+01 0. -1.
</event>
<event>
 5   0  0.3467834E-08  0.3497299E+04  0.7818609E-02  0.8114430E-01
       -2   -1    0    0    0  501  0.00000000000E+00  0.00000000000E+00  0.25183410328E+04  0.25183410328E+04  0.25500000920E-02 0. -1.
        2   -1    0    0  501    0  0.00000000000E+00  0.00000000000E+00 -0.12142022718E+04  0.12142022718E+04  0.25500000920E-02 0.  1.
    10030    2    1    2    0    0  0.00000000000E+00  0.00000000000E+00  0.13041387611E+04  0.37325433046E+04  0.34972991883E+04 0.  0.
        3    1    3    3  502    0  0.39688114229E+03 -0.13760739749E+04  0.17228932417E+04  0.22404141041E+04  0.10100000352E+00 0.  1.
       -3    1    3    3    0  502 -0.39688114229E+03  0.13760739749E+04 -0.41875448062E+03  0.14921292004E+04  0.10100000352E+00 0. -1.
</event>
<event>
 5   0  0.1140808E-08  0.3498532E+04  0.7818609E-02  0.8114138E-01
        1   -1    0    0  501    0  0.00000000000E+00  0.00000000000E+00  0.21098258081E+04  0.21098258081E+04  0.50400001928E-02 0.  1.
       -1   -1    0    0    0  501  0.00000000000E+00  0.00000000000E+00 -0.14503240471E+04  0.14503240471E+04  0.50400001928E-02 0. -1.
    10030    2    1    2    0    0  0.00000000000E+00  0.00000000000E+00  0.65950176105E+03  0.35601498552E+04  0.34985317518E+04 0.  0.
        3    1    3    3  502    0 -0.15177423868E+04 -0.86962535075E+03  0.31767206314E+03  0.17778373810E+04  0.10100000352E+00 0. -1.
       -3    1    3    3    0  502  0.15177423868E+04  0.86962535075E+03  0.34182969790E+03  0.17823124742E+04  0.10100000352E+00 0.  1.
</event>
<event>
 5   0  0.3700096E-08  0.3499596E+04  0.7818609E-02  0.8113886E-01
       -2   -1    0    0    0  501  0.00000000000E+00  0.00000000000E+00  0.26805743878E+04  0.26805743878E+04  0.25500000920E-02 0. -1.
        2   -1    0    0  501    0  0.00000000000E+00  0.00000000000E+00 -0.11422150148E+04  0.11422150148E+04  0.25500000920E-02 0.  1.
    10030    2    1    2    0    0  0.00000000000E+00  0.00000000000E+00  0.15383593730E+04  0.38227894026E+04  0.34995955847E+04 0.  0.
        4    1    3    3  502    0  0.47476979019E+03 -0.27156023843E+03 -0.10464388705E+04  0.11807570619E+04  0.12699999809E+01 0.  1.
       -4    1    3    3    0  502 -0.47476979019E+03  0.27156023843E+03  0.25847982435E+04  0.26420323407E+04  0.12699999809E+01 0. -1.
</event>
<event>
 5   0  0.1121462E-08  0.3506944E+04  0.7818609E-02  0.8112146E-01
        1   -1    0    0  501    0  0.00000000000E+00  0.00000000000E+00  0.12287469665E+04  0.12287469665E+04  0.50400001928E-02 0. -1.
       -1   -1    0    0    0  501  0.00000000000E+00  0.00000000000E+00 -0.25022756324E+04  0.25022756324E+04  0.50400001928E-02 0.  1.
    10030    2    1    2    0    0  0.00000000000E+00  0.00000000000E+00 -0.12735286659E+04  0.37310225989E+04  0.35069437365E+04 0.  0.
        4    1    3    3  502    0  0.96410477801E+03 -0.10790007821E+04  0.41693366986E+03  0.15058472727E+04  0.12699999809E+01 0. -1.
       -4    1    3    3    0  502 -0.96410477801E+03  0.10790007821E+04 -0.16904623357E+04  0.22251753262E+04  0.12699999809E+01 0.  1.
</event>
<event>
 5   0  0.1140808E-08  0.3499023E+04  0.7818609E-02  0.8114022E-01
        1   -1    0    0  501    0  0.00000000000E+00  0.00000000000E+00  0.16182691090E+04  0.16182691090E+04  0.50400001928E-02 0. -1.
       -1   -1    0    0    0  501  0.00000000000E+00  0.00000000000E+00 -0.18913976508E+04  0.18913976508E+04  0.50400001928E-02 0.  1.
    10030    2    1    2    0    0  0.00000000000E+00  0.00000000000E+00 -0.27312854180E+03  0.35096667599E+04  0.34990229443E+04 0.  0.
        3    1    3    3  502    0  0.82661146510E+03 -0.12399541522E+04 -0.10558770062E+04  0.18263759405E+04  0.10100000352E+00 0.  1.
       -3    1    3    3    0  502 -0.82661146510E+03  0.12399541522E+04  0.78274846441E+03  0.16832908193E+04  0.10100000352E+00 0. -1.
</event>
<event>
 5   0  0.3553585E-08  0.3496859E+04  0.7818609E-02  0.8114535E-01
        2   -1    0    0  501    0  0.00000000000E+00  0.00000000000E+00  0.21805192713E+04  0.21805192713E+04  0.25500000920E-02 0.  1.
       -2   -1    0    0    0  501  0.00000000000E+00  0.00000000000E+00 -0.14019625197E+04  0.14019625197E+04  0.25500000920E-02 0. -1.
    10030    2    1    2    0    0  0.00000000000E+00  0.00000000000E+00  0.77855675154E+03  0.35824817910E+04  0.34968593291E+04 0.  0.
        2    1    3    3  502    0 -0.17214516590E+04 -0.10916905806E+03  0.96460778031E+02  0.17276048099E+04  0.25500000920E-02 0. -1.
       -2    1    3    3    0  502  0.17214516590E+04  0.10916905806E+03  0.68209597351E+03  0.18548769810E+04  0.25500000920E-02 0.  1.
</event>
<event>
 5   0  0.1140808E-08  0.3499804E+04  0.7818609E-02  0.8113836E-01
        1   -1    0    0  501    0  0.00000000000E+00  0.00000000000E+00  0.17250445928E+04  0.17250445928E+04  0.50400001928E-02 0.  1.
       -1   -1    0    0    0  501  0.00000000000E+00  0.00000000000E+00 -0.17751180693E+04  0.17751180693E+04  0.50400001928E-02 0. -1.
    10030    2    1    2    0    0  0.00000000000E+00  0.00000000000E+00 -0.50073476443E+02  0.35001626621E+04  0.34998044672E+04 0.  0.
        3    1    3    3  502    0  0.13822956325E+03 -0.23206997906E+03 -0.17541422387E+04  0.17748179882E+04  0.10100000352E+00 0. -1.
       -3    1    3    3    0  502 -0.13822956325E+03  0.23206997906E+03  0.17040687622E+04  0.17253446740E+04  0.10100000352E+00 0.  1.
</event>
<event>
 5   0  0.3628017E-08  0.3500116E+04  0.7818609E-02  0.8113763E-01
       -2   -1    0    0    0  501  0.00000000000E+00  0.00000000000E+00  0.18361278633E+04  0.18361278633E+04  0.25500000920E-02 0.  1.
        2   -1    0    0  501    0  0.00000000000E+00  0.00000000000E+00 -0.16680224051E+04  0.16680224051E+04  0.25500000920E-02 0. -1.
    10030    2    1    2    0    0  0.00000000000E+00  0.00000000000E+00  0.16810545813E+03  0.35041502684E+04  0.35001156636E+04 0.  0.
        1    1    3    3  502    0  0.15542276256E+03  0.11992900679E+04  0.13505206022E+04  0.18128317073E+04  0.50400001928E-02 0.  1.
       -1    1    3    3    0  502 -0.15542276256E+03 -0.11992900679E+04 -0.11824151441E+04  0.16913185611E+04  0.50400001928E-02 0. -1.
</event>
<event>
 5   0  0.3628017E-08  0.3501379E+04  0.7818609E-02  0.8113463E-01
        2   -1    0    0  501    0  0.00000000000E+00  0.00000000000E+00  0.22630337768E+04  0.22630337768E+04  0.25500000920E-02 0. -1.
       -2   -1    0    0    0  501  0.00000000000E+00  0.00000000000E+00 -0.13543382075E+04  0.13543382075E+04  0.25500000920E-02 0.  1.
    10030    2    1    2    0    0  0.00000000000E+00  0.00000000000E+00  0.90869556924E+03  0.36173719843E+04  0.35013786478E+04 0.  0.
        1    1    3    3  502    0 -0.14748114216E+04 -0.20506876740E+03  0.14056062591E+04  0.20476452047E+04  0.50400001928E-02 0. -1.
       -1    1    3    3    0  502  0.14748114216E+04  0.20506876740E+03 -0.49691068988E+03  0.15697267796E+04  0.50400001928E-02 0.  1.
</event>
<event>
 5   0  0.3467834E-08  0.3498891E+04  0.7818609E-02  0.8114053E-01
        2   -1    0    0  501    0  0.00000000000E+00  0.00000000000E+00  0.18185799343E+04  0.18185799343E+04  0.25500000920E-02 0. -1.
       -2   -1    0    0    0  501  0.00000000000E+00  0.00000000000E+00 -0.16829391141E+04  0.16829391141E+04  0.25500000920E-02 0.  1.
    10030    2    1    2    0    0  0.00000000000E+00  0.00000000000E+00  0.13564082026E+03  0.35015190484E+04  0.34988908548E+04 0.  0.
        3    1    3    3  502    0  0.15773194480E+04 -0.47769963967E+03 -0.51949835498E+03  0.17280081417E+04  0.10100000352E+00 0.  1.
       -3    1    3    3    0  502 -0.15773194480E+04  0.47769963967E+03  0.65513917524E+03  0.17735109066E+04  0.10100000352E+00 0. -1.
</event>
<event>
 5   0  0.3467834E-08  0.3502098E+04  0.7818609E-02  0.8113293E-01
        2   -1    0    0  501    0  0.00000000000E+00  0.00000000000E+00  0.18763467934E+04  0.18763467934E+04  0.25500000920E-02 0. -1.
       -2   -1    0    0    0  501  0.00000000000E+00  0.00000000000E+00 -0.16341180242E+04  0.16341180242E+04  0.25500000920E-02 0.  1.
    10030    2    1    2    0    0  0.00000000000E+00  0.00000000000E+00  0.24222876922E+03  0.35104648176E+04  0.35020977227E+04 0.  0.
        3    1    3    3  502    0  0.56326805015E+03 -0.78876918095E+03  0.15829347636E+04  0.18561008036E+04  0.10100000352E+00 0. -1.
       -3    1    3    3    0  502 -0.56326805015E+03  0.78876918095E+03 -0.13407059944E+04  0.16543640140E+04  0.10100000352E+00 0.  1.
</event>
<event>
 5   0  0.3554451E-08  0.3499792E+04  0.7818609E-02  0.8113839E-01
       -2   -1    0    0    0  501  0.00000000000E+00  0.00000000000E+00  0.12666942701E+04  0.12666942701E+04  0.25500000920E-02 0. -1.
        2   -1    0    0  501    0  0.00000000000E+00  0.00000000000E+00 -0.24174230824E+04  0.24174230824E+04  0.25500000920E-02 0.  1.
    10030    2    1    2    0    0  0.00000000000E+00  0.00000000000E+00 -0.11507288123E+04  0.36841173525E+04  0.34997919749E+04 0.  0.
        5    1    3    3  502    0 -0.17209494992E+04 -0.24919121969E+03 -0.36921771591E+03  0.17776690509E+04  0.46999998093E+01 0.  1.
       -5    1    3    3    0  502  0.17209494992E+04  0.24919121969E+03 -0.78151109643E+03  0.19064483016E+04  0.46999998093E+01 0. -1.
</event>
<event>
 5   0  0.1140808E-08  0.3500200E+04  0.7818609E-02  0.8113743E-01
        1   -1    0    0  501    0  0.00000000000E+00  0.00000000000E+00  0.15734396839E+04  0.15734396839E+04  0.50400001928E-02 0. -1.
       -1   -1    0    0    0  501  0.00000000000E+00  0.00000000000E+00 -0.19465951578E+04  0.19465951578E+04  0.50400001928E-02 0.  1.
    10030    2    1    2    0    0  0.00000000000E+00  0.00000000000E+00 -0.37315547391E+03  0.35200348418E+04  0.35002000342E+04 0.  0.
        3    1    3    3  502    0 -0.25723815046E+03 -0.12425971846E+04 -0.13986589677E+04  0.18885089746E+04  0.10100000352E+00 0.  1.
       -3    1    3    3    0  502  0.25723815046E+03  0.12425971846E+04  0.10255034938E+04  0.16315258671E+04  0.10100000352E+00 0. -1.
</event>
<event>
 5   0  0.1121462E-08  0.3500899E+04  0.7818609E-02  0.8113577E-01
       -1   -1    0    0    0  501  0.00000000000E+00  0.00000000000E+00  0.14566202072E+04  0.14566202072E+04  0.50400001928E-02 0.  1.
        1   -1    0    0  501    0  0.00000000000E+00  0.00000000000E+00 -0.21035498798E+04  0.21035498798E+04  0.50400001928E-02 0. -1.
    10030    2    1    2    0    0  0.00000000000E+00  0.00000000000E+00 -0.64692967261E+03  0.35601700869E+04  0.35008988912E+04 0.  0.
        4    1    3    3  502    0 -0.27498518418E+03  0.21239930258E+03 -0.20681276053E+04  0.20971131872E+04  0.12699999809E+01 0. -1.
       -4    1    3    3    0  502  0.27498518418E+03 -0.21239930258E+03  0.14211979327E+04  0.14630568998E+04  0.12699999809E+01 0.  1.
</event>
<event>
 5   0  0.3700096E-08  0.3499109E+04  0.7818609E-02  0.8114001E-01
        2   -1    0    0  501    0  0.00000000000E+00  0.00000000000E+00  0.26050988750E+04  0.26050988750E+04  0.25500000920E-02 0.  1.
       -2   -1    0    0    0  501  0.00000000000E+00  0.00000000000E+00 -0.11749805652E+04  0.11749805652E+04  0.25500000920E-02 0. -1.
    10030    2    1    2    0    0  0.00000000000E+00  0.00000000000E+00  0.14301183097E+04  0.37800794402E+04  0.34991087714E+04 0.  0.
        4    1    3    3  502    0 -0.14685943413E+04  0.52499945764E+03  0.15715283144E+04  0.22140678910E+04  0.12699999809E+01 0. -1.
       -4    1    3    3    0  502  0.14685943413E+04 -0.52499945764E+03 -0.14141000467E+03  0.15660115492E+04  0.12699999809E+01 0.  1.
</event>
<event>
 5   0  0.1140808E-08  0.3500238E+04  0.7818609E-02  0.8113733E-01
       -1   -1    0    0    0  501  0.00000000000E+00  0.00000000000E+00  0.11617457859E+04  0.11617457859E+04  0.50400001928E-02 0. -1.
        1   -1    0    0  501    0  0.00000000000E+00  0.00000000000E+00 -0.26364779159E+04  0.26364779159E+04  0.50400001928E-02 0.  1.
    10030    2    1    2    0    0  0.00000000000E+00  0.00000000000E+00 -0.14747321300E+04  0.37982237019E+04  0.35002383396E+04 0.  0.
        3    1    3    3  502    0  0.15119239869E+04 -0.26524806316E+03  0.17482119816E+03  0.15449379078E+04  0.10100000352E+00 0. -1.
       -3    1    3    3    0  502 -0.15119239869E+04  0.26524806316E+03 -0.16495533282E+04  0.22532857941E+04  0.10100000352E+00 0.  1.
</event>
<event>
 5   0  0.1121462E-08  0.3499973E+04  0.7818609E-02  0.8113796E-01
       -1   -1    0    0    0  501  0.00000000000E+00  0.00000000000E+00  0.18291504734E+04  0.18291504734E+04  0.50400001928E-02 0.  1.
        1   -1    0    0  501    0  0.00000000000E+00  0.00000000000E+00 -0.16742490253E+04  0.16742490253E+04  0.50400001928E-02 0. -1.
    10030    2    1    2    0    0  0.00000000000E+00  0.00000000000E+00  0.15490144801E+03  0.35033994987E+04  0.34999733697E+04 0.  0.
        4    1    3    3  502    0 -0.81832862134E+02  0.17480715770E+04  0.78415304735E+02  0.17517423979E+04  0.12699999809E+01 0.  1.
       -4    1    3    3    0  502  0.81832862134E+02 -0.17480715770E+04  0.76486143275E+02  0.17516571008E+04  0.12699999809E+01 0. -1.
</event>
<event>
 5   0  0.1129219E-08  0.3501903E+04  0.7818609E-02  0.8113339E-01
        1   -1    0    0  501    0  0.00000000000E+00  0.00000000000E+00  0.25432088692E+04  0.25432088693E+04  0.50400001928E-02 0. -1.
       -1   -1    0    0    0  501  0.00000000000E+00  0.00000000000E+00 -0.12054969312E+04  0.12054969312E+04  0.50400001928E-02 0.  1.
    10030    2    1    2    0    0  0.00000000000E+00  0.00000000000E+00  0.13377119380E+04  0.37487058005E+04  0.35019026185E+04 0.  0.
        5    1    3    3  502    0 -0.14536776025E+04  0.87171381161E+03  0.11388244056E+04  0.20420594159E+04  0.46999998093E+01 0. -1.
       -5    1    3    3    0  502  0.14536776025E+04 -0.87171381161E+03  0.19888753242E+03  0.17066463846E+04  0.46999998093E+01 0.  1.
</event>
<event>
 5   0  0.1140808E-08  0.3496733E+04  0.7818609E-02  0.8114565E-01
        1   -1    0    0  501    0  0.00000000000E+00  0.00000000000E+00  0.20099807957E+04  0.20099807957E+04  0.50400001928E-02 0.  1.
       -1   -1    0    0    0  501  0.00000000000E+00  0.00000000000E+00 -0.15208031989E+04  0.15208031989E+04  0.50400001928E-02 0. -1.
    10030    2    1    2    0    0  0.00000000000E+00  0.00000000000E+00  0.48917759676E+03  0.35307839946E+04  0.34967328888E+04 0.  0.
        3    1    3    3  502    0  0.35329138910E+03  0.10663812489E+04 -0.11081591861E+04  0.15779735630E+04  0.10100000352E+00 0. -1.
       -3    1    3    3    0  502 -0.35329138910E+03 -0.10663812489E+04  0.15973367828E+04  0.19528104316E+04  0.10100000352E+00 0.  1.
</event>
<event>
 5   0  0.1129219E-08  0.3497054E+04  0.7818609E-02  0.8114489E-01
       -1   -1    0    0    0  501  0.00000000000E+00  0.00000000000E+00  0.13298081145E+04  0.13298081145E+04  0.50400001928E-02 0.  1.
        1   -1    0    0  501    0  0.00000000000E+00  0.00000000000E+00 -0.22990879691E+04  0.22990879691E+04  0.50400001928E-02 0. -1.
    10030    2    1    2    0    0  0.00000000000E+00  0.00000000000E+00 -0.96927985462E+03  0.36288960835E+04  0.34970535238E+04 0.  0.
        5    1    3    3  502    0  0.18743296555E+03  0.36546345045E+02  0.13189480677E+04  0.13327088381E+04  0.46999998093E+01 0.  1.
       -5    1    3    3    0  502 -0.18743296555E+03 -0.36546345045E+02 -0.22882279223E+04  0.22961872455E+04  0.46999998093E+01 0. -1.
</event>
<event>
 5   0  0.1121462E-08  0.3500093E+04  0.7818609E-02  0.8113768E-01
       -1   -1    0    0    0  501  0.00000000000E+00  0.00000000000E+00  0.15200251240E+04  0.15200251240E+04  0.50400001928E-02 0.  1.
        1   -1    0    0  501    0  0.00000000000E+00  0.00000000000E+00 -0.20148769735E+04  0.20148769735E+04  0.50400001928E-02 0. -1.
    10030    2    1    2    0    0  0.00000000000E+00  0.00000000000E+00 -0.49485184958E+03  0.35349020975E+04  0.35000934967E+04 0.  0.
        2    1    3    3  502    0  0.11543464253E+04  0.38770759584E+03 -0.15168391798E+04  0.19451565353E+04  0.25500000920E-02 0. -1.
       -2    1    3    3    0  502 -0.11543464253E+04 -0.38770759584E+03  0.10219873302E+04  0.15897455622E+04  0.25500000920E-02 0.  1.
</event>
<event>
 5   0  0.1121462E-08  0.3500370E+04  0.7818609E-02  0.8113702E-01
        1   -1    0    0  501    0  0.00000000000E+00  0.00000000000E+00  0.21580504877E+04  0.21580504877E+04  0.50400001928E-02 0.  1.
       -1   -1    0    0    0  501  0.00000000000E+00  0.00000000000E+00 -0.14194050702E+04  0.14194050702E+04  0.50400001928E-02 0. -1.
    10030    2    1    2    0    0  0.00000000000E+00  0.00000000000E+00  0.73864541753E+03  0.35774555579E+04  0.35003701541E+04 0.  0.
        2    1    3    3  502    0  0.10050153168E+03  0.34125020962E+03 -0.13820651818E+04  0.14271147222E+04  0.25500000920E-02 0. -1.
       -2    1    3    3    0  502 -0.10050153168E+03 -0.34125020962E+03  0.21207105994E+04  0.21503408357E+04  0.25500000920E-02 0.  1.
</event>
<event>
 5   0  0.3554451E-08  0.3500730E+04  0.7818609E-02  0.8113617E-01
        2   -1    0    0  501    0  0.00000000000E+00  0.00000000000E+00  0.21374831735E+04  0.21374831735E+04  0.25500000920E-02 0.  1.
       -2   -1    0    0    0  501  0.00000000000E+00  0.00000000000E+00 -0.14333576312E+04  0.14333576312E+04  0.25500000920E-02 0. -1.
    10030    2    1    2    0    0  0.00000000000E+00  0.00000000000E+00  0.70412554229E+03  0.35708408047E+04  0.35007301057E+04 0.  0.
        5    1    3    3  502    0 -0.36415366453E+03  0.16922006047E+04  0.61727961881E+03  0.18377178771E+04  0.46999998093E+01 0.  1.
       -5    1    3    3    0  502  0.36415366453E+03 -0.16922006047E+04  0.86845923481E+02  0.17331229276E+04  0.46999998093E+01 0. -1.
</event>
<event>
 5   0  0.1140808E-08  0.3500274E+04  0.7818609E-02  0.8113725E-01
       -1   -1    0    0    0  501  0.00000000000E+00  0.00000000000E+00  0.18031246924E+04  0.18031246924E+04  0.50400001928E-02 0. -1.
        1   -1    0    0  501    0  0.00000000000E+00  0.00000000000E+00 -0.16987066315E+04  0.16987066315E+04  0.50400001928E-02 0.  1.
    10030    2    1    2    0    0  0.00000000000E+00  0.00000000000E+00  0.10441806090E+03  0.35018313239E+04  0.35002742021E+04 0.  0.
        3    1    3    3  502    0 -0.11876370867E+04  0.78547351904E+03  0.10702713534E+04  0.17812723764E+04  0.10100000352E+00 0.  1.
       -3    1    3    3    0  502  0.11876370867E+04 -0.78547351904E+03 -0.96585329253E+03  0.17205589475E+04  0.10100000352E+00 0. -1.
</event>
<event>
 5   0  0.3554451E-08  0.3497710E+04  0.7818609E-02  0.8114333E-01
       -2   -1    0    0    0  501  0.00000000000E+00  0.00000000000E+00  0.33601582798E+04  0.33601582798E+04  0.25500000920E-02 0. -1.
        2   -1    0    0  501    0  0.00000000000E+00  0.00000000000E+00 -0.91022307858E+03  0.91022307858E+03  0.25500000920E-02 0.  1.
    10030    2    1    2    0    0  0.00000000000E+00  0.00000000000E+00  0.24499352012E+04  0.42703813584E+04  0.34977098873E+04 0.  0.
        5    1    3    3  502    0 -0.33203975192E+03 -0.16917073066E+04  0.15837307268E+04  0.23410145478E+04  0.46999998093E+01 0. -1.
       -5    1    3    3    0  502  0.33203975192E+03  0.16917073066E+04  0.86620447445E+03  0.19293668106E+04  0.46999998093E+01 0.  1.
</event>
<event>
 5   0  0.1140808E-08  0.3502190E+04  0.7818609E-02  0.8113271E-01
        1   -1    0    0  501    0  0.00000000000E+00  0.00000000000E+00  0.18418108649E+04  0.18418108649E+04  0.50400001928E-02 0. -1.
       -1   -1    0    0    0  501  0.00000000000E+00  0.00000000000E+00 -0.16648472605E+04  0.16648472605E+04  0.50400001928E-02 0.  1.
    10030    2    1    2    0    0  0.00000000000E+00  0.00000000000E+00  0.17696360438E+03  0.35066581254E+04  0.35021900421E+04 0.  0.
        3    1    3    3  502    0 -0.11841237865E+04  0.50237268375E+02  0.13791806151E+04  0.18184642158E+04  0.10100000352E+00 0. -1.
       -3    1    3    3    0  502  0.11841237865E+04 -0.50237268375E+02 -0.12022170107E+04  0.16881939095E+04  0.10100000352E+00 0.  1.
</event>
<event>
 5   0  0.3700096E-08  0.3502038E+04  0.7818609E-02  0.8113307E-01
        2   -1    0    0  501    0  0.00000000000E+00  0.00000000000E+00  0.17630617100E+04  0.17630617100E+04  0.25500000920E-02 0.  1.
       -2   -1    0    0    0  501  0.00000000000E+00  0.00000000000E+00 -0.17390589869E+04  0.17390589869E+04  0.25500000920E-02 0. -1.
    10030    2    1    2    0    0  0.00000000000E+00  0.00000000000E+00  0.24002723145E+02  0.35021206969E+04  0.35020384414E+04 0.  0.
        4    1    3    3  502    0  0.11265133508E+04 -0.15489346921E+03 -0.13195862897E+04  0.17419339555E+04  0.12699999809E+01 0. -1.
       -4    1    3    3    0  502 -0.11265133508E+04  0.15489346921E+03  0.13435890129E+04  0.17601867414E+04  0.12699999809E+01 0.  1.
</event>
<event>
 5   0  0.1121462E-08  0.3499124E+04  0.7818609E-02  0.8113998E-01
       -1   -1    0    0    0  501  0.00000000000E+00  0.00000000000E+00  0.31989433624E+04  0.31989433624E+04  0.50400001928E-02 0. -1.
        1   -1    0    0  501    0  0.00000000000E+00  0.00000000000E+00 -0.95686811543E+03  0.95686811544E+03  0.50400001928E-02 0.  1.
    10030    2    1    2    0    0  0.00000000000E+00  0.00000000000E+00  0.22420752469E+04  0.41558114778E+04  0.34991238369E+04 0.  0.
        4    1    3    3  502    0  0.10556243778E+03 -0.79646329967E+01 -0.95306024717E+03  0.95892247407E+03  0.12699999809E+01 0.  1.
       -4    1    3    3    0  502 -0.10556243778E+03  0.79646329967E+01  0.31951354941E+04  0.31968890037E+04  0.12699999809E+01 0. -1.
</event>
<event>
 5   0  0.3700096E-08  0.3500217E+04  0.7818609E-02  0.8113739E-01
       -2   -1    0    0    0  501  0.00000000000E+00  0.00000000000E+00  0.14316692856E+04  0.14316692856E+04  0.25500000920E-02 0.  1.
        2   -1    0    0  501    0  0.00000000000E+00  0.00000000000E+00 -0.21393765097E+04  0.21393765097E+04  0.25500000920E-02 0. -1.
    10030    2    1    2    0    0  0.00000000000E+00  0.00000000000E+00 -0.70770722408E+03  0.35710457953E+04  0.35002169300E+04 0.  0.
        4    1    3    3  502    0  0.77839697566E+03 -0.45270624387E+03  0.11771910368E+04  0.14821015974E+04  0.12699999809E+01 0.  1.
       -4    1    3    3    0  502 -0.77839697566E+03  0.45270624387E+03 -0.18848982609E+04  0.20889441979E+04  0.12699999809E+01 0. -1.
</event>
<event>
 5   0  0.3553585E-08  0.3508041E+04  0.7818609E-02  0.8111887E-01
       -2   -1    0    0    0  501  0.00000000000E+00  0.00000000000E+00  0.15019115378E+04  0.15019115378E+04  0.25500000920E-02 0. -1.
        2   -1    0    0  501    0  0.00000000000E+00  0.00000000000E+00 -0.20484487086E+04  0.20484487086E+04  0.25500000920E-02 0.  1.
    10030    2    1    2    0    0  0.00000000000E+00  0.00000000000E+00 -0.54653717074E+03  0.35503602464E+04  0.35080414764E+04 0.  0.
        2    1    3    3  502    0 -0.96462777916E+01 -0.13425537317E+04 -0.14156210333E+04  0.19510321584E+04  0.25500000920E-02 0.  1.
       -2    1    3    3    0  502  0.96462777916E+01  0.13425537317E+04  0.86908386253E+03  0.15993280881E+04  0.25500000920E-02 0. -1.
</event>
<event>
 5   0  0.1121462E-08  0.3500107E+04  0.7818609E-02  0.8113765E-01
        1   -1    0    0  501    0  0.00000000000E+00  0.00000000000E+00  0.22980628505E+04  0.22980628505E+04  0.50400001928E-02 0.  1.
       -1   -1    0    0    0  501  0.00000000000E+00  0.00000000000E+00 -0.13327252626E+04  0.13327252626E+04  0.50400001928E-02 0. -1.
    10030    2    1    2    0    0  0.00000000000E+00  0.00000000000E+00  0.96533758789E+03  0.36307881132E+04  0.35001065218E+04 0.  0.
        1    1    3    3  502    0 -0.34681070412E+03  0.17031490632E+04  0.27085896337E+03  0.17590790130E+04  0.50400001928E-02 0.  1.
       -1    1    3    3    0  502  0.34681070412E+03 -0.17031490632E+04  0.69447862452E+03  0.18717091002E+04  0.50400001928E-02 0. -1.
</event>
<event>
 5   0  0.1121462E-08  0.3501527E+04  0.7818609E-02  0.8113428E-01
       -1   -1    0    0    0  501  0.00000000000E+00  0.00000000000E+00  0.12434229556E+04  0.12434229556E+04  0.50400001928E-02 0.  1.
        1   -1    0    0  501    0  0.00000000000E+00  0.00000000000E+00 -0.24651086525E+04  0.24651086525E+04  0.50400001928E-02 0. -1.
    10030    2    1    2    0    0  0.00000000000E+00  0.00000000000E+00 -0.12216856968E+04  0.37085316081E+04  0.35015269164E+04 0.  0.
        1    1    3    3  502    0 -0.12983422338E+03 -0.68773826911E+03  0.10888134731E+04  0.12943552958E+04  0.50400001928E-02 0.  1.
       -1    1    3    3    0  502  0.12983422338E+03  0.68773826911E+03 -0.23104991700E+04  0.24141763123E+04  0.50400001928E-02 0. -1.
</event>
<event>
 5   0  0.3554451E-08  0.3499754E+04  0.7818609E-02  0.8113848E-01
       -2   -1    0    0    0  501  0.00000000000E+00  0.00000000000E+00  0.14385297154E+04  0.14385297154E+04  0.25500000920E-02 0.  1.
        2   -1    0    0  501    0  0.00000000000E+00  0.00000000000E+00 -0.21286101340E+04  0.21286101340E+04  0.25500000920E-02 0. -1.
    10030    2    1    2    0    0  0.00000000000E+00  0.00000000000E+00 -0.69008041863E+03  0.35671398495E+04  0.34997536658E+04 0.  0.
        5    1    3    3  502    0 -0.37191135216E+03  0.13150005531E+04 -0.14590170447E+04  0.19990741195E+04  0.46999998093E+01 0. -1.
       -5    1    3    3    0  502  0.37191135216E+03 -0.13150005531E+04  0.76893662605E+03  0.15680657300E+04  0.46999998093E+01 0.  1.
</event>
<event>
 5   0  0.3467834E-08  0.3499800E+04  0.7818609E-02  0.8113837E-01
        2   -1    0    0  501    0  0.00000000000E+00  0.00000000000E+00  0.24410851489E+04  0.24410851489E+04  0.25500000920E-02 0. -1.
       -2   -1    0    0    0  501  0.00000000000E+00  0.00000000000E+00 -0.12544219308E+04  0.12544219308E+04  0.25500000920E-02 0.  1.
    10030    2    1    2    0    0  0.00000000000E+00  0.00000000000E+00  0.11866632182E+04  0.36955070798E+04  0.34998004205E+04 0.  0.
        3    1    3    3  502    0  0.94477643714E+03  0.35142603639E+03  0.21037200887E+04  0.23327539512E+04  0.10100000352E+00 0. -1.
       -3    1    3    3    0  502 -0.94477643714E+03 -0.35142603639E+03 -0.91705687055E+03  0.13627531285E+04  0.10100000352E+00 0.  1.
</event>
<event>
 5   0  0.3554451E-08  0.3500023E+04  0.7818609E-02  0.8113784E-01
       -2   -1    0    0    0  501  0.00000000000E+00  0.00000000000E+00  0.10413274078E+04  0.10413274078E+04  0.25500000920E-02 0. -1.
        2   -1    0    0  501    0  0.00000000000E+00  0.00000000000E+00 -0.29409966727E+04  0.29409966727E+04  0.25500000920E-02 0.  1.
    10030    2    1    2    0    0  0.00000000000E+00  0.00000000000E+00 -0.18996692648E+04  0.39823240805E+04  0.35000231094E+04 0.  0.
        5    1    3    3  502    0 -0.12067813259E+04  0.10499420374E+04 -0.14222234801E+03  0.16059105631E+04  0.46999998093E+01 0. -1.
       -5    1    3    3    0  502  0.12067813259E+04 -0.10499420374E+04 -0.17574469168E+04  0.23764135174E+04  0.46999998093E+01 0.  1.
</event>
<event>
 5   0  0.1121462E-08  0.3500629E+04  0.7818609E-02  0.8113641E-01
       -1   -1    0    0    0  501  0.00000000000E+00  0.00000000000E+00  0.14375070872E+04  0.14375070872E+04  0.50400001928E-02 0. -1.
        1   -1    0    0  501    0  0.00000000000E+00  0.00000000000E+00 -0.21311903122E+04  0.21311903122E+04  0.50400001928E-02 0.  1.
    10030    2    1    2    0    0  0.00000000000E+00  0.00000000000E+00 -0.69368322491E+03  0.35686973994E+04  0.35006291880E+04 0.  0.
        2    1    3    3  502    0 -0.38112191781E+03  0.11612775463E+04 -0.16241131920E+04  0.20326246865E+04  0.25500000920E-02 0.  1.
       -2    1    3    3    0  502  0.38112191781E+03 -0.11612775463E+04  0.93042996707E+03  0.15360727129E+04  0.25500000920E-02 0. -1.
</event>
<event>
 5   0  0.3700096E-08  0.3499799E+04  0.7818609E-02  0.8113838E-01
        2   -1    0    0  501    0  0.00000000000E+00  0.00000000000E+00  0.28292057744E+04  0.28292057744E+04  0.25500000920E-02 0. -1.
       -2   -1    0    0    0  501  0.00000000000E+00  0.00000000000E+00 -0.10823350447E+04  0.10823350447E+04  0.25500000920E-02 0.  1.
    10030    2    1    2    0    0  0.00000000000E+00  0.00000000000E+00  0.17468707297E+04  0.39115408191E+04  0.34997991705E+04 0.  0.
        4    1    3    3  502    0  0.10447649837E+04 -0.12060917609E+04  0.70628705401E+02  0.15972417581E+04  0.12699999809E+01 0.  1.
       -4    1    3    3    0  502 -0.10447649837E+04  0.12060917609E+04  0.16762420243E+04  0.23142990610E+04  0.12699999809E+01 0. -1.
</event>
<event>
 5   0  0.1140808E-08  0.3500869E+04  0.7818609E-02  0.8113584E-01
       -1   -1    0    0    0  501  0.00000000000E+00  0.00000000000E+00  0.14021725829E+04  0.14021725829E+04  0.50400001928E-02 0.  1.
        1   -1    0    0  501    0  0.00000000000E+00  0.00000000000E+00 -0.21851946927E+04  0.21851946927E+04  0.50400001928E-02 0. -1.
    10030    2    1    2    0    0  0.00000000000E+00  0.00000000000E+00 -0.78302210986E+03  0.35873672756E+04  0.35008685131E+04 0.  0.
        3    1    3    3  502    0  0.13817976774E+04  0.59673931488E+03 -0.13072108647E+04  0.19935553381E+04  0.10100000352E+00 0. -1.
       -3    1    3    3    0  502 -0.13817976774E+04 -0.59673931488E+03  0.52418875488E+03  0.15938119375E+04  0.10100000352E+00 0.  1.
</event>
<event>
 5   0  0.3467834E-08  0.3499885E+04  0.7818609E-02  0.8113817E-01
       -2   -1    0    0    0  501  0.00000000000E+00  0.00000000000E+00  0.10921880692E+04  0.10921880692E+04  0.25500000920E-02 0. -1.
        2   -1    0    0  501    0  0.00000000000E+00  0.00000000000E+00 -0.28038196314E+04  0.28038196314E+04  0.25500000920E-02 0.  1.
    10030    2    1    2    0    0  0.00000000000E+00  0.00000000000E+00 -0.17116315622E+04  0.38960077005E+04  0.34998847692E+04 0.  0.
        3    1    3    3  502    0 -0.27502352628E+03 -0.16313765846E+04 -0.14906913653E+04  0.22269234961E+04  0.10100000352E+00 0.  1.
       -3    1    3    3    0  502  0.27502352628E+03  0.16313765846E+04 -0.22094019691E+03  0.16690842044E+04  0.10100000352E+00 0. -1.
</event>
<event>
 5   0  0.1121462E-08  0.3502391E+04  0.7818609E-02  0.8113224E-01
       -1   -1    0    0    0  501  0.00000000000E+00  0.00000000000E+00  0.15227500209E+04  0.15227500210E+04  0.50400001928E-02 0. -1.
        1   -1    0    0  501    0  0.00000000000E+00  0.00000000000E+00 -0.20139125406E+04  0.20139125406E+04  0.50400001928E-02 0.  1.
    10030    2    1    2    0    0  0.00000000000E+00  0.00000000000E+00 -0.49116251969E+03  0.35366625616E+04  0.35023908197E+04 0.  0.
        1    1    3    3  502    0  0.11540931298E+04 -0.66535188718E+03 -0.13933927680E+04  0.19277363647E+04  0.50400001928E-02 0.  1.
       -1    1    3    3    0  502 -0.11540931298E+04  0.66535188718E+03  0.90223024826E+03  0.16089261969E+04  0.50400001928E-02 0. -1.
</event>
<event>
 5   0  0.3554451E-08  0.3500645E+04  0.7818609E-02  0.8113637E-01
       -2   -1    0    0    0  501  0.00000000000E+00  0.00000000000E+00  0.18154654911E+04  0.18154654911E+04  0.25500000920E-02 0.  1.
        2   -1    0    0  501    0  0.00000000000E+00  0.00000000000E+00 -0.16875168894E+04  0.16875168894E+04  0.25500000920E-02 0. -1.
    10030    2    1    2    0    0  0.00000000000E+00  0.00000000000E+00  0.12794860173E+03  0.35029823805E+04  0.35006448997E+04 0.  0.
        5    1    3    3  502    0  0.29754354973E+03 -0.16535595650E+04  0.55503121730E+03  0.17694273484E+04  0.46999998093E+01 0.  1.
       -5    1    3    3    0  502 -0.29754354973E+03  0.16535595650E+04 -0.42708261558E+03  0.17335550322E+04  0.46999998093E+01 0. -1.
</event>
<event>
 5   0  0.1121462E-08  0.3500267E+04  0.7818609E-02  0.8113727E-01
       -1   -1    0    0    0  501  0.00000000000E+00  0.00000000000E+00  0.16523963500E+04  0.16523963500E+04  0.50400001928E-02 0. -1.
        1   -1    0    0  501    0  0.00000000000E+00  0.00000000000E+00 -0.18536521540E+04  0.18536521540E+04  0.50400001928E-02 0.  1.
    10030    2    1    2    0    0  0.00000000000E+00  0.00000000000E+00 -0.20125580403E+03  0.35060485040E+04  0.35002674488E+04 0.  0.
        4    1    3    3  502    0  0.14011489930E+04 -0.10052258203E+04 -0.39990053304E+03  0.17702032368E+04  0.12699999809E+01 0. -1.
       -4    1    3    3    0  502 -0.14011489930E+04  0.10052258203E+04  0.19864472900E+03  0.17358452672E+04  0.12699999809E+01 0.  1.
</event>
<event>
 5   0  0.3553585E-08  0.3501169E+04  0.7818609E-02  0.8113513E-01
        2   -1    0    0  501    0  0.00000000000E+00  0.00000000000E+00  0.17146918950E+04  0.17146918950E+04  0.25500000920E-02 0. -1.
       -2   -1    0    0    0  501  0.00000000000E+00  0.00000000000E+00 -0.17872286661E+04  0.17872286661E+04  0.25500000920E-02 0.  1.
    10030    2    1    2    0    0  0.00000000000E+00  0.00000000000E+00 -0.72536771056E+02  0.35019205611E+04  0.35011692380E+04 0.  0.
        2    1    3    3  502    0  0.75370922834E+03  0.13056688224E+04 -0.92623335911E+03  0.17693945038E+04  0.25500000920E-02 0.  1.
       -2    1    3    3    0  502 -0.75370922834E+03 -0.13056688224E+04  0.85369658806E+03  0.17325260572E+04  0.25500000920E-02 0. -1.
</event>
<event>
 5   0  0.3467834E-08  0.3502099E+04  0.7818609E-02  0.8113293E-01
       -2   -1    0    0    0  501  0.00000000000E+00  0.00000000000E+00  0.15993458253E+04  0.15993458253E+04  0.25500000920E-02 0.  1.
        2   -1    0    0  501    0  0.00000000000E+00  0.00000000000E+00 -0.19171427457E+04  0.19171427457E+04  0.25500000920E-02 0. -1.
    10030    2    1    2    0    0  0.00000000000E+00  0.00000000000E+00 -0.31779692041E+03  0.35164885710E+04  0.35020989403E+04 0.  0.
        3    1    3    3  502    0  0.83998216192E+02 -0.13601029658E+04  0.94527365251E+03  0.16584565313E+04  0.10100000352E+00 0.  1.
       -3    1    3    3    0  502 -0.83998216192E+02  0.13601029658E+04 -0.12630705729E+04  0.18580320397E+04  0.10100000352E+00 0. -1.
</event>
<event>
 5   0  0.1129219E-08  0.3499623E+04  0.7818609E-02  0.8113879E-01
       -1   -1    0    0    0  501  0.00000000000E+00  0.00000000000E+00  0.16404912642E+04  0.16404912642E+04  0.50400001928E-02 0. -1.
        1   -1    0    0  501    0  0.00000000000E+00  0.00000000000E+00 -0.18664170714E+04  0.18664170714E+04  0.50400001928E-02 0.  1.
    10030    2    1    2    0    0  0.00000000000E+00  0.00000000000E+00 -0.22592580715E+03  0.35069083356E+04  0.34996233517E+04 0.  0.
        5    1    3    3  502    0 -0.39444155621E+03 -0.15522811407E+04  0.59324373476E+03  0.17079581669E+04  0.46999998093E+01 0. -1.
       -5    1    3    3    0  502  0.39444155621E+03  0.15522811407E+04 -0.81916954192E+03  0.17989501687E+04  0.46999998093E+01 0.  1.
</event>
<event>
 5   0  0.1121462E-08  0.3495917E+04  0.7818609E-02  0.8114758E-01
        1   -1    0    0  501    0  0.00000000000E+00  0.00000000000E+00  0.25549466076E+04  0.25549466076E+04  0.50400001928E-02 0. -1.
       -1   -1    0    0    0  501  0.00000000000E+00  0.00000000000E+00 -0.11958603359E+04  0.11958603359E+04  0.50400001928E-02 0.  1.
    10030    2    1    2    0    0  0.00000000000E+00  0.00000000000E+00  0.13590862716E+04  0.37508069435E+04  0.34959172235E+04 0.  0.
        2    1    3    3  502    0 -0.14721858892E+04  0.36591357860E+03  0.16112690968E+04  0.22130097473E+04  0.25500000920E-02 0. -1.
       -2    1    3    3    0  502  0.14721858892E+04 -0.36591357860E+03 -0.25218282517E+03  0.15377971962E+04  0.25500000920E-02 0.  1.
</event>
<event>
 5   0  0.3628017E-08  0.3498933E+04  0.7818609E-02  0.8114043E-01
       -2   -1    0    0    0  501  0.00000000000E+00  0.00000000000E+00  0.12531838777E+04  0.12531838777E+04  0.25500000920E-02 0. -1.
        2   -1    0    0  501    0  0.00000000000E+00  0.00000000000E+00 -0.24422856726E+04  0.24422856726E+04  0.25500000920E-02 0.  1.
    10030    2    1    2    0    0  0.00000000000E+00  0.00000000000E+00 -0.11891017949E+04  0.36954695503E+04  0.34989329972E+04 0.  0.
        1    1    3    3  502    0 -0.12061136965E+04  0.11892847886E+04 -0.10567681370E+04  0.19964637369E+04  0.50400001928E-02 0.  1.
       -1    1    3    3    0  502  0.12061136965E+04 -0.11892847886E+04 -0.13233365790E+03  0.16990058135E+04  0.50400001928E-02 0. -1.
</event>
<event>
 5   0  0.3553585E-08  0.3502714E+04  0.7818609E-02  0.8113147E-01
       -2   -1    0    0    0  501  0.00000000000E+00  0.00000000000E+00  0.24302654135E+04  0.24302654135E+04  0.25500000920E-02 0.  1.
        2   -1    0    0  501    0  0.00000000000E+00  0.00000000000E+00 -0.12621055053E+04  0.12621055053E+04  0.25500000920E-02 0. -1.
    10030    2    1    2    0    0  0.00000000000E+00  0.00000000000E+00  0.11681599082E+04  0.36923709187E+04  0.35027140092E+04 0.  0.
        2    1    3    3  502    0  0.14799559838E+04  0.88408839661E+03  0.90962047559E+03  0.19491771127E+04  0.25500000920E-02 0.  1.
       -2    1    3    3    0  502 -0.14799559838E+04 -0.88408839661E+03  0.25853943264E+03  0.17431938060E+04  0.25500000920E-02 0. -1.
</event>
<event>
 5   0  0.1121462E-08  0.3503358E+04  0.7818609E-02  0.8112995E-01
        1   -1    0    0  501    0  0.00000000000E+00  0.00000000000E+00  0.16627636185E+04  0.16627636185E+04  0.50400001928E-02 0. -1.
       -1   -1    0    0    0  501  0.00000000000E+00  0.00000000000E+00 -0.18453486431E+04  0.18453486431E+04  0.50400001928E-02 0.  1.
    10030    2    1    2    0    0  0.00000000000E+00  0.00000000000E+00 -0.18258502459E+03  0.35081122616E+04  0.35033575822E+04 0.  0.
        2    1    3    3  502    0 -0.14344581111E+04 -0.17583522370E+03 -0.10824795751E+04  0.18056439651E+04  0.25500000920E-02 0. -1.
       -2    1    3    3    0  502  0.14344581111E+04  0.17583522370E+03  0.89989455051E+03  0.17024682964E+04  0.25500000920E-02 0.  1.
</event>
<event>
 5   0  0.3553585E-08  0.3500113E+04  0.7818609E-02  0.8113763E-01
       -2   -1    0    0    0  501  0.00000000000E+00  0.00000000000E+00  0.17867313075E+04  0.17867313075E+04  0.25500000920E-02 0.  1.
        2   -1    0    0  501    0  0.00000000000E+00  0.00000000000E+00 -0.17141347453E+04  0.17141347453E+04  0.25500000920E-02 0. -1.
    10030    2    1    2    0    0  0.00000000000E+00  0.00000000000E+00  0.72596562264E+02  0.35008660528E+04  0.35001132637E+04 0.  0.
        2    1    3    3  502    0  0.26290075110E+03  0.13736317987E+04 -0.10159342020E+04  0.17286131510E+04  0.25500000920E-02 0. -1.
       -2    1    3    3    0  502 -0.26290075110E+03 -0.13736317987E+04  0.10885307642E+04  0.17722529018E+04  0.25500000920E-02 0.  1.
</event>
<event>
 5   0  0.3554451E-08  0.3496450E+04  0.7818609E-02  0.8114632E-01
       -2   -1    0    0    0  501  0.00000000000E+00  0.00000000000E+00  0.14305039429E+04  0.14305039429E+04  0.25500000920E-02 0. -1.
        2   -1    0    0  501    0  0.00000000000E+00  0.00000000000E+00 -0.21365133560E+04  0.21365133560E+04  0.25500000920E-02 0.  1.
    10030    2    1    2    0    0  0.00000000000E+00  0.00000000000E+00 -0.70600941315E+03  0.35670172989E+04  0.34964500739E+04 0.  0.
        5    1    3    3  502    0  0.12175056703E+04  0.26091993580E+03  0.89890077554E+03  0.15357226196E+04  0.46999998093E+01 0. -1.
       -5    1    3    3    0  502 -0.12175056703E+04 -0.26091993580E+03 -0.16049101887E+04  0.20312946792E+04  0.46999998093E+01 0.  1.
</event>
<event>
 5   0  0.3700096E-08  0.3500306E+04  0.7818609E-02  0.8113717E-01
       -2   -1    0    0    0  501  0.00000000000E+00  0.00000000000E+00  0.14466187169E+04  0.14466187169E+04  0.25500000920E-02 0. -1.
        2   -1    0    0  501    0  0.00000000000E+00  0.00000000000E+00 -0.21173759339E+04  0.21173759339E+04  0.25500000920E-02 0.  1.
    10030    2    1    2    0    0  0.00000000000E+00  0.00000000000E+00 -0.67075721698E+03  0.35639946508E+04  0.35003060761E+04 0.  0.
        4    1    3    3  502    0 -0.21171639176E+03  0.87350120550E+03 -0.18644371638E+04  0.20697719047E+04  0.12699999809E+01 0.  1.
       -4    1    3    3    0  502  0.21171639176E+03 -0.87350120550E+03  0.11936799469E+04  0.14942227461E+04  0.12699999809E+01 0. -1.
</event>
<event>
 5   0  0.3553585E-08  0.3499921E+04  0.7818609E-02  0.8113809E-01
        2   -1    0    0  501    0  0.00000000000E+00  0.00000000000E+00  0.23009651144E+04  0.23009651144E+04  0.25500000920E-02 0.  1.
       -2   -1    0    0    0  501  0.00000000000E+00  0.00000000000E+00 -0.13309028014E+04  0.13309028014E+04  0.25500000920E-02 0. -1.
    10030    2    1    2    0    0  0.00000000000E+00  0.00000000000E+00  0.97006231292E+03  0.36318679158E+04  0.34999205229E+04 0.  0.
        2    1    3    3  502    0  0.10313416989E+04  0.13847437850E+04  0.18936880256E+03  0.17369633253E+04  0.25500000920E-02 0. -1.
       -2    1    3    3    0  502 -0.10313416989E+04 -0.13847437850E+04  0.78069351036E+03  0.18949045905E+04  0.25500000920E-02 0.  1.
</event>
<event>
 5   0  0.1121462E-08  0.3504034E+04  0.7818609E-02  0.8112835E-01
       -1   -1    0    0    0  501  0.00000000000E+00  0.00000000000E+00  0.10271850649E+04  0.10271850649E+04  0.50400001928E-02 0. -1.
        1   -1    0    0  501    0  0.00000000000E+00  0.00000000000E+00 -0.29883260325E+04  0.29883260325E+04  0.50400001928E-02 0.  1.
    10030    2    1    2    0    0  0.00000000000E+00  0.00000000000E+00 -0.19611409676E+04  0.40155110974E+04  0.35040341720E+04 0.  0.
        2    1    3    3  502    0  0.90494625594E+02 -0.87712988705E+03 -0.27154986042E+04  0.28550794709E+04  0.25500000920E-02 0.  1.
       -2    1    3    3    0  502 -0.90494625594E+02  0.87712988705E+03  0.75435763655E+03  0.11604316265E+04  0.25500000920E-02 0. -1.
</event>
<event>
 5   0  0.1121462E-08  0.3498323E+04  0.7818609E-02  0.8114188E-01
        1   -1    0    0  501    0  0.00000000000E+00  0.00000000000E+00  0.26631789751E+04  0.26631789751E+04  0.50400001928E-02 0. -1.
       -1   -1    0    0    0  501  0.00000000000E+00  0.00000000000E+00 -0.11488395726E+04  0.11488395726E+04  0.50400001928E-02 0.  1.
    10030    2    1    2    0    0  0.00000000000E+00  0.00000000000E+00  0.15143394025E+04  0.38120185477E+04  0.34983226812E+04 0.  0.
        1    1    3    3  502    0  0.25427921530E+03  0.48321743549E+03 -0.10535884921E+04  0.11866784400E+04  0.50400001928E-02 0.  1.
       -1    1    3    3    0  502 -0.25427921530E+03 -0.48321743549E+03  0.25679278946E+04  0.26253401077E+04  0.50400001928E-02 0. -1.
</event>
<event>
 5   0  0.3467834E-08  0.3497031E+04  0.7818609E-02  0.8114494E-01
       -2   -1    0    0    0  501  0.00000000000E+00  0.00000000000E+00  0.11355635619E+04  0.11355635619E+04  0.25500000920E-02 0.  1.
        2   -1    0    0  501    0  0.00000000000E+00  0.00000000000E+00 -0.26923251962E+04  0.26923251962E+04  0.25500000920E-02 0. -1.
    10030    2    1    2    0    0  0.00000000000E+00  0.00000000000E+00 -0.15567616342E+04  0.38278887581E+04  0.34970309634E+04 0.  0.
        3    1    3    3  502    0 -0.24456902287E+03 -0.17275220430E+04 -0.65281044708E+03  0.18628762455E+04  0.10100000352E+00 0.  1.
       -3    1    3    3    0  502  0.24456902287E+03  0.17275220430E+04 -0.90395118716E+03  0.19650125127E+04  0.10100000352E+00 0. -1.
</event>
<event>
 5   0  0.1121462E-08  0.3498716E+04  0.7818609E-02  0.8114094E-01
        1   -1    0    0  501    0  0.00000000000E+00  0.00000000000E+00  0.88086705557E+03  0.88086705558E+03  0.50400001928E-02 0.  1.
       -1   -1    0    0    0  501  0.00000000000E+00  0.00000000000E+00 -0.34741375814E+04  0.34741375814E+04  0.50400001928E-02 0. -1.
    10030    2    1    2    0    0  0.00000000000E+00  0.00000000000E+00 -0.25932705258E+04  0.43550046370E+04  0.34987159599E+04 0.  0.
        1    1    3    3  502    0 -0.14294964882E+04 -0.29070509586E+03 -0.94774999775E+02  0.14618317150E+04  0.50400001928E-02 0.  1.
       -1    1    3    3    0  502  0.14294964882E+04  0.29070509586E+03 -0.24984955260E+04  0.28931729219E+04  0.50400001928E-02 0. -1.
</event>
<event>
 5   0  0.3553585E-08  0.3499638E+04  0.7818609E-02  0.8113876E-01
       -2   -1    0    0    0  501  0.00000000000E+00  0.00000000000E+00  0.13807840865E+04  0.13807840865E+04  0.25500000920E-02 0. -1.
        2   -1    0    0  501    0  0.00000000000E+00  0.00000000000E+00 -0.22174838702E+04  0.22174838702E+04  0.25500000920E-02 0.  1.
    10030    2    1    2    0    0  0.00000000000E+00  0.00000000000E+00 -0.83669978372E+03  0.35982679566E+04  0.34996379470E+04 0.  0.
        2    1    3    3  502    0  0.55162142555E+03 -0.37286287780E+02 -0.21253162378E+04  0.21960522706E+04  0.25500000920E-02 0.  1.
       -2    1    3    3    0  502 -0.55162142555E+03  0.37286287780E+02  0.12886164541E+04  0.14022156861E+04  0.25500000920E-02 0. -1.
</event>
<event>
 5   0  0.3554451E-08  0.3500086E+04  0.7818609E-02  0.8113770E-01
       -2   -1    0    0    0  501  0.00000000000E+00  0.00000000000E+00  0.12032890098E+04  0.12032890098E+04  0.25500000920E-02 0.  1.
        2   -1    0    0  501    0  0.00000000000E+00  0.00000000000E+00 -0.25452325609E+04  0.25452325609E+04  0.25500000920E-02 0. -1.
    10030    2    1    2    0    0  0.00000000000E+00  0.00000000000E+00 -0.13419435511E+04  0.37485215707E+04  0.35000859235E+04 0.  0.
        5    1    3    3  502    0  0.13414206454E+04 -0.49019520360E+03  0.41221601236E+03  0.14864874088E+04  0.46999998093E+01 0.  1.
       -5    1    3    3    0  502 -0.13414206454E+04  0.49019520360E+03 -0.17541595635E+04  0.22620341619E+04  0.46999998093E+01 0. -1.
</event>
<event>
 5   0  0.1140808E-08  0.3500127E+04  0.7818609E-02  0.8113760E-01
        1   -1    0    0  501    0  0.00000000000E+00  0.00000000000E+00  0.19221867690E+04  0.19221867690E+04  0.50400001928E-02 0.  1.
       -1   -1    0    0    0  501  0.00000000000E+00  0.00000000000E+00 -0.15933529092E+04  0.15933529092E+04  0.50400001928E-02 0. -1.
    10030    2    1    2    0    0  0.00000000000E+00  0.00000000000E+00  0.32883385979E+03  0.35155396781E+04  0.35001267864E+04 0.  0.
        3    1    3    3  502    0  0.10624008714E+04  0.13243636020E+04  0.59065258990E+03  0.17976387440E+04  0.10100000352E+00 0.  1.
       -3    1    3    3    0  502 -0.10624008714E+04 -0.13243636020E+04 -0.26181873012E+03  0.17179009341E+04  0.10100000352E+00 0. -1.
</event>
<event>
 5   0  0.1121462E-08  0.3500446E+04  0.7818609E-02  0.8113684E-01
        1   -1    0    0  501    0  0.00000000000E+00  0.00000000000E+00  0.23400145741E+04  0.23400145741E+04  0.50400001928E-02 0. -1.
       -1   -1    0    0    0  501  0.00000000000E+00  0.00000000000E+00 -0.13090860202E+04  0.13090860202E+04  0.50400001928E-02 0.  1.
    10030    2    1    2    0    0  0.00000000000E+00  0.00000000000E+00  0.10309285540E+04  0.36491005943E+04  0.35004458950E+04 0.  0.
        1    1    3    3  502    0  0.12031381351E+04 -0.67534577947E+03  0.16380651723E+04  0.21417027811E+04  0.50400001928E-02 0. -1.
       -1    1    3    3    0  502 -0.12031381351E+04  0.67534577947E+03 -0.60713661830E+03  0.15073978132E+04  0.50400001928E-02 0.  1.
</event>
<event>
 5   0  0.1129219E-08  0.3500085E+04  0.7818609E-02  0.8113770E-01
        1   -1    0    0  501    0  0.00000000000E+00  0.00000000000E+00  0.16899236836E+04  0.16899236836E+04  0.50400001928E-02 0. -1.
       -1   -1    0    0    0  501  0.00000000000E+00  0.00000000000E+00 -0.18123002907E+04  0.18123002907E+04  0.50400001928E-02 0.  1.
    10030    2    1    2    0    0  0.00000000000E+00  0.00000000000E+00 -0.12237660711E+03  0.35022239744E+04  0.35000852465E+04 0.  0.
        5    1    3    3  502    0 -0.70806877567E+03 -0.82060110883E+03 -0.14360291691E+04  0.17991524214E+04  0.46999998093E+01 0.  1.
       -5    1    3    3    0  502  0.70806877567E+03  0.82060110883E+03  0.13136525620E+04  0.17030715530E+04  0.46999998093E+01 0. -1.
</event>
<event>
 5   0  0.1140808E-08  0.3499552E+04  0.7818609E-02  0.8113896E-01
       -1   -1    0    0    0  501  0.00000000000E+00  0.00000000000E+00  0.15954320143E+04  0.15954320143E+04  0.50400001928E-02 0.  1.
        1   -1    0    0  501    0  0.00000000000E+00  0.00000000000E+00 -0.19190518216E+04  0.19190518216E+04  0.50400001928E-02 0. -1.
    10030    2    1    2    0    0  0.00000000000E+00  0.00000000000E+00 -0.32361980730E+03  0.35144838359E+04  0.34995523790E+04 0.  0.
        3    1    3    3  502    0 -0.17076104813E+04  0.36886638642E+03 -0.62795441208E+02  0.17481244934E+04  0.10100000352E+00 0.  1.
       -3    1    3    3    0  502  0.17076104813E+04 -0.36886638642E+03 -0.26082436609E+03  0.17663593425E+04  0.10100000352E+00 0. -1.
</event>
<event>
 5   0  0.3554451E-08  0.3500076E+04  0.7818609E-02  0.8113772E-01
        2   -1    0    0  501    0  0.00000000000E+00  0.00000000000E+00  0.17570360445E+04  0.17570360445E+04  0.25500000920E-02 0.  1.
       -2   -1    0    0    0  501  0.00000000000E+00  0.00000000000E+00 -0.17430677721E+04  0.17430677721E+04  0.25500000920E-02 0. -1.
    10030    2    1    2    0    0  0.00000000000E+00  0.00000000000E+00  0.13968272364E+02  0.35001038166E+04  0.35000759441E+04 0.  0.
        5    1    3    3  502    0 -0.16280790887E+04 -0.65832153256E+02 -0.63148427675E+03  0.17475038980E+04  0.46999998093E+01 0. -1.
       -5    1    3    3    0  502  0.16280790887E+04  0.65832153256E+02  0.64545254911E+03  0.17525999186E+04  0.46999998093E+01 0.  1.
</event>
<event>
 5   0  0.3554451E-08  0.3501436E+04  0.7818609E-02  0.8113450E-01
        2   -1    0    0  501    0  0.00000000000E+00  0.00000000000E+00  0.10231112158E+04  0.10231112158E+04  0.25500000920E-02 0.  1.
       -2   -1    0    0    0  501  0.00000000000E+00  0.00000000000E+00 -0.29957782063E+04  0.29957782063E+04  0.25500000920E-02 0. -1.
    10030    2    1    2    0    0  0.00000000000E+00  0.00000000000E+00 -0.19726669905E+04  0.40188894221E+04  0.35014364384E+04 0.  0.
        5    1    3    3  502    0  0.11574889614E+04  0.10451497385E+02 -0.24938679004E+04  0.27494161424E+04  0.46999998093E+01 0. -1.
       -5    1    3    3    0  502 -0.11574889614E+04 -0.10451497385E+02  0.52120090989E+03  0.12694732797E+04  0.46999998093E+01 0.  1.
</event>
<event>
 5   0  0.1121462E-08  0.3507551E+04  0.7818609E-02  0.8112003E-01
        1   -1    0    0  501    0  0.00000000000E+00  0.00000000000E+00  0.15898562879E+04  0.15898562879E+04  0.50400001928E-02 0. -1.
       -1   -1    0    0    0  501  0.00000000000E+00  0.00000000000E+00 -0.19345957476E+04  0.19345957476E+04  0.50400001928E-02 0.  1.
    10030    2    1    2    0    0  0.00000000000E+00  0.00000000000E+00 -0.34473945973E+03  0.35244520355E+04  0.35075514045E+04 0.  0.
        1    1    3    3  502    0  0.36856856143E+03 -0.62001129587E+03 -0.17786567848E+04  0.19193427911E+04  0.50400001928E-02 0.  1.
       -1    1    3    3    0  502 -0.36856856143E+03  0.62001129587E+03  0.14339173251E+04  0.16051092445E+04  0.50400001928E-02 0. -1.
</event>
<event>
 5   0  0.1129219E-08  0.3500264E+04  0.7818609E-02  0.8113727E-01
       -1   -1    0    0    0  501  0.00000000000E+00  0.00000000000E+00  0.18303028279E+04  0.18303028279E+04  0.50400001928E-02 0.  1.
        1   -1    0    0  501    0  0.00000000000E+00  0.00000000000E+00 -0.16734728658E+04  0.16734728658E+04  0.50400001928E-02 0. -1.
    10030    2    1    2    0    0  0.00000000000E+00  0.00000000000E+00  0.15682996208E+03  0.35037756937E+04  0.35002640578E+04 0.  0.
        5    1    3    3  502    0 -0.71728651526E+03  0.23084394539E+03  0.16596044646E+04  0.18226623223E+04  0.46999998093E+01 0.  1.
       -5    1    3    3    0  502  0.71728651526E+03 -0.23084394539E+03 -0.15027745025E+04  0.16811133714E+04  0.46999998093E+01 0. -1.
</event>
<event>
 5   0  0.3467834E-08  0.3500711E+04  0.7818609E-02  0.8113621E-01
       -2   -1    0    0    0  501  0.00000000000E+00  0.00000000000E+00  0.25323114972E+04  0.25323114972E+04  0.25500000920E-02 0. -1.
        2   -1    0    0  501    0  0.00000000000E+00  0.00000000000E+00 -0.12098609608E+04  0.12098609608E+04  0.25500000920E-02 0.  1.
    10030    2    1    2    0    0  0.00000000000E+00  0.00000000000E+00  0.13224505364E+04  0.37421724580E+04  0.35007112541E+04 0.  0.
        3    1    3    3  502    0 -0.17364712765E+04  0.21260840814E+03  0.72178985894E+03  0.18924892179E+04  0.10100000352E+00 0. -1.
       -3    1    3    3    0  502  0.17364712765E+04 -0.21260840814E+03  0.60066067746E+03  0.18496832401E+04  0.10100000352E+00 0.  1.
</event>
<event>
 5   0  0.3554451E-08  0.3498282E+04  0.7818609E-02  0.8114197E-01
       -2   -1    0    0    0  501  0.00000000000E+00  0.00000000000E+00  0.89073388947E+03  0.89073388947E+03  0.25500000920E-02 0.  1.
        2   -1    0    0  501    0  0.00000000000E+00  0.00000000000E+00 -0.34348014150E+04  0.34348014150E+04  0.25500000920E-02 0. -1.
    10030    2    1    2    0    0  0.00000000000E+00  0.00000000000E+00 -0.25440675255E+04  0.43255353045E+04  0.34982818777E+04 0.  0.
        5    1    3    3  502    0 -0.30151377736E+02  0.50632418070E+03  0.79779549083E+03  0.94539569321E+03  0.46999998093E+01 0.  1.
       -5    1    3    3    0  502  0.30151377736E+02 -0.50632418070E+03 -0.33418630164E+04  0.33801396113E+04  0.46999998093E+01 0. -1.
</event>
<event>
 5   0  0.3700096E-08  0.3494250E+04  0.7818609E-02  0.8115154E-01
        2   -1    0    0  501    0  0.00000000000E+00  0.00000000000E+00  0.23199999512E+04  0.23199999512E+04  0.25500000920E-02 0. -1.
       -2   -1    0    0    0  501  0.00000000000E+00  0.00000000000E+00 -0.13157096533E+04  0.13157096533E+04  0.25500000920E-02 0.  1.
    10030    2    1    2    0    0  0.00000000000E+00  0.00000000000E+00  0.10042902979E+04  0.36357096045E+04  0.34942503239E+04 0.  0.
        4    1    3    3  502    0  0.55679613771E+03 -0.13790397731E+04 -0.45185509640E+03  0.15543317779E+04  0.12699999809E+01 0.  1.
       -4    1    3    3    0  502 -0.55679613771E+03  0.13790397731E+04  0.14561453943E+04  0.20813778266E+04  0.12699999809E+01 0. -1.
</event>
<event>
 5   0  0.1140808E-08  0.3501298E+04  0.7818609E-02  0.8113482E-01
       -1   -1    0    0    0  501  0.00000000000E+00  0.00000000000E+00  0.14495811078E+04  0.14495811078E+04  0.50400001928E-02 0.  1.
        1   -1    0    0  501    0  0.00000000000E+00  0.00000000000E+00 -0.21142464462E+04  0.21142464462E+04  0.50400001928E-02 0. -1.
    10030    2    1    2    0    0  0.00000000000E+00  0.00000000000E+00 -0.66466533838E+03  0.35638275540E+04  0.35012978769E+04 0.  0.
        3    1    3    3  502    0  0.10068428225E+04  0.87743643868E+03  0.81975806259E+03  0.15670451380E+04  0.10100000352E+00 0.  1.
       -3    1    3    3    0  502 -0.10068428225E+04 -0.87743643868E+03 -0.14844234010E+04  0.19967824160E+04  0.10100000352E+00 0. -1.
</event>
<event>
 5   0  0.1121462E-08  0.3500249E+04  0.7818609E-02  0.8113731E-01
       -1   -1    0    0    0  501  0.00000000000E+00  0.00000000000E+00  0.15611684982E+04  0.15611684982E+04  0.50400001928E-02 0. -1.
        1   -1    0    0  501    0  0.00000000000E+00  0.00000000000E+00 -0.19619502515E+04  0.19619502515E+04  0.50400001928E-02 0.  1.
    10030    2    1    2    0    0  0.00000000000E+00  0.00000000000E+00 -0.40078175336E+03  0.35231187497E+04  0.35002485213E+04 0.  0.
        4    1    3    3  502    0 -0.16670139908E+04  0.53291281075E+03 -0.20166613679E+03  0.17617044455E+04  0.12699999809E+01 0.  1.
       -4    1    3    3    0  502  0.16670139908E+04 -0.53291281075E+03 -0.19911561657E+03  0.17614143042E+04  0.12699999809E+01 0. -1.
</event>
<event>
 5   0  0.1121462E-08  0.3500905E+04  0.7818609E-02  0.8113575E-01
        1   -1    0    0  501    0  0.00000000000E+00  0.00000000000E+00  0.20102423918E+04  0.20102423918E+04  0.50400001928E-02 0.  1.
       -1   -1    0    0    0  501  0.00000000000E+00  0.00000000000E+00 -0.15242361877E+04  0.15242361877E+04  0.50400001928E-02 0. -1.
    10030    2    1    2    0    0  0.00000000000E+00  0.00000000000E+00  0.48600620412E+03  0.35344785794E+04  0.35009051398E+04 0.  0.
        4    1    3    3  502    0  0.11505441085E+04 -0.11044611822E+04  0.97137612095E+03  0.18673937533E+04  0.12699999809E+01 0.  1.
       -4    1    3    3    0  502 -0.11505441085E+04  0.11044611822E+04 -0.48536991683E+03  0.16670848262E+04  0.12699999809E+01 0. -1.
</event>
<event>
 5   0  0.1121462E-08  0.3501182E+04  0.7818609E-02  0.8113510E-01
       -1   -1    0    0    0  501  0.00000000000E+00  0.00000000000E+00  0.18044624348E+04  0.18044624348E+04  0.50400001928E-02 0.  1.
        1   -1    0    0  501    0  0.00000000000E+00  0.00000000000E+00 -0.16983278959E+04  0.16983278960E+04  0.50400001928E-02 0. -1.
    10030    2    1    2    0    0  0.00000000000E+00  0.00000000000E+00  0.10613453881E+03  0.35027903307E+04  0.35011820234E+04 0.  0.
        4    1    3    3  502    0  0.39569745193E+02 -0.29031605094E+03  0.17797563981E+04  0.18037138419E+04  0.12699999809E+01 0.  1.
       -4    1    3    3    0  502 -0.39569745193E+02  0.29031605094E+03 -0.16736218592E+04  0.16990764888E+04  0.12699999809E+01 0. -1.
</event>
<event>
 5   0  0.1121462E-08  0.3499701E+04  0.7818609E-02  0.8113861E-01
        1   -1    0    0  501    0  0.00000000000E+00  0.00000000000E+00  0.11067869116E+04  0.11067869116E+04  0.50400001928E-02 0.  1.
       -1   -1    0    0    0  501  0.00000000000E+00  0.00000000000E+00 -0.27665456714E+04  0.27665456714E+04  0.50400001928E-02 0. -1.
    10030    2    1    2    0    0  0.00000000000E+00  0.00000000000E+00 -0.16597587598E+04  0.38733325831E+04  0.34997008670E+04 0.  0.
        1    1    3    3  502    0  0.65968052862E+03  0.54111959541E+03 -0.25207218500E+04  0.26612078952E+04  0.50400001928E-02 0. -1.
       -1    1    3    3    0  502 -0.65968052862E+03 -0.54111959541E+03  0.86096309017E+03  0.12121246879E+04  0.50400001928E-02 0.  1.
</event>
<event>
 5   0  0.1129219E-08  0.3503370E+04  0.7818609E-02  0.8112992E-01
        1   -1    0    0  501    0  0.00000000000E+00  0.00000000000E+00  0.16795517710E+04  0.16795517710E+04  0.50400001928E-02 0. -1.
       -1   -1    0    0    0  501  0.00000000000E+00  0.00000000000E+00 -0.18269160792E+04  0.18269160792E+04  0.50400001928E-02 0.  1.
    10030    2    1    2    0    0  0.00000000000E+00  0.00000000000E+00 -0.14736430819E+03  0.35064678502E+04  0.35033698842E+04 0.  0.
        5    1    3    3  502    0  0.53759806892E+03 -0.71246492944E+03 -0.15822508848E+04  0.18166336758E+04  0.46999998093E+01 0.  1.
       -5    1    3    3    0  502 -0.53759806892E+03  0.71246492944E+03  0.14348865766E+04  0.16898341745E+04  0.46999998093E+01 0. -1.
</event>
<event>
 5   0  0.3700096E-08  0.3501410E+04  0.7818609E-02  0.8113456E-01
        2   -1    0    0  501    0  0.00000000000E+00  0.00000000000E+00  0.22286127248E+04  0.22286127248E+04  0.25500000920E-02 0. -1.
       -2   -1    0    0    0  501  0.00000000000E+00  0.00000000000E+00 -0.13752810550E+04  0.13752810550E+04  0.25500000920E-02 0.  1.
    10030    2    1    2    0    0  0.00000000000E+00  0.00000000000E+00  0.85333166980E+03  0.36038937798E+04  0.35014104926E+04 0.  0.
        4    1    3    3  502    0 -0.28728421339E+03  0.71755000190E+03  0.20434891086E+04  0.21847790676E+04  0.12699999809E+01 0. -1.
       -4    1    3    3    0  502  0.28728421339E+03 -0.71755000190E+03 -0.11901574388E+04  0.14191147122E+04  0.12699999809E+01 0.  1.
</event>
<event>
 5   0  0.1129219E-08  0.3500128E+04  0.7818609E-02  0.8113760E-01
        1   -1    0    0  501    0  0.00000000000E+00  0.00000000000E+00  0.24629253226E+04  0.24629253226E+04  0.50400001928E-02 0. -1.
       -1   -1    0    0    0  501  0.00000000000E+00  0.00000000000E+00 -0.12435311922E+04  0.12435311922E+04  0.50400001928E-02 0.  1.
    10030    2    1    2    0    0  0.00000000000E+00  0.00000000000E+00  0.12193941304E+04  0.37064565148E+04  0.35001282621E+04 0.  0.
        5    1    3    3  502    0  0.94302857550E+02 -0.78396346706E+03 -0.10441662021E+04  0.13091206569E+04  0.46999998093E+01 0.  1.
       -5    1    3    3    0  502 -0.94302857550E+02  0.78396346706E+03  0.22635603325E+04  0.23973358579E+04  0.46999998093E+01 0. -1.
</event>
<event>
 5   0  0.3700096E-08  0.3497061E+04  0.7818609E-02  0.8114487E-01
       -2   -1    0    0    0  501  0.00000000000E+00  0.00000000000E+00  0.16057578702E+04  0.16057578702E+04  0.25500000920E-02 0. -1.
        2   -1    0    0  501    0  0.00000000000E+00  0.00000000000E+00 -0.19039977530E+04  0.19039977530E+04  0.25500000920E-02 0.  1.
    10030    2    1    2    0    0  0.00000000000E+00  0.00000000000E+00 -0.29823988280E+03  0.35097556232E+04  0.34970612672E+04 0.  0.
        4    1    3    3  502    0 -0.17327427037E+04 -0.22797080850E+03 -0.94242419446E+02  0.17502146192E+04  0.12699999809E+01 0. -1.
       -4    1    3    3    0  502  0.17327427037E+04  0.22797080850E+03 -0.20399746336E+03  0.17595410040E+04  0.12699999809E+01 0.  1.
</event>
<event>
 5   0  0.1121462E-08  0.3498831E+04  0.7818609E-02  0.8114067E-01
       -1   -1    0    0    0  501  0.00000000000E+00  0.00000000000E+00  0.17083029753E+04  0.17083029753E+04  0.50400001928E-02 0.  1.
        1   -1    0    0  501    0  0.00000000000E+00  0.00000000000E+00 -0.17915178890E+04  0.17915178890E+04  0.50400001928E-02 0. -1.
    10030    2    1    2    0    0  0.00000000000E+00  0.00000000000E+00 -0.83214913687E+02  0.34998208643E+04  0.34988314278E+04 0.  0.
        1    1    3    3  502    0  0.38972111413E+03 -0.10857147588E+04  0.12739816637E+04  0.17186297925E+04  0.50400001928E-02 0.  1.
       -1    1    3    3    0  502 -0.38972111413E+03  0.10857147588E+04 -0.13571965774E+04  0.17811910717E+04  0.50400001928E-02 0. -1.
</event>
<event>
 5   0  0.3628017E-08  0.3500204E+04  0.7818609E-02  0.8113742E-01
        2   -1    0    0  501    0  0.00000000000E+00  0.00000000000E+00  0.11546912987E+04  0.11546912987E+04  0.25500000920E-02 0.  1.
       -2   -1    0    0    0  501  0.00000000000E+00  0.00000000000E+00 -0.26525328727E+04  0.26525328727E+04  0.25500000920E-02 0. -1.
    10030    2    1    2    0    0  0.00000000000E+00  0.00000000000E+00 -0.14978415740E+04  0.38072241714E+04  0.35002037813E+04 0.  0.
        1    1    3    3  502    0 -0.68361520684E+03  0.13718160670E+04  0.16995542898E+03  0.15421069744E+04  0.50400001928E-02 0.  1.
       -1    1    3    3    0  502  0.68361520684E+03 -0.13718160670E+04 -0.16677970030E+04  0.22651171970E+04  0.50400001928E-02 0. -1.
</event>
<event>
 5   0  0.1140808E-08  0.3502757E+04  0.7818609E-02  0.8113137E-01
        1   -1    0    0  501    0  0.00000000000E+00  0.00000000000E+00  0.13096914033E+04  0.13096914033E+04  0.50400001928E-02 0. -1.
       -1   -1    0    0    0  501  0.00000000000E+00  0.00000000000E+00 -0.23420229900E+04  0.23420229900E+04  0.50400001928E-02 0.  1.
    10030    2    1    2    0    0  0.00000000000E+00  0.00000000000E+00 -0.10323315867E+04  0.36517143934E+04  0.35027574147E+04 0.  0.
        3    1    3    3  502    0  0.42084650272E+03 -0.15434072630E+04  0.22696532183E+03  0.16157756732E+04  0.10100000352E+00 0.  1.
       -3    1    3    3    0  502 -0.42084650272E+03  0.15434072630E+04 -0.12592969085E+04  0.20359387202E+04  0.10100000352E+00 0. -1.
</event>
<event>
 5   0  0.3553585E-08  0.3502197E+04  0.7818609E-02  0.8113269E-01
        2   -1    0    0  501    0  0.00000000000E+00  0.00000000000E+00  0.13725459125E+04  0.13725459125E+04  0.25500000920E-02 0. -1.
       -2   -1    0    0    0  501  0.00000000000E+00  0.00000000000E+00 -0.22340577484E+04  0.22340577484E+04  0.25500000920E-02 0.  1.
    10030    2    1    2    0    0  0.00000000000E+00  0.00000000000E+00 -0.86151183589E+03  0.36066036609E+04  0.35021974993E+04 0.  0.
        2    1    3    3  502    0 -0.93084471913E+03 -0.14650030991E+04 -0.19224643600E+03  0.17463289105E+04  0.25500000920E-02 0. -1.
       -2    1    3    3    0  502  0.93084471913E+03  0.14650030991E+04 -0.66926539989E+03  0.18602747504E+04  0.25500000920E-02 0.  1.
</event>
<event>
 5   0  0.1121462E-08  0.3499854E+04  0.7818609E-02  0.8113824E-01
        1   -1    0    0  501    0  0.00000000000E+00  0.00000000000E+00  0.23278410646E+04  0.23278410646E+04  0.50400001928E-02 0. -1.
       -1   -1    0    0    0  501  0.00000000000E+00  0.00000000000E+00 -0.13154872488E+04  0.13154872488E+04  0.50400001928E-02 0.  1.
    10030    2    1    2    0    0  0.00000000000E+00  0.00000000000E+00  0.10123538158E+04  0.36433283133E+04  0.34998544185E+04 0.  0.
        1    1    3    3  502    0  0.53956120845E+03 -0.10478705313E+04 -0.84032663160E+03  0.14475178050E+04  0.50400001928E-02 0.  1.
       -1    1    3    3    0  502 -0.53956120845E+03  0.10478705313E+04  0.18526804474E+04  0.21958105083E+04  0.50400001928E-02 0. -1.
</event>
<event>
 5   0  0.1129219E-08  0.3500797E+04  0.7818609E-02  0.8113601E-01
       -1   -1    0    0    0  501  0.00000000000E+00  0.00000000000E+00  0.17633936109E+04  0.17633936109E+04  0.50400001928E-02 0.  1.
        1   -1    0    0  501    0  0.00000000000E+00  0.00000000000E+00 -0.17374989775E+04  0.17374989775E+04  0.50400001928E-02 0. -1.
    10030    2    1    2    0    0  0.00000000000E+00  0.00000000000E+00  0.25894633456E+02  0.35008925884E+04  0.35007968212E+04 0.  0.
        5    1    3    3  502    0 -0.87193006019E+03  0.14391403025E+04 -0.46923354721E+03  0.17468798047E+04  0.46999998093E+01 0. -1.
       -5    1    3    3    0  502  0.87193006019E+03 -0.14391403025E+04  0.49512818066E+03  0.17540127837E+04  0.46999998093E+01 0.  1.
</event>
<event>
 5   0  0.1121462E-08  0.3505149E+04  0.7818609E-02  0.8112571E-01
       -1   -1    0    0    0  501  0.00000000000E+00  0.00000000000E+00  0.16636206820E+04  0.16636206820E+04  0.50400001928E-02 0.  1.
        1   -1    0    0  501    0  0.00000000000E+00  0.00000000000E+00 -0.18462849549E+04  0.18462849549E+04  0.50400001928E-02 0. -1.
    10030    2    1    2    0    0  0.00000000000E+00  0.00000000000E+00 -0.18266427290E+03  0.35099056368E+04  0.35051492611E+04 0.  0.
        1    1    3    3  502    0 -0.16042166346E+04  0.63747429095E+03 -0.39445291954E+03  0.17707279825E+04  0.50400001928E-02 0. -1.
       -1    1    3    3    0  502  0.16042166346E+04 -0.63747429095E+03  0.21178864663E+03  0.17391776543E+04  0.50400001928E-02 0.  1.
</event>
<event>
 5   0  0.3554451E-08  0.3499614E+04  0.7818609E-02  0.8113881E-01
       -2   -1    0    0    0  501  0.00000000000E+00  0.00000000000E+00  0.16689543826E+04  0.16689543826E+04  0.25500000920E-02 0. -1.
        2   -1    0    0  501    0  0.00000000000E+00  0.00000000000E+00 -0.18345762125E+04  0.18345762125E+04  0.25500000920E-02 0.  1.
    10030    2    1    2    0    0  0.00000000000E+00  0.00000000000E+00 -0.16562182995E+03  0.35035305951E+04  0.34996136987E+04 0.  0.
        5    1    3    3  502    0  0.17197310175E+04 -0.17484713588E+03  0.18907291847E+03  0.17389125775E+04  0.46999998093E+01 0.  1.
       -5    1    3    3    0  502 -0.17197310175E+04  0.17484713588E+03 -0.35469474842E+03  0.17646180176E+04  0.46999998093E+01 0. -1.
</event>
<event>
 5   0  0.3467834E-08  0.3504066E+04  0.7818609E-02  0.8112827E-01
        2   -1    0    0  501    0  0.00000000000E+00  0.00000000000E+00  0.15265633649E+04  0.15265633649E+04  0.25500000920E-02 0. -1.
       -2   -1    0    0    0  501  0.00000000000E+00  0.00000000000E+00 -0.20108035352E+04  0.20108035352E+04  0.25500000920E-02 0.  1.
    10030    2    1    2    0    0  0.00000000000E+00  0.00000000000E+00 -0.48424017036E+03  0.35373669001E+04  0.35040656449E+04 0.  0.
        3    1    3    3  502    0  0.16316345653E+04  0.45096769133E+03  0.21385358126E+03  0.17062639239E+04  0.10100000352E+00 0. -1.
       -3    1    3    3    0  502 -0.16316345653E+04 -0.45096769133E+03 -0.69809375162E+03  0.18311029763E+04  0.10100000352E+00 0.  1.
</event>
<event>
 5   0  0.3628017E-08  0.3500270E+04  0.7818609E-02  0.8113726E-01
       -2   -1    0    0    0  501  0.00000000000E+00  0.00000000000E+00  0.11081813200E+04  0.11081813200E+04  0.25500000920E-02 0.  1.
        2   -1    0    0  501    0  0.00000000000E+00  0.00000000000E+00 -0.27639638531E+04  0.27639638531E+04  0.25500000920E-02 0. -1.
    10030    2    1    2    0    0  0.00000000000E+00  0.00000000000E+00 -0.16557825331E+04  0.38721451730E+04  0.35002703387E+04 0.  0.
        1    1    3    3  502    0 -0.29513466053E+03  0.10756401013E+04 -0.23198283786E+04  0.25740454156E+04  0.50400001928E-02 0. -1.
       -1    1    3    3    0  502  0.29513466053E+03 -0.10756401013E+04  0.66404584549E+03  0.12980997575E+04  0.50400001928E-02 0.  1.
</event>
<event>
 5   0  0.1121462E-08  0.3497927E+04  0.7818609E-02  0.8114281E-01
        1   -1    0    0  501    0  0.00000000000E+00  0.00000000000E+00  0.17457585381E+04  0.17457585381E+04  0.50400001928E-02 0. -1.
       -1   -1    0    0    0  501  0.00000000000E+00  0.00000000000E+00 -0.17521743782E+04  0.17521743782E+04  0.50400001928E-02 0.  1.
    10030    2    1    2    0    0  0.00000000000E+00  0.00000000000E+00 -0.64158401429E+01  0.34979329163E+04  0.34979270324E+04 0.  0.
        2    1    3    3  502    0 -0.92678159768E+03  0.76202467690E+03  0.12692986970E+04  0.17466324514E+04  0.25500000920E-02 0. -1.
       -2    1    3    3    0  502  0.92678159768E+03 -0.76202467690E+03 -0.12757145372E+04  0.17513004649E+04  0.25500000920E-02 0.  1.
</event>
<event>
 5   0  0.1121462E-08  0.3498204E+04  0.7818609E-02  0.8114216E-01
       -1   -1    0    0    0  501  0.00000000000E+00  0.00000000000E+00  0.18216354628E+04  0.18216354628E+04  0.50400001928E-02 0. -1.
        1   -1    0    0  501    0  0.00000000000E+00  0.00000000000E+00 -0.16794564322E+04  0.16794564322E+04  0.50400001928E-02 0.  1.
    10030    2    1    2    0    0  0.00000000000E+00  0.00000000000E+00  0.14217903057E+03  0.35010918951E+04  0.34982037649E+04 0.  0.
        1    1    3    3  502    0 -0.14731255994E+04  0.94025107707E+03 -0.98574362639E+00  0.17476189777E+04  0.50400001928E-02 0.  1.
       -1    1    3    3    0  502  0.14731255994E+04 -0.94025107707E+03  0.14316477420E+03  0.17534729174E+04  0.50400001928E-02 0. -1.
</event>
<event>
 5   0  0.3554451E-08  0.3499631E+04  0.7818609E-02  0.8113877E-01
       -2   -1    0    0    0  501  0.00000000000E+00  0.00000000000E+00  0.11721930956E+04  0.11721930956E+04  0.25500000920E-02 0. -1.
        2   -1    0    0  501    0  0.00000000000E+00  0.00000000000E+00 -0.26120733892E+04  0.26120733892E+04  0.25500000920E-02 0.  1.
    10030    2    1    2    0    0  0.00000000000E+00  0.00000000000E+00 -0.14398802937E+04  0.37842664848E+04  0.34996310617E+04 0.  0.
        5    1    3    3  502    0  0.16767601438E+04 -0.24092444785E+03 -0.24579920729E+03  0.17117267626E+04  0.46999998093E+01 0.  1.
       -5    1    3    3    0  502 -0.16767601438E+04  0.24092444785E+03 -0.11940810864E+04  0.20725397222E+04  0.46999998093E+01 0. -1.
</event>
<event>
 5   0  0.1129219E-08  0.3500333E+04  0.7818609E-02  0.8113711E-01
        1   -1    0    0  501    0  0.00000000000E+00  0.00000000000E+00  0.14258710733E+04  0.14258710733E+04  0.50400001928E-02 0. -1.
       -1   -1    0    0    0  501  0.00000000000E+00  0.00000000000E+00 -0.21482180325E+04  0.21482180325E+04  0.50400001928E-02 0.  1.
    10030    2    1    2    0    0  0.00000000000E+00  0.00000000000E+00 -0.72234695921E+03  0.35740891058E+04  0.35003325280E+04 0.  0.
        5    1    3    3  502    0 -0.33431033872E+03 -0.71662038596E+02  0.13914325877E+04  0.14328313182E+04  0.46999998093E+01 0. -1.
       -5    1    3    3    0  502  0.33431033872E+03  0.71662038596E+02 -0.21137795469E+04  0.21412577876E+04  0.46999998093E+01 0.  1.
</event>
<event>
 5   0  0.1121462E-08  0.3500554E+04  0.7818609E-02  0.8113659E-01
       -1   -1    0    0    0  501  0.00000000000E+00  0.00000000000E+00  0.22280663763E+04  0.22280663763E+04  0.50400001928E-02 0.  1.
        1   -1    0    0  501    0  0.00000000000E+00  0.00000000000E+00 -0.13749454438E+04  0.13749454439E+04  0.50400001928E-02 0. -1.
    10030    2    1    2    0    0  0.00000000000E+00  0.00000000000E+00  0.85312093241E+03  0.36030118201E+04  0.35005540776E+04 0.  0.
        4    1    3    3  502    0 -0.13032359522E+03 -0.68417054700E+03 -0.12261758903E+04  0.14101710902E+04  0.12699999809E+01 0. -1.
       -4    1    3    3    0  502  0.13032359522E+03  0.68417054700E+03  0.20792968227E+04  0.21928407299E+04  0.12699999809E+01 0.  1.
</event>
<event>
 5   0  0.3554451E-08  0.3505362E+04  0.7818609E-02  0.8112520E-01
        2   -1    0    0  501    0  0.00000000000E+00  0.00000000000E+00  0.26122933150E+04  0.26122933150E+04  0.25500000920E-02 0.  1.
       -2   -1    0    0    0  501  0.00000000000E+00  0.00000000000E+00 -0.11759362839E+04  0.11759362839E+04  0.25500000920E-02 0. -1.
    10030    2    1    2    0    0  0.00000000000E+00  0.00000000000E+00  0.14363570311E+04  0.37882295989E+04  0.35053618890E+04 0.  0.
        5    1    3    3  502    0  0.69091114741E+02  0.78559011965E+03  0.24097152018E+04  0.25354831614E+04  0.46999998093E+01 0.  1.
       -5    1    3    3    0  502 -0.69091114741E+02 -0.78559011965E+03 -0.97335817064E+03  0.12527464375E+04  0.46999998093E+01 0. -1.
</event>
<event>
 5   0  0.1121462E-08  0.3497474E+04  0.7818609E-02  0.8114389E-01
        3   -1    0    0  501    0  0.00000000000E+00  0.00000000000E+00  0.15840504373E+04  0.15840504406E+04  0.10100000352E+00 0.  1.
       -3   -1    0    0    0  501  0.00000000000E+00  0.00000000000E+00 -0.19305453913E+04  0.19305453939E+04  0.10100000352E+00 0. -1.
    10030    2    1    2    0    0  0.00000000000E+00  0.00000000000E+00 -0.34649495396E+03  0.35145958345E+04  0.34974741066E+04 0.  0.
        3    1    3    3  502    0 -0.86055421210E+03  0.10962733987E+04 -0.12346912735E+04  0.18619429281E+04  0.10100000352E+00 0. -1.
       -3    1    3    3    0  502  0.86055421210E+03 -0.10962733987E+04  0.88819631955E+03  0.16526529063E+04  0.10100000352E+00 0.  1.
</event>
<event>
 5   0  0.3554451E-08  0.3499654E+04  0.7818609E-02  0.8113872E-01
        2   -1    0    0  501    0  0.00000000000E+00  0.00000000000E+00  0.10871332610E+04  0.10871332610E+04  0.25500000920E-02 0. -1.
       -2   -1    0    0    0  501  0.00000000000E+00  0.00000000000E+00 -0.28164847944E+04  0.28164847944E+04  0.25500000920E-02 0.  1.
    10030    2    1    2    0    0  0.00000000000E+00  0.00000000000E+00 -0.17293515334E+04  0.39036180554E+04  0.34996538681E+04 0.  0.
        5    1    3    3  502    0 -0.16500906449E+04  0.22506789130E+02 -0.21564657858E+03  0.16642809946E+04  0.46999998093E+01 0.  1.
       -5    1    3    3    0  502  0.16500906449E+04 -0.22506789130E+02 -0.15137049548E+04  0.22393370609E+04  0.46999998093E+01 0. -1.
</event>
<event>
 5   0  0.3700096E-08  0.3500313E+04  0.7818609E-02  0.8113716E-01
        2   -1    0    0  501    0  0.00000000000E+00  0.00000000000E+00  0.21207388740E+04  0.21207388740E+04  0.25500000920E-02 0.  1.
       -2   -1    0    0    0  501  0.00000000000E+00  0.00000000000E+00 -0.14443307921E+04  0.14443307921E+04  0.25500000920E-02 0. -1.
    10030    2    1    2    0    0  0.00000000000E+00  0.00000000000E+00  0.67640808186E+03  0.35650696661E+04  0.35003133904E+04 0.  0.
        4    1    3    3  502    0 -0.40243273468E+03 -0.60021883301E+03  0.19616920099E+04  0.20905625817E+04  0.12699999809E+01 0.  1.
       -4    1    3    3    0  502  0.40243273468E+03  0.60021883301E+03 -0.12852839280E+04  0.14745070844E+04  0.12699999809E+01 0. -1.
</event>
<event>
 5   0  0.3628017E-08  0.3502490E+04  0.7818609E-02  0.8113200E-01
        2   -1    0    0  501    0  0.00000000000E+00  0.00000000000E+00  0.29893071559E+04  0.29893071559E+04  0.25500000920E-02 0.  1.
       -2   -1    0    0    0  501  0.00000000000E+00  0.00000000000E+00 -0.10259433683E+04  0.10259433683E+04  0.25500000920E-02 0. -1.
    10030    2    1    2    0    0  0.00000000000E+00  0.00000000000E+00  0.19633637876E+04  0.40152505242E+04  0.35024904581E+04 0.  0.
        1    1    3    3  502    0  0.14263988432E+04  0.69542657170E+03  0.13255088473E+03  0.15924200179E+04  0.50400001928E-02 0. -1.
       -1    1    3    3    0  502 -0.14263988432E+04 -0.69542657170E+03  0.18308129029E+04  0.24228305062E+04  0.50400001928E-02 0.  1.
</event>
<event>
 5   0  0.3628017E-08  0.3500579E+04  0.7818609E-02  0.8113653E-01
        2   -1    0    0  501    0  0.00000000000E+00  0.00000000000E+00  0.22224228346E+04  0.22224228346E+04  0.25500000920E-02 0.  1.
       -2   -1    0    0    0  501  0.00000000000E+00  0.00000000000E+00 -0.13784564073E+04  0.13784564073E+04  0.25500000920E-02 0. -1.
    10030    2    1    2    0    0  0.00000000000E+00  0.00000000000E+00  0.84396642731E+03  0.36008792419E+04  0.35005788071E+04 0.  0.
        1    1    3    3  502    0  0.54963411483E+03 -0.35779374029E+00  0.21313472173E+04  0.22010767249E+04  0.50400001928E-02 0.  1.
       -1    1    3    3    0  502 -0.54963411483E+03  0.35779374029E+00 -0.12873807900E+04  0.13998025170E+04  0.50400001928E-02 0. -1.
</event>
<event>
 5   0  0.1121462E-08  0.3498646E+04  0.7818609E-02  0.8114111E-01
        1   -1    0    0  501    0  0.00000000000E+00  0.00000000000E+00  0.18410210637E+04  0.18410210637E+04  0.50400001928E-02 0. -1.
       -1   -1    0    0    0  501  0.00000000000E+00  0.00000000000E+00 -0.16621918289E+04  0.16621918290E+04  0.50400001928E-02 0.  1.
    10030    2    1    2    0    0  0.00000000000E+00  0.00000000000E+00  0.17882923477E+03  0.35032128927E+04  0.34986455488E+04 0.  0.
        2    1    3    3  502    0 -0.21434559297E+03  0.16617056162E+04 -0.41415401515E+03  0.17259006740E+04  0.25500000920E-02 0.  1.
       -2    1    3    3    0  502  0.21434559297E+03 -0.16617056162E+04  0.59298324991E+03  0.17773122187E+04  0.25500000920E-02 0. -1.
</event>
<event>
 5   0  0.3628017E-08  0.3510839E+04  0.7818609E-02  0.8111226E-01
        2   -1    0    0  501    0  0.00000000000E+00  0.00000000000E+00  0.20634596003E+04  0.20634596003E+04  0.25500000920E-02 0.  1.
       -2   -1    0    0    0  501  0.00000000000E+00  0.00000000000E+00 -0.14933648435E+04  0.14933648435E+04  0.25500000920E-02 0. -1.
    10030    2    1    2    0    0  0.00000000000E+00  0.00000000000E+00  0.57009475680E+03  0.35568244438E+04  0.35108392290E+04 0.  0.
        1    1    3    3  502    0  0.34364023645E+03  0.15729112973E+04  0.99375235508E+03  0.18920048373E+04  0.50400001928E-02 0.  1.
       -1    1    3    3    0  502 -0.34364023645E+03 -0.15729112973E+04 -0.42365759828E+03  0.16648196064E+04  0.50400001928E-02 0. -1.
</event>
<event>
 5   0  0.1129219E-08  0.3499766E+04  0.7818609E-02  0.8113845E-01
        1   -1    0    0  501    0  0.00000000000E+00  0.00000000000E+00  0.21328063412E+04  0.21328063412E+04  0.50400001928E-02 0.  1.
       -1   -1    0    0    0  501  0.00000000000E+00  0.00000000000E+00 -0.14357094235E+04  0.14357094236E+04  0.50400001928E-02 0. -1.
    10030    2    1    2    0    0  0.00000000000E+00  0.00000000000E+00  0.69709691766E+03  0.35685157648E+04  0.34997657994E+04 0.  0.
        5    1    3    3  502    0 -0.66708921770E+03 -0.14077980049E+04 -0.46407968031E+03  0.16255138531E+04  0.46999998093E+01 0. -1.
       -5    1    3    3    0  502  0.66708921770E+03  0.14077980049E+04  0.11611765980E+04  0.19430019117E+04  0.46999998093E+01 0.  1.
</event>
<event>
 5   0  0.1140808E-08  0.3500115E+04  0.7818609E-02  0.8113763E-01
       -1   -1    0    0    0  501  0.00000000000E+00  0.00000000000E+00  0.19555113344E+04  0.19555113344E+04  0.50400001928E-02 0.  1.
        1   -1    0    0  501    0  0.00000000000E+00  0.00000000000E+00 -0.15661891916E+04  0.15661891916E+04  0.50400001928E-02 0. -1.
    10030    2    1    2    0    0  0.00000000000E+00  0.00000000000E+00  0.38932214280E+03  0.35217005260E+04  0.35001146930E+04 0.  0.
        3    1    3    3  502    0  0.12859943609E+04  0.67546780225E+03  0.11767248018E+04  0.18694168924E+04  0.10100000352E+00 0. -1.
       -3    1    3    3    0  502 -0.12859943609E+04 -0.67546780225E+03 -0.78740265902E+03  0.16522836336E+04  0.10100000352E+00 0.  1.
</event>
<event>
 5   0  0.3700096E-08  0.3508643E+04  0.7818609E-02  0.8111745E-01
       -2   -1    0    0    0  501  0.00000000000E+00  0.00000000000E+00  0.13771239227E+04  0.13771239227E+04  0.25500000920E-02 0. -1.
        2   -1    0    0  501    0  0.00000000000E+00  0.00000000000E+00 -0.22348347728E+04  0.22348347728E+04  0.25500000920E-02 0.  1.
    10030    2    1    2    0    0  0.00000000000E+00  0.00000000000E+00 -0.85771085015E+03  0.36119586955E+04  0.35086432870E+04 0.  0.
        4    1    3    3  502    0 -0.14143410076E+04 -0.98530317604E+03 -0.92965674646E+02  0.17262175599E+04  0.12699999809E+01 0.  1.
       -4    1    3    3    0  502  0.14143410076E+04  0.98530317604E+03 -0.76474517551E+03  0.18857411357E+04  0.12699999809E+01 0. -1.
</event>
<event>
 5   0  0.1121462E-08  0.3498939E+04  0.7818609E-02  0.8114041E-01
        1   -1    0    0  501    0  0.00000000000E+00  0.00000000000E+00  0.18453511985E+04  0.18453511985E+04  0.50400001928E-02 0. -1.
       -1   -1    0    0    0  501  0.00000000000E+00  0.00000000000E+00 -0.16585698754E+04  0.16585698754E+04  0.50400001928E-02 0.  1.
    10030    2    1    2    0    0  0.00000000000E+00  0.00000000000E+00  0.18678132312E+03  0.35039210738E+04  0.34989392148E+04 0.  0.
        1    1    3    3  502    0  0.41680579712E+03 -0.40320391490E+03  0.17462992825E+04  0.18400711001E+04  0.50400001928E-02 0. -1.
       -1    1    3    3    0  502 -0.41680579712E+03  0.40320391490E+03 -0.15595179594E+04  0.16638499737E+04  0.50400001928E-02 0.  1.
</event>
<event>
 5   0  0.3467834E-08  0.3497889E+04  0.7818609E-02  0.8114291E-01
       -2   -1    0    0    0  501  0.00000000000E+00  0.00000000000E+00  0.15190445323E+04  0.15190445323E+04  0.25500000920E-02 0. -1.
        2   -1    0    0  501    0  0.00000000000E+00  0.00000000000E+00 -0.20136381312E+04  0.20136381312E+04  0.25500000920E-02 0.  1.
    10030    2    1    2    0    0  0.00000000000E+00  0.00000000000E+00 -0.49459359890E+03  0.35326826636E+04  0.34978885021E+04 0.  0.
        3    1    3    3  502    0  0.49223126136E+03  0.13714068105E+04  0.72967128514E+03  0.16295608148E+04  0.10100000352E+00 0. -1.
       -3    1    3    3    0  502 -0.49223126136E+03 -0.13714068105E+04 -0.12242648840E+04  0.19031218487E+04  0.10100000352E+00 0.  1.
</event>
<event>
 5   0  0.3467834E-08  0.3499170E+04  0.7818609E-02  0.8113987E-01
        2   -1    0    0  501    0  0.00000000000E+00  0.00000000000E+00  0.18827401772E+04  0.18827401772E+04  0.25500000920E-02 0.  1.
       -2   -1    0    0    0  501  0.00000000000E+00  0.00000000000E+00 -0.16258474225E+04  0.16258474225E+04  0.25500000920E-02 0. -1.
    10030    2    1    2    0    0  0.00000000000E+00  0.00000000000E+00  0.25689275473E+03  0.35085875997E+04  0.34991703384E+04 0.  0.
        3    1    3    3  502    0 -0.15862472257E+04 -0.70843020544E+03  0.33635590154E+03  0.17695165779E+04  0.10100000352E+00 0.  1.
       -3    1    3    3    0  502  0.15862472257E+04  0.70843020544E+03 -0.79463146812E+02  0.17390710218E+04  0.10100000352E+00 0. -1.
</event>
<event>
 5   0  0.3467834E-08  0.3500804E+04  0.7818609E-02  0.8113599E-01
        2   -1    0    0  501    0  0.00000000000E+00  0.00000000000E+00  0.21860461951E+04  0.21860461951E+04  0.25500000920E-02 0.  1.
       -2   -1    0    0    0  501  0.00000000000E+00  0.00000000000E+00 -0.14015750081E+04  0.14015750081E+04  0.25500000920E-02 0. -1.
    10030    2    1    2    0    0  0.00000000000E+00  0.00000000000E+00  0.78447118696E+03  0.35876212032E+04  0.35008043153E+04 0.  0.
        3    1    3    3  502    0 -0.37453315373E+03 -0.17094195652E+04  0.35231614665E+03  0.17850817938E+04  0.10100000352E+00 0. -1.
       -3    1    3    3    0  502  0.37453315373E+03  0.17094195652E+04  0.43215504032E+03  0.18025394093E+04  0.10100000352E+00 0.  1.
</event>
<event>
 5   0  0.1121462E-08  0.3499836E+04  0.7818609E-02  0.8113829E-01
       -1   -1    0    0    0  501  0.00000000000E+00  0.00000000000E+00  0.15759158311E+04  0.15759158311E+04  0.50400001928E-02 0.  1.
        1   -1    0    0  501    0  0.00000000000E+00  0.00000000000E+00 -0.19431323490E+04  0.19431323491E+04  0.50400001928E-02 0. -1.
    10030    2    1    2    0    0  0.00000000000E+00  0.00000000000E+00 -0.36721651798E+03  0.35190481801E+04  0.34998360137E+04 0.  0.
        2    1    3    3  502    0  0.17286422926E+04  0.79612232187E+02 -0.44517227942E+03  0.17868185810E+04  0.25500000920E-02 0. -1.
       -2    1    3    3    0  502 -0.17286422926E+04 -0.79612232187E+02  0.77955761435E+02  0.17322295991E+04  0.25500000920E-02 0.  1.
</event>
<event>
 5   0  0.3554451E-08  0.3499557E+04  0.7818609E-02  0.8113895E-01
        2   -1    0    0  501    0  0.00000000000E+00  0.00000000000E+00  0.10696865504E+04  0.10696865504E+04  0.25500000920E-02 0. -1.
       -2   -1    0    0    0  501  0.00000000000E+00  0.00000000000E+00 -0.28622627864E+04  0.28622627864E+04  0.25500000920E-02 0.  1.
    10030    2    1    2    0    0  0.00000000000E+00  0.00000000000E+00 -0.17925762360E+04  0.39319493367E+04  0.34995565469E+04 0.  0.
        5    1    3    3  502    0  0.74752958596E+03  0.15695306900E+04 -0.11195194382E+04  0.20677458575E+04  0.46999998093E+01 0.  1.
       -5    1    3    3    0  502 -0.74752958596E+03 -0.15695306900E+04 -0.67305679777E+03  0.18642034792E+04  0.46999998093E+01 0. -1.
</event>
<event>
 5   0  0.3554451E-08  0.3496308E+04  0.7818609E-02  0.8114665E-01
        2   -1    0    0  501    0  0.00000000000E+00  0.00000000000E+00  0.23133751432E+04  0.23133751432E+04  0.25500000920E-02 0.  1.
       -2   -1    0    0    0  501  0.00000000000E+00  0.00000000000E+00 -0.13210322552E+04  0.13210322552E+04  0.25500000920E-02 0. -1.
    10030    2    1    2    0    0  0.00000000000E+00  0.00000000000E+00  0.99234288800E+03  0.36344073983E+04  0.34963084431E+04 0.  0.
        5    1    3    3  502    0 -0.17281248989E+04 -0.38963642971E+02  0.76741335753E+03  0.18912639115E+04  0.46999998093E+01 0.  1.
       -5    1    3    3    0  502  0.17281248989E+04  0.38963642971E+02  0.22492953046E+03  0.17431434868E+04  0.46999998093E+01 0. -1.
</event>
<event>
 5   0  0.3700096E-08  0.3499126E+04  0.7818609E-02  0.8113997E-01
       -2   -1    0    0    0  501  0.00000000000E+00  0.00000000000E+00  0.11580866718E+04  0.11580866718E+04  0.25500000920E-02 0.  1.
        2   -1    0    0  501    0  0.00000000000E+00  0.00000000000E+00 -0.26431269996E+04  0.26431269996E+04  0.25500000920E-02 0. -1.
    10030    2    1    2    0    0  0.00000000000E+00  0.00000000000E+00 -0.14850403278E+04  0.38012136714E+04  0.34991256909E+04 0.  0.
        4    1    3    3  502    0 -0.43558036576E+02 -0.11064218960E+04 -0.22140502834E+04  0.24754973207E+04  0.12699999809E+01 0. -1.
       -4    1    3    3    0  502  0.43558036576E+02  0.11064218960E+04  0.72900995563E+03  0.13257163508E+04  0.12699999809E+01 0.  1.
</event>
<event>
 5   0  0.3700096E-08  0.3500198E+04  0.7818609E-02  0.8113743E-01
        2   -1    0    0  501    0  0.00000000000E+00  0.00000000000E+00  0.16025618272E+04  0.16025618272E+04  0.25500000920E-02 0. -1.
       -2   -1    0    0    0  501  0.00000000000E+00  0.00000000000E+00 -0.19112189348E+04  0.19112189348E+04  0.25500000920E-02 0.  1.
    10030    2    1    2    0    0  0.00000000000E+00  0.00000000000E+00 -0.30865710766E+03  0.35137807620E+04  0.35001979992E+04 0.  0.
        4    1    3    3  502    0  0.14806800746E+04  0.36418358324E+03 -0.10166156420E+04  0.18326352999E+04  0.12699999809E+01 0.  1.
       -4    1    3    3    0  502 -0.14806800746E+04 -0.36418358324E+03  0.70795853438E+03  0.16811454622E+04  0.12699999809E+01 0. -1.
</event>
<event>
 5   0  0.1121462E-08  0.3501997E+04  0.7818609E-02  0.8113317E-01
       -1   -1    0    0    0  501  0.00000000000E+00  0.00000000000E+00  0.17340860333E+04  0.17340860333E+04  0.50400001928E-02 0. -1.
        1   -1    0    0  501    0  0.00000000000E+00  0.00000000000E+00 -0.17680762348E+04  0.17680762348E+04  0.50400001928E-02 0.  1.
    10030    2    1    2    0    0  0.00000000000E+00  0.00000000000E+00 -0.33990201521E+02  0.35021622681E+04  0.35019973184E+04 0.  0.
        4    1    3    3  502    0  0.16704986328E+04  0.27778675903E+03  0.42829379795E+03  0.17467593870E+04  0.12699999809E+01 0. -1.
       -4    1    3    3    0  502 -0.16704986328E+04 -0.27778675903E+03 -0.46228399947E+03  0.17554028811E+04  0.12699999809E+01 0.  1.
</event>
<event>
 5   0  0.3467834E-08  0.3500090E+04  0.7818609E-02  0.8113769E-01
       -2   -1    0    0    0  501  0.00000000000E+00  0.00000000000E+00  0.20815436369E+04  0.20815436369E+04  0.25500000920E-02 0.  1.
        2   -1    0    0  501    0  0.00000000000E+00  0.00000000000E+00 -0.14713399598E+04  0.14713399598E+04  0.25500000920E-02 0. -1.
    10030    2    1    2    0    0  0.00000000000E+00  0.00000000000E+00  0.61020367703E+03  0.35528835967E+04  0.35000904737E+04 0.  0.
        3    1    3    3  502    0 -0.76838693338E+03 -0.15358507565E+04  0.64693377136E+03  0.18351510402E+04  0.10100000352E+00 0. -1.
       -3    1    3    3    0  502  0.76838693338E+03  0.15358507565E+04 -0.36730094331E+02  0.17177325565E+04  0.10100000352E+00 0.  1.
</event>
<event>
 5   0  0.1121462E-08  0.3499874E+04  0.7818609E-02  0.8113820E-01
        1   -1    0    0  501    0  0.00000000000E+00  0.00000000000E+00  0.14602060822E+04  0.14602060822E+04  0.50400001928E-02 0.  1.
       -1   -1    0    0    0  501  0.00000000000E+00  0.00000000000E+00 -0.20971556040E+04  0.20971556040E+04  0.50400001928E-02 0. -1.
    10030    2    1    2    0    0  0.00000000000E+00  0.00000000000E+00 -0.63694952177E+03  0.35573616863E+04  0.34998739225E+04 0.  0.
        4    1    3    3  502    0  0.99861759423E+03  0.91816894454E+03  0.80512689793E+03  0.15774987306E+04  0.12699999809E+01 0.  1.
       -4    1    3    3    0  502 -0.99861759423E+03 -0.91816894454E+03 -0.14420764197E+04  0.19798629557E+04  0.12699999809E+01 0. -1.
</event>
<event>
 5   0  0.3628017E-08  0.3501394E+04  0.7818609E-02  0.8113460E-01
       -2   -1    0    0    0  501  0.00000000000E+00  0.00000000000E+00  0.16746978781E+04  0.16746978781E+04  0.25500000920E-02 0. -1.
        2   -1    0    0  501    0  0.00000000000E+00  0.00000000000E+00 -0.18301451134E+04  0.18301451134E+04  0.25500000920E-02 0.  1.
    10030    2    1    2    0    0  0.00000000000E+00  0.00000000000E+00 -0.15544723536E+03  0.35048429915E+04  0.35013940869E+04 0.  0.
        1    1    3    3  502    0 -0.12297067670E+04 -0.19293890862E+03 -0.13100073051E+04  0.18070758962E+04  0.50400001928E-02 0.  1.
       -1    1    3    3    0  502  0.12297067670E+04  0.19293890862E+03  0.11545600697E+04  0.16977670953E+04  0.50400001928E-02 0. -1.
</event>
<event>
 5   0  0.3553585E-08  0.3501451E+04  0.7818609E-02  0.8113446E-01
       -2   -1    0    0    0  501  0.00000000000E+00  0.00000000000E+00  0.10235558945E+04  0.10235558945E+04  0.25500000920E-02 0. -1.
        2   -1    0    0  501    0  0.00000000000E+00  0.00000000000E+00 -0.29945014305E+04  0.29945014305E+04  0.25500000920E-02 0.  1.
    10030    2    1    2    0    0  0.00000000000E+00  0.00000000000E+00 -0.19709455360E+04  0.40180573249E+04  0.35014508937E+04 0.  0.
        2    1    3    3  502    0 -0.85578633943E+03  0.13141280562E+04 -0.18785932764E+04  0.24471239251E+04  0.25500000920E-02 0.  1.
       -2    1    3    3    0  502  0.85578633943E+03 -0.13141280562E+04 -0.92352259594E+02  0.15709333998E+04  0.25500000920E-02 0. -1.
</event>
<event>
 5   0  0.1121462E-08  0.3499701E+04  0.7818609E-02  0.8113861E-01
        1   -1    0    0  501    0  0.00000000000E+00  0.00000000000E+00  0.20438124524E+04  0.20438124524E+04  0.50400001928E-02 0. -1.
       -1   -1    0    0    0  501  0.00000000000E+00  0.00000000000E+00 -0.14981694715E+04  0.14981694715E+04  0.50400001928E-02 0.  1.
    10030    2    1    2    0    0  0.00000000000E+00  0.00000000000E+00  0.54564298092E+03  0.35419819239E+04  0.34997013711E+04 0.  0.
        1    1    3    3  502    0 -0.36859253298E+03 -0.17104274858E+04  0.24898311889E+03  0.17673186563E+04  0.50400001928E-02 0.  1.
       -1    1    3    3    0  502  0.36859253298E+03  0.17104274858E+04  0.29665986203E+03  0.17746632676E+04  0.50400001928E-02 0. -1.
</event>
<event>
 5   0  0.1121462E-08  0.3502110E+04  0.7818609E-02  0.8113290E-01
       -1   -1    0    0    0  501  0.00000000000E+00  0.00000000000E+00  0.10867472381E+04  0.10867472381E+04  0.50400001928E-02 0. -1.
        1   -1    0    0  501    0  0.00000000000E+00  0.00000000000E+00 -0.28214412738E+04  0.28214412739E+04  0.50400001928E-02 0.  1.
    10030    2    1    2    0    0  0.00000000000E+00  0.00000000000E+00 -0.17346940357E+04  0.39081885120E+04  0.35021099423E+04 0.  0.
        2    1    3    3  502    0  0.16064808593E+04 -0.52412977633E+02 -0.92048560486E+02  0.16099691950E+04  0.25500000920E-02 0. -1.
       -2    1    3    3    0  502 -0.16064808593E+04  0.52412977633E+02 -0.16426454752E+04  0.22982193170E+04  0.25500000920E-02 0.  1.
</event>
<event>
 5   0  0.3700096E-08  0.3498877E+04  0.7818609E-02  0.8114056E-01
        2   -1    0    0  501    0  0.00000000000E+00  0.00000000000E+00  0.20553729487E+04  0.20553729487E+04  0.25500000920E-02 0.  1.
       -2   -1    0    0    0  501  0.00000000000E+00  0.00000000000E+00 -0.14890408946E+04  0.14890408946E+04  0.25500000920E-02 0. -1.
    10030    2    1    2    0    0  0.00000000000E+00  0.00000000000E+00  0.56633205411E+03  0.35444138432E+04  0.34988766050E+04 0.  0.
        4    1    3    3  502    0 -0.38449714652E+03 -0.33495383749E+03  0.19784155669E+04  0.20430765764E+04  0.12699999809E+01 0.  1.
       -4    1    3    3    0  502  0.38449714652E+03  0.33495383749E+03 -0.14120835128E+04  0.15013372668E+04  0.12699999809E+01 0. -1.
</event>
<event>
 5   0  0.3700096E-08  0.3500499E+04  0.7818609E-02  0.8113672E-01
        2   -1    0    0  501    0  0.00000000000E+00  0.00000000000E+00  0.21887806485E+04  0.21887806485E+04  0.25500000920E-02 0.  1.
       -2   -1    0    0    0  501  0.00000000000E+00  0.00000000000E+00 -0.13995795513E+04  0.13995795513E+04  0.25500000920E-02 0. -1.
    10030    2    1    2    0    0  0.00000000000E+00  0.00000000000E+00  0.78920109718E+03  0.35883601999E+04  0.35004986148E+04 0.  0.
        4    1    3    3  502    0 -0.88581184301E+03  0.38945536779E+03  0.18896419749E+04  0.21229899931E+04  0.12699999809E+01 0.  1.
       -4    1    3    3    0  502  0.88581184301E+03 -0.38945536779E+03 -0.11004408777E+04  0.14653702068E+04  0.12699999809E+01 0. -1.
</event>
<event>
 5   0  0.1121462E-08  0.3500219E+04  0.7818609E-02  0.8113738E-01
        1   -1    0    0  501    0  0.00000000000E+00  0.00000000000E+00  0.14531525340E+04  0.14531525340E+04  0.50400001928E-02 0. -1.
       -1   -1    0    0    0  501  0.00000000000E+00  0.00000000000E+00 -0.21077504899E+04  0.21077504899E+04  0.50400001928E-02 0.  1.
    10030    2    1    2    0    0  0.00000000000E+00  0.00000000000E+00 -0.65459795588E+03  0.35609030239E+04  0.35002188305E+04 0.  0.
        4    1    3    3  502    0  0.11097508248E+04 -0.43320895705E+03 -0.16315810711E+04  0.20202166463E+04  0.12699999809E+01 0.  1.
       -4    1    3    3    0  502 -0.11097508248E+04  0.43320895705E+03  0.97698311524E+03  0.15406863776E+04  0.12699999809E+01 0. -1.
</event>
<event>
 5   0  0.1121462E-08  0.3500479E+04  0.7818609E-02  0.8113677E-01
        1   -1    0    0  501    0  0.00000000000E+00  0.00000000000E+00  0.21692922221E+04  0.21692922221E+04  0.50400001928E-02 0.  1.
       -1   -1    0    0    0  501  0.00000000000E+00  0.00000000000E+00 -0.14121368734E+04  0.14121368734E+04  0.50400001928E-02 0. -1.
    10030    2    1    2    0    0  0.00000000000E+00  0.00000000000E+00  0.75715534872E+03  0.35814290955E+04  0.35004785593E+04 0.  0.
        2    1    3    3  502    0  0.38545995240E+03 -0.17070492875E+04  0.40642645046E+03  0.17966020997E+04  0.25500000920E-02 0.  1.
       -2    1    3    3    0  502 -0.38545995240E+03  0.17070492875E+04  0.35072889826E+03  0.17848269958E+04  0.25500000920E-02 0. -1.
</event>
<event>
 5   0  0.3554451E-08  0.3501817E+04  0.7818609E-02  0.8113360E-01
       -2   -1    0    0    0  501  0.00000000000E+00  0.00000000000E+00  0.11012646716E+04  0.11012646716E+04  0.25500000920E-02 0.  1.
        2   -1    0    0  501    0  0.00000000000E+00  0.00000000000E+00 -0.27837815821E+04  0.27837815821E+04  0.25500000920E-02 0. -1.
    10030    2    1    2    0    0  0.00000000000E+00  0.00000000000E+00 -0.16825169105E+04  0.38850462538E+04  0.35018168484E+04 0.  0.
        5    1    3    3  502    0 -0.13152559903E+04  0.31139005939E+03 -0.20760756998E+04  0.24772917653E+04  0.46999998093E+01 0. -1.
       -5    1    3    3    0  502  0.13152559903E+04 -0.31139005939E+03  0.39355878929E+03  0.14077544885E+04  0.46999998093E+01 0.  1.
</event>
<event>
 5   0  0.1121462E-08  0.3512674E+04  0.7818609E-02  0.8110793E-01
       -1   -1    0    0    0  501  0.00000000000E+00  0.00000000000E+00  0.11269556613E+04  0.11269556613E+04  0.50400001928E-02 0.  1.
        1   -1    0    0  501    0  0.00000000000E+00  0.00000000000E+00 -0.27372154582E+04  0.27372154582E+04  0.50400001928E-02 0. -1.
    10030    2    1    2    0    0  0.00000000000E+00  0.00000000000E+00 -0.16102597969E+04  0.38641711195E+04  0.35126744550E+04 0.  0.
        2    1    3    3  502    0 -0.12139239412E+04 -0.48933119503E+03 -0.20935050332E+04  0.24689713804E+04  0.25500000920E-02 0. -1.
       -2    1    3    3    0  502  0.12139239412E+04  0.48933119503E+03  0.48324523627E+03  0.13951997390E+04  0.25500000920E-02 0.  1.
</event>
<event>
 5   0  0.1129219E-08  0.3500345E+04  0.7818609E-02  0.8113708E-01
       -1   -1    0    0    0  501  0.00000000000E+00  0.00000000000E+00  0.24468324665E+04  0.24468324665E+04  0.50400001928E-02 0. -1.
        1   -1    0    0  501    0  0.00000000000E+00  0.00000000000E+00 -0.12518648039E+04  0.12518648039E+04  0.50400001928E-02 0.  1.
    10030    2    1    2    0    0  0.00000000000E+00  0.00000000000E+00  0.11949676626E+04  0.36986972704E+04  0.35003448092E+04 0.  0.
        5    1    3    3  502    0  0.97460950702E+03 -0.13623925998E+04  0.11332711544E+04  0.20224497241E+04  0.46999998093E+01 0. -1.
       -5    1    3    3    0  502 -0.97460950702E+03  0.13623925998E+04  0.61696508177E+02  0.16762475463E+04  0.46999998093E+01 0.  1.
</event>
<event>
 5   0  0.3553585E-08  0.3502253E+04  0.7818609E-02  0.8113256E-01
        2   -1    0    0  501    0  0.00000000000E+00  0.00000000000E+00  0.22881028880E+04  0.22881028880E+04  0.25500000920E-02 0.  1.
       -2   -1    0    0    0  501  0.00000000000E+00  0.00000000000E+00 -0.13401686362E+04  0.13401686362E+04  0.25500000920E-02 0. -1.
    10030    2    1    2    0    0  0.00000000000E+00  0.00000000000E+00  0.94793425178E+03  0.36282715241E+04  0.35022528331E+04 0.  0.
        2    1    3    3  502    0 -0.75798375183E+03 -0.54428341556E+03 -0.10611263374E+04  0.14130721526E+04  0.25500000920E-02 0. -1.
       -2    1    3    3    0  502  0.75798375183E+03  0.54428341556E+03  0.20090605892E+04  0.22151993715E+04  0.25500000920E-02 0.  1.
</event>
<event>
 5   0  0.1121462E-08  0.3497350E+04  0.7818609E-02  0.8114418E-01
       -1   -1    0    0    0  501  0.00000000000E+00  0.00000000000E+00  0.21840674459E+04  0.21840674459E+04  0.50400001928E-02 0. -1.
        1   -1    0    0  501    0  0.00000000000E+00  0.00000000000E+00 -0.14000776543E+04  0.14000776543E+04  0.50400001928E-02 0.  1.
    10030    2    1    2    0    0  0.00000000000E+00  0.00000000000E+00  0.78398979157E+03  0.35841451002E+04  0.34973498690E+04 0.  0.
        4    1    3    3  502    0  0.67205718892E+03 -0.15973012175E+04  0.15202482099E+03  0.17395819049E+04  0.12699999809E+01 0. -1.
       -4    1    3    3    0  502 -0.67205718892E+03  0.15973012175E+04  0.63196497059E+03  0.18445631953E+04  0.12699999809E+01 0.  1.
</event>
<event>
 5   0  0.3467834E-08  0.3502618E+04  0.7818609E-02  0.8113170E-01
       -2   -1    0    0    0  501  0.00000000000E+00  0.00000000000E+00  0.10156518461E+04  0.10156518461E+04  0.25500000920E-02 0.  1.
        2   -1    0    0  501    0  0.00000000000E+00  0.00000000000E+00 -0.30198167970E+04  0.30198167970E+04  0.25500000920E-02 0. -1.
    10030    2    1    2    0    0  0.00000000000E+00  0.00000000000E+00 -0.20041649508E+04  0.40354686431E+04  0.35026175954E+04 0.  0.
        3    1    3    3  502    0 -0.12942886527E+03 -0.11001859704E+04 -0.25648734645E+04  0.27938748898E+04  0.10100000352E+00 0. -1.
       -3    1    3    3    0  502  0.12942886527E+03  0.11001859704E+04  0.56070851368E+03  0.12415937533E+04  0.10100000352E+00 0.  1.
</event>
<event>
 5   0  0.1121462E-08  0.3501311E+04  0.7818609E-02  0.8113479E-01
       -1   -1    0    0    0  501  0.00000000000E+00  0.00000000000E+00  0.17711894206E+04  0.17711894206E+04  0.50400001928E-02 0.  1.
        1   -1    0    0  501    0  0.00000000000E+00  0.00000000000E+00 -0.17303598827E+04  0.17303598827E+04  0.50400001928E-02 0. -1.
    10030    2    1    2    0    0  0.00000000000E+00  0.00000000000E+00  0.40829537856E+02  0.35015493033E+04  0.35013112505E+04 0.  0.
        2    1    3    3  502    0  0.54837973746E+03 -0.10828440586E+04  0.12820565358E+04  0.17654859254E+04  0.25500000920E-02 0.  1.
       -2    1    3    3    0  502 -0.54837973746E+03  0.10828440586E+04 -0.12412269980E+04  0.17360633779E+04  0.25500000920E-02 0. -1.
</event>
<event>
 5   0  0.3553585E-08  0.3500183E+04  0.7818609E-02  0.8113747E-01
       -2   -1    0    0    0  501  0.00000000000E+00  0.00000000000E+00  0.18180008231E+04  0.18180008231E+04  0.25500000920E-02 0.  1.
        2   -1    0    0  501    0  0.00000000000E+00  0.00000000000E+00 -0.16847191136E+04  0.16847191136E+04  0.25500000920E-02 0. -1.
    10030    2    1    2    0    0  0.00000000000E+00  0.00000000000E+00  0.13328170953E+03  0.35027199368E+04  0.35001832725E+04 0.  0.
        2    1    3    3  502    0  0.15774880685E+04 -0.44759335675E+03 -0.54536782426E+03  0.17280724762E+04  0.25500000920E-02 0.  1.
       -2    1    3    3    0  502 -0.15774880685E+04  0.44759335675E+03  0.67864953379E+03  0.17746474605E+04  0.25500000920E-02 0. -1.
</event>
<event>
 5   0  0.1140808E-08  0.3499459E+04  0.7818609E-02  0.8113918E-01
       -1   -1    0    0    0  501  0.00000000000E+00  0.00000000000E+00  0.19310508271E+04  0.19310508271E+04  0.50400001928E-02 0. -1.
        1   -1    0    0  501    0  0.00000000000E+00  0.00000000000E+00 -0.15854337688E+04  0.15854337688E+04  0.50400001928E-02 0.  1.
    10030    2    1    2    0    0  0.00000000000E+00  0.00000000000E+00  0.34561705832E+03  0.35164845959E+04  0.34994589242E+04 0.  0.
        3    1    3    3  502    0 -0.77147262642E+03 -0.86050512615E+03 -0.11473236178E+04  0.16284933465E+04  0.10100000352E+00 0.  1.
       -3    1    3    3    0  502  0.77147262642E+03  0.86050512615E+03  0.14929406761E+04  0.18879912494E+04  0.10100000352E+00 0. -1.
</event>
<event>
 5   0  0.3553585E-08  0.3502017E+04  0.7818609E-02  0.8113312E-01
        2   -1    0    0  501    0  0.00000000000E+00  0.00000000000E+00  0.14079454856E+04  0.14079454856E+04  0.25500000920E-02 0.  1.
       -2   -1    0    0    0  501  0.00000000000E+00  0.00000000000E+00 -0.21776631959E+04  0.21776631959E+04  0.25500000920E-02 0. -1.
    10030    2    1    2    0    0  0.00000000000E+00  0.00000000000E+00 -0.76971771035E+03  0.35856086815E+04  0.35020171706E+04 0.  0.
        2    1    3    3  502    0 -0.55744895305E+03  0.16494502220E+04 -0.57529775032E+03  0.18336855978E+04  0.25500000920E-02 0.  1.
       -2    1    3    3    0  502  0.55744895305E+03 -0.16494502220E+04 -0.19441996003E+03  0.17519230836E+04  0.25500000920E-02 0. -1.
</event>
<event>
 5   0  0.1129219E-08  0.3501074E+04  0.7818609E-02  0.8113536E-01
       -1   -1    0    0    0  501  0.00000000000E+00  0.00000000000E+00  0.17100561509E+04  0.17100561509E+04  0.50400001928E-02 0.  1.
        1   -1    0    0  501    0  0.00000000000E+00  0.00000000000E+00 -0.17919757857E+04  0.17919757857E+04  0.50400001928E-02 0. -1.
    10030    2    1    2    0    0  0.00000000000E+00  0.00000000000E+00 -0.81919634803E+02  0.35020319367E+04  0.35010736723E+04 0.  0.
        5    1    3    3  502    0 -0.17505849226E+03 -0.68056239256E+03 -0.16446910351E+04  0.17885304965E+04  0.46999998093E+01 0. -1.
       -5    1    3    3    0  502  0.17505849226E+03  0.68056239256E+03  0.15627714003E+04  0.17135014402E+04  0.46999998093E+01 0.  1.
</event>
<event>
 5   0  0.1121462E-08  0.3498719E+04  0.7818609E-02  0.8114094E-01
        1   -1    0    0  501    0  0.00000000000E+00  0.00000000000E+00  0.19190865897E+04  0.19190865898E+04  0.50400001928E-02 0.  1.
       -1   -1    0    0    0  501  0.00000000000E+00  0.00000000000E+00 -0.15946435699E+04  0.15946435699E+04  0.50400001928E-02 0. -1.
    10030    2    1    2    0    0  0.00000000000E+00  0.00000000000E+00  0.32444301980E+03  0.35137301597E+04  0.34987192460E+04 0.  0.
        4    1    3    3  502    0  0.26798958371E+03 -0.78547575220E+03 -0.13843423107E+04  0.16140619010E+04  0.12699999809E+01 0. -1.
       -4    1    3    3    0  502 -0.26798958371E+03  0.78547575220E+03  0.17087853305E+04  0.18996682587E+04  0.12699999809E+01 0.  1.
</event>
<event>
 5   0  0.3467834E-08  0.3500093E+04  0.7818609E-02  0.8113768E-01
        2   -1    0    0  501    0  0.00000000000E+00  0.00000000000E+00  0.20327089730E+04  0.20327089730E+04  0.25500000920E-02 0. -1.
       -2   -1    0    0    0  501  0.00000000000E+00  0.00000000000E+00 -0.15066899998E+04  0.15066899998E+04  0.25500000920E-02 0.  1.
    10030    2    1    2    0    0  0.00000000000E+00  0.00000000000E+00  0.52601897311E+03  0.35393989728E+04  0.35000927314E+04 0.  0.
        3    1    3    3  502    0  0.10921877974E+04  0.13488606212E+04  0.36071996343E+02  0.17359724535E+04  0.10100000352E+00 0.  1.
       -3    1    3    3    0  502 -0.10921877974E+04 -0.13488606212E+04  0.48994697677E+03  0.18034265193E+04  0.10100000352E+00 0. -1.
</event>
<event>
 5   0  0.1140808E-08  0.3502678E+04  0.7818609E-02  0.8113156E-01
        1   -1    0    0  501    0  0.00000000000E+00  0.00000000000E+00  0.13163285078E+04  0.13163285078E+04  0.50400001928E-02 0. -1.
       -1   -1    0    0    0  501  0.00000000000E+00  0.00000000000E+00 -0.23301087437E+04  0.23301087437E+04  0.50400001928E-02 0.  1.
    10030    2    1    2    0    0  0.00000000000E+00  0.00000000000E+00 -0.10137802359E+04  0.36464372515E+04  0.35026781557E+04 0.  0.
        3    1    3    3  502    0 -0.67319547293E+03 -0.10220555024E+04  0.79728284035E+03  0.14606332642E+04  0.10100000352E+00 0. -1.
       -3    1    3    3    0  502  0.67319547293E+03  0.10220555024E+04 -0.18110630762E+04  0.21858039873E+04  0.10100000352E+00 0.  1.
</event>
<event>
 5   0  0.1121462E-08  0.3500567E+04  0.7818609E-02  0.8113656E-01
       -1   -1    0    0    0  501  0.00000000000E+00  0.00000000000E+00  0.11702115542E+04  0.11702115542E+04  0.50400001928E-02 0.  1.
        1   -1    0    0  501    0  0.00000000000E+00  0.00000000000E+00 -0.26178958130E+04  0.26178958130E+04  0.50400001928E-02 0. -1.
    10030    2    1    2    0    0  0.00000000000E+00  0.00000000000E+00 -0.14476842589E+04  0.37881073672E+04  0.35005667701E+04 0.  0.
        2    1    3    3  502    0 -0.34416845080E+03 -0.14464873591E+04 -0.17231186739E+04  0.22759427864E+04  0.25500000920E-02 0. -1.
       -2    1    3    3    0  502  0.34416845080E+03  0.14464873591E+04  0.27543441502E+03  0.15121645808E+04  0.25500000920E-02 0.  1.
</event>
<event>
 5   0  0.1121462E-08  0.3500522E+04  0.7818609E-02  0.8113666E-01
       -1   -1    0    0    0  501  0.00000000000E+00  0.00000000000E+00  0.16448092873E+04  0.16448092873E+04  0.50400001928E-02 0.  1.
        1   -1    0    0  501    0  0.00000000000E+00  0.00000000000E+00 -0.18624734432E+04  0.18624734432E+04  0.50400001928E-02 0. -1.
    10030    2    1    2    0    0  0.00000000000E+00  0.00000000000E+00 -0.21766415594E+03  0.35072827305E+04  0.35005220278E+04 0.  0.
        2    1    3    3  502    0  0.57151794646E+03  0.56759155818E+03 -0.16657381755E+04  0.18502639297E+04  0.25500000920E-02 0. -1.
       -2    1    3    3    0  502 -0.57151794646E+03 -0.56759155818E+03  0.14480740196E+04  0.16570188008E+04  0.25500000920E-02 0.  1.
</event>
<event>
 5   0  0.3700096E-08  0.3497489E+04  0.7818609E-02  0.8114385E-01
        2   -1    0    0  501    0  0.00000000000E+00  0.00000000000E+00  0.15366387676E+04  0.15366387676E+04  0.25500000920E-02 0.  1.
       -2   -1    0    0    0  501  0.00000000000E+00  0.00000000000E+00 -0.19901277702E+04  0.19901277702E+04  0.25500000920E-02 0. -1.
    10030    2    1    2    0    0  0.00000000000E+00  0.00000000000E+00 -0.45348900263E+03  0.35267665377E+04  0.34974890902E+04 0.  0.
        4    1    3    3  502    0 -0.10131926546E+04 -0.47715461333E+02  0.12097045732E+04  0.15786775757E+04  0.12699999809E+01 0.  1.
       -4    1    3    3    0  502  0.10131926546E+04  0.47715461333E+02 -0.16631935758E+04  0.19480889621E+04  0.12699999809E+01 0. -1.
</event>
<event>
 5   0  0.1121462E-08  0.3501031E+04  0.7818609E-02  0.8113546E-01
       -1   -1    0    0    0  501  0.00000000000E+00  0.00000000000E+00  0.33792749836E+04  0.33792749836E+04  0.50400001928E-02 0. -1.
        1   -1    0    0  501    0  0.00000000000E+00  0.00000000000E+00 -0.90679359894E+03  0.90679359895E+03  0.50400001928E-02 0.  1.
    10030    2    1    2    0    0  0.00000000000E+00  0.00000000000E+00  0.24724813847E+04  0.42860685826E+04  0.35010312334E+04 0.  0.
        1    1    3    3  502    0 -0.15625816552E+04  0.78884669991E+03  0.12128717125E+04  0.21295535533E+04  0.50400001928E-02 0.  1.
       -1    1    3    3    0  502  0.15625816552E+04 -0.78884669991E+03  0.12596096722E+04  0.21565150293E+04  0.50400001928E-02 0. -1.
</event>
<event>
 5   0  0.1121462E-08  0.3499605E+04  0.7818609E-02  0.8113883E-01
        1   -1    0    0  501    0  0.00000000000E+00  0.00000000000E+00  0.19892031027E+04  0.19892031027E+04  0.50400001928E-02 0. -1.
       -1   -1    0    0    0  501  0.00000000000E+00  0.00000000000E+00 -0.15392141539E+04  0.15392141539E+04  0.50400001928E-02 0.  1.
    10030    2    1    2    0    0  0.00000000000E+00  0.00000000000E+00  0.44998894879E+03  0.35284172566E+04  0.34996054467E+04 0.  0.
        1    1    3    3  502    0  0.11784589555E+04  0.13568115592E+03  0.15219106758E+04  0.19296079889E+04  0.50400001928E-02 0. -1.
       -1    1    3    3    0  502 -0.11784589555E+04 -0.13568115592E+03 -0.10719217270E+04  0.15988092677E+04  0.50400001928E-02 0.  1.
</event>
<event>
 5   0  0.3554451E-08  0.3500606E+04  0.7818609E-02  0.8113646E-01
        2   -1    0    0  501    0  0.00000000000E+00  0.00000000000E+00  0.28881469494E+04  0.28881469494E+04  0.25500000920E-02 0. -1.
       -2   -1    0    0    0  501  0.00000000000E+00  0.00000000000E+00 -0.10607356122E+04  0.10607356122E+04  0.25500000920E-02 0.  1.
    10030    2    1    2    0    0  0.00000000000E+00  0.00000000000E+00  0.18274113372E+04  0.39488825615E+04  0.35006058461E+04 0.  0.
        5    1    3    3  502    0 -0.11945046212E+04  0.93635731495E+03 -0.69667486055E+02  0.15193689347E+04  0.46999998093E+01 0.  1.
       -5    1    3    3    0  502  0.11945046212E+04 -0.93635731495E+03  0.18970788232E+04  0.24295136268E+04  0.46999998093E+01 0. -1.
</event>
<event>
 5   0  0.3628017E-08  0.3500029E+04  0.7818609E-02  0.8113783E-01
        2   -1    0    0  501    0  0.00000000000E+00  0.00000000000E+00  0.20207403100E+04  0.20207403100E+04  0.25500000920E-02 0. -1.
       -2   -1    0    0    0  501  0.00000000000E+00  0.00000000000E+00 -0.15155588615E+04  0.15155588615E+04  0.25500000920E-02 0.  1.
    10030    2    1    2    0    0  0.00000000000E+00  0.00000000000E+00  0.50518144853E+03  0.35362991715E+04  0.35000290762E+04 0.  0.
        1    1    3    3  502    0 -0.10517253371E+04  0.12774904189E+04 -0.32291083339E+03  0.16859357525E+04  0.50400001928E-02 0.  1.
       -1    1    3    3    0  502  0.10517253371E+04 -0.12774904189E+04  0.82809228192E+03  0.18503634190E+04  0.50400001928E-02 0. -1.
</event>
<event>
 5   0  0.3628017E-08  0.3500114E+04  0.7818609E-02  0.8113763E-01
        2   -1    0    0  501    0  0.00000000000E+00  0.00000000000E+00  0.14013591179E+04  0.14013591179E+04  0.25500000920E-02 0.  1.
       -2   -1    0    0    0  501  0.00000000000E+00  0.00000000000E+00 -0.21855205661E+04  0.21855205661E+04  0.25500000920E-02 0. -1.
    10030    2    1    2    0    0  0.00000000000E+00  0.00000000000E+00 -0.78416144824E+03  0.35868796840E+04  0.35001138111E+04 0.  0.
        1    1    3    3  502    0 -0.44593270488E+03  0.15419691197E+04 -0.11066275585E+04  0.19496536350E+04  0.50400001928E-02 0. -1.
       -1    1    3    3    0  502  0.44593270488E+03 -0.15419691197E+04  0.32246611025E+03  0.16372260490E+04  0.50400001928E-02 0.  1.
</event>
<event>
 5   0  0.1140808E-08  0.3500395E+04  0.7818609E-02  0.8113696E-01
        1   -1    0    0  501    0  0.00000000000E+00  0.00000000000E+00  0.10266357884E+04  0.10266357884E+04  0.50400001928E-02 0.  1.
       -1   -1    0    0    0  501  0.00000000000E+00  0.00000000000E+00 -0.29837176733E+04  0.29837176733E+04  0.50400001928E-02 0. -1.
    10030    2    1    2    0    0  0.00000000000E+00  0.00000000000E+00 -0.19570818848E+04  0.40103534617E+04  0.35003950325E+04 0.  0.
        3    1    3    3  502    0 -0.65645776235E+03  0.11720243961E+04  0.30678052498E+03  0.13779304335E+04  0.10100000352E+00 0.  1.
       -3    1    3    3    0  502  0.65645776235E+03 -0.11720243961E+04 -0.22638624098E+04  0.26324230282E+04  0.10100000352E+00 0. -1.
</event>
<event>
 5   0  0.3554451E-08  0.3500049E+04  0.7818609E-02  0.8113778E-01
        2   -1    0    0  501    0  0.00000000000E+00  0.00000000000E+00  0.13800823991E+04  0.13800823991E+04  0.25500000920E-02 0. -1.
       -2   -1    0    0    0  501  0.00000000000E+00  0.00000000000E+00 -0.22191323630E+04  0.22191323630E+04  0.25500000920E-02 0.  1.
    10030    2    1    2    0    0  0.00000000000E+00  0.00000000000E+00 -0.83904996386E+03  0.35992147621E+04  0.35000488656E+04 0.  0.
        5    1    3    3  502    0  0.16249878146E+04  0.59749294948E+03 -0.68165948408E+03  0.18607162504E+04  0.46999998093E+01 0.  1.
       -5    1    3    3    0  502 -0.16249878146E+04 -0.59749294948E+03 -0.15739047978E+03  0.17384985117E+04  0.46999998093E+01 0. -1.
</event>
<event>
 5   0  0.3553585E-08  0.3500899E+04  0.7818609E-02  0.8113577E-01
       -2   -1    0    0    0  501  0.00000000000E+00  0.00000000000E+00  0.13633537083E+04  0.13633537083E+04  0.25500000920E-02 0.  1.
        2   -1    0    0  501    0  0.00000000000E+00  0.00000000000E+00 -0.22474531287E+04  0.22474531287E+04  0.25500000920E-02 0. -1.
    10030    2    1    2    0    0  0.00000000000E+00  0.00000000000E+00 -0.88409942035E+03  0.36108068370E+04  0.35008990601E+04 0.  0.
        2    1    3    3  502    0  0.60040050130E+03 -0.20647680638E+03  0.12404068125E+04  0.13934570299E+04  0.25500000920E-02 0.  1.
       -2    1    3    3    0  502 -0.60040050130E+03  0.20647680638E+03 -0.21245062329E+04  0.22173498071E+04  0.25500000920E-02 0. -1.
</event>
<event>
 5   0  0.1129219E-08  0.3499513E+04  0.7818609E-02  0.8113905E-01
       -1   -1    0    0    0  501  0.00000000000E+00  0.00000000000E+00  0.15340831036E+04  0.15340831036E+04  0.50400001928E-02 0.  1.
        1   -1    0    0  501    0  0.00000000000E+00  0.00000000000E+00 -0.19957504513E+04  0.19957504513E+04  0.50400001928E-02 0. -1.
    10030    2    1    2    0    0  0.00000000000E+00  0.00000000000E+00 -0.46166734767E+03  0.35298335549E+04  0.34995125640E+04 0.  0.
        5    1    3    3  502    0 -0.10887975314E+04 -0.86955371218E+03  0.83664645227E+03  0.16253009256E+04  0.46999998093E+01 0.  1.
       -5    1    3    3    0  502  0.10887975314E+04  0.86955371218E+03 -0.12983137999E+04  0.19045326292E+04  0.46999998093E+01 0. -1.
</event>
<event>
 5   0  0.3628017E-08  0.3500825E+04  0.7818609E-02  0.8113594E-01
        2   -1    0    0  501    0  0.00000000000E+00  0.00000000000E+00  0.15300011857E+04  0.15300011857E+04  0.25500000920E-02 0. -1.
       -2   -1    0    0    0  501  0.00000000000E+00  0.00000000000E+00 -0.20025765153E+04  0.20025765153E+04  0.25500000920E-02 0.  1.
    10030    2    1    2    0    0  0.00000000000E+00  0.00000000000E+00 -0.47257532963E+03  0.35325777010E+04  0.35008252986E+04 0.  0.
        1    1    3    3  502    0 -0.85396855194E+03 -0.15121684650E+04 -0.15145453615E+02  0.17367052540E+04  0.50400001928E-02 0.  1.
       -1    1    3    3    0  502  0.85396855194E+03  0.15121684650E+04 -0.45742987602E+03  0.17958724470E+04  0.50400001928E-02 0. -1.
</event>
<event>
 5   0  0.3700096E-08  0.3498203E+04  0.7818609E-02  0.8114216E-01
        2   -1    0    0  501    0  0.00000000000E+00  0.00000000000E+00  0.22939262355E+04  0.22939262355E+04  0.25500000920E-02 0. -1.
       -2   -1    0    0    0  501  0.00000000000E+00  0.00000000000E+00 -0.13336770483E+04  0.13336770483E+04  0.25500000920E-02 0.  1.
    10030    2    1    2    0    0  0.00000000000E+00  0.00000000000E+00  0.96024918715E+03  0.36276032838E+04  0.34982034079E+04 0.  0.
        4    1    3    3  502    0  0.98400313435E+03  0.14379840738E+04  0.32185256963E+03  0.17719060512E+04  0.12699999809E+01 0. -1.
       -4    1    3    3    0  502 -0.98400313435E+03 -0.14379840738E+04  0.63839661751E+03  0.18556972326E+04  0.12699999809E+01 0.  1.
</event>
<event>
 5   0  0.3628017E-08  0.3500280E+04  0.7818609E-02  0.8113724E-01
        2   -1    0    0  501    0  0.00000000000E+00  0.00000000000E+00  0.23431253712E+04  0.23431253712E+04  0.25500000920E-02 0.  1.
       -2   -1    0    0    0  501  0.00000000000E+00  0.00000000000E+00 -0.13072239681E+04  0.13072239681E+04  0.25500000920E-02 0. -1.
    10030    2    1    2    0    0  0.00000000000E+00  0.00000000000E+00  0.10359014032E+04  0.36503493393E+04  0.35002797862E+04 0.  0.
        1    1    3    3  502    0  0.12764466665E+04  0.56311187522E+03  0.16199372990E+04  0.21378980165E+04  0.50400001928E-02 0.  1.
       -1    1    3    3    0  502 -0.12764466665E+04 -0.56311187522E+03 -0.58403589578E+03  0.15124513228E+04  0.50400001928E-02 0. -1.
</event>
<event>
 5   0  0.3553585E-08  0.3499344E+04  0.7818609E-02  0.8113945E-01
        2   -1    0    0  501    0  0.00000000000E+00  0.00000000000E+00  0.17627447004E+04  0.17627447004E+04  0.25500000920E-02 0.  1.
       -2   -1    0    0    0  501  0.00000000000E+00  0.00000000000E+00 -0.17366960303E+04  0.17366960303E+04  0.25500000920E-02 0. -1.
    10030    2    1    2    0    0  0.00000000000E+00  0.00000000000E+00  0.26048670097E+02  0.34994407306E+04  0.34993437805E+04 0.  0.
        2    1    3    3  502    0 -0.26015034707E+03  0.14458289992E+04 -0.93739771631E+03  0.17426457404E+04  0.25500000920E-02 0. -1.
       -2    1    3    3    0  502  0.26015034707E+03 -0.14458289992E+04  0.96344638641E+03  0.17567949902E+04  0.25500000920E-02 0.  1.
</event>
<event>
 5   0  0.1121462E-08  0.3498933E+04  0.7818609E-02  0.8114043E-01
        1   -1    0    0  501    0  0.00000000000E+00  0.00000000000E+00  0.20659396711E+04  0.20659396711E+04  0.50400001928E-02 0. -1.
       -1   -1    0    0    0  501  0.00000000000E+00  0.00000000000E+00 -0.14814724430E+04  0.14814724430E+04  0.50400001928E-02 0.  1.
    10030    2    1    2    0    0  0.00000000000E+00  0.00000000000E+00  0.58446722807E+03  0.35474121141E+04  0.34989328039E+04 0.  0.
        2    1    3    3  502    0 -0.11458156136E+04 -0.12002919144E+03 -0.10425687073E+04  0.15537856791E+04  0.25500000920E-02 0.  1.
       -2    1    3    3    0  502  0.11458156136E+04  0.12002919144E+03  0.16270359354E+04  0.19936264350E+04  0.25500000920E-02 0. -1.
</event>
<event>
 5   0  0.1121462E-08  0.3499847E+04  0.7818609E-02  0.8113826E-01
       -1   -1    0    0    0  501  0.00000000000E+00  0.00000000000E+00  0.13084126203E+04  0.13084126203E+04  0.50400001928E-02 0.  1.
        1   -1    0    0  501    0  0.00000000000E+00  0.00000000000E+00 -0.23404182433E+04  0.23404182433E+04  0.50400001928E-02 0. -1.
    10030    2    1    2    0    0  0.00000000000E+00  0.00000000000E+00 -0.10320056230E+04  0.36488308636E+04  0.34998472917E+04 0.  0.
        2    1    3    3  502    0  0.97069653526E+03  0.60524287859E+03 -0.18966337163E+04  0.22149018397E+04  0.25500000920E-02 0. -1.
       -2    1    3    3    0  502 -0.97069653526E+03 -0.60524287859E+03  0.86462809334E+03  0.14339290239E+04  0.25500000920E-02 0.  1.
</event>
<event>
 5   0  0.3628017E-08  0.3496500E+04  0.7818609E-02  0.8114620E-01
       -2   -1    0    0    0  501  0.00000000000E+00  0.00000000000E+00  0.12717071633E+04  0.12717071633E+04  0.25500000920E-02 0. -1.
        2   -1    0    0  501    0  0.00000000000E+00  0.00000000000E+00 -0.24033659705E+04  0.24033659705E+04  0.25500000920E-02 0.  1.
    10030    2    1    2    0    0  0.00000000000E+00  0.00000000000E+00 -0.11316588072E+04  0.36750731339E+04  0.34964998046E+04 0.  0.
        1    1    3    3  502    0 -0.11895570038E+02  0.10184296771E+04 -0.20593273817E+04  0.22974267729E+04  0.50400001928E-02 0.  1.
       -1    1    3    3    0  502  0.11895570038E+02 -0.10184296771E+04  0.92766857448E+03  0.13776463610E+04  0.50400001928E-02 0. -1.
</event>
<event>
 5   0  0.1140808E-08  0.3499530E+04  0.7818609E-02  0.8113901E-01
       -1   -1    0    0    0  501  0.00000000000E+00  0.00000000000E+00  0.16231213290E+04  0.16231213290E+04  0.50400001928E-02 0. -1.
        1   -1    0    0  501    0  0.00000000000E+00  0.00000000000E+00 -0.18862904965E+04  0.18862904965E+04  0.50400001928E-02 0.  1.
    10030    2    1    2    0    0  0.00000000000E+00  0.00000000000E+00 -0.26316916742E+03  0.35094118255E+04  0.34995304471E+04 0.  0.
        3    1    3    3  502    0 -0.16726015178E+03  0.16009345918E+04 -0.81960549973E+03  0.18063002826E+04  0.10100000352E+00 0.  1.
       -3    1    3    3    0  502  0.16726015178E+03 -0.16009345918E+04  0.55643633231E+03  0.17031115429E+04  0.10100000352E+00 0. -1.
</event>
<event>
 5   0  0.1129219E-08  0.3500154E+04  0.7818609E-02  0.8113754E-01
        1   -1    0    0  501    0  0.00000000000E+00  0.00000000000E+00  0.19769978912E+04  0.19769978912E+04  0.50400001928E-02 0.  1.
       -1   -1    0    0    0  501  0.00000000000E+00  0.00000000000E+00 -0.15492018502E+04  0.15492018502E+04  0.50400001928E-02 0. -1.
    10030    2    1    2    0    0  0.00000000000E+00  0.00000000000E+00  0.42779604106E+03  0.35261997414E+04  0.35001535914E+04 0.  0.
        5    1    3    3  502    0 -0.43973905739E+02 -0.12247592937E+03 -0.15443146263E+04  0.15497947647E+04  0.46999998093E+01 0. -1.
       -5    1    3    3    0  502  0.43973905739E+02  0.12247592937E+03  0.19721106674E+04  0.19764049767E+04  0.46999998093E+01 0.  1.
</event>
<event>
 5   0  0.3467834E-08  0.3499532E+04  0.7818609E-02  0.8113901E-01
       -2   -1    0    0    0  501  0.00000000000E+00  0.00000000000E+00  0.16777161287E+04  0.16777161287E+04  0.25500000920E-02 0. -1.
        2   -1    0    0  501    0  0.00000000000E+00  0.00000000000E+00 -0.18249096903E+04  0.18249096903E+04  0.25500000920E-02 0.  1.
    10030    2    1    2    0    0  0.00000000000E+00  0.00000000000E+00 -0.14719356154E+03  0.35026258190E+04  0.34995316377E+04 0.  0.
        3    1    3    3  502    0 -0.88854880880E+03  0.83942168858E+03 -0.13267152150E+04  0.18039736774E+04  0.10100000352E+00 0.  1.
       -3    1    3    3    0  502  0.88854880880E+03 -0.83942168858E+03  0.11795216535E+04  0.16986521416E+04  0.10100000352E+00 0. -1.
</event>
<event>
 5   0  0.1121462E-08  0.3499126E+04  0.7818609E-02  0.8113997E-01
        1   -1    0    0  501    0  0.00000000000E+00  0.00000000000E+00  0.22819714509E+04  0.22819714509E+04  0.50400001928E-02 0. -1.
       -1   -1    0    0    0  501  0.00000000000E+00  0.00000000000E+00 -0.13413709386E+04  0.13413709386E+04  0.50400001928E-02 0.  1.
    10030    2    1    2    0    0  0.00000000000E+00  0.00000000000E+00  0.94060051229E+03  0.36233423896E+04  0.34991257120E+04 0.  0.
        4    1    3    3  502    0  0.12467986779E+04  0.92619081200E+03  0.13042676770E+04  0.20281647245E+04  0.12699999809E+01 0. -1.
       -4    1    3    3    0  502 -0.12467986779E+04 -0.92619081200E+03 -0.36366716476E+03  0.15951776651E+04  0.12699999809E+01 0.  1.
</event>
<event>
 5   0  0.3553585E-08  0.3501063E+04  0.7818609E-02  0.8113538E-01
       -2   -1    0    0    0  501  0.00000000000E+00  0.00000000000E+00  0.17670584903E+04  0.17670584903E+04  0.25500000920E-02 0. -1.
        2   -1    0    0  501    0  0.00000000000E+00  0.00000000000E+00 -0.17341590926E+04  0.17341590926E+04  0.25500000920E-02 0.  1.
    10030    2    1    2    0    0  0.00000000000E+00  0.00000000000E+00  0.32899397637E+02  0.35012175829E+04  0.35010630089E+04 0.  0.
        2    1    3    3  502    0  0.70212166366E+03 -0.13437330583E+04 -0.85867018158E+03  0.17423856758E+04  0.25500000920E-02 0.  1.
       -2    1    3    3    0  502 -0.70212166366E+03  0.13437330583E+04  0.89156957921E+03  0.17588319070E+04  0.25500000920E-02 0. -1.
</event>
<event>
 5   0  0.1121462E-08  0.3500019E+04  0.7818609E-02  0.8113785E-01
        1   -1    0    0  501    0  0.00000000000E+00  0.00000000000E+00  0.26108316860E+04  0.26108316860E+04  0.50400001928E-02 0.  1.
       -1   -1    0    0    0  501  0.00000000000E+00  0.00000000000E+00 -0.11730108465E+04  0.11730108465E+04  0.50400001928E-02 0. -1.
    10030    2    1    2    0    0  0.00000000000E+00  0.00000000000E+00  0.14378208395E+04  0.37838425325E+04  0.35000193634E+04 0.  0.
        1    1    3    3  502    0 -0.11777065027E+04 -0.10144887704E+04  0.15880664858E+04  0.22221915388E+04  0.50400001928E-02 0.  1.
       -1    1    3    3    0  502  0.11777065027E+04  0.10144887704E+04 -0.15024564634E+03  0.15616509936E+04  0.50400001928E-02 0. -1.
</event>
<event>
 5   0  0.1121462E-08  0.3500648E+04  0.7818609E-02  0.8113636E-01
       -1   -1    0    0    0  501  0.00000000000E+00  0.00000000000E+00  0.20113312152E+04  0.20113312152E+04  0.50400001928E-02 0. -1.
        1   -1    0    0  501    0  0.00000000000E+00  0.00000000000E+00 -0.15231876256E+04  0.15231876256E+04  0.50400001928E-02 0.  1.
    10030    2    1    2    0    0  0.00000000000E+00  0.00000000000E+00  0.48814358966E+03  0.35345188408E+04  0.35006484074E+04 0.  0.
        1    1    3    3  502    0  0.13139711295E+04 -0.24861259624E+03  0.13842929327E+04  0.19247325205E+04  0.50400001928E-02 0. -1.
       -1    1    3    3    0  502 -0.13139711295E+04  0.24861259624E+03 -0.89614934301E+03  0.16097863203E+04  0.50400001928E-02 0.  1.
</event>
<event>
 5   0  0.3554451E-08  0.3499748E+04  0.7818609E-02  0.8113850E-01
        2   -1    0    0  501    0  0.00000000000E+00  0.00000000000E+00  0.37114075518E+04  0.37114075518E+04  0.25500000920E-02 0. -1.
       -2   -1    0    0    0  501  0.00000000000E+00  0.00000000000E+00 -0.82503983688E+03  0.82503983688E+03  0.25500000920E-02 0.  1.
    10030    2    1    2    0    0  0.00000000000E+00  0.00000000000E+00  0.28863677149E+04  0.45364473887E+04  0.34997480373E+04 0.  0.
        5    1    3    3  502    0  0.92119615618E+02  0.98856256047E+03  0.33109548756E+04  0.34566148524E+04  0.46999998093E+01 0. -1.
       -5    1    3    3    0  502 -0.92119615618E+02 -0.98856256047E+03 -0.42458716063E+03  0.10798325363E+04  0.46999998093E+01 0.  1.
</event>
<event>
 5   0  0.1140808E-08  0.3500242E+04  0.7818609E-02  0.8113733E-01
       -1   -1    0    0    0  501  0.00000000000E+00  0.00000000000E+00  0.13154297265E+04  0.13154297265E+04  0.50400001928E-02 0.  1.
        1   -1    0    0  501    0  0.00000000000E+00  0.00000000000E+00 -0.23284582331E+04  0.23284582331E+04  0.50400001928E-02 0. -1.
    10030    2    1    2    0    0  0.00000000000E+00  0.00000000000E+00 -0.10130285065E+04  0.36438879596E+04  0.35002418069E+04 0.  0.
        3    1    3    3  502    0 -0.36668212968E+03 -0.11281991094E+04  0.83300560222E+03  0.14495472942E+04  0.10100000352E+00 0.  1.
       -3    1    3    3    0  502  0.36668212968E+03  0.11281991094E+04 -0.18460341088E+04  0.21943406654E+04  0.10100000352E+00 0. -1.
</event>
<event>
 5   0  0.1129219E-08  0.3503291E+04  0.7818609E-02  0.8113011E-01
        1   -1    0    0  501    0  0.00000000000E+00  0.00000000000E+00  0.12522418573E+04  0.12522418573E+04  0.50400001928E-02 0. -1.
       -1   -1    0    0    0  501  0.00000000000E+00  0.00000000000E+00 -0.24502145632E+04  0.24502145632E+04  0.50400001928E-02 0.  1.
    10030    2    1    2    0    0  0.00000000000E+00  0.00000000000E+00 -0.11979727059E+04  0.37024564206E+04  0.35032905877E+04 0.  0.
        5    1    3    3  502    0 -0.90610822637E+03 -0.33213894379E+03 -0.21439026435E+04  0.23511037898E+04  0.46999998093E+01 0.  1.
       -5    1    3    3    0  502  0.90610822637E+03  0.33213894379E+03  0.94592993755E+03  0.13513526307E+04  0.46999998093E+01 0. -1.
</event>
<event>
 5   0  0.3553585E-08  0.3501076E+04  0.7818609E-02  0.8113535E-01
        2   -1    0    0  501    0  0.00000000000E+00  0.00000000000E+00  0.16795079430E+04  0.16795079430E+04  0.25500000920E-02 0.  1.
       -2   -1    0    0    0  501  0.00000000000E+00  0.00000000000E+00 -0.18245718398E+04  0.18245718398E+04  0.25500000920E-02 0. -1.
    10030    2    1    2    0    0  0.00000000000E+00  0.00000000000E+00 -0.14506389674E+03  0.35040797828E+04  0.35010757761E+04 0.  0.
        2    1    3    3  502    0 -0.11259167527E+04  0.13319989437E+04 -0.22257113945E+03  0.17582512995E+04  0.25500000920E-02 0. -1.
       -2    1    3    3    0  502  0.11259167527E+04 -0.13319989437E+04  0.77507242709E+02  0.17458284832E+04  0.25500000920E-02 0.  1.
</event>
<event>
 5   0  0.3700096E-08  0.3502068E+04  0.7818609E-02  0.8113300E-01
       -2   -1    0    0    0  501  0.00000000000E+00  0.00000000000E+00  0.14437042081E+04  0.14437042081E+04  0.25500000920E-02 0. -1.
        2   -1    0    0  501    0  0.00000000000E+00  0.00000000000E+00 -0.21237863107E+04  0.21237863107E+04  0.25500000920E-02 0.  1.
    10030    2    1    2    0    0  0.00000000000E+00  0.00000000000E+00 -0.68008210260E+03  0.35674905187E+04  0.35020675229E+04 0.  0.
        4    1    3    3  502    0 -0.57093864298E+03  0.97383294246E+03  0.10235451698E+04  0.15238004664E+04  0.12699999809E+01 0. -1.
       -4    1    3    3    0  502  0.57093864298E+03 -0.97383294246E+03 -0.17036272724E+04  0.20436900523E+04  0.12699999809E+01 0.  1.
</event>
<event>
 5   0  0.1140808E-08  0.3500514E+04  0.7818609E-02  0.8113668E-01
       -1   -1    0    0    0  501  0.00000000000E+00  0.00000000000E+00  0.10346827341E+04  0.10346827341E+04  0.50400001928E-02 0. -1.
        1   -1    0    0  501    0  0.00000000000E+00  0.00000000000E+00 -0.29607136408E+04  0.29607136408E+04  0.50400001928E-02 0.  1.
    10030    2    1    2    0    0  0.00000000000E+00  0.00000000000E+00 -0.19260309067E+04  0.39953963749E+04  0.35005138392E+04 0.  0.
        3    1    3    3  502    0  0.81943177404E+03 -0.71999995012E+02  0.80030502263E+03  0.11476674479E+04  0.10100000352E+00 0. -1.
       -3    1    3    3    0  502 -0.81943177404E+03  0.71999995012E+02 -0.27263359293E+04  0.28477289269E+04  0.10100000352E+00 0.  1.
</event>
<event>
 5   0  0.3553585E-08  0.3500523E+04  0.7818609E-02  0.8113666E-01
        2   -1    0    0  501    0  0.00000000000E+00  0.00000000000E+00  0.19988023214E+04  0.19988023214E+04  0.25500000920E-02 0. -1.
       -2   -1    0    0    0  501  0.00000000000E+00  0.00000000000E+00 -0.15326251645E+04  0.15326251645E+04  0.25500000920E-02 0.  1.
    10030    2    1    2    0    0  0.00000000000E+00  0.00000000000E+00  0.46617715691E+03  0.35314274859E+04  0.35005226676E+04 0.  0.
        2    1    3    3  502    0  0.82090667372E+03  0.14066660676E+04  0.87969779343E+03  0.18510714196E+04  0.25500000920E-02 0. -1.
       -2    1    3    3    0  502 -0.82090667372E+03 -0.14066660676E+04 -0.41352063652E+03  0.16803560663E+04  0.25500000920E-02 0.  1.
</event>
<event>
 5   0  0.3700096E-08  0.3499776E+04  0.7818609E-02  0.8113843E-01
        2   -1    0    0  501    0  0.00000000000E+00  0.00000000000E+00  0.25758616418E+04  0.25758616418E+04  0.25500000920E-02 0.  1.
       -2   -1    0    0    0  501  0.00000000000E+00  0.00000000000E+00 -0.11887701375E+04  0.11887701375E+04  0.25500000920E-02 0. -1.
    10030    2    1    2    0    0  0.00000000000E+00  0.00000000000E+00  0.13870915043E+04  0.37646317793E+04  0.34997756489E+04 0.  0.
        4    1    3    3  502    0 -0.73289418353E+02 -0.17403267611E+03  0.25648691196E+04  0.25718114092E+04  0.12699999809E+01 0.  1.
       -4    1    3    3    0  502  0.73289418353E+02  0.17403267611E+03 -0.11777776153E+04  0.11928203701E+04  0.12699999809E+01 0. -1.
</event>
<event>
 5   0  0.3467834E-08  0.3496567E+04  0.7818609E-02  0.8114604E-01
        2   -1    0    0  501    0  0.00000000000E+00  0.00000000000E+00  0.22410885549E+04  0.22410885549E+04  0.25500000920E-02 0. -1.
       -2   -1    0    0    0  501  0.00000000000E+00  0.00000000000E+00 -0.13638436342E+04  0.13638436342E+04  0.25500000920E-02 0.  1.
    10030    2    1    2    0    0  0.00000000000E+00  0.00000000000E+00  0.87724492071E+03  0.36049321891E+04  0.34965665212E+04 0.  0.
        3    1    3    3  502    0 -0.15820519690E+04 -0.68517434272E+03  0.13956006006E+03  0.17296905310E+04  0.10100000352E+00 0.  1.
       -3    1    3    3    0  502  0.15820519690E+04  0.68517434272E+03  0.73768486065E+03  0.18752416581E+04  0.10100000352E+00 0. -1.
</event>
<event>
 5   0  0.1129219E-08  0.3501566E+04  0.7818609E-02  0.8113419E-01
        1   -1    0    0  501    0  0.00000000000E+00  0.00000000000E+00  0.20465390447E+04  0.20465390447E+04  0.50400001928E-02 0. -1.
       -1   -1    0    0    0  501  0.00000000000E+00  0.00000000000E+00 -0.14977685942E+04  0.14977685942E+04  0.50400001928E-02 0.  1.
    10030    2    1    2    0    0  0.00000000000E+00  0.00000000000E+00  0.54877045049E+03  0.35443076389E+04  0.35015664540E+04 0.  0.
        5    1    3    3  502    0 -0.85000309125E+03 -0.56597588182E+03  0.17138500219E+04  0.19950283059E+04  0.46999998093E+01 0. -1.
       -5    1    3    3    0  502  0.85000309125E+03  0.56597588182E+03 -0.11650795714E+04  0.15492793330E+04  0.46999998093E+01 0.  1.
</event>
<event>
 5   0  0.3553585E-08  0.3501186E+04  0.7818609E-02  0.8113509E-01
       -2   -1    0    0    0  501  0.00000000000E+00  0.00000000000E+00  0.15880581600E+04  0.15880581600E+04  0.25500000920E-02 0. -1.
        2   -1    0    0  501    0  0.00000000000E+00  0.00000000000E+00 -0.19297627393E+04  0.19297627393E+04  0.25500000920E-02 0.  1.
    10030    2    1    2    0    0  0.00000000000E+00  0.00000000000E+00 -0.34170457934E+03  0.35178208993E+04  0.35011857791E+04 0.  0.
        2    1    3    3  502    0  0.60266383452E+03 -0.16384750177E+04 -0.30097197959E+03  0.17715496644E+04  0.25500000920E-02 0. -1.
       -2    1    3    3    0  502 -0.60266383452E+03  0.16384750177E+04 -0.40732599745E+02  0.17462712349E+04  0.25500000920E-02 0.  1.
</event>
<event>
 5   0  0.1121462E-08  0.3505214E+04  0.7818609E-02  0.8112555E-01
       -3   -1    0    0    0  501  0.00000000000E+00  0.00000000000E+00  0.11933264913E+04  0.11933264955E+04  0.10100000352E+00 0. -1.
        3   -1    0    0  501    0  0.00000000000E+00  0.00000000000E+00 -0.25740070683E+04  0.25740070703E+04  0.10100000352E+00 0.  1.
    10030    2    1    2    0    0  0.00000000000E+00  0.00000000000E+00 -0.13806805770E+04  0.37673335658E+04  0.35052137367E+04 0.  0.
        5    1    3    3  502    0  0.40679081695E+03  0.92324235522E+03 -0.22305992046E+04  0.24481523884E+04  0.46999998093E+01 0.  1.
       -5    1    3    3    0  502 -0.40679081695E+03 -0.92324235522E+03  0.84991862761E+03  0.13191811774E+04  0.46999998093E+01 0. -1.
</event>
<event>
 5   0  0.1121462E-08  0.3500398E+04  0.7818609E-02  0.8113696E-01
        1   -1    0    0  501    0  0.00000000000E+00  0.00000000000E+00  0.31170485317E+04  0.31170485317E+04  0.50400001928E-02 0.  1.
       -1   -1    0    0    0  501  0.00000000000E+00  0.00000000000E+00 -0.98272336231E+03  0.98272336232E+03  0.50400001928E-02 0. -1.
    10030    2    1    2    0    0  0.00000000000E+00  0.00000000000E+00  0.21343251694E+04  0.40997718941E+04  0.35003979280E+04 0.  0.
        4    1    3    3  502    0 -0.83949464129E+02  0.48759414464E+03  0.30334343007E+04  0.30735192910E+04  0.12699999809E+01 0.  1.
       -4    1    3    3    0  502  0.83949464129E+02 -0.48759414464E+03 -0.89910913130E+03  0.10262526031E+04  0.12699999809E+01 0. -1.
</event>
<event>
 5   0  0.3553585E-08  0.3498977E+04  0.7818609E-02  0.8114032E-01
       -2   -1    0    0    0  501  0.00000000000E+00  0.00000000000E+00  0.14912002623E+04  0.14912002623E+04  0.25500000920E-02 0.  1.
        2   -1    0    0  501    0  0.00000000000E+00  0.00000000000E+00 -0.20525147022E+04  0.20525147022E+04  0.25500000920E-02 0. -1.
    10030    2    1    2    0    0  0.00000000000E+00  0.00000000000E+00 -0.56131443996E+03  0.35437149645E+04  0.34989772576E+04 0.  0.
        2    1    3    3  502    0 -0.98575080535E+02  0.13336834006E+04  0.86171952769E+03  0.15909082324E+04  0.25500000920E-02 0.  1.
       -2    1    3    3    0  502  0.98575080535E+02 -0.13336834006E+04 -0.14230339676E+04  0.19528067320E+04  0.25500000920E-02 0. -1.
</event>
<event>
 5   0  0.1129219E-08  0.3499925E+04  0.7818609E-02  0.8113808E-01
       -1   -1    0    0    0  501  0.00000000000E+00  0.00000000000E+00  0.21059094557E+04  0.21059094557E+04  0.50400001928E-02 0. -1.
        1   -1    0    0  501    0  0.00000000000E+00  0.00000000000E+00 -0.14541784379E+04  0.14541784379E+04  0.50400001928E-02 0.  1.
    10030    2    1    2    0    0  0.00000000000E+00  0.00000000000E+00  0.65173101778E+03  0.35600878936E+04  0.34999246407E+04 0.  0.
        5    1    3    3  502    0  0.73777673079E+03 -0.11060234617E+04  0.14832933330E+04  0.19919296182E+04  0.46999998093E+01 0. -1.
       -5    1    3    3    0  502 -0.73777673079E+03  0.11060234617E+04 -0.83156231520E+03  0.15681582753E+04  0.46999998093E+01 0.  1.
</event>
<event>
 5   0  0.1129219E-08  0.3500344E+04  0.7818609E-02  0.8113708E-01
        1   -1    0    0  501    0  0.00000000000E+00  0.00000000000E+00  0.25434374967E+04  0.25434374967E+04  0.50400001928E-02 0.  1.
       -1   -1    0    0    0  501  0.00000000000E+00  0.00000000000E+00 -0.12043161122E+04  0.12043161122E+04  0.50400001928E-02 0. -1.
    10030    2    1    2    0    0  0.00000000000E+00  0.00000000000E+00  0.13391213845E+04  0.37477536089E+04  0.35003444160E+04 0.  0.
        5    1    3    3  502    0 -0.55038746726E+03 -0.16331247992E+04  0.99617589436E+03  0.19905806882E+04  0.46999998093E+01 0.  1.
       -5    1    3    3    0  502  0.55038746726E+03  0.16331247992E+04  0.34294549019E+03  0.17571729207E+04  0.46999998093E+01 0. -1.
</event>
<event>
 5   0  0.1140808E-08  0.3500054E+04  0.7818609E-02  0.8113777E-01
        1   -1    0    0  501    0  0.00000000000E+00  0.00000000000E+00  0.11631575192E+04  0.11631575192E+04  0.50400001928E-02 0.  1.
       -1   -1    0    0    0  501  0.00000000000E+00  0.00000000000E+00 -0.26330001142E+04  0.26330001142E+04  0.50400001928E-02 0. -1.
    10030    2    1    2    0    0  0.00000000000E+00  0.00000000000E+00 -0.14698425951E+04  0.37961576334E+04  0.35000536458E+04 0.  0.
        3    1    3    3  502    0 -0.83945193631E+03  0.13388381681E+04 -0.15504846162E+04  0.22138585657E+04  0.10100000352E+00 0. -1.
       -3    1    3    3    0  502  0.83945193631E+03 -0.13388381681E+04  0.80642021181E+02  0.15822990676E+04  0.10100000352E+00 0.  1.
</event>
<event>
 5   0  0.1121462E-08  0.3500078E+04  0.7818609E-02  0.8113771E-01
        1   -1    0    0  501    0  0.00000000000E+00  0.00000000000E+00  0.22715967449E+04  0.22715967449E+04  0.50400001928E-02 0. -1.
       -1   -1    0    0    0  501  0.00000000000E+00  0.00000000000E+00 -0.13482307336E+04  0.13482307336E+04  0.50400001928E-02 0.  1.
    10030    2    1    2    0    0  0.00000000000E+00  0.00000000000E+00  0.92336601130E+03  0.36198274785E+04  0.35000780253E+04 0.  0.
        2    1    3    3  502    0  0.14987374935E+04 -0.11996854348E+03 -0.46451844880E+03  0.15736530479E+04  0.25500000920E-02 0.  1.
       -2    1    3    3    0  502 -0.14987374935E+04  0.11996854348E+03  0.13878844601E+04  0.20461744306E+04  0.25500000920E-02 0. -1.
</event>
<event>
 5   0  0.3554451E-08  0.3498608E+04  0.7818609E-02  0.8114120E-01
        2   -1    0    0  501    0  0.00000000000E+00  0.00000000000E+00  0.14171162283E+04  0.14171162283E+04  0.25500000920E-02 0. -1.
       -2   -1    0    0    0  501  0.00000000000E+00  0.00000000000E+00 -0.21593602341E+04  0.21593602341E+04  0.25500000920E-02 0.  1.
    10030    2    1    2    0    0  0.00000000000E+00  0.00000000000E+00 -0.74224400581E+03  0.35764764624E+04  0.34986079692E+04 0.  0.
        5    1    3    3  502    0 -0.15638022732E+04 -0.60566799872E+03 -0.87992577916E+03  0.18938328177E+04  0.46999998093E+01 0.  1.
       -5    1    3    3    0  502  0.15638022732E+04  0.60566799872E+03  0.13768177335E+03  0.16826436447E+04  0.46999998093E+01 0. -1.
</event>
<event>
 5   0  0.1121462E-08  0.3499482E+04  0.7818609E-02  0.8113913E-01
        1   -1    0    0  501    0  0.00000000000E+00  0.00000000000E+00  0.30517307291E+04  0.30517307291E+04  0.50400001928E-02 0. -1.
       -1   -1    0    0    0  501  0.00000000000E+00  0.00000000000E+00 -0.10032316843E+04  0.10032316843E+04  0.50400001928E-02 0.  1.
    10030    2    1    2    0    0  0.00000000000E+00  0.00000000000E+00  0.20484990449E+04  0.40549624134E+04  0.34994816527E+04 0.  0.
        4    1    3    3  502    0 -0.10774465311E+04 -0.99287912030E+03  0.21325764324E+04  0.25873893846E+04  0.12699999809E+01 0.  1.
       -4    1    3    3    0  502  0.10774465311E+04  0.99287912030E+03 -0.84077387512E+02  0.14675730288E+04  0.12699999809E+01 0. -1.
</event>
<event>
 5   0  0.1129219E-08  0.3499280E+04  0.7818609E-02  0.8113961E-01
        1   -1    0    0  501    0  0.00000000000E+00  0.00000000000E+00  0.21838799614E+04  0.21838799614E+04  0.50400001928E-02 0.  1.
       -1   -1    0    0    0  501  0.00000000000E+00  0.00000000000E+00 -0.14017434354E+04  0.14017434354E+04  0.50400001928E-02 0. -1.
    10030    2    1    2    0    0  0.00000000000E+00  0.00000000000E+00  0.78213652605E+03  0.35856233968E+04  0.34992795827E+04 0.  0.
        5    1    3    3  502    0 -0.16161024832E+04  0.55141244755E+03  0.78175617767E+03  0.18780329429E+04  0.46999998093E+01 0. -1.
       -5    1    3    3    0  502  0.16161024832E+04 -0.55141244755E+03  0.38034838075E+00  0.17075904539E+04  0.46999998093E+01 0.  1.
</event>
<event>
 5   0  0.3553585E-08  0.3499821E+04  0.7818609E-02  0.8113832E-01
       -2   -1    0    0    0  501  0.00000000000E+00  0.00000000000E+00  0.12979783585E+04  0.12979783585E+04  0.25500000920E-02 0. -1.
        2   -1    0    0  501    0  0.00000000000E+00  0.00000000000E+00 -0.23591970691E+04  0.23591970691E+04  0.25500000920E-02 0.  1.
    10030    2    1    2    0    0  0.00000000000E+00  0.00000000000E+00 -0.10612187105E+04  0.36571754276E+04  0.34998209893E+04 0.  0.
        2    1    3    3  502    0 -0.95744029602E+03  0.66407419449E+02 -0.20596425128E+04  0.22722740034E+04  0.25500000920E-02 0.  1.
       -2    1    3    3    0  502  0.95744029602E+03 -0.66407419449E+02  0.99842380231E+03  0.13849014242E+04  0.25500000920E-02 0. -1.
</event>
<event>
 5   0  0.1121462E-08  0.3500130E+04  0.7818609E-02  0.8113759E-01
        1   -1    0    0  501    0  0.00000000000E+00  0.00000000000E+00  0.10414697730E+04  0.10414697730E+04  0.50400001928E-02 0. -1.
       -1   -1    0    0    0  501  0.00000000000E+00  0.00000000000E+00 -0.29407746650E+04  0.29407746650E+04  0.50400001928E-02 0.  1.
    10030    2    1    2    0    0  0.00000000000E+00  0.00000000000E+00 -0.18993048920E+04  0.39822444380E+04  0.35001302392E+04 0.  0.
        2    1    3    3  502    0 -0.12055733628E+04 -0.31506869493E+03  0.44845237759E+03  0.13243054597E+04  0.25500000920E-02 0. -1.
       -2    1    3    3    0  502  0.12055733628E+04  0.31506869493E+03 -0.23477572696E+04  0.26579389783E+04  0.25500000920E-02 0.  1.
</event>
<event>
 5   0  0.3554451E-08  0.3499927E+04  0.7818609E-02  0.8113807E-01
        2   -1    0    0  501    0  0.00000000000E+00  0.00000000000E+00  0.18668709439E+04  0.18668709439E+04  0.25500000920E-02 0. -1.
       -2   -1    0    0    0  501  0.00000000000E+00  0.00000000000E+00 -0.16403770582E+04  0.16403770582E+04  0.25500000920E-02 0.  1.
    10030    2    1    2    0    0  0.00000000000E+00  0.00000000000E+00  0.22649388575E+03  0.35072480021E+04  0.34999270090E+04 0.  0.
        5    1    3    3  502    0 -0.13052153509E+04 -0.96207302527E+02  0.12773598257E+04  0.18288010202E+04  0.46999998093E+01 0. -1.
       -5    1    3    3    0  502  0.13052153509E+04  0.96207302527E+02 -0.10508659400E+04  0.16784469819E+04  0.46999998093E+01 0.  1.
</event>
<event>
 5   0  0.1121462E-08  0.3498171E+04  0.7818609E-02  0.8114224E-01
       -1   -1    0    0    0  501  0.00000000000E+00  0.00000000000E+00  0.17148723460E+04  0.17148723460E+04  0.50400001928E-02 0.  1.
        1   -1    0    0  501    0  0.00000000000E+00  0.00000000000E+00 -0.17839810903E+04  0.17839810903E+04  0.50400001928E-02 0. -1.
    10030    2    1    2    0    0  0.00000000000E+00  0.00000000000E+00 -0.69108744232E+02  0.34988534363E+04  0.34981708578E+04 0.  0.
        1    1    3    3  502    0 -0.13566708146E+04  0.10597038318E+04 -0.34408515540E+03  0.17555405163E+04  0.50400001928E-02 0.  1.
       -1    1    3    3    0  502  0.13566708146E+04 -0.10597038318E+04  0.27497641117E+03  0.17433129200E+04  0.50400001928E-02 0. -1.
</event>
<event>
 5   0  0.3467834E-08  0.3498882E+04  0.7818609E-02  0.8114055E-01
        2   -1    0    0  501    0  0.00000000000E+00  0.00000000000E+00  0.15890403784E+04  0.15890403784E+04  0.25500000920E-02 0. -1.
       -2   -1    0    0    0  501  0.00000000000E+00  0.00000000000E+00 -0.19260323280E+04  0.19260323280E+04  0.25500000920E-02 0.  1.
    10030    2    1    2    0    0  0.00000000000E+00  0.00000000000E+00 -0.33699194954E+03  0.35150727064E+04  0.34988816152E+04 0.  0.
        3    1    3    3  502    0 -0.56509728554E+03  0.16294550833E+04  0.12626303358E+03  0.17292776453E+04  0.10100000352E+00 0.  1.
       -3    1    3    3    0  502  0.56509728554E+03 -0.16294550833E+04 -0.46325498313E+03  0.17857950611E+04  0.10100000352E+00 0. -1.
</event>
<event>
 5   0  0.3554451E-08  0.3500409E+04  0.7818609E-02  0.8113693E-01
       -2   -1    0    0    0  501  0.00000000000E+00  0.00000000000E+00  0.13295824269E+04  0.13295824269E+04  0.25500000920E-02 0. -1.
        2   -1    0    0  501    0  0.00000000000E+00  0.00000000000E+00 -0.23038927206E+04  0.23038927206E+04  0.25500000920E-02 0.  1.
    10030    2    1    2    0    0  0.00000000000E+00  0.00000000000E+00 -0.97431029374E+03  0.36334751475E+04  0.35004087045E+04 0.  0.
        5    1    3    3  502    0  0.16224618539E+04 -0.65535094403E+03 -0.52495167102E+03  0.18268726486E+04  0.46999998093E+01 0.  1.
       -5    1    3    3    0  502 -0.16224618539E+04  0.65535094403E+03 -0.44935862272E+03  0.18066024989E+04  0.46999998093E+01 0. -1.
</event>
<event>
 5   0  0.1121462E-08  0.3501031E+04  0.7818609E-02  0.8113546E-01
        1   -1    0    0  501    0  0.00000000000E+00  0.00000000000E+00  0.23953784381E+04  0.23953784381E+04  0.50400001928E-02 0. -1.
       -1   -1    0    0    0  501  0.00000000000E+00  0.00000000000E+00 -0.12792567669E+04  0.12792567669E+04  0.50400001928E-02 0.  1.
    10030    2    1    2    0    0  0.00000000000E+00  0.00000000000E+00  0.11161216712E+04  0.36746352050E+04  0.35010307489E+04 0.  0.
        1    1    3    3  502    0 -0.84232948943E+03  0.38533310901E+02  0.21681761497E+04  0.23263687586E+04  0.50400001928E-02 0. -1.
       -1    1    3    3    0  502  0.84232948943E+03 -0.38533310901E+02 -0.10520544785E+04  0.13482664464E+04  0.50400001928E-02 0.  1.
</event>
<event>
 5   0  0.3553585E-08  0.3499175E+04  0.7818609E-02  0.8113985E-01
        2   -1    0    0  501    0  0.00000000000E+00  0.00000000000E+00  0.13108834132E+04  0.13108834133E+04  0.25500000920E-02 0. -1.
       -2   -1    0    0    0  501  0.00000000000E+00  0.00000000000E+00 -0.23351096318E+04  0.23351096319E+04  0.25500000920E-02 0.  1.
    10030    2    1    2    0    0  0.00000000000E+00  0.00000000000E+00 -0.10242262186E+04  0.36459930451E+04  0.34991750368E+04 0.  0.
        2    1    3    3  502    0 -0.65186917421E+03  0.13015783890E+04 -0.15234118900E+04  0.21070888708E+04  0.25500000920E-02 0.  1.
       -2    1    3    3    0  502  0.65186917421E+03 -0.13015783890E+04  0.49918567136E+03  0.15389041743E+04  0.25500000920E-02 0. -1.
</event>
<event>
 5   0  0.3554451E-08  0.3499871E+04  0.7818609E-02  0.8113820E-01
        2   -1    0    0  501    0  0.00000000000E+00  0.00000000000E+00  0.12471781505E+04  0.12471781505E+04  0.25500000920E-02 0. -1.
       -2   -1    0    0    0  501  0.00000000000E+00  0.00000000000E+00 -0.24553629959E+04  0.24553629959E+04  0.25500000920E-02 0.  1.
    10030    2    1    2    0    0  0.00000000000E+00  0.00000000000E+00 -0.12081848453E+04  0.37025411464E+04  0.34998714719E+04 0.  0.
        5    1    3    3  502    0  0.89494891140E+03 -0.85342291729E+03 -0.19139295101E+04  0.22786865711E+04  0.46999998093E+01 0.  1.
       -5    1    3    3    0  502 -0.89494891140E+03  0.85342291729E+03  0.70574466471E+03  0.14238545753E+04  0.46999998093E+01 0. -1.
</event>
<event>
 5   0  0.1121462E-08  0.3500196E+04  0.7818609E-02  0.8113744E-01
       -1   -1    0    0    0  501  0.00000000000E+00  0.00000000000E+00  0.16011961494E+04  0.16011961494E+04  0.50400001928E-02 0.  1.
        1   -1    0    0  501    0  0.00000000000E+00  0.00000000000E+00 -0.19128464028E+04  0.19128464028E+04  0.50400001928E-02 0. -1.
    10030    2    1    2    0    0  0.00000000000E+00  0.00000000000E+00 -0.31165025340E+03  0.35140425522E+04  0.35001955914E+04 0.  0.
        4    1    3    3  502    0 -0.49226354569E+03  0.32653478276E+03 -0.18097318346E+04  0.19037014705E+04  0.12699999809E+01 0. -1.
       -4    1    3    3    0  502  0.49226354569E+03 -0.32653478276E+03  0.14980815812E+04  0.16103410817E+04  0.12699999809E+01 0.  1.
</event>
<event>
 5   0  0.3554451E-08  0.3500411E+04  0.7818609E-02  0.8113693E-01
        2   -1    0    0  501    0  0.00000000000E+00  0.00000000000E+00  0.21439344686E+04  0.21439344686E+04  0.25500000920E-02 0. -1.
       -2   -1    0    0    0  501  0.00000000000E+00  0.00000000000E+00 -0.14287837052E+04  0.14287837052E+04  0.25500000920E-02 0.  1.
    10030    2    1    2    0    0  0.00000000000E+00  0.00000000000E+00  0.71515076333E+03  0.35727181738E+04  0.35004106238E+04 0.  0.
        5    1    3    3  502    0 -0.12620081649E+04 -0.17082043834E+03 -0.86778783854E+03  0.15410782112E+04  0.46999998093E+01 0.  1.
       -5    1    3    3    0  502  0.12620081649E+04  0.17082043834E+03  0.15829386019E+04  0.20316399626E+04  0.46999998093E+01 0. -1.
</event>
<event>
 5   0  0.1121462E-08  0.3506367E+04  0.7818609E-02  0.8112283E-01
       -1   -1    0    0    0  501  0.00000000000E+00  0.00000000000E+00  0.15294435815E+04  0.15294435815E+04  0.50400001928E-02 0.  1.
        1   -1    0    0  501    0  0.00000000000E+00  0.00000000000E+00 -0.20096538476E+04  0.20096538476E+04  0.50400001928E-02 0. -1.
    10030    2    1    2    0    0  0.00000000000E+00  0.00000000000E+00 -0.48021026614E+03  0.35390974292E+04  0.35063668823E+04 0.  0.
        4    1    3    3  502    0  0.55418614768E+03 -0.15702033058E+03 -0.19114220999E+04  0.19963250556E+04  0.12699999809E+01 0. -1.
       -4    1    3    3    0  502 -0.55418614768E+03  0.15702033058E+03  0.14312118338E+04  0.15427723736E+04  0.12699999809E+01 0.  1.
</event>
<event>
 5   0  0.1129219E-08  0.3497983E+04  0.7818609E-02  0.8114268E-01
       -1   -1    0    0    0  501  0.00000000000E+00  0.00000000000E+00  0.11716776029E+04  0.11716776029E+04  0.50400001928E-02 0. -1.
        1   -1    0    0  501    0  0.00000000000E+00  0.00000000000E+00 -0.26107623786E+04  0.26107623786E+04  0.50400001928E-02 0.  1.
    10030    2    1    2    0    0  0.00000000000E+00  0.00000000000E+00 -0.14390847756E+04  0.37824399815E+04  0.34979833079E+04 0.  0.
        5    1    3    3  502    0 -0.64146840416E+03  0.13209178210E+04  0.30779380775E+03  0.15003548651E+04  0.46999998093E+01 0. -1.
       -5    1    3    3    0  502  0.64146840416E+03 -0.13209178210E+04 -0.17468785834E+04  0.22820851164E+04  0.46999998093E+01 0.  1.
</event>
<event>
 5   0  0.1129219E-08  0.3499103E+04  0.7818609E-02  0.8114003E-01
       -1   -1    0    0    0  501  0.00000000000E+00  0.00000000000E+00  0.12783921844E+04  0.12783921845E+04  0.50400001928E-02 0.  1.
        1   -1    0    0  501    0  0.00000000000E+00  0.00000000000E+00 -0.23943593577E+04  0.23943593577E+04  0.50400001928E-02 0. -1.
    10030    2    1    2    0    0  0.00000000000E+00  0.00000000000E+00 -0.11159671733E+04  0.36727515422E+04  0.34991029077E+04 0.  0.
        5    1    3    3  502    0 -0.12425625250E+03 -0.17354676285E+04 -0.75044256268E+03  0.18948545157E+04  0.46999998093E+01 0. -1.
       -5    1    3    3    0  502  0.12425625250E+03  0.17354676285E+04 -0.36552461059E+03  0.17778970265E+04  0.46999998093E+01 0.  1.
</event>
<event>
 5   0  0.3467834E-08  0.3500261E+04  0.7818609E-02  0.8113728E-01
        2   -1    0    0  501    0  0.00000000000E+00  0.00000000000E+00  0.12880841712E+04  0.12880841712E+04  0.25500000920E-02 0. -1.
       -2   -1    0    0    0  501  0.00000000000E+00  0.00000000000E+00 -0.23779166808E+04  0.23779166808E+04  0.25500000920E-02 0.  1.
    10030    2    1    2    0    0  0.00000000000E+00  0.00000000000E+00 -0.10898325097E+04  0.36660008520E+04  0.35002610399E+04 0.  0.
        3    1    3    3  502    0  0.91661707250E+03 -0.95971902417E+03  0.65003211734E+03  0.14777649430E+04  0.10100000352E+00 0. -1.
       -3    1    3    3    0  502 -0.91661707250E+03  0.95971902417E+03 -0.17398646270E+04  0.21882359090E+04  0.10100000352E+00 0.  1.
</event>
<event>
 5   0  0.1129219E-08  0.3499669E+04  0.7818609E-02  0.8113868E-01
       -1   -1    0    0    0  501  0.00000000000E+00  0.00000000000E+00  0.12544678124E+04  0.12544678124E+04  0.50400001928E-02 0. -1.
        1   -1    0    0  501    0  0.00000000000E+00  0.00000000000E+00 -0.24408126525E+04  0.24408126525E+04  0.50400001928E-02 0.  1.
    10030    2    1    2    0    0  0.00000000000E+00  0.00000000000E+00 -0.11863448400E+04  0.36952804649E+04  0.34996690750E+04 0.  0.
        5    1    3    3  502    0  0.51519698968E+03 -0.36077048877E+03  0.11309821506E+04  0.12941120503E+04  0.46999998093E+01 0. -1.
       -5    1    3    3    0  502 -0.51519698968E+03  0.36077048877E+03 -0.23173269906E+04  0.24011684146E+04  0.46999998093E+01 0.  1.
</event>
<event>
 5   0  0.1129219E-08  0.3500750E+04  0.7818609E-02  0.8113612E-01
        1   -1    0    0  501    0  0.00000000000E+00  0.00000000000E+00  0.21355252234E+04  0.21355252234E+04  0.50400001928E-02 0.  1.
       -1   -1    0    0    0  501  0.00000000000E+00  0.00000000000E+00 -0.14346884497E+04  0.14346884497E+04  0.50400001928E-02 0. -1.
    10030    2    1    2    0    0  0.00000000000E+00  0.00000000000E+00  0.70083677375E+03  0.35702136731E+04  0.35007504179E+04 0.  0.
        5    1    3    3  502    0 -0.93310684362E+03 -0.59989676249E+03 -0.10304146063E+04  0.15140478388E+04  0.46999998093E+01 0. -1.
       -5    1    3    3    0  502  0.93310684362E+03  0.59989676249E+03  0.17312513801E+04  0.20561658343E+04  0.46999998093E+01 0.  1.
</event>
<event>
 5   0  0.3467834E-08  0.3499447E+04  0.7818609E-02  0.8113921E-01
       -2   -1    0    0    0  501  0.00000000000E+00  0.00000000000E+00  0.17883279045E+04  0.17883279045E+04  0.25500000920E-02 0. -1.
        2   -1    0    0  501    0  0.00000000000E+00  0.00000000000E+00 -0.17119523986E+04  0.17119523986E+04  0.25500000920E-02 0.  1.
    10030    2    1    2    0    0  0.00000000000E+00  0.00000000000E+00  0.76375505901E+02  0.35002803032E+04  0.34994469539E+04 0.  0.
        3    1    3    3  502    0  0.15572574122E+03 -0.15992521616E+04  0.73093787854E+03  0.17652558385E+04  0.10100000352E+00 0. -1.
       -3    1    3    3    0  502 -0.15572574122E+03  0.15992521616E+04 -0.65456237264E+03  0.17350244646E+04  0.10100000352E+00 0.  1.
</event>
<event>
 5   0  0.3628017E-08  0.3497589E+04  0.7818609E-02  0.8114362E-01
       -2   -1    0    0    0  501  0.00000000000E+00  0.00000000000E+00  0.13974606924E+04  0.13974606924E+04  0.25500000920E-02 0.  1.
        2   -1    0    0  501    0  0.00000000000E+00  0.00000000000E+00 -0.21884562228E+04  0.21884562228E+04  0.25500000920E-02 0. -1.
    10030    2    1    2    0    0  0.00000000000E+00  0.00000000000E+00 -0.79099553039E+03  0.35859169153E+04  0.34975886256E+04 0.  0.
        1    1    3    3  502    0  0.22769316853E+03  0.24391020223E+03 -0.21555174439E+04  0.21811904586E+04  0.50400001928E-02 0. -1.
       -1    1    3    3    0  502 -0.22769316853E+03 -0.24391020223E+03  0.13645219135E+04  0.14047264567E+04  0.50400001928E-02 0.  1.
</event>
<event>
 5   0  0.3700096E-08  0.3500158E+04  0.7818609E-02  0.8113752E-01
        2   -1    0    0  501    0  0.00000000000E+00  0.00000000000E+00  0.26713730386E+04  0.26713730386E+04  0.25500000920E-02 0. -1.
       -2   -1    0    0    0  501  0.00000000000E+00  0.00000000000E+00 -0.11465179838E+04  0.11465179838E+04  0.25500000920E-02 0.  1.
    10030    2    1    2    0    0  0.00000000000E+00  0.00000000000E+00  0.15248550548E+04  0.38178910225E+04  0.35001584137E+04 0.  0.
        4    1    3    3  502    0 -0.16910068216E+04 -0.13027810170E+03  0.29162229697E+03  0.17209072117E+04  0.12699999809E+01 0. -1.
       -4    1    3    3    0  502  0.16910068216E+04  0.13027810170E+03  0.12332327578E+04  0.20969838107E+04  0.12699999809E+01 0.  1.
</event>
<event>
 5   0  0.1121462E-08  0.3501670E+04  0.7818609E-02  0.8113394E-01
       -1   -1    0    0    0  501  0.00000000000E+00  0.00000000000E+00  0.16024579523E+04  0.16024579523E+04  0.50400001928E-02 0.  1.
        1   -1    0    0  501    0  0.00000000000E+00  0.00000000000E+00 -0.19129509195E+04  0.19129509195E+04  0.50400001928E-02 0. -1.
    10030    2    1    2    0    0  0.00000000000E+00  0.00000000000E+00 -0.31049296725E+03  0.35154088718E+04  0.35016701234E+04 0.  0.
        2    1    3    3  502    0 -0.12896789941E+04  0.13664229667E+03  0.10255828066E+04  0.16534095435E+04  0.25500000920E-02 0.  1.
       -2    1    3    3    0  502  0.12896789941E+04 -0.13664229667E+03 -0.13360757739E+04  0.18619993283E+04  0.25500000920E-02 0. -1.
</event>
<event>
 5   0  0.3554451E-08  0.3500084E+04  0.7818609E-02  0.8113770E-01
        2   -1    0    0  501    0  0.00000000000E+00  0.00000000000E+00  0.22548886099E+04  0.22548886099E+04  0.25500000920E-02 0.  1.
       -2   -1    0    0    0  501  0.00000000000E+00  0.00000000000E+00 -0.13582250370E+04  0.13582250370E+04  0.25500000920E-02 0. -1.
    10030    2    1    2    0    0  0.00000000000E+00  0.00000000000E+00  0.89666357290E+03  0.36131136469E+04  0.35000835222E+04 0.  0.
        5    1    3    3  502    0 -0.29173143257E+03  0.91145111923E+03  0.19608351445E+04  0.21819135926E+04  0.46999998093E+01 0.  1.
       -5    1    3    3    0  502  0.29173143257E+03 -0.91145111923E+03 -0.10641715716E+04  0.14312000543E+04  0.46999998093E+01 0. -1.
</event>
<event>
 5   0  0.1121462E-08  0.3500378E+04  0.7818609E-02  0.8113700E-01
        1   -1    0    0  501    0  0.00000000000E+00  0.00000000000E+00  0.15697629580E+04  0.15697629580E+04  0.50400001928E-02 0. -1.
       -1   -1    0    0    0  501  0.00000000000E+00  0.00000000000E+00 -0.19513526418E+04  0.19513526418E+04  0.50400001928E-02 0.  1.
    10030    2    1    2    0    0  0.00000000000E+00  0.00000000000E+00 -0.38158968375E+03  0.35211155998E+04  0.35003777482E+04 0.  0.
        4    1    3    3  502    0 -0.10351333060E+04  0.13781950193E+04 -0.49629959832E+03  0.17936659044E+04  0.12699999809E+01 0.  1.
       -4    1    3    3    0  502  0.10351333060E+04 -0.13781950193E+04  0.11470991457E+03  0.17274496953E+04  0.12699999809E+01 0. -1.
</event>
<event>
 5   0  0.3628017E-08  0.3501044E+04  0.7818609E-02  0.8113542E-01
        2   -1    0    0  501    0  0.00000000000E+00  0.00000000000E+00  0.16294131764E+04  0.16294131764E+04  0.25500000920E-02 0. -1.
       -2   -1    0    0    0  501  0.00000000000E+00  0.00000000000E+00 -0.18806329715E+04  0.18806329715E+04  0.25500000920E-02 0.  1.
    10030    2    1    2    0    0  0.00000000000E+00  0.00000000000E+00 -0.25121979515E+03  0.35100461479E+04  0.35010444977E+04 0.  0.
        1    1    3    3  502    0  0.10688194350E+04  0.14395740577E+03 -0.15080058681E+04  0.18539634348E+04  0.50400001928E-02 0.  1.
       -1    1    3    3    0  502 -0.10688194350E+04 -0.14395740577E+03  0.12567860730E+04  0.16560827131E+04  0.50400001928E-02 0. -1.
</event>
<event>
 5   0  0.1121462E-08  0.3499263E+04  0.7818609E-02  0.8113965E-01
       -4   -1    0    0    0  501  0.00000000000E+00  0.00000000000E+00  0.17319305883E+04  0.17319310540E+04  0.12699999809E+01 0.  1.
        4   -1    0    0  501    0  0.00000000000E+00  0.00000000000E+00 -0.17675124306E+04  0.17675128869E+04  0.12699999809E+01 0. -1.
    10030    2    1    2    0    0  0.00000000000E+00  0.00000000000E+00 -0.35581842267E+02  0.34994439409E+04  0.34992630407E+04 0.  0.
        3    1    3    3  502    0 -0.60789580408E+03  0.14047312506E+04 -0.86542146076E+03  0.17583405557E+04  0.10100000352E+00 0. -1.
       -3    1    3    3    0  502  0.60789580408E+03 -0.14047312506E+04  0.82983961849E+03  0.17411033851E+04  0.10100000352E+00 0.  1.
</event>
<event>
 5   0  0.3553585E-08  0.3499634E+04  0.7818609E-02  0.8113877E-01
       -2   -1    0    0    0  501  0.00000000000E+00  0.00000000000E+00  0.12491815827E+04  0.12491815827E+04  0.25500000920E-02 0. -1.
        2   -1    0    0  501    0  0.00000000000E+00  0.00000000000E+00 -0.24510928324E+04  0.24510928324E+04  0.25500000920E-02 0.  1.
    10030    2    1    2    0    0  0.00000000000E+00  0.00000000000E+00 -0.12019112497E+04  0.37002744151E+04  0.34996342802E+04 0.  0.
        2    1    3    3  502    0  0.14316289483E+04  0.58607516924E+03 -0.14656529241E+04  0.21310054068E+04  0.25500000920E-02 0.  1.
       -2    1    3    3    0  502 -0.14316289483E+04 -0.58607516924E+03  0.26374167437E+03  0.15692690083E+04  0.25500000920E-02 0. -1.
</event>
<event>
 5   0  0.1121462E-08  0.3499614E+04  0.7818609E-02  0.8113881E-01
        1   -1    0    0  501    0  0.00000000000E+00  0.00000000000E+00  0.14135682403E+04  0.14135682403E+04  0.50400001928E-02 0. -1.
       -1   -1    0    0    0  501  0.00000000000E+00  0.00000000000E+00 -0.21660253147E+04  0.21660253147E+04  0.50400001928E-02 0.  1.
    10030    2    1    2    0    0  0.00000000000E+00  0.00000000000E+00 -0.75245707435E+03  0.35795935550E+04  0.34996140316E+04 0.  0.
        1    1    3    3  502    0  0.56005444508E+03  0.12842538459E+04 -0.14484485157E+04  0.20151853574E+04  0.50400001928E-02 0.  1.
       -1    1    3    3    0  502 -0.56005444508E+03 -0.12842538459E+04  0.69599144135E+03  0.15644081976E+04  0.50400001928E-02 0. -1.
</event>
<event>
 5   0  0.1121462E-08  0.3499409E+04  0.7818609E-02  0.8113930E-01
        1   -1    0    0  501    0  0.00000000000E+00  0.00000000000E+00  0.22385225763E+04  0.22385225763E+04  0.50400001928E-02 0.  1.
       -1   -1    0    0    0  501  0.00000000000E+00  0.00000000000E+00 -0.13676279448E+04  0.13676279449E+04  0.50400001928E-02 0. -1.
    10030    2    1    2    0    0  0.00000000000E+00  0.00000000000E+00  0.87089463149E+03  0.36061505212E+04  0.34994091105E+04 0.  0.
        4    1    3    3  502    0  0.14028304661E+04  0.10456985599E+04  0.42848681415E+03  0.18013942815E+04  0.12699999809E+01 0.  1.
       -4    1    3    3    0  502 -0.14028304661E+04 -0.10456985599E+04  0.44240781734E+03  0.18047562396E+04  0.12699999809E+01 0. -1.
</event>
<event>
 5   0  0.3553585E-08  0.3500413E+04  0.7818609E-02  0.8113692E-01
        2   -1    0    0  501    0  0.00000000000E+00  0.00000000000E+00  0.18326805039E+04  0.18326805039E+04  0.25500000920E-02 0.  1.
       -2   -1    0    0    0  501  0.00000000000E+00  0.00000000000E+00 -0.16714436119E+04  0.16714436119E+04  0.25500000920E-02 0. -1.
    10030    2    1    2    0    0  0.00000000000E+00  0.00000000000E+00  0.16123689199E+03  0.35041241159E+04  0.35004126163E+04 0.  0.
        2    1    3    3  502    0  0.16063549738E+03  0.17416858921E+04  0.14352304827E+03  0.17549565166E+04  0.25500000920E-02 0. -1.
       -2    1    3    3    0  502 -0.16063549738E+03 -0.17416858921E+04  0.17713843716E+02  0.17491675992E+04  0.25500000920E-02 0.  1.
</event>
<event>
 5   0  0.3554451E-08  0.3501792E+04  0.7818609E-02  0.8113365E-01
        2   -1    0    0  501    0  0.00000000000E+00  0.00000000000E+00  0.17857567232E+04  0.17857567232E+04  0.25500000920E-02 0. -1.
       -2   -1    0    0    0  501  0.00000000000E+00  0.00000000000E+00 -0.17167158881E+04  0.17167158881E+04  0.25500000920E-02 0.  1.
    10030    2    1    2    0    0  0.00000000000E+00  0.00000000000E+00  0.69040835153E+02  0.35024726113E+04  0.35017920778E+04 0.  0.
        5    1    3    3  502    0  0.42510014384E+03  0.42332980414E+02 -0.16637826604E+04  0.17177593093E+04  0.46999998093E+01 0.  1.
       -5    1    3    3    0  502 -0.42510014384E+03 -0.42332980414E+02  0.17328234956E+04  0.17847133020E+04  0.46999998093E+01 0. -1.
</event>
<event>
 5   0  0.1121462E-08  0.3500574E+04  0.7818609E-02  0.8113654E-01
       -1   -1    0    0    0  501  0.00000000000E+00  0.00000000000E+00  0.14993001885E+04  0.14993001885E+04  0.50400001928E-02 0.  1.
        1   -1    0    0  501    0  0.00000000000E+00  0.00000000000E+00 -0.20432894881E+04  0.20432894881E+04  0.50400001928E-02 0. -1.
    10030    2    1    2    0    0  0.00000000000E+00  0.00000000000E+00 -0.54398929956E+03  0.35425896766E+04  0.35005738470E+04 0.  0.
        1    1    3    3  502    0  0.13890223292E+04  0.10458376047E+04 -0.68723190367E+02  0.17400810910E+04  0.50400001928E-02 0. -1.
       -1    1    3    3    0  502 -0.13890223292E+04 -0.10458376047E+04 -0.47526610919E+03  0.18025085855E+04  0.50400001928E-02 0.  1.
</event>
<event>
 5   0  0.1121462E-08  0.3501171E+04  0.7818609E-02  0.8113513E-01
       -1   -1    0    0    0  501  0.00000000000E+00  0.00000000000E+00  0.21440981473E+04  0.21440981473E+04  0.50400001928E-02 0.  1.
        1   -1    0    0  501    0  0.00000000000E+00  0.00000000000E+00 -0.14292950800E+04  0.14292950800E+04  0.50400001928E-02 0. -1.
    10030    2    1    2    0    0  0.00000000000E+00  0.00000000000E+00  0.71480306732E+03  0.35733932273E+04  0.35011706231E+04 0.  0.
        2    1    3    3  502    0 -0.65869395911E+03 -0.87317943277E+03  0.17524284100E+04  0.20657505623E+04  0.25500000920E-02 0.  1.
       -2    1    3    3    0  502  0.65869395911E+03  0.87317943277E+03 -0.10376253426E+04  0.15076426650E+04  0.25500000920E-02 0. -1.
</event>
<event>
 5   0  0.3700096E-08  0.3499693E+04  0.7818609E-02  0.8113863E-01
        2   -1    0    0  501    0  0.00000000000E+00  0.00000000000E+00  0.20512302529E+04  0.20512302529E+04  0.25500000920E-02 0. -1.
       -2   -1    0    0    0  501  0.00000000000E+00  0.00000000000E+00 -0.14927444854E+04  0.14927444854E+04  0.25500000920E-02 0.  1.
    10030    2    1    2    0    0  0.00000000000E+00  0.00000000000E+00  0.55848576747E+03  0.35439747383E+04  0.34996929284E+04 0.  0.
        4    1    3    3  502    0 -0.82555125621E+03 -0.13891518958E+04  0.95906665649E+03  0.18791190305E+04  0.12699999809E+01 0.  1.
       -4    1    3    3    0  502  0.82555125621E+03  0.13891518958E+04 -0.40058088902E+03  0.16648557078E+04  0.12699999809E+01 0. -1.
</event>
<event>
 5   0  0.1121462E-08  0.3499619E+04  0.7818609E-02  0.8113880E-01
       -3   -1    0    0    0  501  0.00000000000E+00  0.00000000000E+00  0.31413609978E+04  0.31413609994E+04  0.10100000352E+00 0.  1.
        3   -1    0    0  501    0  0.00000000000E+00  0.00000000000E+00 -0.97468368679E+03  0.97468369202E+03  0.10100000352E+00 0. -1.
    10030    2    1    2    0    0  0.00000000000E+00  0.00000000000E+00  0.21666773110E+04  0.41160446915E+04  0.34996190267E+04 0.  0.
        3    1    3    3  502    0 -0.75206999948E+03  0.10695940895E+04 -0.28432270583E+03  0.13380882675E+04  0.10100000352E+00 0. -1.
       -3    1    3    3    0  502  0.75206999948E+03 -0.10695940895E+04  0.24510000169E+04  0.27779564239E+04  0.10100000352E+00 0.  1.
</event>
<event>
 5   0  0.3700096E-08  0.3500046E+04  0.7818609E-02  0.8113779E-01
        2   -1    0    0  501    0  0.00000000000E+00  0.00000000000E+00  0.21790326871E+04  0.21790326871E+04  0.25500000920E-02 0. -1.
       -2   -1    0    0    0  501  0.00000000000E+00  0.00000000000E+00 -0.14054768230E+04  0.14054768230E+04  0.25500000920E-02 0.  1.
    10030    2    1    2    0    0  0.00000000000E+00  0.00000000000E+00  0.77355586408E+03  0.35845095102E+04  0.35000456788E+04 0.  0.
        4    1    3    3  502    0 -0.15558386231E+04 -0.69620002688E+03 -0.19339273323E+02  0.17046125422E+04  0.12699999809E+01 0.  1.
       -4    1    3    3    0  502  0.15558386231E+04  0.69620002688E+03  0.79289513740E+03  0.18798969680E+04  0.12699999809E+01 0. -1.
</event>
<event>
 5   0  0.3700096E-08  0.3501894E+04  0.7818609E-02  0.8113341E-01
       -2   -1    0    0    0  501  0.00000000000E+00  0.00000000000E+00  0.13731290310E+04  0.13731290310E+04  0.25500000920E-02 0.  1.
        2   -1    0    0  501    0  0.00000000000E+00  0.00000000000E+00 -0.22327225124E+04  0.22327225124E+04  0.25500000920E-02 0. -1.
    10030    2    1    2    0    0  0.00000000000E+00  0.00000000000E+00 -0.85959348142E+03  0.36058515434E+04  0.35018944015E+04 0.  0.
        4    1    3    3  502    0  0.51254164140E+03 -0.78289472820E+03 -0.19536594127E+04  0.21661970832E+04  0.12699999809E+01 0. -1.
       -4    1    3    3    0  502 -0.51254164140E+03  0.78289472820E+03  0.10940659313E+04  0.14396544601E+04  0.12699999809E+01 0.  1.
</event>
<event>
 5   0  0.3554451E-08  0.3499176E+04  0.7818609E-02  0.8113985E-01
        2   -1    0    0  501    0  0.00000000000E+00  0.00000000000E+00  0.20644853186E+04  0.20644853186E+04  0.25500000920E-02 0.  1.
       -2   -1    0    0    0  501  0.00000000000E+00  0.00000000000E+00 -0.14827225142E+04  0.14827225142E+04  0.25500000920E-02 0. -1.
    10030    2    1    2    0    0  0.00000000000E+00  0.00000000000E+00  0.58176280442E+03  0.35472078328E+04  0.34991763957E+04 0.  0.
        5    1    3    3  502    0  0.86085752120E+03 -0.44534713410E+03  0.17674557478E+04  0.20157707340E+04  0.46999998093E+01 0.  1.
       -5    1    3    3    0  502 -0.86085752120E+03  0.44534713410E+03 -0.11856929433E+04  0.15314370988E+04  0.46999998093E+01 0. -1.
</event>
<event>
 5   0  0.1121462E-08  0.3504715E+04  0.7818609E-02  0.8112674E-01
        1   -1    0    0  501    0  0.00000000000E+00  0.00000000000E+00  0.19933260364E+04  0.19933260364E+04  0.50400001928E-02 0.  1.
       -1   -1    0    0    0  501  0.00000000000E+00  0.00000000000E+00 -0.15405188474E+04  0.15405188474E+04  0.50400001928E-02 0. -1.
    10030    2    1    2    0    0  0.00000000000E+00  0.00000000000E+00  0.45280718897E+03  0.35338448838E+04  0.35047147263E+04 0.  0.
        2    1    3    3  502    0 -0.16683798439E+04  0.10514595778E+03  0.75632809462E+03  0.18348240140E+04  0.25500000920E-02 0.  1.
       -2    1    3    3    0  502  0.16683798439E+04 -0.10514595778E+03 -0.30352090565E+03  0.16990208698E+04  0.25500000920E-02 0. -1.
</event>
<event>
 5   0  0.1121462E-08  0.3499806E+04  0.7818609E-02  0.8113836E-01
       -1   -1    0    0    0  501  0.00000000000E+00  0.00000000000E+00  0.23794796452E+04  0.23794796452E+04  0.50400001928E-02 0.  1.
        1   -1    0    0  501    0  0.00000000000E+00  0.00000000000E+00 -0.12869035619E+04  0.12869035619E+04  0.50400001928E-02 0. -1.
    10030    2    1    2    0    0  0.00000000000E+00  0.00000000000E+00  0.10925760834E+04  0.36663832071E+04  0.34998061837E+04 0.  0.
        1    1    3    3  502    0  0.62591260287E+03  0.87937925784E+03 -0.89661587492E+03  0.14032086419E+04  0.50400001928E-02 0. -1.
       -1    1    3    3    0  502 -0.62591260287E+03 -0.87937925784E+03  0.19891919583E+04  0.22631745652E+04  0.50400001928E-02 0.  1.
</event>
<event>
 5   0  0.1121462E-08  0.3500164E+04  0.7818609E-02  0.8113751E-01
        3   -1    0    0  501    0  0.00000000000E+00  0.00000000000E+00  0.12047618099E+04  0.12047618141E+04  0.10100000352E+00 0.  1.
       -3   -1    0    0    0  501  0.00000000000E+00  0.00000000000E+00 -0.25422345005E+04  0.25422345025E+04  0.10100000352E+00 0. -1.
    10030    2    1    2    0    0  0.00000000000E+00  0.00000000000E+00 -0.13374726906E+04  0.37469963167E+04  0.35001640246E+04 0.  0.
        2    1    3    3  502    0 -0.10996063799E+04 -0.13578479162E+04 -0.56221073340E+03  0.18354743428E+04  0.25500000920E-02 0. -1.
       -2    1    3    3    0  502  0.10996063799E+04  0.13578479162E+04 -0.77526195724E+03  0.19115219739E+04  0.25500000920E-02 0.  1.
</event>
<event>
 5   0  0.3628017E-08  0.3519238E+04  0.7818609E-02  0.8109246E-01
       -2   -1    0    0    0  501  0.00000000000E+00  0.00000000000E+00  0.14543038964E+04  0.14543038964E+04  0.25500000920E-02 0. -1.
        2   -1    0    0  501    0  0.00000000000E+00  0.00000000000E+00 -0.21290318636E+04  0.21290318636E+04  0.25500000920E-02 0.  1.
    10030    2    1    2    0    0  0.00000000000E+00  0.00000000000E+00 -0.67472796719E+03  0.35833357600E+04  0.35192381760E+04 0.  0.
        1    1    3    3  502    0  0.11761278469E+04 -0.89353626997E+03  0.63638863494E+03  0.16083141089E+04  0.50400001928E-02 0. -1.
       -1    1    3    3    0  502 -0.11761278469E+04  0.89353626997E+03 -0.13111166021E+04  0.19750216511E+04  0.50400001928E-02 0.  1.
</event>
<event>
 5   0  0.1121462E-08  0.3499497E+04  0.7818609E-02  0.8113909E-01
       -4   -1    0    0    0  501  0.00000000000E+00  0.00000000000E+00  0.20975652821E+04  0.20975656665E+04  0.12699999809E+01 0. -1.
        4   -1    0    0  501    0  0.00000000000E+00  0.00000000000E+00 -0.14596057610E+04  0.14596063135E+04  0.12699999809E+01 0.  1.
    10030    2    1    2    0    0  0.00000000000E+00  0.00000000000E+00  0.63795952103E+03  0.35571719800E+04  0.34994971275E+04 0.  0.
        2    1    3    3  502    0 -0.81306464854E+03 -0.15479934080E+04  0.25261731815E+03  0.17666842456E+04  0.25500000920E-02 0.  1.
       -2    1    3    3    0  502  0.81306464854E+03  0.15479934080E+04  0.38534220288E+03  0.17904877345E+04  0.25500000920E-02 0. -1.
</event>
<event>
 5   0  0.3700096E-08  0.3499628E+04  0.7818609E-02  0.8113878E-01
       -2   -1    0    0    0  501  0.00000000000E+00  0.00000000000E+00  0.16900787417E+04  0.16900787417E+04  0.25500000920E-02 0. -1.
        2   -1    0    0  501    0  0.00000000000E+00  0.00000000000E+00 -0.18116610862E+04  0.18116610862E+04  0.25500000920E-02 0.  1.
    10030    2    1    2    0    0  0.00000000000E+00  0.00000000000E+00 -0.12158234448E+03  0.35017398280E+04  0.34996284883E+04 0.  0.
        4    1    3    3  502    0 -0.14219154374E+04  0.49691231509E+03 -0.95188047461E+03  0.17818090276E+04  0.12699999809E+01 0.  1.
       -4    1    3    3    0  502  0.14219154374E+04 -0.49691231509E+03  0.83029813013E+03  0.17199308003E+04  0.12699999809E+01 0. -1.
</event>
<event>
 5   0  0.1129219E-08  0.3499359E+04  0.7818609E-02  0.8113942E-01
       -1   -1    0    0    0  501  0.00000000000E+00  0.00000000000E+00  0.32447270272E+04  0.32447270272E+04  0.50400001928E-02 0. -1.
        1   -1    0    0  501    0  0.00000000000E+00  0.00000000000E+00 -0.94349356155E+03  0.94349356156E+03  0.50400001928E-02 0.  1.
    10030    2    1    2    0    0  0.00000000000E+00  0.00000000000E+00  0.23012334656E+04  0.41882205888E+04  0.34993594038E+04 0.  0.
        5    1    3    3  502    0  0.17447471127E+04 -0.12025404904E+03  0.10878138988E+04  0.20596030424E+04  0.46999998093E+01 0. -1.
       -5    1    3    3    0  502 -0.17447471127E+04  0.12025404904E+03  0.12134195668E+04  0.21286175464E+04  0.46999998093E+01 0.  1.
</event>
<event>
 5   0  0.1140808E-08  0.3491987E+04  0.7818609E-02  0.8115692E-01
        1   -1    0    0  501    0  0.00000000000E+00  0.00000000000E+00  0.27473820309E+04  0.27473820309E+04  0.50400001928E-02 0. -1.
       -1   -1    0    0    0  501  0.00000000000E+00  0.00000000000E+00 -0.11095992899E+04  0.11095992899E+04  0.50400001928E-02 0.  1.
    10030    2    1    2    0    0  0.00000000000E+00  0.00000000000E+00  0.16377827410E+04  0.38569813208E+04  0.34919869132E+04 0.  0.
        3    1    3    3  502    0  0.16274195406E+04  0.37327758245E+03  0.25497550817E+03  0.16890361259E+04  0.10100000352E+00 0.  1.
       -3    1    3    3    0  502 -0.16274195406E+04 -0.37327758245E+03  0.13828072328E+04  0.21679451949E+04  0.10100000352E+00 0. -1.
</event>
<event>
 5   0  0.1121462E-08  0.3497118E+04  0.7818609E-02  0.8114473E-01
        1   -1    0    0  501    0  0.00000000000E+00  0.00000000000E+00  0.18275562752E+04  0.18275562752E+04  0.50400001928E-02 0. -1.
       -1   -1    0    0    0  501  0.00000000000E+00  0.00000000000E+00 -0.16729764676E+04  0.16729764676E+04  0.50400001928E-02 0.  1.
    10030    2    1    2    0    0  0.00000000000E+00  0.00000000000E+00  0.15457980767E+03  0.35005327428E+04  0.34971180373E+04 0.  0.
        2    1    3    3  502    0 -0.48650439416E+03 -0.15889743703E+04  0.62181792531E+03  0.17743121504E+04  0.25500000920E-02 0. -1.
       -2    1    3    3    0  502  0.48650439416E+03  0.15889743703E+04 -0.46723811764E+03  0.17262205924E+04  0.25500000920E-02 0.  1.
</event>
<event>
 5   0  0.1121462E-08  0.3500456E+04  0.7818609E-02  0.8113682E-01
       -1   -1    0    0    0  501  0.00000000000E+00  0.00000000000E+00  0.18878051383E+04  0.18878051383E+04  0.50400001928E-02 0.  1.
        1   -1    0    0  501    0  0.00000000000E+00  0.00000000000E+00 -0.16226771609E+04  0.16226771609E+04  0.50400001928E-02 0. -1.
    10030    2    1    2    0    0  0.00000000000E+00  0.00000000000E+00  0.26512797736E+03  0.35104822992E+04  0.35004561316E+04 0.  0.
        2    1    3    3  502    0 -0.89847124402E+03 -0.15219719173E+02 -0.13736753672E+04  0.16414829364E+04  0.25500000920E-02 0. -1.
       -2    1    3    3    0  502  0.89847124402E+03  0.15219719173E+02  0.16388033445E+04  0.18689993628E+04  0.25500000920E-02 0.  1.
</event>
<event>
 5   0  0.1129219E-08  0.3497002E+04  0.7818609E-02  0.8114501E-01
        1   -1    0    0  501    0  0.00000000000E+00  0.00000000000E+00  0.14424163383E+04  0.14424163383E+04  0.50400001928E-02 0. -1.
       -1   -1    0    0    0  501  0.00000000000E+00  0.00000000000E+00 -0.21195378188E+04  0.21195378188E+04  0.50400001928E-02 0.  1.
    10030    2    1    2    0    0  0.00000000000E+00  0.00000000000E+00 -0.67712148051E+03  0.35619541572E+04  0.34970021330E+04 0.  0.
        5    1    3    3  502    0  0.23853570408E+03 -0.10843612217E+04  0.10372661986E+04  0.15194346969E+04  0.46999998093E+01 0. -1.
       -5    1    3    3    0  502 -0.23853570408E+03  0.10843612217E+04 -0.17143876791E+04  0.20425194603E+04  0.46999998093E+01 0.  1.
</event>
<event>
 5   0  0.3628017E-08  0.3498448E+04  0.7818609E-02  0.8114158E-01
       -2   -1    0    0    0  501  0.00000000000E+00  0.00000000000E+00  0.12647929804E+04  0.12647929804E+04  0.25500000920E-02 0.  1.
        2   -1    0    0  501    0  0.00000000000E+00  0.00000000000E+00 -0.24191981846E+04  0.24191981846E+04  0.25500000920E-02 0. -1.
    10030    2    1    2    0    0  0.00000000000E+00  0.00000000000E+00 -0.11544052042E+04  0.36839911649E+04  0.34984481599E+04 0.  0.
        1    1    3    3  502    0  0.45117623565E+03 -0.33261822985E+03 -0.23220641788E+04  0.23887605432E+04  0.50400001928E-02 0. -1.
       -1    1    3    3    0  502 -0.45117623565E+03  0.33261822985E+03  0.11676589746E+04  0.12952306217E+04  0.50400001928E-02 0.  1.
</event>
<event>
 5   0  0.1121462E-08  0.3500699E+04  0.7818609E-02  0.8113624E-01
        1   -1    0    0  501    0  0.00000000000E+00  0.00000000000E+00  0.12244655819E+04  0.12244655819E+04  0.50400001928E-02 0. -1.
       -1   -1    0    0    0  501  0.00000000000E+00  0.00000000000E+00 -0.25020895813E+04  0.25020895813E+04  0.50400001928E-02 0.  1.
    10030    2    1    2    0    0  0.00000000000E+00  0.00000000000E+00 -0.12776239994E+04  0.37265551632E+04  0.35006985446E+04 0.  0.
        4    1    3    3  502    0 -0.22142571042E+03  0.54724682103E+03 -0.23929136422E+04  0.24646593558E+04  0.12699999809E+01 0.  1.
       -4    1    3    3    0  502  0.22142571042E+03 -0.54724682103E+03  0.11152896428E+04  0.12618958073E+04  0.12699999809E+01 0. -1.
</event>
<event>
 5   0  0.1121462E-08  0.3501262E+04  0.7818609E-02  0.8113491E-01
       -1   -1    0    0    0  501  0.00000000000E+00  0.00000000000E+00  0.17577421067E+04  0.17577421067E+04  0.50400001928E-02 0.  1.
        1   -1    0    0  501    0  0.00000000000E+00  0.00000000000E+00 -0.17435489223E+04  0.17435489223E+04  0.50400001928E-02 0. -1.
    10030    2    1    2    0    0  0.00000000000E+00  0.00000000000E+00  0.14193184353E+02  0.35012910290E+04  0.35012622615E+04 0.  0.
        1    1    3    3  502    0  0.54519615872E+03 -0.12500876753E+04 -0.10905240644E+04  0.17461960894E+04  0.50400001928E-02 0. -1.
       -1    1    3    3    0  502 -0.54519615872E+03  0.12500876753E+04  0.11047172488E+04  0.17550949397E+04  0.50400001928E-02 0.  1.
</event>
<event>
 5   0  0.3700096E-08  0.3500158E+04  0.7818609E-02  0.8113753E-01
        2   -1    0    0  501    0  0.00000000000E+00  0.00000000000E+00  0.22528532412E+04  0.22528532412E+04  0.25500000920E-02 0. -1.
       -2   -1    0    0    0  501  0.00000000000E+00  0.00000000000E+00 -0.13595096292E+04  0.13595096292E+04  0.25500000920E-02 0.  1.
    10030    2    1    2    0    0  0.00000000000E+00  0.00000000000E+00  0.89334361196E+03  0.36123628705E+04  0.35001575249E+04 0.  0.
        4    1    3    3  502    0  0.13025288943E+04 -0.92540402622E+03 -0.29023434884E+03  0.16239432633E+04  0.12699999809E+01 0.  1.
       -4    1    3    3    0  502 -0.13025288943E+04  0.92540402622E+03  0.11835779608E+04  0.19884196072E+04  0.12699999809E+01 0. -1.
</event>
<event>
 5   0  0.1129219E-08  0.3499014E+04  0.7818609E-02  0.8114024E-01
        1   -1    0    0  501    0  0.00000000000E+00  0.00000000000E+00  0.11533486013E+04  0.11533486014E+04  0.50400001928E-02 0. -1.
       -1   -1    0    0    0  501  0.00000000000E+00  0.00000000000E+00 -0.26538163999E+04  0.26538163999E+04  0.50400001928E-02 0.  1.
    10030    2    1    2    0    0  0.00000000000E+00  0.00000000000E+00 -0.15004677986E+04  0.38071650013E+04  0.34990143944E+04 0.  0.
        5    1    3    3  502    0 -0.60293276669E+03 -0.83229663866E+03 -0.22907272840E+04  0.25107168688E+04  0.46999998093E+01 0.  1.
       -5    1    3    3    0  502  0.60293276669E+03  0.83229663866E+03  0.79025948540E+03  0.12964481325E+04  0.46999998093E+01 0. -1.
</event>
<event>
 5   0  0.1121462E-08  0.3499772E+04  0.7818609E-02  0.8113844E-01
       -3   -1    0    0    0  501  0.00000000000E+00  0.00000000000E+00  0.20279724814E+04  0.20279724839E+04  0.10100000352E+00 0. -1.
        3   -1    0    0  501    0  0.00000000000E+00  0.00000000000E+00 -0.15099323244E+04  0.15099323278E+04  0.10100000352E+00 0.  1.
    10030    2    1    2    0    0  0.00000000000E+00  0.00000000000E+00  0.51804015696E+03  0.35379048117E+04  0.34997721143E+04 0.  0.
        2    1    3    3  502    0 -0.32632412954E+02  0.31641557131E+03 -0.14804602940E+04  0.15142477902E+04  0.25500000920E-02 0.  1.
       -2    1    3    3    0  502  0.32632412954E+02 -0.31641557131E+03  0.19985004509E+04  0.20236570215E+04  0.25500000920E-02 0. -1.
</event>
<event>
 5   0  0.1121462E-08  0.3494975E+04  0.7818609E-02  0.8114982E-01
       -1   -1    0    0    0  501  0.00000000000E+00  0.00000000000E+00  0.15751758064E+04  0.15751758064E+04  0.50400001928E-02 0. -1.
        1   -1    0    0  501    0  0.00000000000E+00  0.00000000000E+00 -0.19386492726E+04  0.19386492726E+04  0.50400001928E-02 0.  1.
    10030    2    1    2    0    0  0.00000000000E+00  0.00000000000E+00 -0.36347346626E+03  0.35138250790E+04  0.34949754971E+04 0.  0.
        4    1    3    3  502    0 -0.86685125517E+03  0.89302167465E+03 -0.14150527886E+04  0.18844879457E+04  0.12699999809E+01 0.  1.
       -4    1    3    3    0  502  0.86685125517E+03 -0.89302167465E+03  0.10515793224E+04  0.16293371333E+04  0.12699999809E+01 0. -1.
</event>
<event>
 5   0  0.3628017E-08  0.3488864E+04  0.7818609E-02  0.8116434E-01
       -2   -1    0    0    0  501  0.00000000000E+00  0.00000000000E+00  0.15346818190E+04  0.15346818190E+04  0.25500000920E-02 0. -1.
        2   -1    0    0  501    0  0.00000000000E+00  0.00000000000E+00 -0.19828496144E+04  0.19828496144E+04  0.25500000920E-02 0.  1.
    10030    2    1    2    0    0  0.00000000000E+00  0.00000000000E+00 -0.44816779539E+03  0.35175314335E+04  0.34888641436E+04 0.  0.
        1    1    3    3  502    0  0.51646351828E+03 -0.87431283700E+03  0.12059804714E+04  0.15765615751E+04  0.50400001928E-02 0. -1.
       -1    1    3    3    0  502 -0.51646351828E+03  0.87431283700E+03 -0.16541482668E+04  0.19409698584E+04  0.50400001928E-02 0.  1.
</event>
<event>
 5   0  0.1121462E-08  0.3512100E+04  0.7818609E-02  0.8110928E-01
       -1   -1    0    0    0  501  0.00000000000E+00  0.00000000000E+00  0.11092254902E+04  0.11092254902E+04  0.50400001928E-02 0. -1.
        1   -1    0    0  501    0  0.00000000000E+00  0.00000000000E+00 -0.27800577941E+04  0.27800577941E+04  0.50400001928E-02 0.  1.
    10030    2    1    2    0    0  0.00000000000E+00  0.00000000000E+00 -0.16708323039E+04  0.38892832843E+04  0.35120996395E+04 0.  0.
        4    1    3    3  502    0  0.14626124984E+04  0.63955364014E+02  0.23846273968E+03  0.14833043182E+04  0.12699999809E+01 0. -1.
       -4    1    3    3    0  502 -0.14626124984E+04 -0.63955364014E+02 -0.19092950435E+04  0.24059789661E+04  0.12699999809E+01 0.  1.
</event>
<event>
 5   0  0.3628017E-08  0.3499810E+04  0.7818609E-02  0.8113835E-01
        2   -1    0    0  501    0  0.00000000000E+00  0.00000000000E+00  0.25579640523E+04  0.25579640523E+04  0.25500000920E-02 0.  1.
       -2   -1    0    0    0  501  0.00000000000E+00  0.00000000000E+00 -0.11971113173E+04  0.11971113173E+04  0.25500000920E-02 0. -1.
    10030    2    1    2    0    0  0.00000000000E+00  0.00000000000E+00  0.13608527349E+04  0.37550753696E+04  0.34998101185E+04 0.  0.
        1    1    3    3  502    0  0.80056402430E+03 -0.47842870915E+02 -0.98831855534E+03  0.12727785605E+04  0.50400001928E-02 0. -1.
       -1    1    3    3    0  502 -0.80056402430E+03  0.47842870915E+02  0.23491712903E+04  0.24822968091E+04  0.50400001928E-02 0.  1.
</event>
<event>
 5   0  0.3467834E-08  0.3498456E+04  0.7818609E-02  0.8114156E-01
        2   -1    0    0  501    0  0.00000000000E+00  0.00000000000E+00  0.15927449224E+04  0.15927449224E+04  0.25500000920E-02 0.  1.
       -2   -1    0    0    0  501  0.00000000000E+00  0.00000000000E+00 -0.19210848573E+04  0.19210848573E+04  0.25500000920E-02 0. -1.
    10030    2    1    2    0    0  0.00000000000E+00  0.00000000000E+00 -0.32833993494E+03  0.35138297797E+04  0.34984557462E+04 0.  0.
        3    1    3    3  502    0  0.27433603070E+03 -0.53359008213E+03  0.14861634740E+04  0.16027041259E+04  0.10100000352E+00 0.  1.
       -3    1    3    3    0  502 -0.27433603070E+03  0.53359008213E+03 -0.18145034089E+04  0.19111256538E+04  0.10100000352E+00 0. -1.
</event>
<event>
 5   0  0.3467834E-08  0.3497922E+04  0.7818609E-02  0.8114283E-01
        2   -1    0    0  501    0  0.00000000000E+00  0.00000000000E+00  0.20203878904E+04  0.20203878904E+04  0.25500000920E-02 0.  1.
       -2   -1    0    0    0  501  0.00000000000E+00  0.00000000000E+00 -0.15139982611E+04  0.15139982611E+04  0.25500000920E-02 0. -1.
    10030    2    1    2    0    0  0.00000000000E+00  0.00000000000E+00  0.50638962933E+03  0.35343861515E+04  0.34979215273E+04 0.  0.
        3    1    3    3  502    0 -0.53354909969E+03 -0.16969258980E+03  0.19273905727E+04  0.20070636878E+04  0.10100000352E+00 0.  1.
       -3    1    3    3    0  502  0.53354909969E+03  0.16969258980E+03 -0.14210009434E+04  0.15273224637E+04  0.10100000352E+00 0. -1.
</event>
<event>
 5   0  0.1121462E-08  0.3499179E+04  0.7818609E-02  0.8113985E-01
       -1   -1    0    0    0  501  0.00000000000E+00  0.00000000000E+00  0.15777976175E+04  0.15777976175E+04  0.50400001928E-02 0.  1.
        1   -1    0    0  501    0  0.00000000000E+00  0.00000000000E+00 -0.19400857480E+04  0.19400857480E+04  0.50400001928E-02 0. -1.
    10030    2    1    2    0    0  0.00000000000E+00  0.00000000000E+00 -0.36228813041E+03  0.35178833655E+04  0.34991785727E+04 0.  0.
        1    1    3    3  502    0  0.13157620384E+04 -0.59389518903E+03  0.81263444251E+03  0.16565977105E+04  0.50400001928E-02 0.  1.
       -1    1    3    3    0  502 -0.13157620384E+04  0.59389518903E+03 -0.11749225729E+04  0.18612856550E+04  0.50400001928E-02 0. -1.
</event>
<event>
 5   0  0.1129219E-08  0.3500865E+04  0.7818609E-02  0.8113585E-01
       -1   -1    0    0    0  501  0.00000000000E+00  0.00000000000E+00  0.21781308022E+04  0.21781308022E+04  0.50400001928E-02 0.  1.
        1   -1    0    0  501    0  0.00000000000E+00  0.00000000000E+00 -0.14067170020E+04  0.14067170020E+04  0.50400001928E-02 0. -1.
    10030    2    1    2    0    0  0.00000000000E+00  0.00000000000E+00  0.77141380023E+03  0.35848478042E+04  0.35008648257E+04 0.  0.
        5    1    3    3  502    0 -0.60660038955E+03  0.31070739377E+03  0.20366774410E+04  0.21476918322E+04  0.46999998093E+01 0.  1.
       -5    1    3    3    0  502  0.60660038955E+03 -0.31070739377E+03 -0.12652636408E+04  0.14371559720E+04  0.46999998093E+01 0. -1.
</event>
<event>
 5   0  0.3467834E-08  0.3499911E+04  0.7818609E-02  0.8113811E-01
        2   -1    0    0  501    0  0.00000000000E+00  0.00000000000E+00  0.23674159933E+04  0.23674159933E+04  0.25500000920E-02 0. -1.
       -2   -1    0    0    0  501  0.00000000000E+00  0.00000000000E+00 -0.12935384913E+04  0.12935384913E+04  0.25500000920E-02 0.  1.
    10030    2    1    2    0    0  0.00000000000E+00  0.00000000000E+00  0.10738775021E+04  0.36609544846E+04  0.34999106916E+04 0.  0.
        3    1    3    3  502    0  0.61444923569E+03  0.13053925271E+04  0.15728336194E+04  0.21343390353E+04  0.10100000352E+00 0.  1.
       -3    1    3    3    0  502 -0.61444923569E+03 -0.13053925271E+04 -0.49895611729E+03  0.15266154494E+04  0.10100000352E+00 0. -1.
</event>
<event>
 5   0  0.1129219E-08  0.3504047E+04  0.7818609E-02  0.8112832E-01
       -1   -1    0    0    0  501  0.00000000000E+00  0.00000000000E+00  0.30123890509E+04  0.30123890509E+04  0.50400001928E-02 0.  1.
        1   -1    0    0  501    0  0.00000000000E+00  0.00000000000E+00 -0.10189874145E+04  0.10189874145E+04  0.50400001928E-02 0. -1.
    10030    2    1    2    0    0  0.00000000000E+00  0.00000000000E+00  0.19934016365E+04  0.40313764654E+04  0.35040471061E+04 0.  0.
        5    1    3    3  502    0  0.16928011550E+02 -0.10902884227E+04  0.25744056357E+04  0.27958186402E+04  0.46999998093E+01 0.  1.
       -5    1    3    3    0  502 -0.16928011550E+02  0.10902884227E+04 -0.58100399918E+03  0.12355578252E+04  0.46999998093E+01 0. -1.
</event>
<event>
 5   0  0.3553585E-08  0.3500165E+04  0.7818609E-02  0.8113751E-01
       -2   -1    0    0    0  501  0.00000000000E+00  0.00000000000E+00  0.19918311758E+04  0.19918311758E+04  0.25500000920E-02 0. -1.
        2   -1    0    0  501    0  0.00000000000E+00  0.00000000000E+00 -0.15376747694E+04  0.15376747694E+04  0.25500000920E-02 0.  1.
    10030    2    1    2    0    0  0.00000000000E+00  0.00000000000E+00  0.45415640637E+03  0.35295059452E+04  0.35001648783E+04 0.  0.
        2    1    3    3  502    0 -0.43667393141E+02  0.76533977458E+03 -0.13593667694E+04  0.15606184113E+04  0.25500000920E-02 0.  1.
       -2    1    3    3    0  502  0.43667393141E+02 -0.76533977458E+03  0.18135231758E+04  0.19688875339E+04  0.25500000920E-02 0. -1.
</event>
<event>
 5   0  0.1140808E-08  0.3498645E+04  0.7818609E-02  0.8114111E-01
        1   -1    0    0  501    0  0.00000000000E+00  0.00000000000E+00  0.15625076244E+04  0.15625076244E+04  0.50400001928E-02 0. -1.
       -1   -1    0    0    0  501  0.00000000000E+00  0.00000000000E+00 -0.19584727580E+04  0.19584727580E+04  0.50400001928E-02 0.  1.
    10030    2    1    2    0    0  0.00000000000E+00  0.00000000000E+00 -0.39596513357E+03  0.35209803824E+04  0.34986446613E+04 0.  0.
        3    1    3    3  502    0 -0.13332858395E+04  0.10860645181E+04  0.12491046752E+03  0.17241780367E+04  0.10100000352E+00 0. -1.
       -3    1    3    3    0  502  0.13332858395E+04 -0.10860645181E+04 -0.52087560108E+03  0.17968023456E+04  0.10100000352E+00 0.  1.
</event>
<event>
 5   0  0.1140808E-08  0.3498019E+04  0.7818609E-02  0.8114260E-01
       -1   -1    0    0    0  501  0.00000000000E+00  0.00000000000E+00  0.13096154090E+04  0.13096154090E+04  0.50400001928E-02 0.  1.
        1   -1    0    0  501    0  0.00000000000E+00  0.00000000000E+00 -0.23358265398E+04  0.23358265398E+04  0.50400001928E-02 0. -1.
    10030    2    1    2    0    0  0.00000000000E+00  0.00000000000E+00 -0.10262111308E+04  0.36454419488E+04  0.34980191133E+04 0.  0.
        3    1    3    3  502    0  0.83832286419E+03  0.14217421810E+04 -0.11161988913E+04  0.19924949257E+04  0.10100000352E+00 0. -1.
       -3    1    3    3    0  502 -0.83832286419E+03 -0.14217421810E+04  0.89987760480E+02  0.16529470231E+04  0.10100000352E+00 0.  1.
</event>
<event>
 5   0  0.1121462E-08  0.3498311E+04  0.7818609E-02  0.8114190E-01
       -1   -1    0    0    0  501  0.00000000000E+00  0.00000000000E+00  0.10937253029E+04  0.10937253029E+04  0.50400001928E-02 0.  1.
        1   -1    0    0  501    0  0.00000000000E+00  0.00000000000E+00 -0.27973606833E+04  0.27973606833E+04  0.50400001928E-02 0. -1.
    10030    2    1    2    0    0  0.00000000000E+00  0.00000000000E+00 -0.17036353804E+04  0.38910859862E+04  0.34983105412E+04 0.  0.
        4    1    3    3  502    0  0.50132055397E+03  0.16698491225E+04 -0.69521116731E+03  0.18769759108E+04  0.12699999809E+01 0.  1.
       -4    1    3    3    0  502 -0.50132055397E+03 -0.16698491225E+04 -0.10084242131E+04  0.20141100755E+04  0.12699999809E+01 0. -1.
</event>
<event>
 5   0  0.3700096E-08  0.3496965E+04  0.7818609E-02  0.8114510E-01
        2   -1    0    0  501    0  0.00000000000E+00  0.00000000000E+00  0.17704510796E+04  0.17704510796E+04  0.25500000920E-02 0.  1.
       -2   -1    0    0    0  501  0.00000000000E+00  0.00000000000E+00 -0.17267867702E+04  0.17267867702E+04  0.25500000920E-02 0. -1.
    10030    2    1    2    0    0  0.00000000000E+00  0.00000000000E+00  0.43664309427E+02  0.34972378498E+04  0.34969652566E+04 0.  0.
        4    1    3    3  502    0  0.10787469703E+04  0.11152813721E+04  0.82789890670E+03  0.17586829667E+04  0.12699999809E+01 0.  1.
       -4    1    3    3    0  502 -0.10787469703E+04 -0.11152813721E+04 -0.78423459727E+03  0.17385548830E+04  0.12699999809E+01 0. -1.
</event>
<event>
 5   0  0.1140808E-08  0.3500027E+04  0.7818609E-02  0.8113784E-01
        1   -1    0    0  501    0  0.00000000000E+00  0.00000000000E+00  0.18804337095E+04  0.18804337095E+04  0.50400001928E-02 0. -1.
       -1   -1    0    0    0  501  0.00000000000E+00  0.00000000000E+00 -0.16286388423E+04  0.16286388424E+04  0.50400001928E-02 0.  1.
    10030    2    1    2    0    0  0.00000000000E+00  0.00000000000E+00  0.25179486716E+03  0.35090725519E+04  0.35000270741E+04 0.  0.
        3    1    3    3  502    0 -0.15959516435E+04  0.41425056227E+03  0.71382765853E+03  0.17967234381E+04  0.10100000352E+00 0.  1.
       -3    1    3    3    0  502  0.15959516435E+04 -0.41425056227E+03 -0.46203279137E+03  0.17123491137E+04  0.10100000352E+00 0. -1.
</event>
<event>
 5   0  0.1129219E-08  0.3502046E+04  0.7818609E-02  0.8113305E-01
       -1   -1    0    0    0  501  0.00000000000E+00  0.00000000000E+00  0.15119790462E+04  0.15119790462E+04  0.50400001928E-02 0. -1.
        1   -1    0    0  501    0  0.00000000000E+00  0.00000000000E+00 -0.20278603205E+04  0.20278603205E+04  0.50400001928E-02 0.  1.
    10030    2    1    2    0    0  0.00000000000E+00  0.00000000000E+00 -0.51588127434E+03  0.35398393667E+04  0.35020464378E+04 0.  0.
        5    1    3    3  502    0 -0.40066676034E+03 -0.29498994794E+03 -0.19548991944E+04  0.20172272734E+04  0.46999998093E+01 0.  1.
       -5    1    3    3    0  502  0.40066676034E+03  0.29498994794E+03  0.14390179201E+04  0.15226120933E+04  0.46999998093E+01 0. -1.
</event>
<event>
 5   0  0.1121462E-08  0.3501156E+04  0.7818609E-02  0.8113516E-01
        1   -1    0    0  501    0  0.00000000000E+00  0.00000000000E+00  0.24105076326E+04  0.24105076326E+04  0.50400001928E-02 0.  1.
       -1   -1    0    0    0  501  0.00000000000E+00  0.00000000000E+00 -0.12713184384E+04  0.12713184384E+04  0.50400001928E-02 0. -1.
    10030    2    1    2    0    0  0.00000000000E+00  0.00000000000E+00  0.11391891942E+04  0.36818260711E+04  0.35011556945E+04 0.  0.
        4    1    3    3  502    0  0.83610251142E+03 -0.33975423394E+01  0.21869595123E+04  0.23413398887E+04  0.12699999809E+01 0.  1.
       -4    1    3    3    0  502 -0.83610251142E+03  0.33975423394E+01 -0.10477703181E+04  0.13404861824E+04  0.12699999809E+01 0. -1.
</event>
<event>
 5   0  0.3553585E-08  0.3498486E+04  0.7818609E-02  0.8114149E-01
        2   -1    0    0  501    0  0.00000000000E+00  0.00000000000E+00  0.11752043288E+04  0.11752043288E+04  0.25500000920E-02 0.  1.
       -2   -1    0    0    0  501  0.00000000000E+00  0.00000000000E+00 -0.26036764295E+04  0.26036764295E+04  0.25500000920E-02 0. -1.
    10030    2    1    2    0    0  0.00000000000E+00  0.00000000000E+00 -0.14284721007E+04  0.37788807583E+04  0.34984864218E+04 0.  0.
        2    1    3    3  502    0 -0.19474578770E+03 -0.17047020612E+04 -0.34648312678E+03  0.17504244046E+04  0.25500000920E-02 0.  1.
       -2    1    3    3    0  502  0.19474578770E+03  0.17047020612E+04 -0.10819889739E+04  0.20284563537E+04  0.25500000920E-02 0. -1.
</event>
<event>
 5   0  0.3700096E-08  0.3499520E+04  0.7818609E-02  0.8113904E-01
       -2   -1    0    0    0  501  0.00000000000E+00  0.00000000000E+00  0.11084520544E+04  0.11084520544E+04  0.25500000920E-02 0. -1.
        2   -1    0    0  501    0  0.00000000000E+00  0.00000000000E+00 -0.27621036420E+04  0.27621036420E+04  0.25500000920E-02 0.  1.
    10030    2    1    2    0    0  0.00000000000E+00  0.00000000000E+00 -0.16536515876E+04  0.38705556964E+04  0.34995196564E+04 0.  0.
        4    1    3    3  502    0 -0.36036465604E+03  0.27254107514E+03  0.10428196648E+04  0.11364927581E+04  0.12699999809E+01 0. -1.
       -4    1    3    3    0  502  0.36036465604E+03 -0.27254107514E+03 -0.26964712524E+04  0.27340629384E+04  0.12699999809E+01 0.  1.
</event>
<event>
 5   0  0.3700096E-08  0.3496146E+04  0.7818609E-02  0.8114704E-01
        2   -1    0    0  501    0  0.00000000000E+00  0.00000000000E+00  0.27476614285E+04  0.27476614285E+04  0.25500000920E-02 0.  1.
       -2   -1    0    0    0  501  0.00000000000E+00  0.00000000000E+00 -0.11121308810E+04  0.11121308810E+04  0.25500000920E-02 0. -1.
    10030    2    1    2    0    0  0.00000000000E+00  0.00000000000E+00  0.16355305475E+04  0.38597923096E+04  0.34961459496E+04 0.  0.
        4    1    3    3  502    0 -0.65877643268E+03 -0.55969008993E+03  0.24951822220E+04  0.26406770569E+04  0.12699999809E+01 0.  1.
       -4    1    3    3    0  502  0.65877643268E+03  0.55969008993E+03 -0.85965167447E+03  0.12191152527E+04  0.12699999809E+01 0. -1.
</event>
<event>
 5   0  0.1121462E-08  0.3490049E+04  0.7818609E-02  0.8116152E-01
        1   -1    0    0  501    0  0.00000000000E+00  0.00000000000E+00  0.18549474862E+04  0.18549474862E+04  0.50400001928E-02 0. -1.
       -1   -1    0    0    0  501  0.00000000000E+00  0.00000000000E+00 -0.16416153002E+04  0.16416153002E+04  0.50400001928E-02 0.  1.
    10030    2    1    2    0    0  0.00000000000E+00  0.00000000000E+00  0.21333218598E+03  0.34965627863E+04  0.34900488102E+04 0.  0.
        4    1    3    3  502    0 -0.14351883530E+04 -0.57400223353E+03 -0.70470000204E+03  0.16987783488E+04  0.12699999809E+01 0.  1.
       -4    1    3    3    0  502  0.14351883530E+04  0.57400223353E+03  0.91803218802E+03  0.17977844375E+04  0.12699999809E+01 0. -1.
</event>
<event>
 5   0  0.3553585E-08  0.3501517E+04  0.7818609E-02  0.8113430E-01
        2   -1    0    0  501    0  0.00000000000E+00  0.00000000000E+00  0.17478364524E+04  0.17478364524E+04  0.25500000920E-02 0.  1.
       -2   -1    0    0    0  501  0.00000000000E+00  0.00000000000E+00 -0.17536857595E+04  0.17536857595E+04  0.25500000920E-02 0. -1.
    10030    2    1    2    0    0  0.00000000000E+00  0.00000000000E+00 -0.58493071456E+01  0.35015222119E+04  0.35015173262E+04 0.  0.
        2    1    3    3  502    0 -0.24011733948E+03 -0.84965930413E+03  0.15088904822E+04  0.17482356126E+04  0.25500000920E-02 0.  1.
       -2    1    3    3    0  502  0.24011733948E+03  0.84965930413E+03 -0.15147397894E+04  0.17532865993E+04  0.25500000920E-02 0. -1.
</event>
<event>
 5   0  0.3700096E-08  0.3499054E+04  0.7818609E-02  0.8114014E-01
        2   -1    0    0  501    0  0.00000000000E+00  0.00000000000E+00  0.19507870535E+04  0.19507870535E+04  0.25500000920E-02 0. -1.
       -2   -1    0    0    0  501  0.00000000000E+00  0.00000000000E+00 -0.15690302395E+04  0.15690302395E+04  0.25500000920E-02 0.  1.
    10030    2    1    2    0    0  0.00000000000E+00  0.00000000000E+00  0.38175681405E+03  0.35198172930E+04  0.34990535164E+04 0.  0.
        4    1    3    3  502    0  0.17087938146E+04  0.29765179972E+03  0.42086004804E+03  0.17848522874E+04  0.12699999809E+01 0. -1.
       -4    1    3    3    0  502 -0.17087938146E+04 -0.29765179972E+03 -0.39103233990E+02  0.17349650056E+04  0.12699999809E+01 0.  1.
</event>
<event>
 5   0  0.3554451E-08  0.3500606E+04  0.7818609E-02  0.8113646E-01
        2   -1    0    0  501    0  0.00000000000E+00  0.00000000000E+00  0.17309407862E+04  0.17309407862E+04  0.25500000920E-02 0.  1.
       -2   -1    0    0    0  501  0.00000000000E+00  0.00000000000E+00 -0.17698819018E+04  0.17698819018E+04  0.25500000920E-02 0. -1.
    10030    2    1    2    0    0  0.00000000000E+00  0.00000000000E+00 -0.38941115650E+02  0.35008226880E+04  0.35006061022E+04 0.  0.
        5    1    3    3  502    0  0.42830649781E+02  0.14613756001E+04  0.94292238203E+03  0.17397062446E+04  0.46999998093E+01 0.  1.
       -5    1    3    3    0  502 -0.42830649781E+02 -0.14613756001E+04 -0.98186349768E+03  0.17611164434E+04  0.46999998093E+01 0. -1.
</event>
<event>
 5   0  0.1121462E-08  0.3501203E+04  0.7818609E-02  0.8113505E-01
        1   -1    0    0  501    0  0.00000000000E+00  0.00000000000E+00  0.26024744739E+04  0.26024744739E+04  0.50400001928E-02 0.  1.
       -1   -1    0    0    0  501  0.00000000000E+00  0.00000000000E+00 -0.11775737669E+04  0.11775737669E+04  0.50400001928E-02 0. -1.
    10030    2    1    2    0    0  0.00000000000E+00  0.00000000000E+00  0.14249007070E+04  0.37800482408E+04  0.35012030330E+04 0.  0.
        2    1    3    3  502    0 -0.13720656082E+04 -0.81269808185E+03 -0.67260584772E+02  0.15961097055E+04  0.25500000920E-02 0. -1.
       -2    1    3    3    0  502  0.13720656082E+04  0.81269808185E+03  0.14921612917E+04  0.21839385353E+04  0.25500000920E-02 0.  1.
</event>
<event>
 5   0  0.3554451E-08  0.3500743E+04  0.7818609E-02  0.8113614E-01
       -2   -1    0    0    0  501  0.00000000000E+00  0.00000000000E+00  0.11193178218E+04  0.11193178218E+04  0.25500000920E-02 0. -1.
        2   -1    0    0  501    0  0.00000000000E+00  0.00000000000E+00 -0.27372038408E+04  0.27372038408E+04  0.25500000920E-02 0.  1.
    10030    2    1    2    0    0  0.00000000000E+00  0.00000000000E+00 -0.16178860190E+04  0.38565216626E+04  0.35007433730E+04 0.  0.
        5    1    3    3  502    0 -0.82672175179E+03 -0.84363434548E+03 -0.22319612684E+04  0.25252447322E+04  0.46999998093E+01 0.  1.
       -5    1    3    3    0  502  0.82672175179E+03  0.84363434548E+03  0.61407524936E+03  0.13312769305E+04  0.46999998093E+01 0. -1.
</event>
<event>
 5   0  0.1121462E-08  0.3499904E+04  0.7818609E-02  0.8113813E-01
        3   -1    0    0  501    0  0.00000000000E+00  0.00000000000E+00  0.15170656966E+04  0.15170657000E+04  0.10100000352E+00 0.  1.
       -3   -1    0    0    0  501  0.00000000000E+00  0.00000000000E+00 -0.20185892511E+04  0.20185892536E+04  0.10100000352E+00 0. -1.
    10030    2    1    2    0    0  0.00000000000E+00  0.00000000000E+00 -0.50152355447E+03  0.35356549537E+04  0.34999042952E+04 0.  0.
        4    1    3    3  502    0  0.11149376382E+04  0.22564553899E+03 -0.15941305497E+04  0.19583808794E+04  0.12699999809E+01 0. -1.
       -4    1    3    3    0  502 -0.11149376382E+04 -0.22564553899E+03  0.10926069953E+04  0.15772740743E+04  0.12699999809E+01 0.  1.
</event>
<event>
 5   0  0.1121462E-08  0.3499340E+04  0.7818609E-02  0.8113946E-01
       -1   -1    0    0    0  501  0.00000000000E+00  0.00000000000E+00  0.13953175926E+04  0.13953175926E+04  0.50400001928E-02 0.  1.
        1   -1    0    0  501    0  0.00000000000E+00  0.00000000000E+00 -0.21940128918E+04  0.21940128918E+04  0.50400001928E-02 0. -1.
    10030    2    1    2    0    0  0.00000000000E+00  0.00000000000E+00 -0.79869529921E+03  0.35893304843E+04  0.34993398156E+04 0.  0.
        2    1    3    3  502    0  0.10157327355E+04 -0.13376173710E+04 -0.90227471361E+03  0.19065762193E+04  0.25500000920E-02 0.  1.
       -2    1    3    3    0  502 -0.10157327355E+04  0.13376173710E+04  0.10357941440E+03  0.16827542650E+04  0.25500000920E-02 0. -1.
</event>
<event>
 5   0  0.3628017E-08  0.3500954E+04  0.7818609E-02  0.8113564E-01
        2   -1    0    0  501    0  0.00000000000E+00  0.00000000000E+00  0.15874721311E+04  0.15874721311E+04  0.25500000920E-02 0. -1.
       -2   -1    0    0    0  501  0.00000000000E+00  0.00000000000E+00 -0.19302200709E+04  0.19302200709E+04  0.25500000920E-02 0.  1.
    10030    2    1    2    0    0  0.00000000000E+00  0.00000000000E+00 -0.34274793983E+03  0.35176922020E+04  0.35009544810E+04 0.  0.
        1    1    3    3  502    0 -0.90459605001E+03  0.21378869203E+03  0.13190148534E+04  0.16136293881E+04  0.50400001928E-02 0. -1.
       -1    1    3    3    0  502  0.90459605001E+03 -0.21378869203E+03 -0.16617627932E+04  0.19040628140E+04  0.50400001928E-02 0.  1.
</event>
<event>
 5   0  0.1121462E-08  0.3495663E+04  0.7818609E-02  0.8114819E-01
        1   -1    0    0  501    0  0.00000000000E+00  0.00000000000E+00  0.14676641150E+04  0.14676641150E+04  0.50400001928E-02 0. -1.
       -1   -1    0    0    0  501  0.00000000000E+00  0.00000000000E+00 -0.20814808205E+04  0.20814808205E+04  0.50400001928E-02 0.  1.
    10030    2    1    2    0    0  0.00000000000E+00  0.00000000000E+00 -0.61381670548E+03  0.35491449355E+04  0.34956628592E+04 0.  0.
        4    1    3    3  502    0 -0.34451775484E+03 -0.16727172303E+04 -0.68440005425E+03  0.18398588161E+04  0.12699999809E+01 0.  1.
       -4    1    3    3    0  502  0.34451775484E+03  0.16727172303E+04  0.70583348768E+02  0.17092861194E+04  0.12699999809E+01 0. -1.
</event>
<event>
 5   0  0.3467834E-08  0.3498848E+04  0.7818609E-02  0.8114063E-01
       -2   -1    0    0    0  501  0.00000000000E+00  0.00000000000E+00  0.10910031943E+04  0.10910031943E+04  0.25500000920E-02 0.  1.
        2   -1    0    0  501    0  0.00000000000E+00  0.00000000000E+00 -0.28052018704E+04  0.28052018704E+04  0.25500000920E-02 0. -1.
    10030    2    1    2    0    0  0.00000000000E+00  0.00000000000E+00 -0.17141986761E+04  0.38962050647E+04  0.34988479255E+04 0.  0.
        3    1    3    3  502    0  0.56870915102E+03 -0.76972460036E+03  0.77365174853E+03  0.12306271154E+04  0.10100000352E+00 0.  1.
       -3    1    3    3    0  502 -0.56870915102E+03  0.76972460036E+03 -0.24878504246E+04  0.26655779494E+04  0.10100000352E+00 0. -1.
</event>
<event>
 5   0  0.1129219E-08  0.3499878E+04  0.7818609E-02  0.8113819E-01
       -1   -1    0    0    0  501  0.00000000000E+00  0.00000000000E+00  0.13931938733E+04  0.13931938733E+04  0.50400001928E-02 0.  1.
        1   -1    0    0  501    0  0.00000000000E+00  0.00000000000E+00 -0.21980335784E+04  0.21980335784E+04  0.50400001928E-02 0. -1.
    10030    2    1    2    0    0  0.00000000000E+00  0.00000000000E+00 -0.80483970509E+03  0.35912274516E+04  0.34998782348E+04 0.  0.
        5    1    3    3  502    0  0.14278076900E+04 -0.26337591662E+03  0.59994090179E+03  0.15709719439E+04  0.46999998093E+01 0.  1.
       -5    1    3    3    0  502 -0.14278076900E+04  0.26337591662E+03 -0.14047806069E+04  0.20202555077E+04  0.46999998093E+01 0. -1.
</event>
<event>
 5   0  0.1140808E-08  0.3500329E+04  0.7818609E-02  0.8113712E-01
       -1   -1    0    0    0  501  0.00000000000E+00  0.00000000000E+00  0.18361248287E+04  0.18361248288E+04  0.50400001928E-02 0. -1.
        1   -1    0    0  501    0  0.00000000000E+00  0.00000000000E+00 -0.16682288852E+04  0.16682288852E+04  0.50400001928E-02 0.  1.
    10030    2    1    2    0    0  0.00000000000E+00  0.00000000000E+00  0.16789594350E+03  0.35043537140E+04  0.35003293995E+04 0.  0.
        3    1    3    3  502    0  0.46625963864E+03 -0.14702210408E+04 -0.74412357731E+03  0.17125033921E+04  0.10100000352E+00 0.  1.
       -3    1    3    3    0  502 -0.46625963864E+03  0.14702210408E+04  0.91201952082E+03  0.17918503219E+04  0.10100000352E+00 0. -1.
</event>
<event>
 5   0  0.3553585E-08  0.3525380E+04  0.7818609E-02  0.8107801E-01
        2   -1    0    0  501    0  0.00000000000E+00  0.00000000000E+00  0.20750344255E+04  0.20750344255E+04  0.25500000920E-02 0.  1.
       -2   -1    0    0    0  501  0.00000000000E+00  0.00000000000E+00 -0.14973611977E+04  0.14973611977E+04  0.25500000920E-02 0. -1.
    10030    2    1    2    0    0  0.00000000000E+00  0.00000000000E+00  0.57767322779E+03  0.35723956232E+04  0.35253799981E+04 0.  0.
        2    1    3    3  502    0  0.12599374868E+04 -0.16605463915E+03  0.15266257647E+04  0.19863541575E+04  0.25500000920E-02 0.  1.
       -2    1    3    3    0  502 -0.12599374868E+04  0.16605463915E+03 -0.94895253686E+03  0.15860414657E+04  0.25500000920E-02 0. -1.
</event>
<event>
 5   0  0.3554451E-08  0.3501481E+04  0.7818609E-02  0.8113439E-01
       -2   -1    0    0    0  501  0.00000000000E+00  0.00000000000E+00  0.14533907278E+04  0.14533907278E+04  0.25500000920E-02 0. -1.
        2   -1    0    0  501    0  0.00000000000E+00  0.00000000000E+00 -0.21089247328E+04  0.21089247328E+04  0.25500000920E-02 0.  1.
    10030    2    1    2    0    0  0.00000000000E+00  0.00000000000E+00 -0.65553400501E+03  0.35623154607E+04  0.35014806311E+04 0.  0.
        5    1    3    3  502    0  0.41090436280E+03  0.10224004298E+04 -0.17118910140E+04  0.20358629542E+04  0.46999998093E+01 0.  1.
       -5    1    3    3    0  502 -0.41090436280E+03 -0.10224004298E+04  0.10563570090E+04  0.15264525065E+04  0.46999998093E+01 0. -1.
</event>
<event>
 5   0  0.1121462E-08  0.3496201E+04  0.7818609E-02  0.8114691E-01
       -1   -1    0    0    0  501  0.00000000000E+00  0.00000000000E+00  0.18028937592E+04  0.18028937592E+04  0.50400001928E-02 0.  1.
        1   -1    0    0  501    0  0.00000000000E+00  0.00000000000E+00 -0.16949726516E+04  0.16949726516E+04  0.50400001928E-02 0. -1.
    10030    2    1    2    0    0  0.00000000000E+00  0.00000000000E+00  0.10792110757E+03  0.34978664108E+04  0.34962011473E+04 0.  0.
        4    1    3    3  502    0  0.16449512493E+04  0.48444897867E+03  0.39367872835E+03  0.17594146696E+04  0.12699999809E+01 0.  1.
       -4    1    3    3    0  502 -0.16449512493E+04 -0.48444897867E+03 -0.28575762078E+03  0.17384517412E+04  0.12699999809E+01 0. -1.
</event>
<event>
 5   0  0.3700096E-08  0.3500059E+04  0.7818609E-02  0.8113776E-01
       -2   -1    0    0    0  501  0.00000000000E+00  0.00000000000E+00  0.20629218999E+04  0.20629218999E+04  0.25500000920E-02 0.  1.
        2   -1    0    0  501    0  0.00000000000E+00  0.00000000000E+00 -0.14845951770E+04  0.14845951770E+04  0.25500000920E-02 0. -1.
    10030    2    1    2    0    0  0.00000000000E+00  0.00000000000E+00  0.57832672290E+03  0.35475170768E+04  0.35000593726E+04 0.  0.
        4    1    3    3  502    0 -0.91299381178E+03  0.13872465759E+04  0.84854472401E+03  0.18649505421E+04  0.12699999809E+01 0.  1.
       -4    1    3    3    0  502  0.91299381178E+03 -0.13872465759E+04 -0.27021800111E+03  0.16825665347E+04  0.12699999809E+01 0. -1.
</event>
<event>
 5   0  0.1129219E-08  0.3499556E+04  0.7818609E-02  0.8113895E-01
        1   -1    0    0  501    0  0.00000000000E+00  0.00000000000E+00  0.18194232658E+04  0.18194232658E+04  0.50400001928E-02 0. -1.
       -1   -1    0    0    0  501  0.00000000000E+00  0.00000000000E+00 -0.16827986399E+04  0.16827986399E+04  0.50400001928E-02 0.  1.
    10030    2    1    2    0    0  0.00000000000E+00  0.00000000000E+00  0.13662462593E+03  0.35022219057E+04  0.34995559702E+04 0.  0.
        5    1    3    3  502    0  0.27530291341E+03  0.10399436017E+04 -0.13127485761E+04  0.16972346045E+04  0.46999998093E+01 0.  1.
       -5    1    3    3    0  502 -0.27530291341E+03 -0.10399436017E+04  0.14493732020E+04  0.18049873012E+04  0.46999998093E+01 0. -1.
</event>
<event>
 5   0  0.3553585E-08  0.3499497E+04  0.7818609E-02  0.8113909E-01
        2   -1    0    0  501    0  0.00000000000E+00  0.00000000000E+00  0.16928866132E+04  0.16928866132E+04  0.25500000920E-02 0.  1.
       -2   -1    0    0    0  501  0.00000000000E+00  0.00000000000E+00 -0.18085201797E+04  0.18085201797E+04  0.25500000920E-02 0. -1.
    10030    2    1    2    0    0  0.00000000000E+00  0.00000000000E+00 -0.11563356651E+03  0.35014067930E+04  0.34994968793E+04 0.  0.
        2    1    3    3  502    0 -0.51836984924E+03 -0.37517145793E+03 -0.16872505486E+04  0.18045152638E+04  0.25500000920E-02 0. -1.
       -2    1    3    3    0  502  0.51836984924E+03  0.37517145793E+03  0.15716169821E+04  0.16968915292E+04  0.25500000920E-02 0.  1.
</event>
<event>
 5   0  0.3467834E-08  0.3499391E+04  0.7818609E-02  0.8113934E-01
       -2   -1    0    0    0  501  0.00000000000E+00  0.00000000000E+00  0.14655267402E+04  0.14655267402E+04  0.25500000920E-02 0.  1.
        2   -1    0    0  501    0  0.00000000000E+00  0.00000000000E+00 -0.20889647058E+04  0.20889647058E+04  0.25500000920E-02 0. -1.
    10030    2    1    2    0    0  0.00000000000E+00  0.00000000000E+00 -0.62343796565E+03  0.35544914460E+04  0.34993905959E+04 0.  0.
        3    1    3    3  502    0 -0.40889819834E+03  0.13413350205E+04 -0.13746455631E+04  0.19636771141E+04  0.10100000352E+00 0. -1.
       -3    1    3    3    0  502  0.40889819834E+03 -0.13413350205E+04  0.75120759747E+03  0.15908143319E+04  0.10100000352E+00 0.  1.
</event>
<event>
 5   0  0.1121462E-08  0.3497347E+04  0.7818609E-02  0.8114419E-01
        1   -1    0    0  501    0  0.00000000000E+00  0.00000000000E+00  0.14192898857E+04  0.14192898857E+04  0.50400001928E-02 0.  1.
       -1   -1    0    0    0  501  0.00000000000E+00  0.00000000000E+00 -0.21544988676E+04  0.21544988676E+04  0.50400001928E-02 0. -1.
    10030    2    1    2    0    0  0.00000000000E+00  0.00000000000E+00 -0.73520898191E+03  0.35737887534E+04  0.34973466809E+04 0.  0.
        4    1    3    3  502    0  0.76033490656E+03  0.95384920036E+03 -0.16479549670E+04  0.20502913581E+04  0.12699999809E+01 0. -1.
       -4    1    3    3    0  502 -0.76033490656E+03 -0.95384920036E+03  0.91274598507E+03  0.15234973952E+04  0.12699999809E+01 0.  1.
</event>
<event>
 5   0  0.1129219E-08  0.3498700E+04  0.7818609E-02  0.8114098E-01
       -1   -1    0    0    0  501  0.00000000000E+00  0.00000000000E+00  0.31431261229E+04  0.31431261229E+04  0.50400001928E-02 0.  1.
        1   -1    0    0  501    0  0.00000000000E+00  0.00000000000E+00 -0.97362499873E+03  0.97362499874E+03  0.50400001928E-02 0. -1.
    10030    2    1    2    0    0  0.00000000000E+00  0.00000000000E+00  0.21695011242E+04  0.41167511217E+04  0.34987004259E+04 0.  0.
        5    1    3    3  502    0  0.11050049089E+04 -0.10917173589E+04  0.20314406924E+04  0.25572751157E+04  0.46999998093E+01 0.  1.
       -5    1    3    3    0  502 -0.11050049089E+04  0.10917173589E+04  0.13806043178E+03  0.15594760060E+04  0.46999998093E+01 0. -1.
</event>
<event>
 5   0  0.3467834E-08  0.3499369E+04  0.7818609E-02  0.8113939E-01
       -2   -1    0    0    0  501  0.00000000000E+00  0.00000000000E+00  0.13290415144E+04  0.13290415144E+04  0.25500000920E-02 0. -1.
        2   -1    0    0  501    0  0.00000000000E+00  0.00000000000E+00 -0.23034619815E+04  0.23034619815E+04  0.25500000920E-02 0.  1.
    10030    2    1    2    0    0  0.00000000000E+00  0.00000000000E+00 -0.97442046709E+03  0.36325034960E+04  0.34993694291E+04 0.  0.
        3    1    3    3  502    0  0.17071661650E+04 -0.25202276568E+03 -0.18731612898E+03  0.17358050385E+04  0.10100000352E+00 0. -1.
       -3    1    3    3    0  502 -0.17071661650E+04  0.25202276568E+03 -0.78710433811E+03  0.18966984575E+04  0.10100000352E+00 0.  1.
</event>
<event>
 5   0  0.3467834E-08  0.3499274E+04  0.7818609E-02  0.8113962E-01
        2   -1    0    0  501    0  0.00000000000E+00  0.00000000000E+00  0.12037438843E+04  0.12037438843E+04  0.25500000920E-02 0. -1.
       -2   -1    0    0    0  501  0.00000000000E+00  0.00000000000E+00 -0.25430904930E+04  0.25430904930E+04  0.25500000920E-02 0.  1.
    10030    2    1    2    0    0  0.00000000000E+00  0.00000000000E+00 -0.13393466088E+04  0.37468343773E+04  0.34992739979E+04 0.  0.
        3    1    3    3  502    0  0.18837863892E+03 -0.62726010507E+03  0.10675403633E+04  0.12524313109E+04  0.10100000352E+00 0. -1.
       -3    1    3    3    0  502 -0.18837863892E+03  0.62726010507E+03 -0.24068869721E+04  0.24944030664E+04  0.10100000352E+00 0.  1.
</event>
<event>
 5   0  0.3553585E-08  0.3502131E+04  0.7818609E-02  0.8113285E-01
        2   -1    0    0  501    0  0.00000000000E+00  0.00000000000E+00  0.14743569104E+04  0.14743569104E+04  0.25500000920E-02 0. -1.
       -2   -1    0    0    0  501  0.00000000000E+00  0.00000000000E+00 -0.20797064809E+04  0.20797064809E+04  0.25500000920E-02 0.  1.
    10030    2    1    2    0    0  0.00000000000E+00  0.00000000000E+00 -0.60534957049E+03  0.35540633913E+04  0.35021305639E+04 0.  0.
        2    1    3    3  502    0 -0.10988003355E+03  0.90143847286E+03 -0.18220620225E+04  0.20358229186E+04  0.25500000920E-02 0.  1.
       -2    1    3    3    0  502  0.10988003355E+03 -0.90143847286E+03  0.12167124520E+04  0.15182404727E+04  0.25500000920E-02 0. -1.
</event>
<event>
 5   0  0.1121462E-08  0.3500431E+04  0.7818609E-02  0.8113688E-01
        1   -1    0    0  501    0  0.00000000000E+00  0.00000000000E+00  0.23781321058E+04  0.23781321058E+04  0.50400001928E-02 0. -1.
       -1   -1    0    0    0  501  0.00000000000E+00  0.00000000000E+00 -0.12880928084E+04  0.12880928084E+04  0.50400001928E-02 0.  1.
    10030    2    1    2    0    0  0.00000000000E+00  0.00000000000E+00  0.10900392974E+04  0.36662249142E+04  0.35004313237E+04 0.  0.
        1    1    3    3  502    0  0.12823449155E+04 -0.10485154806E+04  0.11369994930E+04  0.20091194694E+04  0.50400001928E-02 0.  1.
       -1    1    3    3    0  502 -0.12823449155E+04  0.10485154806E+04 -0.46960195603E+02  0.16571054448E+04  0.50400001928E-02 0. -1.
</event>
<event>
 5   0  0.3700096E-08  0.3501197E+04  0.7818609E-02  0.8113506E-01
        2   -1    0    0  501    0  0.00000000000E+00  0.00000000000E+00  0.29888032152E+04  0.29888032152E+04  0.25500000920E-02 0.  1.
       -2   -1    0    0    0  501  0.00000000000E+00  0.00000000000E+00 -0.10253586613E+04  0.10253586613E+04  0.25500000920E-02 0. -1.
    10030    2    1    2    0    0  0.00000000000E+00  0.00000000000E+00  0.19634445539E+04  0.40141618765E+04  0.35011970888E+04 0.  0.
        4    1    3    3  502    0  0.70324044690E+03  0.79052813682E+02 -0.85405570144E+03  0.11091479737E+04  0.12699999809E+01 0. -1.
       -4    1    3    3    0  502 -0.70324044690E+03 -0.79052813682E+02  0.28175002554E+04  0.29050139028E+04  0.12699999809E+01 0.  1.
</event>
<event>
 5   0  0.3467834E-08  0.3495536E+04  0.7818609E-02  0.8114849E-01
        2   -1    0    0  501    0  0.00000000000E+00  0.00000000000E+00  0.18760943434E+04  0.18760943434E+04  0.25500000920E-02 0.  1.
       -2   -1    0    0    0  501  0.00000000000E+00  0.00000000000E+00 -0.16282191268E+04  0.16282191268E+04  0.25500000920E-02 0. -1.
    10030    2    1    2    0    0  0.00000000000E+00  0.00000000000E+00  0.24787521664E+03  0.35043134702E+04  0.34955358351E+04 0.  0.
        3    1    3    3  502    0 -0.10111161170E+03  0.81377464486E+03 -0.14233888126E+04  0.16427076589E+04  0.10100000352E+00 0. -1.
       -3    1    3    3    0  502  0.10111161170E+03 -0.81377464486E+03  0.16712640293E+04  0.18616058112E+04  0.10100000352E+00 0.  1.
</event>
<event>
 5   0  0.1121462E-08  0.3501674E+04  0.7818609E-02  0.8113393E-01
        1   -1    0    0  501    0  0.00000000000E+00  0.00000000000E+00  0.25278298283E+04  0.25278298283E+04  0.50400001928E-02 0. -1.
       -1   -1    0    0    0  501  0.00000000000E+00  0.00000000000E+00 -0.12126726797E+04  0.12126726797E+04  0.50400001928E-02 0.  1.
    10030    2    1    2    0    0  0.00000000000E+00  0.00000000000E+00  0.13151571486E+04  0.37405025080E+04  0.35016739835E+04 0.  0.
        2    1    3    3  502    0  0.47849306085E+03 -0.13977549728E+04  0.16612105304E+04  0.22231273018E+04  0.25500000920E-02 0. -1.
       -2    1    3    3    0  502 -0.47849306085E+03  0.13977549728E+04 -0.34605338178E+03  0.15173752062E+04  0.25500000920E-02 0.  1.
</event>
<event>
 5   0  0.1121462E-08  0.3500597E+04  0.7818609E-02  0.8113648E-01
        1   -1    0    0  501    0  0.00000000000E+00  0.00000000000E+00  0.21593095334E+04  0.21593095334E+04  0.50400001928E-02 0. -1.
       -1   -1    0    0    0  501  0.00000000000E+00  0.00000000000E+00 -0.14187613838E+04  0.14187613838E+04  0.50400001928E-02 0.  1.
    10030    2    1    2    0    0  0.00000000000E+00  0.00000000000E+00  0.74054814953E+03  0.35780709172E+04  0.35005970815E+04 0.  0.
        1    1    3    3  502    0  0.60601101378E+03 -0.56043999636E+03 -0.12073232776E+04  0.14625224221E+04  0.50400001928E-02 0.  1.
       -1    1    3    3    0  502 -0.60601101378E+03  0.56043999636E+03  0.19478714272E+04  0.21155484951E+04  0.50400001928E-02 0. -1.
</event>
<event>
 5   0  0.3628017E-08  0.3497742E+04  0.7818609E-02  0.8114325E-01
       -2   -1    0    0    0  501  0.00000000000E+00  0.00000000000E+00  0.15104363612E+04  0.15104363612E+04  0.25500000920E-02 0. -1.
        2   -1    0    0  501    0  0.00000000000E+00  0.00000000000E+00 -0.20249450398E+04  0.20249450398E+04  0.25500000920E-02 0.  1.
    10030    2    1    2    0    0  0.00000000000E+00  0.00000000000E+00 -0.51450867860E+03  0.35353814009E+04  0.34977424819E+04 0.  0.
        1    1    3    3  502    0  0.15038186094E+04  0.83633653054E+03  0.58552107010E+02  0.17217309753E+04  0.50400001928E-02 0.  1.
       -1    1    3    3    0  502 -0.15038186094E+04 -0.83633653054E+03 -0.57306078561E+03  0.18136504256E+04  0.50400001928E-02 0. -1.
</event>
<event>
 5   0  0.1129219E-08  0.3499555E+04  0.7818609E-02  0.8113895E-01
        1   -1    0    0  501    0  0.00000000000E+00  0.00000000000E+00  0.20512344474E+04  0.20512344474E+04  0.50400001928E-02 0. -1.
       -1   -1    0    0    0  501  0.00000000000E+00  0.00000000000E+00 -0.14926239906E+04  0.14926239906E+04  0.50400001928E-02 0.  1.
    10030    2    1    2    0    0  0.00000000000E+00  0.00000000000E+00  0.55861045683E+03  0.35438584380E+04  0.34995552555E+04 0.  0.
        5    1    3    3  502    0  0.11932503931E+04  0.48288221200E+03 -0.92088998113E+03  0.15827451401E+04  0.46999998093E+01 0.  1.
       -5    1    3    3    0  502 -0.11932503931E+04 -0.48288221200E+03  0.14795004380E+04  0.19611132979E+04  0.46999998093E+01 0. -1.
</event>
<event>
 5   0  0.1121462E-08  0.3499461E+04  0.7818609E-02  0.8113918E-01
        1   -1    0    0  501    0  0.00000000000E+00  0.00000000000E+00  0.23697106664E+04  0.23697106664E+04  0.50400001928E-02 0. -1.
       -1   -1    0    0    0  501  0.00000000000E+00  0.00000000000E+00 -0.12919539480E+04  0.12919539480E+04  0.50400001928E-02 0.  1.
    10030    2    1    2    0    0  0.00000000000E+00  0.00000000000E+00  0.10777567183E+04  0.36616646144E+04  0.34994611306E+04 0.  0.
        1    1    3    3  502    0  0.12669526755E+04  0.28250757354E+03  0.17665372489E+04  0.21921755092E+04  0.50400001928E-02 0. -1.
       -1    1    3    3    0  502 -0.12669526755E+04 -0.28250757354E+03 -0.68878053059E+03  0.14694891053E+04  0.50400001928E-02 0.  1.
</event>
<event>
 5   0  0.3467834E-08  0.3500866E+04  0.7818609E-02  0.8113585E-01
        2   -1    0    0  501    0  0.00000000000E+00  0.00000000000E+00  0.14957016578E+04  0.14957016578E+04  0.25500000920E-02 0.  1.
       -2   -1    0    0    0  501  0.00000000000E+00  0.00000000000E+00 -0.20485468351E+04  0.20485468351E+04  0.25500000920E-02 0. -1.
    10030    2    1    2    0    0  0.00000000000E+00  0.00000000000E+00 -0.55284517728E+03  0.35442484929E+04  0.35008655486E+04 0.  0.
        3    1    3    3  502    0  0.16658253483E+04 -0.11760299556E+03 -0.80752845481E+03  0.18549681321E+04  0.10100000352E+00 0. -1.
       -3    1    3    3    0  502 -0.16658253483E+04  0.11760299556E+03  0.25468327753E+03  0.16892803608E+04  0.10100000352E+00 0.  1.
</event>
<event>
 5   0  0.1121462E-08  0.3499738E+04  0.7818609E-02  0.8113852E-01
       -1   -1    0    0    0  501  0.00000000000E+00  0.00000000000E+00  0.14454501449E+04  0.14454501449E+04  0.50400001928E-02 0. -1.
        1   -1    0    0  501    0  0.00000000000E+00  0.00000000000E+00 -0.21183997432E+04  0.21183997433E+04  0.50400001928E-02 0.  1.
    10030    2    1    2    0    0  0.00000000000E+00  0.00000000000E+00 -0.67294959835E+03  0.35638498882E+04  0.34997378278E+04 0.  0.
        1    1    3    3  502    0 -0.28331243798E+03 -0.16995462550E+04 -0.64755054408E+03  0.18406643142E+04  0.50400001928E-02 0.  1.
       -1    1    3    3    0  502  0.28331243798E+03  0.16995462550E+04 -0.25399054273E+02  0.17231855740E+04  0.50400001928E-02 0. -1.
</event>
<event>
 5   0  0.1121462E-08  0.3499486E+04  0.7818609E-02  0.8113912E-01
       -1   -1    0    0    0  501  0.00000000000E+00  0.00000000000E+00  0.16182713939E+04  0.16182713939E+04  0.50400001928E-02 0. -1.
        1   -1    0    0  501    0  0.00000000000E+00  0.00000000000E+00 -0.18918959841E+04  0.18918959841E+04  0.50400001928E-02 0.  1.
    10030    2    1    2    0    0  0.00000000000E+00  0.00000000000E+00 -0.27362459020E+03  0.35101673781E+04  0.34994863346E+04 0.  0.
        1    1    3    3  502    0 -0.12426029319E+04  0.98251312055E+03 -0.88218675279E+03  0.18131871236E+04  0.50400001928E-02 0.  1.
       -1    1    3    3    0  502  0.12426029319E+04 -0.98251312055E+03  0.60856216260E+03  0.16969802545E+04  0.50400001928E-02 0. -1.
</event>
<event>
 5   0  0.1121462E-08  0.3514492E+04  0.7818609E-02  0.8110364E-01
        1   -1    0    0  501    0  0.00000000000E+00  0.00000000000E+00  0.13837144924E+04  0.13837144924E+04  0.50400001928E-02 0.  1.
       -1   -1    0    0    0  501  0.00000000000E+00  0.00000000000E+00 -0.22316114401E+04  0.22316114401E+04  0.50400001928E-02 0. -1.
    10030    2    1    2    0    0  0.00000000000E+00  0.00000000000E+00 -0.84789694769E+03  0.36153259325E+04  0.35144917648E+04 0.  0.
        2    1    3    3  502    0 -0.16449846118E+04  0.55660973959E+03 -0.14768353001E+03  0.17428709649E+04  0.25500000920E-02 0.  1.
       -2    1    3    3    0  502  0.16449846118E+04 -0.55660973959E+03 -0.70021341768E+03  0.18724549676E+04  0.25500000920E-02 0. -1.
</event>
<event>
 5   0  0.3628017E-08  0.3501855E+04  0.7818609E-02  0.8113351E-01
       -2   -1    0    0    0  501  0.00000000000E+00  0.00000000000E+00  0.13425053140E+04  0.13425053140E+04  0.25500000920E-02 0. -1.
        2   -1    0    0  501    0  0.00000000000E+00  0.00000000000E+00 -0.22836010094E+04  0.22836010094E+04  0.25500000920E-02 0.  1.
    10030    2    1    2    0    0  0.00000000000E+00  0.00000000000E+00 -0.94109569533E+03  0.36261063234E+04  0.35018546459E+04 0.  0.
        1    1    3    3  502    0  0.10820367018E+04 -0.87195574742E+03 -0.15735357374E+04  0.20993153566E+04  0.50400001928E-02 0.  1.
       -1    1    3    3    0  502 -0.10820367018E+04  0.87195574742E+03  0.63244004210E+03  0.15267909668E+04  0.50400001928E-02 0. -1.
</event>
<event>
 5   0  0.3467834E-08  0.3493893E+04  0.7818609E-02  0.8115239E-01
        2   -1    0    0  501    0  0.00000000000E+00  0.00000000000E+00  0.16578755286E+04  0.16578755286E+04  0.25500000920E-02 0. -1.
       -2   -1    0    0    0  501  0.00000000000E+00  0.00000000000E+00 -0.18408032804E+04  0.18408032804E+04  0.25500000920E-02 0.  1.
    10030    2    1    2    0    0  0.00000000000E+00  0.00000000000E+00 -0.18292775182E+03  0.34986788089E+04  0.34938933650E+04 0.  0.
        3    1    3    3  502    0  0.71556387952E+03 -0.73587522361E+02 -0.16856166698E+04  0.18326893782E+04  0.10100000352E+00 0.  1.
       -3    1    3    3    0  502 -0.71556387952E+03  0.73587522361E+02  0.15026889180E+04  0.16659894308E+04  0.10100000352E+00 0. -1.
</event>
<event>
 5   0  0.3553585E-08  0.3499605E+04  0.7818609E-02  0.8113884E-01
       -2   -1    0    0    0  501  0.00000000000E+00  0.00000000000E+00  0.17805750447E+04  0.17805750447E+04  0.25500000920E-02 0.  1.
        2   -1    0    0  501    0  0.00000000000E+00  0.00000000000E+00 -0.17195615123E+04  0.17195615123E+04  0.25500000920E-02 0. -1.
    10030    2    1    2    0    0  0.00000000000E+00  0.00000000000E+00  0.61013532381E+02  0.35001365569E+04  0.34996047300E+04 0.  0.
        2    1    3    3  502    0 -0.39549412522E+03  0.11844939552E+04 -0.11953902282E+04  0.17286987391E+04  0.25500000920E-02 0. -1.
       -2    1    3    3    0  502  0.39549412522E+03 -0.11844939552E+04  0.12564037605E+04  0.17714378178E+04  0.25500000920E-02 0.  1.
</event>
<event>
 5   0  0.3628017E-08  0.3497171E+04  0.7818609E-02  0.8114461E-01
        2   -1    0    0  501    0  0.00000000000E+00  0.00000000000E+00  0.23870706048E+04  0.23870706048E+04  0.25500000920E-02 0. -1.
       -2   -1    0    0    0  501  0.00000000000E+00  0.00000000000E+00 -0.12808802183E+04  0.12808802183E+04  0.25500000920E-02 0.  1.
    10030    2    1    2    0    0  0.00000000000E+00  0.00000000000E+00  0.11061903866E+04  0.36679508231E+04  0.34971711524E+04 0.  0.
        1    1    3    3  502    0 -0.12984312470E+04 -0.14572391741E+03  0.17719068585E+04  0.22015478824E+04  0.50400001928E-02 0. -1.
       -1    1    3    3    0  502  0.12984312470E+04  0.14572391741E+03 -0.66571647199E+03  0.14664029406E+04  0.50400001928E-02 0.  1.
</event>
<event>
 5   0  0.3467834E-08  0.3495455E+04  0.7818609E-02  0.8114868E-01
        2   -1    0    0  501    0  0.00000000000E+00  0.00000000000E+00  0.19873627939E+04  0.19873627939E+04  0.25500000920E-02 0. -1.
       -2   -1    0    0    0  501  0.00000000000E+00  0.00000000000E+00 -0.15369868840E+04  0.15369868840E+04  0.25500000920E-02 0.  1.
    10030    2    1    2    0    0  0.00000000000E+00  0.00000000000E+00  0.45037590988E+03  0.35243496778E+04  0.34954545043E+04 0.  0.
        3    1    3    3  502    0  0.29124217537E+02  0.68833041254E+03  0.18446734913E+04  0.19691285577E+04  0.10100000352E+00 0. -1.
       -3    1    3    3    0  502 -0.29124217537E+02 -0.68833041254E+03 -0.13942975814E+04  0.15552211202E+04  0.10100000352E+00 0.  1.
</event>
<event>
 5   0  0.1140808E-08  0.3500743E+04  0.7818609E-02  0.8113614E-01
       -1   -1    0    0    0  501  0.00000000000E+00  0.00000000000E+00  0.14245968735E+04  0.14245968735E+04  0.50400001928E-02 0. -1.
        1   -1    0    0  501    0  0.00000000000E+00  0.00000000000E+00 -0.21506440721E+04  0.21506440721E+04  0.50400001928E-02 0.  1.
    10030    2    1    2    0    0  0.00000000000E+00  0.00000000000E+00 -0.72604719860E+03  0.35752409455E+04  0.35007432474E+04 0.  0.
        3    1    3    3  502    0 -0.14338322037E+03 -0.11285885055E+04 -0.17215685935E+04  0.20635089520E+04  0.10100000352E+00 0.  1.
       -3    1    3    3    0  502  0.14338322037E+03  0.11285885055E+04  0.99552139488E+03  0.15117319936E+04  0.10100000352E+00 0. -1.
</event>
<event>
 5   0  0.1121462E-08  0.3500834E+04  0.7818609E-02  0.8113592E-01
       -3   -1    0    0    0  501  0.00000000000E+00  0.00000000000E+00  0.18895149836E+04  0.18895149863E+04  0.10100000352E+00 0.  1.
        3   -1    0    0  501    0  0.00000000000E+00  0.00000000000E+00 -0.16215587087E+04  0.16215587119E+04  0.10100000352E+00 0. -1.
    10030    2    1    2    0    0  0.00000000000E+00  0.00000000000E+00  0.26795627491E+03  0.35110736982E+04  0.35008338933E+04 0.  0.
        5    1    3    3  502    0  0.18069039316E+03  0.17204019029E+04 -0.13420945693E+03  0.17350694494E+04  0.46999998093E+01 0. -1.
       -5    1    3    3    0  502 -0.18069039316E+03 -0.17204019029E+04  0.40216573184E+03  0.17760042488E+04  0.46999998093E+01 0.  1.
</event>
<event>
 5   0  0.3700096E-08  0.3499499E+04  0.7818609E-02  0.8113909E-01
        2   -1    0    0  501    0  0.00000000000E+00  0.00000000000E+00  0.97323131055E+03  0.97323131055E+03  0.25500000920E-02 0.  1.
       -2   -1    0    0    0  501  0.00000000000E+00  0.00000000000E+00 -0.31458335160E+04  0.31458335160E+04  0.25500000920E-02 0. -1.
    10030    2    1    2    0    0  0.00000000000E+00  0.00000000000E+00 -0.21726022054E+04  0.41190648265E+04  0.34994992073E+04 0.  0.
        4    1    3    3  502    0  0.87983287642E+03 -0.14801203737E+04 -0.14524353255E+04  0.22526500391E+04  0.12699999809E+01 0. -1.
       -4    1    3    3    0  502 -0.87983287642E+03  0.14801203737E+04 -0.72016687995E+03  0.18664147875E+04  0.12699999809E+01 0.  1.
</event>
<event>
 5   0  0.3553585E-08  0.3499292E+04  0.7818609E-02  0.8113958E-01
        2   -1    0    0  501    0  0.00000000000E+00  0.00000000000E+00  0.20321635349E+04  0.20321635349E+04  0.25500000920E-02 0. -1.
       -2   -1    0    0    0  501  0.00000000000E+00  0.00000000000E+00 -0.15064052008E+04  0.15064052008E+04  0.25500000920E-02 0.  1.
    10030    2    1    2    0    0  0.00000000000E+00  0.00000000000E+00  0.52575833410E+03  0.35385687357E+04  0.34992923387E+04 0.  0.
        2    1    3    3  502    0  0.11907402144E+04 -0.92004856975E+03 -0.63983877144E+03  0.16351591000E+04  0.25500000920E-02 0.  1.
       -2    1    3    3    0  502 -0.11907402144E+04  0.92004856975E+03  0.11655971055E+04  0.19034096357E+04  0.25500000920E-02 0. -1.
</event>
<event>
 5   0  0.1121462E-08  0.3487661E+04  0.7818609E-02  0.8116720E-01
        1   -1    0    0  501    0  0.00000000000E+00  0.00000000000E+00  0.14368818997E+04  0.14368818997E+04  0.50400001928E-02 0.  1.
       -1   -1    0    0    0  501  0.00000000000E+00  0.00000000000E+00 -0.21163500283E+04  0.21163500283E+04  0.50400001928E-02 0. -1.
    10030    2    1    2    0    0  0.00000000000E+00  0.00000000000E+00 -0.67946812865E+03  0.35532319280E+04  0.34876611355E+04 0.  0.
        2    1    3    3  502    0  0.11271604285E+04 -0.88033430143E+03  0.67675444950E+03  0.15822375608E+04  0.25500000920E-02 0. -1.
       -2    1    3    3    0  502 -0.11271604285E+04  0.88033430143E+03 -0.13562225782E+04  0.19709943672E+04  0.25500000920E-02 0.  1.
</event>
<event>
 5   0  0.1121462E-08  0.3501059E+04  0.7818609E-02  0.8113539E-01
        1   -1    0    0  501    0  0.00000000000E+00  0.00000000000E+00  0.12570560975E+04  0.12570560975E+04  0.50400001928E-02 0.  1.
       -1   -1    0    0    0  501  0.00000000000E+00  0.00000000000E+00 -0.24377218967E+04  0.24377218967E+04  0.50400001928E-02 0. -1.
    10030    2    1    2    0    0  0.00000000000E+00  0.00000000000E+00 -0.11806657992E+04  0.36947779942E+04  0.35010587965E+04 0.  0.
        2    1    3    3  502    0 -0.23215807815E+03  0.17074334534E+04 -0.26484084279E+03  0.17433780552E+04  0.25500000920E-02 0.  1.
       -2    1    3    3    0  502  0.23215807815E+03 -0.17074334534E+04 -0.91582495638E+03  0.19513999390E+04  0.25500000920E-02 0. -1.
</event>
<event>
 5   0  0.3628017E-08  0.3501897E+04  0.7818609E-02  0.8113340E-01
       -2   -1    0    0    0  501  0.00000000000E+00  0.00000000000E+00  0.11743746547E+04  0.11743746547E+04  0.25500000920E-02 0.  1.
        2   -1    0    0  501    0  0.00000000000E+00  0.00000000000E+00 -0.26105990863E+04  0.26105990863E+04  0.25500000920E-02 0. -1.
    10030    2    1    2    0    0  0.00000000000E+00  0.00000000000E+00 -0.14362244316E+04  0.37849737409E+04  0.35018974288E+04 0.  0.
        1    1    3    3  502    0  0.56358798812E+02  0.14665975567E+04  0.31392216655E+03  0.15008770217E+04  0.50400001928E-02 0.  1.
       -1    1    3    3    0  502 -0.56358798812E+02 -0.14665975567E+04 -0.17501465982E+04  0.22840967192E+04  0.50400001928E-02 0. -1.
</event>
<event>
 5   0  0.1121462E-08  0.3501522E+04  0.7818609E-02  0.8113429E-01
       -1   -1    0    0    0  501  0.00000000000E+00  0.00000000000E+00  0.14615947777E+04  0.14615947777E+04  0.50400001928E-02 0. -1.
        1   -1    0    0  501    0  0.00000000000E+00  0.00000000000E+00 -0.20971362310E+04  0.20971362310E+04  0.50400001928E-02 0.  1.
    10030    2    1    2    0    0  0.00000000000E+00  0.00000000000E+00 -0.63554145330E+03  0.35587310088E+04  0.35015215912E+04 0.  0.
        1    1    3    3  502    0  0.11508375973E+04  0.22518034714E+03 -0.16390224317E+04  0.20153232732E+04  0.50400001928E-02 0.  1.
       -1    1    3    3    0  502 -0.11508375973E+04 -0.22518034714E+03  0.10034809784E+04  0.15434077355E+04  0.50400001928E-02 0. -1.
</event>
<event>
 5   0  0.1129219E-08  0.3499621E+04  0.7818609E-02  0.8113880E-01
        1   -1    0    0  501    0  0.00000000000E+00  0.00000000000E+00  0.12066563071E+04  0.12066563071E+04  0.50400001928E-02 0.  1.
       -1   -1    0    0    0  501  0.00000000000E+00  0.00000000000E+00 -0.25374548727E+04  0.25374548727E+04  0.50400001928E-02 0. -1.
    10030    2    1    2    0    0  0.00000000000E+00  0.00000000000E+00 -0.13307985656E+04  0.37441111799E+04  0.34996205087E+04 0.  0.
        5    1    3    3  502    0 -0.38812137238E+03 -0.14632465451E+04 -0.16042513518E+04  0.22057590850E+04  0.46999998093E+01 0.  1.
       -5    1    3    3    0  502  0.38812137238E+03  0.14632465451E+04  0.27345278615E+03  0.15383520949E+04  0.46999998093E+01 0. -1.
</event>
<event>
 5   0  0.1121462E-08  0.3500907E+04  0.7818609E-02  0.8113575E-01
        1   -1    0    0  501    0  0.00000000000E+00  0.00000000000E+00  0.16040626015E+04  0.16040626015E+04  0.50400001928E-02 0.  1.
       -1   -1    0    0    0  501  0.00000000000E+00  0.00000000000E+00 -0.19102040660E+04  0.19102040660E+04  0.50400001928E-02 0. -1.
    10030    2    1    2    0    0  0.00000000000E+00  0.00000000000E+00 -0.30614146455E+03  0.35142666675E+04  0.35009066846E+04 0.  0.
        1    1    3    3  502    0 -0.11480729072E+03  0.71474082697E+03  0.14467652482E+04  0.16177653869E+04  0.50400001928E-02 0.  1.
       -1    1    3    3    0  502  0.11480729072E+03 -0.71474082697E+03 -0.17529067127E+04  0.18965012806E+04  0.50400001928E-02 0. -1.
</event>
<event>
 5   0  0.1140808E-08  0.3501074E+04  0.7818609E-02  0.8113535E-01
        1   -1    0    0  501    0  0.00000000000E+00  0.00000000000E+00  0.16011573311E+04  0.16011573311E+04  0.50400001928E-02 0.  1.
       -1   -1    0    0    0  501  0.00000000000E+00  0.00000000000E+00 -0.19138530293E+04  0.19138530293E+04  0.50400001928E-02 0. -1.
    10030    2    1    2    0    0  0.00000000000E+00  0.00000000000E+00 -0.31269569824E+03  0.35150103604E+04  0.35010740115E+04 0.  0.
        3    1    3    3  502    0 -0.13953994602E+04  0.21323839838E+03  0.88303613570E+03  0.16650414695E+04  0.10100000352E+00 0.  1.
       -3    1    3    3    0  502  0.13953994602E+04 -0.21323839838E+03 -0.11957318339E+04  0.18499688908E+04  0.10100000352E+00 0. -1.
</event>
<event>
 5   0  0.3467834E-08  0.3499538E+04  0.7818609E-02  0.8113900E-01
       -2   -1    0    0    0  501  0.00000000000E+00  0.00000000000E+00  0.24292571858E+04  0.24292571858E+04  0.25500000920E-02 0.  1.
        2   -1    0    0  501    0  0.00000000000E+00  0.00000000000E+00 -0.12603402792E+04  0.12603402792E+04  0.25500000920E-02 0. -1.
    10030    2    1    2    0    0  0.00000000000E+00  0.00000000000E+00  0.11689169066E+04  0.36895974649E+04  0.34995375007E+04 0.  0.
        3    1    3    3  502    0  0.21664016198E+03  0.11424418115E+04  0.19629801655E+04  0.22815339999E+04  0.10100000352E+00 0. -1.
       -3    1    3    3    0  502 -0.21664016198E+03 -0.11424418115E+04 -0.79406325886E+03  0.14080634651E+04  0.10100000352E+00 0.  1.
</event>
<event>
 5   0  0.3628017E-08  0.3495683E+04  0.7818609E-02  0.8114814E-01
        2   -1    0    0  501    0  0.00000000000E+00  0.00000000000E+00  0.18673843037E+04  0.18673843037E+04  0.25500000920E-02 0. -1.
       -2   -1    0    0    0  501  0.00000000000E+00  0.00000000000E+00 -0.16359510061E+04  0.16359510061E+04  0.25500000920E-02 0.  1.
    10030    2    1    2    0    0  0.00000000000E+00  0.00000000000E+00  0.23143329756E+03  0.35033353097E+04  0.34956826116E+04 0.  0.
        1    1    3    3  502    0 -0.10987872922E+04  0.12747667239E+04 -0.35710588176E+03  0.17204325981E+04  0.50400001928E-02 0.  1.
       -1    1    3    3    0  502  0.10987872922E+04 -0.12747667239E+04  0.58853917932E+03  0.17829027117E+04  0.50400001928E-02 0. -1.
</event>
<event>
 5   0  0.3700096E-08  0.3499085E+04  0.7818609E-02  0.8114007E-01
       -2   -1    0    0    0  501  0.00000000000E+00  0.00000000000E+00  0.16741961074E+04  0.16741961074E+04  0.25500000920E-02 0. -1.
        2   -1    0    0  501    0  0.00000000000E+00  0.00000000000E+00 -0.18282793264E+04  0.18282793264E+04  0.25500000920E-02 0.  1.
    10030    2    1    2    0    0  0.00000000000E+00  0.00000000000E+00 -0.15408321903E+03  0.35024754338E+04  0.34990845269E+04 0.  0.
        4    1    3    3  502    0 -0.10705910561E+04 -0.31787687932E+03  0.12709949366E+04  0.16919340003E+04  0.12699999809E+01 0. -1.
       -4    1    3    3    0  502  0.10705910561E+04  0.31787687932E+03 -0.14250781556E+04  0.18105414335E+04  0.12699999809E+01 0.  1.
</event>
<event>
 5   0  0.1121462E-08  0.3498799E+04  0.7818609E-02  0.8114075E-01
       -1   -1    0    0    0  501  0.00000000000E+00  0.00000000000E+00  0.16317114457E+04  0.16317114457E+04  0.50400001928E-02 0.  1.
        1   -1    0    0  501    0  0.00000000000E+00  0.00000000000E+00 -0.18755762439E+04  0.18755762439E+04  0.50400001928E-02 0. -1.
    10030    2    1    2    0    0  0.00000000000E+00  0.00000000000E+00 -0.24386479815E+03  0.35072876896E+04  0.34987993509E+04 0.  0.
        2    1    3    3  502    0 -0.35780052178E+03  0.22378682767E+03  0.15799194609E+04  0.16353125880E+04  0.25500000920E-02 0.  1.
       -2    1    3    3    0  502  0.35780052178E+03 -0.22378682767E+03 -0.18237842590E+04  0.18719751016E+04  0.25500000920E-02 0. -1.
</event>
<event>
 5   0  0.3554451E-08  0.3499989E+04  0.7818609E-02  0.8113793E-01
       -2   -1    0    0    0  501  0.00000000000E+00  0.00000000000E+00  0.14261280982E+04  0.14261280982E+04  0.25500000920E-02 0. -1.
        2   -1    0    0  501    0  0.00000000000E+00  0.00000000000E+00 -0.21474095449E+04  0.21474095449E+04  0.25500000920E-02 0.  1.
    10030    2    1    2    0    0  0.00000000000E+00  0.00000000000E+00 -0.72128144674E+03  0.35735376431E+04  0.34999891945E+04 0.  0.
        5    1    3    3  502    0  0.35248983889E+03  0.10985807765E+04  0.98280958985E+03  0.15156073333E+04  0.46999998093E+01 0. -1.
       -5    1    3    3    0  502 -0.35248983889E+03 -0.10985807765E+04 -0.17040910366E+04  0.20579303098E+04  0.46999998093E+01 0.  1.
</event>
<event>
 5   0  0.3554451E-08  0.3489144E+04  0.7818609E-02  0.8116368E-01
        2   -1    0    0  501    0  0.00000000000E+00  0.00000000000E+00  0.23989649773E+04  0.23989649773E+04  0.25500000920E-02 0.  1.
       -2   -1    0    0    0  501  0.00000000000E+00  0.00000000000E+00 -0.12686849343E+04  0.12686849343E+04  0.25500000920E-02 0. -1.
    10030    2    1    2    0    0  0.00000000000E+00  0.00000000000E+00  0.11302800430E+04  0.36676499115E+04  0.34891435766E+04 0.  0.
        5    1    3    3  502    0  0.36912083021E+03 -0.12156005343E+04 -0.69167777513E+03  0.14465044351E+04  0.46999998093E+01 0. -1.
       -5    1    3    3    0  502 -0.36912083021E+03  0.12156005343E+04  0.18219578181E+04  0.22211454764E+04  0.46999998093E+01 0.  1.
</event>
<event>
 5   0  0.3467834E-08  0.3497429E+04  0.7818609E-02  0.8114399E-01
       -2   -1    0    0    0  501  0.00000000000E+00  0.00000000000E+00  0.13526032732E+04  0.13526032732E+04  0.25500000920E-02 0. -1.
        2   -1    0    0  501    0  0.00000000000E+00  0.00000000000E+00 -0.22608275228E+04  0.22608275228E+04  0.25500000920E-02 0.  1.
    10030    2    1    2    0    0  0.00000000000E+00  0.00000000000E+00 -0.90822424963E+03  0.36134307960E+04  0.34974291744E+04 0.  0.
        3    1    3    3  502    0  0.88680510991E+03 -0.36448367175E+02 -0.20108222222E+04  0.21979894918E+04  0.10100000352E+00 0.  1.
       -3    1    3    3    0  502 -0.88680510991E+03  0.36448367175E+02  0.11025979726E+04  0.14154413042E+04  0.10100000352E+00 0. -1.
</event>
<event>
 5   0  0.3554451E-08  0.3497546E+04  0.7818609E-02  0.8114372E-01
       -2   -1    0    0    0  501  0.00000000000E+00  0.00000000000E+00  0.10169281624E+04  0.10169281624E+04  0.25500000920E-02 0.  1.
        2   -1    0    0  501    0  0.00000000000E+00  0.00000000000E+00 -0.30072995637E+04  0.30072995637E+04  0.25500000920E-02 0. -1.
    10030    2    1    2    0    0  0.00000000000E+00  0.00000000000E+00 -0.19903714013E+04  0.40242277261E+04  0.34975463509E+04 0.  0.
        5    1    3    3  502    0 -0.12709037566E+04  0.27485453880E+03 -0.23406552387E+04  0.26775792075E+04  0.46999998093E+01 0. -1.
       -5    1    3    3    0  502  0.12709037566E+04 -0.27485453880E+03  0.35028383737E+03  0.13466485186E+04  0.46999998093E+01 0.  1.
</event>
<event>
 5   0  0.3553585E-08  0.3499733E+04  0.7818609E-02  0.8113853E-01
       -2   -1    0    0    0  501  0.00000000000E+00  0.00000000000E+00  0.16655892410E+04  0.16655892410E+04  0.25500000920E-02 0.  1.
        2   -1    0    0  501    0  0.00000000000E+00  0.00000000000E+00 -0.18384084004E+04  0.18384084004E+04  0.25500000920E-02 0. -1.
    10030    2    1    2    0    0  0.00000000000E+00  0.00000000000E+00 -0.17281915934E+03  0.35039976414E+04  0.34997332769E+04 0.  0.
        2    1    3    3  502    0  0.12782155561E+04 -0.95587638253E+03 -0.80456914758E+03  0.17874188596E+04  0.25500000920E-02 0.  1.
       -2    1    3    3    0  502 -0.12782155561E+04  0.95587638253E+03  0.63174998823E+03  0.17165787818E+04  0.25500000920E-02 0. -1.
</event>
<event>
 5   0  0.3554451E-08  0.3498897E+04  0.7818609E-02  0.8114051E-01
       -2   -1    0    0    0  501  0.00000000000E+00  0.00000000000E+00  0.20258524446E+04  0.20258524446E+04  0.25500000920E-02 0. -1.
        2   -1    0    0  501    0  0.00000000000E+00  0.00000000000E+00 -0.15107568314E+04  0.15107568314E+04  0.25500000920E-02 0.  1.
    10030    2    1    2    0    0  0.00000000000E+00  0.00000000000E+00  0.51509561316E+03  0.35366092761E+04  0.34988972092E+04 0.  0.
        5    1    3    3  502    0  0.32742595175E+03 -0.11822814713E+04  0.15182079970E+04  0.19519156855E+04  0.46999998093E+01 0. -1.
       -5    1    3    3    0  502 -0.32742595175E+03  0.11822814713E+04 -0.10031123838E+04  0.15846935905E+04  0.46999998093E+01 0.  1.
</event>
<event>
 5   0  0.3553585E-08  0.3499573E+04  0.7818609E-02  0.8113891E-01
        2   -1    0    0  501    0  0.00000000000E+00  0.00000000000E+00  0.20727575081E+04  0.20727575081E+04  0.25500000920E-02 0.  1.
       -2   -1    0    0    0  501  0.00000000000E+00  0.00000000000E+00 -0.14771401578E+04  0.14771401579E+04  0.25500000920E-02 0. -1.
    10030    2    1    2    0    0  0.00000000000E+00  0.00000000000E+00  0.59561735028E+03  0.35498976660E+04  0.34995733184E+04 0.  0.
        2    1    3    3  502    0 -0.19754973849E+02 -0.22098939523E+03  0.20584309625E+04  0.20703537377E+04  0.25500000920E-02 0.  1.
       -2    1    3    3    0  502  0.19754973849E+02  0.22098939523E+03 -0.14628136122E+04  0.14795439283E+04  0.25500000920E-02 0. -1.
</event>
<event>
 5   0  0.3700096E-08  0.3474987E+04  0.7818609E-02  0.8119743E-01
       -2   -1    0    0    0  501  0.00000000000E+00  0.00000000000E+00  0.13320033118E+04  0.13320033118E+04  0.25500000920E-02 0. -1.
        2   -1    0    0  501    0  0.00000000000E+00  0.00000000000E+00 -0.22664230112E+04  0.22664230112E+04  0.25500000920E-02 0.  1.
    10030    2    1    2    0    0  0.00000000000E+00  0.00000000000E+00 -0.93441969942E+03  0.35984263230E+04  0.34749865938E+04 0.  0.
        4    1    3    3  502    0  0.61442132200E+03 -0.93016771925E+03  0.91285663922E+03  0.14408450311E+04  0.12699999809E+01 0. -1.
       -4    1    3    3    0  502 -0.61442132200E+03  0.93016771925E+03 -0.18472763386E+04  0.21575812919E+04  0.12699999809E+01 0.  1.
</event>
<event>
 5   0  0.3628017E-08  0.3501037E+04  0.7818609E-02  0.8113544E-01
        2   -1    0    0  501    0  0.00000000000E+00  0.00000000000E+00  0.24636742430E+04  0.24636742430E+04  0.25500000920E-02 0.  1.
       -2   -1    0    0    0  501  0.00000000000E+00  0.00000000000E+00 -0.12437990285E+04  0.12437990285E+04  0.25500000920E-02 0. -1.
    10030    2    1    2    0    0  0.00000000000E+00  0.00000000000E+00  0.12198752145E+04  0.37074732716E+04  0.35010373492E+04 0.  0.
        1    1    3    3  502    0 -0.67722372510E+03 -0.10751321597E+03  0.23155356854E+04  0.24149320023E+04  0.50400001928E-02 0.  1.
       -1    1    3    3    0  502  0.67722372510E+03  0.10751321597E+03 -0.10956604708E+04  0.12925412693E+04  0.50400001928E-02 0. -1.
</event>
<event>
 5   0  0.1121462E-08  0.3499814E+04  0.7818609E-02  0.8113834E-01
       -1   -1    0    0    0  501  0.00000000000E+00  0.00000000000E+00  0.26694805808E+04  0.26694805808E+04  0.50400001928E-02 0.  1.
        1   -1    0    0  501    0  0.00000000000E+00  0.00000000000E+00 -0.11471048175E+04  0.11471048176E+04  0.50400001928E-02 0. -1.
    10030    2    1    2    0    0  0.00000000000E+00  0.00000000000E+00  0.15223757632E+04  0.38165853983E+04  0.34998137291E+04 0.  0.
        1    1    3    3  502    0  0.22135549381E+03  0.64259038977E+03  0.25196697228E+04  0.26097233907E+04  0.50400001928E-02 0.  1.
       -1    1    3    3    0  502 -0.22135549381E+03 -0.64259038977E+03 -0.99729395960E+03  0.12068620077E+04  0.50400001928E-02 0. -1.
</event>
<event>
 5   0  0.1129219E-08  0.3499888E+04  0.7818609E-02  0.8113816E-01
        1   -1    0    0  501    0  0.00000000000E+00  0.00000000000E+00  0.13372887542E+04  0.13372887542E+04  0.50400001928E-02 0.  1.
       -1   -1    0    0    0  501  0.00000000000E+00  0.00000000000E+00 -0.22899349954E+04  0.22899349954E+04  0.50400001928E-02 0. -1.
    10030    2    1    2    0    0  0.00000000000E+00  0.00000000000E+00 -0.95264624117E+03  0.36272237495E+04  0.34998881794E+04 0.  0.
        5    1    3    3  502    0 -0.46925068079E+03  0.12997533093E+03 -0.22183072542E+04  0.22711228395E+04  0.46999998093E+01 0. -1.
       -5    1    3    3    0  502  0.46925068079E+03 -0.12997533093E+03  0.12656610131E+04  0.13561009100E+04  0.46999998093E+01 0.  1.
</event>
<event>
 5   0  0.1121462E-08  0.3501325E+04  0.7818609E-02  0.8113476E-01
       -1   -1    0    0    0  501  0.00000000000E+00  0.00000000000E+00  0.15426998321E+04  0.15426998321E+04  0.50400001928E-02 0. -1.
        1   -1    0    0  501    0  0.00000000000E+00  0.00000000000E+00 -0.19866592753E+04  0.19866592753E+04  0.50400001928E-02 0.  1.
    10030    2    1    2    0    0  0.00000000000E+00  0.00000000000E+00 -0.44395944319E+03  0.35293591074E+04  0.35013248524E+04 0.  0.
        2    1    3    3  502    0 -0.63383870907E+03  0.10454060417E+04 -0.14850864499E+04  0.19235662362E+04  0.25500000920E-02 0.  1.
       -2    1    3    3    0  502  0.63383870907E+03 -0.10454060417E+04  0.10411270068E+04  0.16057928712E+04  0.25500000920E-02 0. -1.
</event>
<event>
 5   0  0.1129219E-08  0.3507985E+04  0.7818609E-02  0.8111900E-01
       -1   -1    0    0    0  501  0.00000000000E+00  0.00000000000E+00  0.12882953988E+04  0.12882953988E+04  0.50400001928E-02 0. -1.
        1   -1    0    0  501    0  0.00000000000E+00  0.00000000000E+00 -0.23880317797E+04  0.23880317798E+04  0.50400001928E-02 0.  1.
    10030    2    1    2    0    0  0.00000000000E+00  0.00000000000E+00 -0.10997363809E+04  0.36763271786E+04  0.35079853786E+04 0.  0.
        5    1    3    3  502    0  0.26717519155E+03  0.66589358928E+03 -0.22271965540E+04  0.23399195361E+04  0.46999998093E+01 0.  1.
       -5    1    3    3    0  502 -0.26717519155E+03 -0.66589358928E+03  0.11274601731E+04  0.13364076425E+04  0.46999998093E+01 0. -1.
</event>
<event>
 5   0  0.3467834E-08  0.3500280E+04  0.7818609E-02  0.8113723E-01
        2   -1    0    0  501    0  0.00000000000E+00  0.00000000000E+00  0.16843415116E+04  0.16843415116E+04  0.25500000920E-02 0. -1.
       -2   -1    0    0    0  501  0.00000000000E+00  0.00000000000E+00 -0.18185092962E+04  0.18185092962E+04  0.25500000920E-02 0.  1.
    10030    2    1    2    0    0  0.00000000000E+00  0.00000000000E+00 -0.13416778459E+03  0.35028508077E+04  0.35002803869E+04 0.  0.
        3    1    3    3  502    0  0.11142905822E+04 -0.40586521200E+03  0.12209590329E+04  0.17020901980E+04  0.10100000352E+00 0. -1.
       -3    1    3    3    0  502 -0.11142905822E+04  0.40586521200E+03 -0.13551268175E+04  0.18007606097E+04  0.10100000352E+00 0.  1.
</event>
<event>
 5   0  0.3700096E-08  0.3500199E+04  0.7818609E-02  0.8113743E-01
        2   -1    0    0  501    0  0.00000000000E+00  0.00000000000E+00  0.27314847216E+04  0.27314847216E+04  0.25500000920E-02 0.  1.
       -2   -1    0    0    0  501  0.00000000000E+00  0.00000000000E+00 -0.11213127205E+04  0.11213127205E+04  0.25500000920E-02 0. -1.
    10030    2    1    2    0    0  0.00000000000E+00  0.00000000000E+00  0.16101720010E+04  0.38527974421E+04  0.35001991739E+04 0.  0.
        4    1    3    3  502    0  0.96371642547E+03  0.47530878803E+02  0.24122513526E+04  0.25980698094E+04  0.12699999809E+01 0.  1.
       -4    1    3    3    0  502 -0.96371642547E+03 -0.47530878803E+02 -0.80207935159E+03  0.12547276327E+04  0.12699999809E+01 0. -1.
</event>
<event>
 5   0  0.1121462E-08  0.3497697E+04  0.7818609E-02  0.8114336E-01
        1   -1    0    0  501    0  0.00000000000E+00  0.00000000000E+00  0.23736767504E+04  0.23736767504E+04  0.50400001928E-02 0. -1.
       -1   -1    0    0    0  501  0.00000000000E+00  0.00000000000E+00 -0.12884949545E+04  0.12884949546E+04  0.50400001928E-02 0.  1.
    10030    2    1    2    0    0  0.00000000000E+00  0.00000000000E+00  0.10851817959E+04  0.36621717050E+04  0.34976966802E+04 0.  0.
        4    1    3    3  502    0  0.11212916395E+04 -0.93614204644E+03 -0.46430203725E+03  0.15327213924E+04  0.12699999809E+01 0.  1.
       -4    1    3    3    0  502 -0.11212916395E+04  0.93614204644E+03  0.15494838331E+04  0.21294503126E+04  0.12699999809E+01 0. -1.
</event>
<event>
 5   0  0.1121462E-08  0.3500102E+04  0.7818609E-02  0.8113766E-01
        1   -1    0    0  501    0  0.00000000000E+00  0.00000000000E+00  0.19372855997E+04  0.19372855997E+04  0.50400001928E-02 0. -1.
       -1   -1    0    0    0  501  0.00000000000E+00  0.00000000000E+00 -0.15809118213E+04  0.15809118213E+04  0.50400001928E-02 0.  1.
    10030    2    1    2    0    0  0.00000000000E+00  0.00000000000E+00  0.35637377837E+03  0.35181974210E+04  0.35001015447E+04 0.  0.
        2    1    3    3  502    0 -0.14708015795E+04  0.75578455878E+03 -0.39767129805E+03  0.17007674876E+04  0.25500000920E-02 0.  1.
       -2    1    3    3    0  502  0.14708015795E+04 -0.75578455878E+03  0.75404507642E+03  0.18174299334E+04  0.25500000920E-02 0. -1.
</event>
<event>
 5   0  0.1121462E-08  0.3501170E+04  0.7818609E-02  0.8113513E-01
        1   -1    0    0  501    0  0.00000000000E+00  0.00000000000E+00  0.19572162476E+04  0.19572162476E+04  0.50400001928E-02 0.  1.
       -1   -1    0    0    0  501  0.00000000000E+00  0.00000000000E+00 -0.15657684360E+04  0.15657684361E+04  0.50400001928E-02 0. -1.
    10030    2    1    2    0    0  0.00000000000E+00  0.00000000000E+00  0.39144781154E+03  0.35229846836E+04  0.35011697605E+04 0.  0.
        2    1    3    3  502    0  0.14128853335E+04 -0.56119616023E+03  0.10690958716E+04  0.18585349280E+04  0.25500000920E-02 0.  1.
       -2    1    3    3    0  502 -0.14128853335E+04  0.56119616023E+03 -0.67764806007E+03  0.16644497557E+04  0.25500000920E-02 0. -1.
</event>
<event>
 5   0  0.3553585E-08  0.3500176E+04  0.7818609E-02  0.8113748E-01
       -2   -1    0    0    0  501  0.00000000000E+00  0.00000000000E+00  0.12238091511E+04  0.12238091511E+04  0.25500000920E-02 0. -1.
        2   -1    0    0  501    0  0.00000000000E+00  0.00000000000E+00 -0.25026839768E+04  0.25026839768E+04  0.25500000920E-02 0.  1.
    10030    2    1    2    0    0  0.00000000000E+00  0.00000000000E+00 -0.12788748257E+04  0.37264931279E+04  0.35001757403E+04 0.  0.
        2    1    3    3  502    0  0.37880414045E+03  0.19188367054E+03 -0.24470060749E+04  0.24835761817E+04  0.25500000920E-02 0.  1.
       -2    1    3    3    0  502 -0.37880414045E+03 -0.19188367054E+03  0.11681312492E+04  0.12429169462E+04  0.25500000920E-02 0. -1.
</event>
<event>
 5   0  0.1121462E-08  0.3500424E+04  0.7818609E-02  0.8113690E-01
       -1   -1    0    0    0  501  0.00000000000E+00  0.00000000000E+00  0.22013259634E+04  0.22013259634E+04  0.50400001928E-02 0. -1.
        1   -1    0    0  501    0  0.00000000000E+00  0.00000000000E+00 -0.13915439384E+04  0.13915439384E+04  0.50400001928E-02 0.  1.
    10030    2    1    2    0    0  0.00000000000E+00  0.00000000000E+00  0.80978202503E+03  0.35928699018E+04  0.35004238605E+04 0.  0.
        1    1    3    3  502    0  0.48370268568E+03 -0.13418728274E+04  0.14459008798E+04  0.20310638413E+04  0.50400001928E-02 0. -1.
       -1    1    3    3    0  502 -0.48370268568E+03  0.13418728274E+04 -0.63611885479E+03  0.15618060605E+04  0.50400001928E-02 0.  1.
</event>
<event>
 5   0  0.1121462E-08  0.3500391E+04  0.7818609E-02  0.8113697E-01
       -1   -1    0    0    0  501  0.00000000000E+00  0.00000000000E+00  0.10339057253E+04  0.10339057254E+04  0.50400001928E-02 0.  1.
        1   -1    0    0  501    0  0.00000000000E+00  0.00000000000E+00 -0.29627314864E+04  0.29627314864E+04  0.50400001928E-02 0. -1.
    10030    2    1    2    0    0  0.00000000000E+00  0.00000000000E+00 -0.19288257610E+04  0.39966372117E+04  0.35003914332E+04 0.  0.
        4    1    3    3  502    0 -0.17299651480E+04  0.18244023813E+03 -0.74443468244E+03  0.18921544501E+04  0.12699999809E+01 0.  1.
       -4    1    3    3    0  502  0.17299651480E+04 -0.18244023813E+03 -0.11843910786E+04  0.21044827616E+04  0.12699999809E+01 0. -1.
</event>
<event>
 5   0  0.1140808E-08  0.3499318E+04  0.7818609E-02  0.8113952E-01
       -1   -1    0    0    0  501  0.00000000000E+00  0.00000000000E+00  0.12360942303E+04  0.12360942303E+04  0.50400001928E-02 0.  1.
        1   -1    0    0  501    0  0.00000000000E+00  0.00000000000E+00 -0.24765958027E+04  0.24765958027E+04  0.50400001928E-02 0. -1.
    10030    2    1    2    0    0  0.00000000000E+00  0.00000000000E+00 -0.12405015725E+04  0.37126900330E+04  0.34993175234E+04 0.  0.
        3    1    3    3  502    0 -0.18453888725E+02 -0.17495493117E+04 -0.62716198910E+03  0.18586542203E+04  0.10100000352E+00 0. -1.
       -3    1    3    3    0  502  0.18453888725E+02  0.17495493117E+04 -0.61333958338E+03  0.18540358127E+04  0.10100000352E+00 0.  1.
</event>
<event>
 5   0  0.1121462E-08  0.3500410E+04  0.7818609E-02  0.8113693E-01
       -1   -1    0    0    0  501  0.00000000000E+00  0.00000000000E+00  0.13529506498E+04  0.13529506498E+04  0.50400001928E-02 0.  1.
        1   -1    0    0  501    0  0.00000000000E+00  0.00000000000E+00 -0.22641013276E+04  0.22641013276E+04  0.50400001928E-02 0. -1.
    10030    2    1    2    0    0  0.00000000000E+00  0.00000000000E+00 -0.91115067787E+03  0.36170519774E+04  0.35004098974E+04 0.  0.
        4    1    3    3  502    0  0.11226510343E+04 -0.13977685595E+03  0.92433875227E+03  0.14609197980E+04  0.12699999809E+01 0.  1.
       -4    1    3    3    0  502 -0.11226510343E+04  0.13977685595E+03 -0.18354894301E+04  0.21561321795E+04  0.12699999809E+01 0. -1.
</event>
<event>
 5   0  0.3700096E-08  0.3496464E+04  0.7818609E-02  0.8114628E-01
       -2   -1    0    0    0  501  0.00000000000E+00  0.00000000000E+00  0.14707702970E+04  0.14707702970E+04  0.25500000920E-02 0.  1.
        2   -1    0    0  501    0  0.00000000000E+00  0.00000000000E+00 -0.20780367610E+04  0.20780367610E+04  0.25500000920E-02 0. -1.
    10030    2    1    2    0    0  0.00000000000E+00  0.00000000000E+00 -0.60726646400E+03  0.35488070581E+04  0.34964637818E+04 0.  0.
        4    1    3    3  502    0  0.57568686830E+03  0.87999111962E+02  0.13694227553E+04  0.14881127342E+04  0.12699999809E+01 0.  1.
       -4    1    3    3    0  502 -0.57568686830E+03 -0.87999111962E+02 -0.19766892193E+04  0.20606943239E+04  0.12699999809E+01 0. -1.
</event>
<event>
 5   0  0.3553585E-08  0.3500393E+04  0.7818609E-02  0.8113697E-01
        2   -1    0    0  501    0  0.00000000000E+00  0.00000000000E+00  0.20450776706E+04  0.20450776706E+04  0.25500000920E-02 0.  1.
       -2   -1    0    0    0  501  0.00000000000E+00  0.00000000000E+00 -0.14978340668E+04  0.14978340668E+04  0.25500000920E-02 0. -1.
    10030    2    1    2    0    0  0.00000000000E+00  0.00000000000E+00  0.54724360381E+03  0.35429117374E+04  0.35003925519E+04 0.  0.
        2    1    3    3  502    0  0.42471598049E+03  0.13853583176E+04  0.12671695627E+04  0.19249207861E+04  0.25500000920E-02 0.  1.
       -2    1    3    3    0  502 -0.42471598049E+03 -0.13853583176E+04 -0.71992595889E+03  0.16179909513E+04  0.25500000920E-02 0. -1.
</event>
<event>
 5   0  0.3554451E-08  0.3499938E+04  0.7818609E-02  0.8113805E-01
       -2   -1    0    0    0  501  0.00000000000E+00  0.00000000000E+00  0.12955460061E+04  0.12955460061E+04  0.25500000920E-02 0. -1.
        2   -1    0    0  501    0  0.00000000000E+00  0.00000000000E+00 -0.23637840966E+04  0.23637840966E+04  0.25500000920E-02 0.  1.
    10030    2    1    2    0    0  0.00000000000E+00  0.00000000000E+00 -0.10682380906E+04  0.36593301027E+04  0.34999377398E+04 0.  0.
        5    1    3    3  502    0  0.17523119579E+03  0.20977162776E+03  0.12730832608E+04  0.13021033702E+04  0.46999998093E+01 0. -1.
       -5    1    3    3    0  502 -0.17523119579E+03 -0.20977162776E+03 -0.23413213514E+04  0.23572267325E+04  0.46999998093E+01 0.  1.
</event>
<event>
 5   0  0.3467834E-08  0.3499512E+04  0.7818609E-02  0.8113906E-01
       -2   -1    0    0    0  501  0.00000000000E+00  0.00000000000E+00  0.13328913809E+04  0.13328913809E+04  0.25500000920E-02 0. -1.
        2   -1    0    0  501    0  0.00000000000E+00  0.00000000000E+00 -0.22969952921E+04  0.22969952921E+04  0.25500000920E-02 0.  1.
    10030    2    1    2    0    0  0.00000000000E+00  0.00000000000E+00 -0.96410391118E+03  0.36298866729E+04  0.34995115240E+04 0.  0.
        3    1    3    3  502    0  0.10492944610E+04 -0.60602596494E+03 -0.17913618231E+04  0.21626982054E+04  0.10100000352E+00 0.  1.
       -3    1    3    3    0  502 -0.10492944610E+04  0.60602596494E+03  0.82725791196E+03  0.14671884675E+04  0.10100000352E+00 0. -1.
</event>
<event>
 5   0  0.3628017E-08  0.3499924E+04  0.7818609E-02  0.8113808E-01
        2   -1    0    0  501    0  0.00000000000E+00  0.00000000000E+00  0.11607872425E+04  0.11607872425E+04  0.25500000920E-02 0. -1.
       -2   -1    0    0    0  501  0.00000000000E+00  0.00000000000E+00 -0.26381817339E+04  0.26381817339E+04  0.25500000920E-02 0.  1.
    10030    2    1    2    0    0  0.00000000000E+00  0.00000000000E+00 -0.14773944914E+04  0.37989689764E+04  0.34999243992E+04 0.  0.
        1    1    3    3  502    0 -0.89854862369E+03  0.42130581471E+03 -0.23031968410E+04  0.25079082732E+04  0.50400001928E-02 0.  1.
       -1    1    3    3    0  502  0.89854862369E+03 -0.42130581471E+03  0.82580234957E+03  0.12910607032E+04  0.50400001928E-02 0. -1.
</event>
<event>
 5   0  0.1140808E-08  0.3500403E+04  0.7818609E-02  0.8113694E-01
       -1   -1    0    0    0  501  0.00000000000E+00  0.00000000000E+00  0.20232160350E+04  0.20232160350E+04  0.50400001928E-02 0. -1.
        1   -1    0    0  501    0  0.00000000000E+00  0.00000000000E+00 -0.15140278580E+04  0.15140278580E+04  0.50400001928E-02 0.  1.
    10030    2    1    2    0    0  0.00000000000E+00  0.00000000000E+00  0.50918817702E+03  0.35372438930E+04  0.35004030852E+04 0.  0.
        3    1    3    3  502    0 -0.64113605689E+03 -0.53570352787E+03 -0.12995034979E+04  0.15449087560E+04  0.10100000352E+00 0.  1.
       -3    1    3    3    0  502  0.64113605689E+03  0.53570352787E+03  0.18086916749E+04  0.19923351370E+04  0.10100000352E+00 0. -1.
</event>
<event>
 5   0  0.1140808E-08  0.3495386E+04  0.7818609E-02  0.8114884E-01
        1   -1    0    0  501    0  0.00000000000E+00  0.00000000000E+00  0.21036502042E+04  0.21036502042E+04  0.50400001928E-02 0. -1.
       -1   -1    0    0    0  501  0.00000000000E+00  0.00000000000E+00 -0.14519667369E+04  0.14519667369E+04  0.50400001928E-02 0.  1.
    10030    2    1    2    0    0  0.00000000000E+00  0.00000000000E+00  0.65168346734E+03  0.35556169411E+04  0.34953855997E+04 0.  0.
        3    1    3    3  502    0  0.21618869132E+03 -0.66526450827E+03  0.19550378013E+04  0.20764121053E+04  0.10100000352E+00 0. -1.
       -3    1    3    3    0  502 -0.21618869132E+03  0.66526450827E+03 -0.13033543340E+04  0.14792048358E+04  0.10100000352E+00 0.  1.
</event>
<event>
 5   0  0.3554451E-08  0.3500037E+04  0.7818609E-02  0.8113781E-01
       -2   -1    0    0    0  501  0.00000000000E+00  0.00000000000E+00  0.13194386849E+04  0.13194386849E+04  0.25500000920E-02 0.  1.
        2   -1    0    0  501    0  0.00000000000E+00  0.00000000000E+00 -0.23211119483E+04  0.23211119483E+04  0.25500000920E-02 0. -1.
    10030    2    1    2    0    0  0.00000000000E+00  0.00000000000E+00 -0.10016732634E+04  0.36405506332E+04  0.35000370836E+04 0.  0.
        5    1    3    3  502    0  0.13701284456E+04 -0.25698052686E+03 -0.16012562941E+04  0.21230484588E+04  0.46999998093E+01 0. -1.
       -5    1    3    3    0  502 -0.13701284456E+04  0.25698052686E+03  0.59958303071E+03  0.15175021744E+04  0.46999998093E+01 0.  1.
</event>
<event>
 5   0  0.1121462E-08  0.3500550E+04  0.7818609E-02  0.8113660E-01
       -1   -1    0    0    0  501  0.00000000000E+00  0.00000000000E+00  0.18054478857E+04  0.18054478857E+04  0.50400001928E-02 0.  1.
        1   -1    0    0  501    0  0.00000000000E+00  0.00000000000E+00 -0.16967878838E+04  0.16967878838E+04  0.50400001928E-02 0. -1.
    10030    2    1    2    0    0  0.00000000000E+00  0.00000000000E+00  0.10866000194E+03  0.35022357695E+04  0.35005497267E+04 0.  0.
        4    1    3    3  502    0 -0.14204118362E+04 -0.99770525928E+03  0.27910444311E+03  0.17580917132E+04  0.12699999809E+01 0. -1.
       -4    1    3    3    0  502  0.14204118362E+04  0.99770525928E+03 -0.17044444117E+03  0.17441440563E+04  0.12699999809E+01 0.  1.
</event>
<event>
 5   0  0.3628017E-08  0.3499325E+04  0.7818609E-02  0.8113950E-01
        2   -1    0    0  501    0  0.00000000000E+00  0.00000000000E+00  0.17628973026E+04  0.17628973026E+04  0.25500000920E-02 0. -1.
       -2   -1    0    0    0  501  0.00000000000E+00  0.00000000000E+00 -0.17365274199E+04  0.17365274199E+04  0.25500000920E-02 0.  1.
    10030    2    1    2    0    0  0.00000000000E+00  0.00000000000E+00  0.26369882744E+02  0.34994247225E+04  0.34993253661E+04 0.  0.
        1    1    3    3  502    0 -0.14696393489E+04 -0.19953288886E+03 -0.91510124626E+03  0.17427172693E+04  0.50400001928E-02 0.  1.
       -1    1    3    3    0  502  0.14696393489E+04  0.19953288886E+03  0.94147112900E+03  0.17567074533E+04  0.50400001928E-02 0. -1.
</event>
<event>
 5   0  0.3467834E-08  0.3500930E+04  0.7818609E-02  0.8113570E-01
       -2   -1    0    0    0  501  0.00000000000E+00  0.00000000000E+00  0.12348659751E+04  0.12348659751E+04  0.25500000920E-02 0. -1.
        2   -1    0    0  501    0  0.00000000000E+00  0.00000000000E+00 -0.24813439662E+04  0.24813439662E+04  0.25500000920E-02 0.  1.
    10030    2    1    2    0    0  0.00000000000E+00  0.00000000000E+00 -0.12464779911E+04  0.37162099413E+04  0.35009297259E+04 0.  0.
        3    1    3    3  502    0 -0.15242102101E+04 -0.64692390052E+03 -0.20520781468E+02  0.16559433596E+04  0.10100000352E+00 0.  1.
       -3    1    3    3    0  502  0.15242102101E+04  0.64692390052E+03 -0.12259572097E+04  0.20602665817E+04  0.10100000352E+00 0. -1.
</event>
<event>
 5   0  0.1140808E-08  0.3499866E+04  0.7818609E-02  0.8113822E-01
       -1   -1    0    0    0  501  0.00000000000E+00  0.00000000000E+00  0.17819397961E+04  0.17819397961E+04  0.50400001928E-02 0. -1.
        1   -1    0    0  501    0  0.00000000000E+00  0.00000000000E+00 -0.17185011317E+04  0.17185011317E+04  0.50400001928E-02 0.  1.
    10030    2    1    2    0    0  0.00000000000E+00  0.00000000000E+00  0.63438664369E+02  0.35004409278E+04  0.34998660295E+04 0.  0.
        3    1    3    3  502    0  0.31271151763E+03 -0.16736000716E+04  0.43618636962E+03  0.17575506400E+04  0.10100000352E+00 0.  1.
       -3    1    3    3    0  502 -0.31271151763E+03  0.16736000716E+04 -0.37274770525E+03  0.17428902877E+04  0.10100000352E+00 0. -1.
</event>
<event>
 5   0  0.3467834E-08  0.3499826E+04  0.7818609E-02  0.8113831E-01
       -2   -1    0    0    0  501  0.00000000000E+00  0.00000000000E+00  0.14424808617E+04  0.14424808617E+04  0.25500000920E-02 0.  1.
        2   -1    0    0  501    0  0.00000000000E+00  0.00000000000E+00 -0.21228678935E+04  0.21228678935E+04  0.25500000920E-02 0. -1.
    10030    2    1    2    0    0  0.00000000000E+00  0.00000000000E+00 -0.68038703175E+03  0.35653487552E+04  0.34998264576E+04 0.  0.
        3    1    3    3  502    0  0.11409364877E+04 -0.25942965977E+03  0.98538072699E+03  0.15297107585E+04  0.10100000352E+00 0.  1.
       -3    1    3    3    0  502 -0.11409364877E+04  0.25942965977E+03 -0.16657677587E+04  0.20356379967E+04  0.10100000352E+00 0. -1.
</event>
<event>
 5   0  0.3628017E-08  0.3498687E+04  0.7818609E-02  0.8114101E-01
       -2   -1    0    0    0  501  0.00000000000E+00  0.00000000000E+00  0.20631271325E+04  0.20631271325E+04  0.25500000920E-02 0. -1.
        2   -1    0    0  501    0  0.00000000000E+00  0.00000000000E+00 -0.14832835571E+04  0.14832835571E+04  0.25500000920E-02 0.  1.
    10030    2    1    2    0    0  0.00000000000E+00  0.00000000000E+00  0.57984357540E+03  0.35464106896E+04  0.34986869262E+04 0.  0.
        1    1    3    3  502    0 -0.92310720274E+03  0.12111713951E+04  0.11625593922E+04  0.19158829287E+04  0.50400001928E-02 0. -1.
       -1    1    3    3    0  502  0.92310720274E+03 -0.12111713951E+04 -0.58271581676E+03  0.16305277609E+04  0.50400001928E-02 0.  1.
</event>
<event>
 5   0  0.1121462E-08  0.3502268E+04  0.7818609E-02  0.8113253E-01
        1   -1    0    0  501    0  0.00000000000E+00  0.00000000000E+00  0.11196947484E+04  0.11196947484E+04  0.50400001928E-02 0.  1.
       -1   -1    0    0    0  501  0.00000000000E+00  0.00000000000E+00 -0.27386659270E+04  0.27386659270E+04  0.50400001928E-02 0. -1.
    10030    2    1    2    0    0  0.00000000000E+00  0.00000000000E+00 -0.16189711785E+04  0.38583606754E+04  0.35022677546E+04 0.  0.
        4    1    3    3  502    0  0.10787478890E+04 -0.13012102074E+04 -0.30508779017E+03  0.17175346239E+04  0.12699999809E+01 0.  1.
       -4    1    3    3    0  502 -0.10787478890E+04  0.13012102074E+04 -0.13138833884E+04  0.21408260515E+04  0.12699999809E+01 0. -1.
</event>
<event>
 5   0  0.3700096E-08  0.3501768E+04  0.7818609E-02  0.8113371E-01
        2   -1    0    0  501    0  0.00000000000E+00  0.00000000000E+00  0.23599480878E+04  0.23599480878E+04  0.25500000920E-02 0.  1.
       -2   -1    0    0    0  501  0.00000000000E+00  0.00000000000E+00 -0.12990096122E+04  0.12990096122E+04  0.25500000920E-02 0. -1.
    10030    2    1    2    0    0  0.00000000000E+00  0.00000000000E+00  0.10609384756E+04  0.36589576999E+04  0.35017682677E+04 0.  0.
        4    1    3    3  502    0  0.12563899759E+02  0.25092850285E+03 -0.12800759682E+04  0.13044995448E+04  0.12699999809E+01 0. -1.
       -4    1    3    3    0  502 -0.12563899759E+02 -0.25092850285E+03  0.23410144438E+04  0.23544581551E+04  0.12699999809E+01 0.  1.
</event>
<event>
 5   0  0.3553585E-08  0.3501991E+04  0.7818609E-02  0.8113318E-01
        2   -1    0    0  501    0  0.00000000000E+00  0.00000000000E+00  0.21288421306E+04  0.21288421306E+04  0.25500000920E-02 0. -1.
       -2   -1    0    0    0  501  0.00000000000E+00  0.00000000000E+00 -0.14402129505E+04  0.14402129505E+04  0.25500000920E-02 0.  1.
    10030    2    1    2    0    0  0.00000000000E+00  0.00000000000E+00  0.68862918006E+03  0.35690550810E+04  0.35019914369E+04 0.  0.
        2    1    3    3  502    0  0.81843295395E+03  0.25056283418E+03 -0.12124757944E+04  0.14841535587E+04  0.25500000920E-02 0.  1.
       -2    1    3    3    0  502 -0.81843295395E+03 -0.25056283418E+03  0.19011049744E+04  0.20849015223E+04  0.25500000920E-02 0. -1.
</event>
<event>
 5   0  0.1140808E-08  0.3513727E+04  0.7818609E-02  0.8110545E-01
        1   -1    0    0  501    0  0.00000000000E+00  0.00000000000E+00  0.16081735761E+04  0.16081735761E+04  0.50400001928E-02 0. -1.
       -1   -1    0    0    0  501  0.00000000000E+00  0.00000000000E+00 -0.19193006373E+04  0.19193006373E+04  0.50400001928E-02 0.  1.
    10030    2    1    2    0    0  0.00000000000E+00  0.00000000000E+00 -0.31112706124E+03  0.35274742134E+04  0.35137265514E+04 0.  0.
        3    1    3    3  502    0  0.81571349902E+02 -0.16938356322E+04  0.30540128982E+03  0.17230795083E+04  0.10100000352E+00 0. -1.
       -3    1    3    3    0  502 -0.81571349902E+02  0.16938356322E+04 -0.61652835105E+03  0.18043947051E+04  0.10100000352E+00 0.  1.
</event>
<event>
 5   0  0.1121462E-08  0.3495959E+04  0.7818609E-02  0.8114748E-01
       -1   -1    0    0    0  501  0.00000000000E+00  0.00000000000E+00  0.18996727786E+04  0.18996727786E+04  0.50400001928E-02 0.  1.
        1   -1    0    0  501    0  0.00000000000E+00  0.00000000000E+00 -0.16083993112E+04  0.16083993112E+04  0.50400001928E-02 0. -1.
    10030    2    1    2    0    0  0.00000000000E+00  0.00000000000E+00  0.29127346740E+03  0.35080720897E+04  0.34959590321E+04 0.  0.
        4    1    3    3  502    0  0.50639814581E+03 -0.64466384072E+03 -0.14035389189E+04  0.16254087669E+04  0.12699999809E+01 0. -1.
       -4    1    3    3    0  502 -0.50639814581E+03  0.64466384072E+03  0.16948123863E+04  0.18826633229E+04  0.12699999809E+01 0.  1.
</event>
<event>
 5   0  0.1129219E-08  0.3500136E+04  0.7818609E-02  0.8113758E-01
       -1   -1    0    0    0  501  0.00000000000E+00  0.00000000000E+00  0.24857769400E+04  0.24857769400E+04  0.50400001928E-02 0. -1.
        1   -1    0    0  501    0  0.00000000000E+00  0.00000000000E+00 -0.12321050041E+04  0.12321050041E+04  0.50400001928E-02 0.  1.
    10030    2    1    2    0    0  0.00000000000E+00  0.00000000000E+00  0.12536719359E+04  0.37178819442E+04  0.35001361156E+04 0.  0.
        5    1    3    3  502    0 -0.10312282948E+04  0.69911800543E+03  0.19323263066E+04  0.22991530672E+04  0.46999998093E+01 0. -1.
       -5    1    3    3    0  502  0.10312282948E+04 -0.69911800543E+03 -0.67865437068E+03  0.14187288769E+04  0.46999998093E+01 0.  1.
</event>
<event>
 5   0  0.1121462E-08  0.3499481E+04  0.7818609E-02  0.8113913E-01
        1   -1    0    0  501    0  0.00000000000E+00  0.00000000000E+00  0.17448196577E+04  0.17448196577E+04  0.50400001928E-02 0.  1.
       -1   -1    0    0    0  501  0.00000000000E+00  0.00000000000E+00 -0.17546747865E+04  0.17546747865E+04  0.50400001928E-02 0. -1.
    10030    2    1    2    0    0  0.00000000000E+00  0.00000000000E+00 -0.98551287449E+01  0.34994944442E+04  0.34994805674E+04 0.  0.
        4    1    3    3  502    0 -0.98686052180E+02 -0.71719533300E+03  0.15880261353E+04  0.17452612130E+04  0.12699999809E+01 0.  1.
       -4    1    3    3    0  502  0.98686052180E+02  0.71719533300E+03 -0.15978812640E+04  0.17542332312E+04  0.12699999809E+01 0. -1.
</event>
<event>
 5   0  0.1121462E-08  0.3501309E+04  0.7818609E-02  0.8113480E-01
       -1   -1    0    0    0  501  0.00000000000E+00  0.00000000000E+00  0.16423699406E+04  0.16423699406E+04  0.50400001928E-02 0. -1.
        1   -1    0    0  501    0  0.00000000000E+00  0.00000000000E+00 -0.18660782580E+04  0.18660782580E+04  0.50400001928E-02 0.  1.
    10030    2    1    2    0    0  0.00000000000E+00  0.00000000000E+00 -0.22370831743E+03  0.35084481986E+04  0.35013088054E+04 0.  0.
        1    1    3    3  502    0 -0.94259672288E+03  0.14752163697E+04 -0.10560298994E+03  0.17538255075E+04  0.50400001928E-02 0.  1.
       -1    1    3    3    0  502  0.94259672288E+03 -0.14752163697E+04 -0.11810532749E+03  0.17546226910E+04  0.50400001928E-02 0. -1.
</event>
<event>
 5   0  0.3554451E-08  0.3501035E+04  0.7818609E-02  0.8113545E-01
       -2   -1    0    0    0  501  0.00000000000E+00  0.00000000000E+00  0.14260035994E+04  0.14260035994E+04  0.25500000920E-02 0.  1.
        2   -1    0    0  501    0  0.00000000000E+00  0.00000000000E+00 -0.21488805084E+04  0.21488805084E+04  0.25500000920E-02 0. -1.
    10030    2    1    2    0    0  0.00000000000E+00  0.00000000000E+00 -0.72287690902E+03  0.35748841078E+04  0.35010348982E+04 0.  0.
        5    1    3    3  502    0 -0.29475054830E+03  0.57142517873E+03  0.13010588156E+04  0.14512686699E+04  0.46999998093E+01 0.  1.
       -5    1    3    3    0  502  0.29475054830E+03 -0.57142517873E+03 -0.20239357246E+04  0.21236154379E+04  0.46999998093E+01 0. -1.
</event>
<event>
 5   0  0.1121462E-08  0.3500915E+04  0.7818609E-02  0.8113573E-01
       -1   -1    0    0    0  501  0.00000000000E+00  0.00000000000E+00  0.12511495973E+04  0.12511495973E+04  0.50400001928E-02 0.  1.
        1   -1    0    0  501    0  0.00000000000E+00  0.00000000000E+00 -0.24490292099E+04  0.24490292099E+04  0.50400001928E-02 0. -1.
    10030    2    1    2    0    0  0.00000000000E+00  0.00000000000E+00 -0.11978796125E+04  0.37001788072E+04  0.35009152574E+04 0.  0.
        4    1    3    3  502    0  0.17499377103E+04 -0.67994814043E+01 -0.64343181592E+03  0.18644930511E+04  0.12699999809E+01 0. -1.
       -4    1    3    3    0  502 -0.17499377103E+04  0.67994814043E+01 -0.55444779662E+03  0.18356857561E+04  0.12699999809E+01 0.  1.
</event>
<event>
 5   0  0.1121462E-08  0.3500920E+04  0.7818609E-02  0.8113572E-01
       -1   -1    0    0    0  501  0.00000000000E+00  0.00000000000E+00  0.21916396076E+04  0.21916396076E+04  0.50400001928E-02 0. -1.
        1   -1    0    0  501    0  0.00000000000E+00  0.00000000000E+00 -0.13980907009E+04  0.13980907009E+04  0.50400001928E-02 0.  1.
    10030    2    1    2    0    0  0.00000000000E+00  0.00000000000E+00  0.79354890677E+03  0.35897303085E+04  0.35009204247E+04 0.  0.
        2    1    3    3  502    0  0.12192892824E+04 -0.12123138400E+04  0.73333838537E+03  0.18692662700E+04  0.25500000920E-02 0. -1.
       -2    1    3    3    0  502 -0.12192892824E+04  0.12123138400E+04  0.60210521396E+02  0.17204640385E+04  0.25500000920E-02 0.  1.
</event>
<event>
 5   0  0.3467834E-08  0.3498139E+04  0.7818609E-02  0.8114231E-01
        2   -1    0    0  501    0  0.00000000000E+00  0.00000000000E+00  0.24816984524E+04  0.24816984524E+04  0.25500000920E-02 0. -1.
       -2   -1    0    0    0  501  0.00000000000E+00  0.00000000000E+00 -0.12327216173E+04  0.12327216173E+04  0.25500000920E-02 0.  1.
    10030    2    1    2    0    0  0.00000000000E+00  0.00000000000E+00  0.12489768351E+04  0.37144200697E+04  0.34981385507E+04 0.  0.
        3    1    3    3  502    0 -0.18744981502E+03 -0.84953686466E+03  0.22356672183E+04  0.23989702455E+04  0.10100000352E+00 0. -1.
       -3    1    3    3    0  502  0.18744981502E+03  0.84953686466E+03 -0.98669038320E+03  0.13154498242E+04  0.10100000352E+00 0.  1.
</event>
<event>
 5   0  0.3467834E-08  0.3483799E+04  0.7818609E-02  0.8117640E-01
       -2   -1    0    0    0  501  0.00000000000E+00  0.00000000000E+00  0.12831224742E+04  0.12831224742E+04  0.25500000920E-02 0. -1.
        2   -1    0    0  501    0  0.00000000000E+00  0.00000000000E+00 -0.23647105301E+04  0.23647105301E+04  0.25500000920E-02 0.  1.
    10030    2    1    2    0    0  0.00000000000E+00  0.00000000000E+00 -0.10815880559E+04  0.36478330042E+04  0.34837986314E+04 0.  0.
        3    1    3    3  502    0 -0.43019897084E+03  0.24515221692E+01 -0.23082088719E+04  0.23479577022E+04  0.10100000352E+00 0.  1.
       -3    1    3    3    0  502  0.43019897084E+03 -0.24515221692E+01  0.12266208160E+04  0.12998753021E+04  0.10100000352E+00 0. -1.
</event>
<event>
 5   0  0.1129219E-08  0.3503087E+04  0.7818609E-02  0.8113059E-01
        1   -1    0    0  501    0  0.00000000000E+00  0.00000000000E+00  0.21178368899E+04  0.21178368899E+04  0.50400001928E-02 0. -1.
       -1   -1    0    0    0  501  0.00000000000E+00  0.00000000000E+00 -0.14486028768E+04  0.14486028768E+04  0.50400001928E-02 0.  1.
    10030    2    1    2    0    0  0.00000000000E+00  0.00000000000E+00  0.66923401308E+03  0.35664397667E+04  0.35030869879E+04 0.  0.
        5    1    3    3  502    0 -0.35117332689E+03  0.13016894340E+03  0.20765883955E+04  0.21100967072E+04  0.46999998093E+01 0. -1.
       -5    1    3    3    0  502  0.35117332689E+03 -0.13016894340E+03 -0.14073543824E+04  0.14563430595E+04  0.46999998093E+01 0.  1.
</event>
<event>
 5   0  0.3554451E-08  0.3502996E+04  0.7818609E-02  0.8113080E-01
        2   -1    0    0  501    0  0.00000000000E+00  0.00000000000E+00  0.37535025024E+04  0.37535025024E+04  0.25500000920E-02 0. -1.
       -2   -1    0    0    0  501  0.00000000000E+00  0.00000000000E+00 -0.81730225538E+03  0.81730225538E+03  0.25500000920E-02 0.  1.
    10030    2    1    2    0    0  0.00000000000E+00  0.00000000000E+00  0.29362002471E+04  0.45708047578E+04  0.35029964663E+04 0.  0.
        5    1    3    3  502    0  0.13297291080E+03 -0.24631585962E+03  0.37241196608E+04  0.37346275097E+04  0.46999998093E+01 0. -1.
       -5    1    3    3    0  502 -0.13297291080E+03  0.24631585962E+03 -0.78791941378E+03  0.83617724815E+03  0.46999998093E+01 0.  1.
</event>
<event>
 5   0  0.3467834E-08  0.3501759E+04  0.7818609E-02  0.8113373E-01
       -2   -1    0    0    0  501  0.00000000000E+00  0.00000000000E+00  0.11331872340E+04  0.11331872340E+04  0.25500000920E-02 0.  1.
        2   -1    0    0  501    0  0.00000000000E+00  0.00000000000E+00 -0.27052713635E+04  0.27052713635E+04  0.25500000920E-02 0. -1.
    10030    2    1    2    0    0  0.00000000000E+00  0.00000000000E+00 -0.15720841295E+04  0.38384585975E+04  0.35017589715E+04 0.  0.
        3    1    3    3  502    0 -0.12658836432E+04  0.10714345558E+04 -0.14013977333E+04  0.21712551722E+04  0.10100000352E+00 0. -1.
       -3    1    3    3    0  502  0.12658836432E+04 -0.10714345558E+04 -0.17068639620E+03  0.16672034254E+04  0.10100000352E+00 0.  1.
</event>
<event>
 5   0  0.1140808E-08  0.3499049E+04  0.7818609E-02  0.8114015E-01
        1   -1    0    0  501    0  0.00000000000E+00  0.00000000000E+00  0.16443545623E+04  0.16443545623E+04  0.50400001928E-02 0. -1.
       -1   -1    0    0    0  501  0.00000000000E+00  0.00000000000E+00 -0.18614213170E+04  0.18614213170E+04  0.50400001928E-02 0.  1.
    10030    2    1    2    0    0  0.00000000000E+00  0.00000000000E+00 -0.21706675476E+03  0.35057758793E+04  0.34990493766E+04 0.  0.
        3    1    3    3  502    0 -0.11446752643E+04 -0.12957844519E+04  0.15937140877E+03  0.17363001073E+04  0.10100000352E+00 0. -1.
       -3    1    3    3    0  502  0.11446752643E+04  0.12957844519E+04 -0.37643816353E+03  0.17694757720E+04  0.10100000352E+00 0.  1.
</event>
<event>
 5   0  0.1140808E-08  0.3497581E+04  0.7818609E-02  0.8114363E-01
       -1   -1    0    0    0  501  0.00000000000E+00  0.00000000000E+00  0.15834743887E+04  0.15834743887E+04  0.50400001928E-02 0.  1.
        1   -1    0    0  501    0  0.00000000000E+00  0.00000000000E+00 -0.19313659911E+04  0.19313659911E+04  0.50400001928E-02 0. -1.
    10030    2    1    2    0    0  0.00000000000E+00  0.00000000000E+00 -0.34789160241E+03  0.35148403798E+04  0.34975812111E+04 0.  0.
        3    1    3    3  502    0 -0.88606332732E+03 -0.14438287395E+04 -0.61027600282E+03  0.18006072472E+04  0.10100000352E+00 0.  1.
       -3    1    3    3    0  502  0.88606332732E+03  0.14438287395E+04  0.26238440041E+03  0.17142331325E+04  0.10100000352E+00 0. -1.
</event>
<event>
 5   0  0.1121462E-08  0.3498947E+04  0.7818609E-02  0.8114040E-01
       -1   -1    0    0    0  501  0.00000000000E+00  0.00000000000E+00  0.18156380429E+04  0.18156380429E+04  0.50400001928E-02 0.  1.
        1   -1    0    0  501    0  0.00000000000E+00  0.00000000000E+00 -0.16857196947E+04  0.16857196947E+04  0.50400001928E-02 0. -1.
    10030    2    1    2    0    0  0.00000000000E+00  0.00000000000E+00  0.12991834820E+03  0.35013577376E+04  0.34989465886E+04 0.  0.
        4    1    3    3  502    0 -0.11371226263E+04  0.11833064017E+04  0.67150662320E+03  0.17731848932E+04  0.12699999809E+01 0.  1.
       -4    1    3    3    0  502  0.11371226263E+04 -0.11833064017E+04 -0.54158827500E+03  0.17281728444E+04  0.12699999809E+01 0. -1.
</event>
<event>
 5   0  0.3467834E-08  0.3501205E+04  0.7818609E-02  0.8113504E-01
       -2   -1    0    0    0  501  0.00000000000E+00  0.00000000000E+00  0.14248525349E+04  0.14248525349E+04  0.25500000920E-02 0. -1.
        2   -1    0    0  501    0  0.00000000000E+00  0.00000000000E+00 -0.21508252626E+04  0.21508252626E+04  0.25500000920E-02 0.  1.
    10030    2    1    2    0    0  0.00000000000E+00  0.00000000000E+00 -0.72597272772E+03  0.35756777975E+04  0.35012048370E+04 0.  0.
        3    1    3    3  502    0 -0.52976523393E+03  0.69681524807E+03 -0.19112832600E+04  0.21021908579E+04  0.10100000352E+00 0.  1.
       -3    1    3    3    0  502  0.52976523393E+03 -0.69681524807E+03  0.11853105323E+04  0.14734869396E+04  0.10100000352E+00 0. -1.
</event>
<event>
 5   0  0.1121462E-08  0.3501035E+04  0.7818609E-02  0.8113545E-01
        1   -1    0    0  501    0  0.00000000000E+00  0.00000000000E+00  0.15024710472E+04  0.15024710472E+04  0.50400001928E-02 0.  1.
       -1   -1    0    0    0  501  0.00000000000E+00  0.00000000000E+00 -0.20395139826E+04  0.20395139826E+04  0.50400001928E-02 0. -1.
    10030    2    1    2    0    0  0.00000000000E+00  0.00000000000E+00 -0.53704293543E+03  0.35419850298E+04  0.35010345381E+04 0.  0.
        2    1    3    3  502    0  0.93714433546E+03 -0.11138863923E+04  0.71513093682E+03  0.16218491475E+04  0.25500000920E-02 0.  1.
       -2    1    3    3    0  502 -0.93714433546E+03  0.11138863923E+04 -0.12521738723E+04  0.19201358824E+04  0.25500000920E-02 0. -1.
</event>
<event>
 5   0  0.3553585E-08  0.3498856E+04  0.7818609E-02  0.8114061E-01
        2   -1    0    0  501    0  0.00000000000E+00  0.00000000000E+00  0.17473496605E+04  0.17473496605E+04  0.25500000920E-02 0. -1.
       -2   -1    0    0    0  501  0.00000000000E+00  0.00000000000E+00 -0.17515084647E+04  0.17515084647E+04  0.25500000920E-02 0.  1.
    10030    2    1    2    0    0  0.00000000000E+00  0.00000000000E+00 -0.41588041269E+01  0.34988581252E+04  0.34988556536E+04 0.  0.
        2    1    3    3  502    0 -0.77301857589E+03  0.15361206281E+04  0.31928264331E+03  0.17490470860E+04  0.25500000920E-02 0.  1.
       -2    1    3    3    0  502  0.77301857589E+03 -0.15361206281E+04 -0.32344144744E+03  0.17498110392E+04  0.25500000920E-02 0. -1.
</event>
<event>
 5   0  0.3467834E-08  0.3497001E+04  0.7818609E-02  0.8114501E-01
        2   -1    0    0  501    0  0.00000000000E+00  0.00000000000E+00  0.22419309811E+04  0.22419309811E+04  0.25500000920E-02 0. -1.
       -2   -1    0    0    0  501  0.00000000000E+00  0.00000000000E+00 -0.13636697621E+04  0.13636697621E+04  0.25500000920E-02 0.  1.
    10030    2    1    2    0    0  0.00000000000E+00  0.00000000000E+00  0.87826121901E+03  0.36056007432E+04  0.34970007078E+04 0.  0.
        3    1    3    3  502    0 -0.12755238986E+04 -0.92606090111E+03 -0.34114282546E+03  0.16127394228E+04  0.10100000352E+00 0.  1.
       -3    1    3    3    0  502  0.12755238986E+04  0.92606090111E+03  0.12194040445E+04  0.19928613204E+04  0.10100000352E+00 0. -1.
</event>
<event>
 5   0  0.1121462E-08  0.3504476E+04  0.7818609E-02  0.8112730E-01
       -1   -1    0    0    0  501  0.00000000000E+00  0.00000000000E+00  0.20333177268E+04  0.20333177268E+04  0.50400001928E-02 0. -1.
        1   -1    0    0  501    0  0.00000000000E+00  0.00000000000E+00 -0.15100138033E+04  0.15100138033E+04  0.50400001928E-02 0.  1.
    10030    2    1    2    0    0  0.00000000000E+00  0.00000000000E+00  0.52330392346E+03  0.35433315301E+04  0.35044759003E+04 0.  0.
        4    1    3    3  502    0  0.17130642214E+04 -0.74103821029E+02 -0.10325930857E+03  0.17177731225E+04  0.12699999809E+01 0.  1.
       -4    1    3    3    0  502 -0.17130642214E+04  0.74103821029E+02  0.62656323202E+03  0.18255584076E+04  0.12699999809E+01 0. -1.
</event>
<event>
 5   0  0.1121462E-08  0.3499696E+04  0.7818609E-02  0.8113862E-01
        1   -1    0    0  501    0  0.00000000000E+00  0.00000000000E+00  0.12689641007E+04  0.12689641007E+04  0.50400001928E-02 0. -1.
       -1   -1    0    0    0  501  0.00000000000E+00  0.00000000000E+00 -0.24129662917E+04  0.24129662917E+04  0.50400001928E-02 0.  1.
    10030    2    1    2    0    0  0.00000000000E+00  0.00000000000E+00 -0.11440021911E+04  0.36819303924E+04  0.34996957584E+04 0.  0.
        1    1    3    3  502    0  0.76906947421E+03 -0.28756234223E+03 -0.21977181126E+04  0.23460871381E+04  0.50400001928E-02 0.  1.
       -1    1    3    3    0  502 -0.76906947421E+03  0.28756234223E+03  0.10537159216E+04  0.13358432544E+04  0.50400001928E-02 0. -1.
</event>
<event>
 5   0  0.3467834E-08  0.3499038E+04  0.7818609E-02  0.8114018E-01
        2   -1    0    0  501    0  0.00000000000E+00  0.00000000000E+00  0.24818565874E+04  0.24818565874E+04  0.25500000920E-02 0.  1.
       -2   -1    0    0    0  501  0.00000000000E+00  0.00000000000E+00 -0.12332769429E+04  0.12332769429E+04  0.25500000920E-02 0. -1.
    10030    2    1    2    0    0  0.00000000000E+00  0.00000000000E+00  0.12485796444E+04  0.37151335303E+04  0.34990378706E+04 0.  0.
        3    1    3    3  502    0 -0.12472387281E+04  0.11291979458E+04  0.11336286546E+04  0.20287450265E+04  0.10100000352E+00 0.  1.
       -3    1    3    3    0  502  0.12472387281E+04 -0.11291979458E+04  0.11495098985E+03  0.16863885039E+04  0.10100000352E+00 0. -1.
</event>
<event>
 5   0  0.3554451E-08  0.3498858E+04  0.7818609E-02  0.8114061E-01
        2   -1    0    0  501    0  0.00000000000E+00  0.00000000000E+00  0.19361206051E+04  0.19361206051E+04  0.25500000920E-02 0.  1.
       -2   -1    0    0    0  501  0.00000000000E+00  0.00000000000E+00 -0.15807389586E+04  0.15807389586E+04  0.25500000920E-02 0. -1.
    10030    2    1    2    0    0  0.00000000000E+00  0.00000000000E+00  0.35538164650E+03  0.35168595637E+04  0.34988576816E+04 0.  0.
        5    1    3    3  502    0  0.38681478889E+03  0.10903212260E+03  0.18890858740E+04  0.19313677056E+04  0.46999998093E+01 0.  1.
       -5    1    3    3    0  502 -0.38681478889E+03 -0.10903212260E+03 -0.15337042275E+04  0.15854918581E+04  0.46999998093E+01 0. -1.
</event>
<event>
 5   0  0.1140808E-08  0.3500578E+04  0.7818609E-02  0.8113653E-01
       -1   -1    0    0    0  501  0.00000000000E+00  0.00000000000E+00  0.15493588795E+04  0.15493588795E+04  0.50400001928E-02 0. -1.
        1   -1    0    0  501    0  0.00000000000E+00  0.00000000000E+00 -0.19772765718E+04  0.19772765718E+04  0.50400001928E-02 0.  1.
    10030    2    1    2    0    0  0.00000000000E+00  0.00000000000E+00 -0.42791769232E+03  0.35266354513E+04  0.35005776745E+04 0.  0.
        3    1    3    3  502    0 -0.30775157380E+03  0.26459303569E+03 -0.19292161005E+04  0.19714449722E+04  0.10100000352E+00 0.  1.
       -3    1    3    3    0  502  0.30775157380E+03 -0.26459303569E+03  0.15012984082E+04  0.15551904791E+04  0.10100000352E+00 0. -1.
</event>
<event>
 5   0  0.1121462E-08  0.3499368E+04  0.7818609E-02  0.8113940E-01
       -1   -1    0    0    0  501  0.00000000000E+00  0.00000000000E+00  0.34295750147E+04  0.34295750147E+04  0.50400001928E-02 0.  1.
        1   -1    0    0  501    0  0.00000000000E+00  0.00000000000E+00 -0.89264523333E+03  0.89264523334E+03  0.50400001928E-02 0. -1.
    10030    2    1    2    0    0  0.00000000000E+00  0.00000000000E+00  0.25369297814E+04  0.43222202480E+04  0.34993678225E+04 0.  0.
        4    1    3    3  502    0  0.49649751628E+03 -0.15126735941E+04  0.21648597700E+04  0.26872496390E+04  0.12699999809E+01 0.  1.
       -4    1    3    3    0  502 -0.49649751628E+03  0.15126735941E+04  0.37207001139E+03  0.16349706090E+04  0.12699999809E+01 0. -1.
</event>
<event>
 5   0  0.1121462E-08  0.3503241E+04  0.7818609E-02  0.8113022E-01
        1   -1    0    0  501    0  0.00000000000E+00  0.00000000000E+00  0.14714641218E+04  0.14714641218E+04  0.50400001928E-02 0. -1.
       -1   -1    0    0    0  501  0.00000000000E+00  0.00000000000E+00 -0.20851168582E+04  0.20851168582E+04  0.50400001928E-02 0.  1.
    10030    2    1    2    0    0  0.00000000000E+00  0.00000000000E+00 -0.61365273644E+03  0.35565809800E+04  0.35032411545E+04 0.  0.
        2    1    3    3  502    0 -0.11725076980E+04 -0.70156329622E+03 -0.14195107906E+04  0.19702731398E+04  0.25500000920E-02 0.  1.
       -2    1    3    3    0  502  0.11725076980E+04  0.70156329622E+03  0.80585805421E+03  0.15863078403E+04  0.25500000920E-02 0. -1.
</event>
<event>
 5   0  0.3700096E-08  0.3498665E+04  0.7818609E-02  0.8114106E-01
       -2   -1    0    0    0  501  0.00000000000E+00  0.00000000000E+00  0.17501890079E+04  0.17501890079E+04  0.25500000920E-02 0. -1.
        2   -1    0    0  501    0  0.00000000000E+00  0.00000000000E+00 -0.17484768915E+04  0.17484768915E+04  0.25500000920E-02 0.  1.
    10030    2    1    2    0    0  0.00000000000E+00  0.00000000000E+00  0.17121163730E+01  0.34986658993E+04  0.34986654804E+04 0.  0.
        4    1    3    3  502    0  0.15345309180E+04 -0.50834137153E+03 -0.66770017871E+03  0.17490057832E+04  0.12699999809E+01 0.  1.
       -4    1    3    3    0  502 -0.15345309180E+04  0.50834137153E+03  0.66941229508E+03  0.17496601161E+04  0.12699999809E+01 0. -1.
</event>
<event>
 5   0  0.1129219E-08  0.3501166E+04  0.7818609E-02  0.8113514E-01
        1   -1    0    0  501    0  0.00000000000E+00  0.00000000000E+00  0.14245492618E+04  0.14245492618E+04  0.50400001928E-02 0. -1.
       -1   -1    0    0    0  501  0.00000000000E+00  0.00000000000E+00 -0.21512348782E+04  0.21512348782E+04  0.50400001928E-02 0.  1.
    10030    2    1    2    0    0  0.00000000000E+00  0.00000000000E+00 -0.72668561637E+03  0.35757841401E+04  0.35011655532E+04 0.  0.
        5    1    3    3  502    0 -0.21853808565E+03  0.39704616984E+03 -0.20902712342E+04  0.21388455948E+04  0.46999998093E+01 0.  1.
       -5    1    3    3    0  502  0.21853808565E+03 -0.39704616984E+03  0.13635856178E+04  0.14369385453E+04  0.46999998093E+01 0. -1.
</event>
<event>
 5   0  0.3554451E-08  0.3498541E+04  0.7818609E-02  0.8114136E-01
       -2   -1    0    0    0  501  0.00000000000E+00  0.00000000000E+00  0.11449598409E+04  0.11449598409E+04  0.25500000920E-02 0.  1.
        2   -1    0    0  501    0  0.00000000000E+00  0.00000000000E+00 -0.26725375016E+04  0.26725375016E+04  0.25500000920E-02 0. -1.
    10030    2    1    2    0    0  0.00000000000E+00  0.00000000000E+00 -0.15275776607E+04  0.38174973425E+04  0.34985414748E+04 0.  0.
        5    1    3    3  502    0 -0.16656474264E+04 -0.20494838398E+02 -0.13464406242E+04  0.21418977175E+04  0.46999998093E+01 0. -1.
       -5    1    3    3    0  502  0.16656474264E+04  0.20494838398E+02 -0.18113703651E+03  0.16755996251E+04  0.46999998093E+01 0.  1.
</event>
<event>
 5   0  0.1121462E-08  0.3500235E+04  0.7818609E-02  0.8113734E-01
       -1   -1    0    0    0  501  0.00000000000E+00  0.00000000000E+00  0.15350926568E+04  0.15350926568E+04  0.50400001928E-02 0. -1.
        1   -1    0    0  501    0  0.00000000000E+00  0.00000000000E+00 -0.19952616520E+04  0.19952616520E+04  0.50400001928E-02 0.  1.
    10030    2    1    2    0    0  0.00000000000E+00  0.00000000000E+00 -0.46016899519E+03  0.35303543087E+04  0.35002351408E+04 0.  0.
        2    1    3    3  502    0 -0.44970499602E+03  0.64081921975E+03 -0.18088097882E+04  0.19709583217E+04  0.25500000920E-02 0.  1.
       -2    1    3    3    0  502  0.44970499602E+03 -0.64081921975E+03  0.13486407930E+04  0.15593959871E+04  0.25500000920E-02 0. -1.
</event>
<event>
 5   0  0.3628017E-08  0.3501923E+04  0.7818609E-02  0.8113334E-01
       -2   -1    0    0    0  501  0.00000000000E+00  0.00000000000E+00  0.11856592010E+04  0.11856592010E+04  0.25500000920E-02 0.  1.
        2   -1    0    0  501    0  0.00000000000E+00  0.00000000000E+00 -0.25857906138E+04  0.25857906138E+04  0.25500000920E-02 0. -1.
    10030    2    1    2    0    0  0.00000000000E+00  0.00000000000E+00 -0.14001314128E+04  0.37714498148E+04  0.35019231477E+04 0.  0.
        1    1    3    3  502    0 -0.16153377690E+03 -0.10095035421E+04  0.83084566839E+03  0.13173819064E+04  0.50400001928E-02 0.  1.
       -1    1    3    3    0  502  0.16153377690E+03  0.10095035421E+04 -0.22309770812E+04  0.24540679084E+04  0.50400001928E-02 0. -1.
</event>
<event>
 5   0  0.1129219E-08  0.3498379E+04  0.7818609E-02  0.8114174E-01
        1   -1    0    0  501    0  0.00000000000E+00  0.00000000000E+00  0.11461071747E+04  0.11461071747E+04  0.50400001928E-02 0. -1.
       -1   -1    0    0    0  501  0.00000000000E+00  0.00000000000E+00 -0.26696139566E+04  0.26696139566E+04  0.50400001928E-02 0.  1.
    10030    2    1    2    0    0  0.00000000000E+00  0.00000000000E+00 -0.15235067819E+04  0.38157211313E+04  0.34983788870E+04 0.  0.
        5    1    3    3  502    0  0.53199075050E+03 -0.91718089915E+02  0.10529669718E+04  0.11832953564E+04  0.46999998093E+01 0. -1.
       -5    1    3    3    0  502 -0.53199075050E+03  0.91718089915E+02 -0.25764737538E+04  0.26324257749E+04  0.46999998093E+01 0.  1.
</event>
<event>
 5   0  0.1121462E-08  0.3500261E+04  0.7818609E-02  0.8113728E-01
        1   -1    0    0  501    0  0.00000000000E+00  0.00000000000E+00  0.13594717895E+04  0.13594717895E+04  0.50400001928E-02 0. -1.
       -1   -1    0    0    0  501  0.00000000000E+00  0.00000000000E+00 -0.22530495886E+04  0.22530495886E+04  0.50400001928E-02 0.  1.
    10030    2    1    2    0    0  0.00000000000E+00  0.00000000000E+00 -0.89357779909E+03  0.36125213781E+04  0.35002613365E+04 0.  0.
        2    1    3    3  502    0  0.76855062212E+03  0.15714756619E+04 -0.50092637111E+03  0.18196519019E+04  0.25500000920E-02 0. -1.
       -2    1    3    3    0  502 -0.76855062212E+03 -0.15714756619E+04 -0.39265142799E+03  0.17928694762E+04  0.25500000920E-02 0.  1.
</event>
<event>
 5   0  0.3553585E-08  0.3500032E+04  0.7818609E-02  0.8113782E-01
        2   -1    0    0  501    0  0.00000000000E+00  0.00000000000E+00  0.24574102058E+04  0.24574102058E+04  0.25500000920E-02 0.  1.
       -2   -1    0    0    0  501  0.00000000000E+00  0.00000000000E+00 -0.12462531878E+04  0.12462531878E+04  0.25500000920E-02 0. -1.
    10030    2    1    2    0    0  0.00000000000E+00  0.00000000000E+00  0.12111570180E+04  0.37036633936E+04  0.35000316014E+04 0.  0.
        2    1    3    3  502    0  0.70558564507E+03  0.14715844159E+04 -0.62956381860E+02  0.16332101217E+04  0.25500000920E-02 0.  1.
       -2    1    3    3    0  502 -0.70558564507E+03 -0.14715844159E+04  0.12741133998E+04  0.20704532719E+04  0.25500000920E-02 0. -1.
</event>
<event>
 5   0  0.3553585E-08  0.3499942E+04  0.7818609E-02  0.8113804E-01
        2   -1    0    0  501    0  0.00000000000E+00  0.00000000000E+00  0.27954233259E+04  0.27954233259E+04  0.25500000920E-02 0. -1.
       -2   -1    0    0    0  501  0.00000000000E+00  0.00000000000E+00 -0.10955044435E+04  0.10955044435E+04  0.25500000920E-02 0.  1.
    10030    2    1    2    0    0  0.00000000000E+00  0.00000000000E+00  0.16999188824E+04  0.38909277694E+04  0.34999420995E+04 0.  0.
        2    1    3    3  502    0  0.40526550456E+02  0.17490435616E+04  0.80545077202E+03  0.19260183612E+04  0.25500000920E-02 0. -1.
       -2    1    3    3    0  502 -0.40526550456E+02 -0.17490435616E+04  0.89446811043E+03  0.19649094081E+04  0.25500000920E-02 0.  1.
</event>
<event>
 5   0  0.3700096E-08  0.3497577E+04  0.7818609E-02  0.8114364E-01
        2   -1    0    0  501    0  0.00000000000E+00  0.00000000000E+00  0.26488782872E+04  0.26488782872E+04  0.25500000920E-02 0. -1.
       -2   -1    0    0    0  501  0.00000000000E+00  0.00000000000E+00 -0.11545496612E+04  0.11545496612E+04  0.25500000920E-02 0.  1.
    10030    2    1    2    0    0  0.00000000000E+00  0.00000000000E+00  0.14943286260E+04  0.38034279485E+04  0.34975771781E+04 0.  0.
        4    1    3    3  502    0 -0.18514363659E+02  0.17474463355E+04  0.67545516092E+03  0.18735401689E+04  0.12699999809E+01 0. -1.
       -4    1    3    3    0  502  0.18514363659E+02 -0.17474463355E+04  0.81887346508E+03  0.19298877796E+04  0.12699999809E+01 0.  1.
</event>
<event>
 5   0  0.3553585E-08  0.3498787E+04  0.7818609E-02  0.8114078E-01
        2   -1    0    0  501    0  0.00000000000E+00  0.00000000000E+00  0.26054129534E+04  0.26054129534E+04  0.25500000920E-02 0.  1.
       -2   -1    0    0    0  501  0.00000000000E+00  0.00000000000E+00 -0.11746226055E+04  0.11746226055E+04  0.25500000920E-02 0. -1.
    10030    2    1    2    0    0  0.00000000000E+00  0.00000000000E+00  0.14307903478E+04  0.37800355589E+04  0.34987866193E+04 0.  0.
        2    1    3    3  502    0 -0.57759704903E+03  0.34212482406E+03  0.24607128498E+04  0.25506421693E+04  0.25500000920E-02 0.  1.
       -2    1    3    3    0  502  0.57759704903E+03 -0.34212482406E+03 -0.10299225020E+04  0.12293933896E+04  0.25500000920E-02 0. -1.
</event>
<event>
 5   0  0.3553585E-08  0.3498889E+04  0.7818609E-02  0.8114053E-01
       -2   -1    0    0    0  501  0.00000000000E+00  0.00000000000E+00  0.13146014751E+04  0.13146014751E+04  0.25500000920E-02 0. -1.
        2   -1    0    0  501    0  0.00000000000E+00  0.00000000000E+00 -0.23281247346E+04  0.23281247346E+04  0.25500000920E-02 0.  1.
    10030    2    1    2    0    0  0.00000000000E+00  0.00000000000E+00 -0.10135232594E+04  0.36427262097E+04  0.34988890867E+04 0.  0.
        2    1    3    3  502    0  0.11083090005E+04  0.13245122968E+04 -0.79729372555E+03  0.19021984517E+04  0.25500000920E-02 0.  1.
       -2    1    3    3    0  502 -0.11083090005E+04 -0.13245122968E+04 -0.21622953388E+03  0.17405277580E+04  0.25500000920E-02 0. -1.
</event>
<event>
 5   0  0.3467834E-08  0.3504383E+04  0.7818609E-02  0.8112752E-01
       -2   -1    0    0    0  501  0.00000000000E+00  0.00000000000E+00  0.20038850438E+04  0.20038850438E+04  0.25500000920E-02 0.  1.
        2   -1    0    0  501    0  0.00000000000E+00  0.00000000000E+00 -0.15321116407E+04  0.15321116407E+04  0.25500000920E-02 0. -1.
    10030    2    1    2    0    0  0.00000000000E+00  0.00000000000E+00  0.47177340312E+03  0.35359966846E+04  0.35043833137E+04 0.  0.
        3    1    3    3  502    0  0.72853077918E+03  0.13194637307E+04  0.11374988308E+04  0.18882916175E+04  0.10100000352E+00 0.  1.
       -3    1    3    3    0  502 -0.72853077918E+03 -0.13194637307E+04 -0.66572542763E+03  0.16477050670E+04  0.10100000352E+00 0. -1.
</event>
<event>
 5   0  0.1121462E-08  0.3498621E+04  0.7818609E-02  0.8114117E-01
       -1   -1    0    0    0  501  0.00000000000E+00  0.00000000000E+00  0.27300203182E+04  0.27300203182E+04  0.50400001928E-02 0. -1.
        1   -1    0    0  501    0  0.00000000000E+00  0.00000000000E+00 -0.11209028456E+04  0.11209028456E+04  0.50400001928E-02 0.  1.
    10030    2    1    2    0    0  0.00000000000E+00  0.00000000000E+00  0.16091174726E+04  0.38509231638E+04  0.34986211817E+04 0.  0.
        4    1    3    3  502    0 -0.16636513185E+03 -0.11569256906E+04  0.22371287516E+04  0.25240643959E+04  0.12699999809E+01 0. -1.
       -4    1    3    3    0  502  0.16636513185E+03  0.11569256906E+04 -0.62801127897E+03  0.13268587679E+04  0.12699999809E+01 0.  1.
</event>
<event>
 5   0  0.1121462E-08  0.3501149E+04  0.7818609E-02  0.8113518E-01
       -1   -1    0    0    0  501  0.00000000000E+00  0.00000000000E+00  0.20063768554E+04  0.20063768554E+04  0.50400001928E-02 0. -1.
        1   -1    0    0  501    0  0.00000000000E+00  0.00000000000E+00 -0.15273854373E+04  0.15273854373E+04  0.50400001928E-02 0.  1.
    10030    2    1    2    0    0  0.00000000000E+00  0.00000000000E+00  0.47899141816E+03  0.35337622927E+04  0.35011488347E+04 0.  0.
        1    1    3    3  502    0  0.10834872505E+04 -0.91953376750E+03  0.12712822391E+04  0.19067368730E+04  0.50400001928E-02 0. -1.
       -1    1    3    3    0  502 -0.10834872505E+04  0.91953376750E+03 -0.79229082089E+03  0.16270254197E+04  0.50400001928E-02 0.  1.
</event>
<event>
 5   0  0.1140808E-08  0.3499223E+04  0.7818609E-02  0.8113974E-01
       -1   -1    0    0    0  501  0.00000000000E+00  0.00000000000E+00  0.16546211752E+04  0.16546211752E+04  0.50400001928E-02 0.  1.
        1   -1    0    0  501    0  0.00000000000E+00  0.00000000000E+00 -0.18500556083E+04  0.18500556084E+04  0.50400001928E-02 0. -1.
    10030    2    1    2    0    0  0.00000000000E+00  0.00000000000E+00 -0.19543443318E+03  0.35046767835E+04  0.34992234480E+04 0.  0.
        3    1    3    3  502    0 -0.96356190667E+03  0.77495079463E+03  0.11420086071E+04  0.16832064493E+04  0.10100000352E+00 0. -1.
       -3    1    3    3    0  502  0.96356190667E+03 -0.77495079463E+03 -0.13374430403E+04  0.18214703342E+04  0.10100000352E+00 0.  1.
</event>
<event>
 5   0  0.1121462E-08  0.3497572E+04  0.7818609E-02  0.8114366E-01
       -1   -1    0    0    0  501  0.00000000000E+00  0.00000000000E+00  0.17078347542E+04  0.17078347542E+04  0.50400001928E-02 0.  1.
        1   -1    0    0  501    0  0.00000000000E+00  0.00000000000E+00 -0.17907192060E+04  0.17907192060E+04  0.50400001928E-02 0. -1.
    10030    2    1    2    0    0  0.00000000000E+00  0.00000000000E+00 -0.82884451791E+02  0.34985539602E+04  0.34975720121E+04 0.  0.
        2    1    3    3  502    0 -0.12468608662E+04 -0.12242977570E+04  0.27027540346E+02  0.17476548587E+04  0.25500000920E-02 0.  1.
       -2    1    3    3    0  502  0.12468608662E+04  0.12242977570E+04 -0.10991199214E+03  0.17508991014E+04  0.25500000920E-02 0. -1.
</event>
<event>
 5   0  0.1140808E-08  0.3493652E+04  0.7818609E-02  0.8115296E-01
        1   -1    0    0  501    0  0.00000000000E+00  0.00000000000E+00  0.25137114862E+04  0.25137114862E+04  0.50400001928E-02 0.  1.
       -1   -1    0    0    0  501  0.00000000000E+00  0.00000000000E+00 -0.12139023353E+04  0.12139023353E+04  0.50400001928E-02 0. -1.
    10030    2    1    2    0    0  0.00000000000E+00  0.00000000000E+00  0.12998091509E+04  0.37276138215E+04  0.34936515243E+04 0.  0.
        3    1    3    3  502    0 -0.11746805898E+04 -0.83039192633E+03 -0.40740348650E+03  0.14951263660E+04  0.10100000352E+00 0. -1.
       -3    1    3    3    0  502  0.11746805898E+04  0.83039192633E+03  0.17072126374E+04  0.22324874555E+04  0.10100000352E+00 0.  1.
</event>
<event>
 5   0  0.3700096E-08  0.3498552E+04  0.7818609E-02  0.8114133E-01
        2   -1    0    0  501    0  0.00000000000E+00  0.00000000000E+00  0.26379363753E+04  0.26379363753E+04  0.25500000920E-02 0. -1.
       -2   -1    0    0    0  501  0.00000000000E+00  0.00000000000E+00 -0.11599852535E+04  0.11599852535E+04  0.25500000920E-02 0.  1.
    10030    2    1    2    0    0  0.00000000000E+00  0.00000000000E+00  0.14779511218E+04  0.37979216288E+04  0.34985524407E+04 0.  0.
        4    1    3    3  502    0 -0.55404021259E+02 -0.15143865073E+04  0.16875480937E+04  0.22680952980E+04  0.12699999809E+01 0.  1.
       -4    1    3    3    0  502  0.55404021259E+02  0.15143865073E+04 -0.20959697189E+03  0.15298263309E+04  0.12699999809E+01 0. -1.
</event>
<event>
 5   0  0.3700096E-08  0.3500554E+04  0.7818609E-02  0.8113659E-01
        2   -1    0    0  501    0  0.00000000000E+00  0.00000000000E+00  0.15180079062E+04  0.15180079062E+04  0.25500000920E-02 0. -1.
       -2   -1    0    0    0  501  0.00000000000E+00  0.00000000000E+00 -0.20180858549E+04  0.20180858549E+04  0.25500000920E-02 0.  1.
    10030    2    1    2    0    0  0.00000000000E+00  0.00000000000E+00 -0.50007794868E+03  0.35360937612E+04  0.35005544037E+04 0.  0.
        4    1    3    3  502    0  0.14109592901E+04  0.94961438008E+03  0.16755259474E+03  0.17089906594E+04  0.12699999809E+01 0. -1.
       -4    1    3    3    0  502 -0.14109592901E+04 -0.94961438008E+03 -0.66763054342E+03  0.18271031018E+04  0.12699999809E+01 0.  1.
</event>
<event>
 5   0  0.3553585E-08  0.3497359E+04  0.7818609E-02  0.8114416E-01
       -2   -1    0    0    0  501  0.00000000000E+00  0.00000000000E+00  0.20194839607E+04  0.20194839607E+04  0.25500000920E-02 0.  1.
        2   -1    0    0  501    0  0.00000000000E+00  0.00000000000E+00 -0.15141887517E+04  0.15141887517E+04  0.25500000920E-02 0. -1.
    10030    2    1    2    0    0  0.00000000000E+00  0.00000000000E+00  0.50529520902E+03  0.35336727124E+04  0.34973589450E+04 0.  0.
        2    1    3    3  502    0  0.91939282594E+03  0.13048587205E+04  0.97416340478E+03  0.18700090342E+04  0.25500000920E-02 0.  1.
       -2    1    3    3    0  502 -0.91939282594E+03 -0.13048587205E+04 -0.46886819577E+03  0.16636636781E+04  0.25500000920E-02 0. -1.
</event>
<event>
 5   0  0.1121462E-08  0.3500076E+04  0.7818609E-02  0.8113772E-01
        3   -1    0    0  501    0  0.00000000000E+00  0.00000000000E+00  0.26174036495E+04  0.26174036514E+04  0.10100000352E+00 0.  1.
       -3   -1    0    0    0  501  0.00000000000E+00  0.00000000000E+00 -0.11701037197E+04  0.11701037240E+04  0.10100000352E+00 0. -1.
    10030    2    1    2    0    0  0.00000000000E+00  0.00000000000E+00  0.14472999298E+04  0.37875073755E+04  0.35000764324E+04 0.  0.
        5    1    3    3  502    0  0.12134737194E+03 -0.16885669385E+04  0.12034926030E+04  0.20771133878E+04  0.46999998093E+01 0.  1.
       -5    1    3    3    0  502 -0.12134737194E+03  0.16885669385E+04  0.24380732681E+03  0.17103939876E+04  0.46999998093E+01 0. -1.
</event>
<event>
 5   0  0.1121462E-08  0.3496788E+04  0.7818609E-02  0.8114552E-01
        1   -1    0    0  501    0  0.00000000000E+00  0.00000000000E+00  0.26114742009E+04  0.26114742009E+04  0.50400001928E-02 0.  1.
       -1   -1    0    0    0  501  0.00000000000E+00  0.00000000000E+00 -0.11705575264E+04  0.11705575264E+04  0.50400001928E-02 0. -1.
    10030    2    1    2    0    0  0.00000000000E+00  0.00000000000E+00  0.14409166746E+04  0.37820317273E+04  0.34967875433E+04 0.  0.
        4    1    3    3  502    0 -0.48247596666E+03  0.60497505501E+03 -0.97526816978E+03  0.12449608393E+04  0.12699999809E+01 0. -1.
       -4    1    3    3    0  502  0.48247596666E+03 -0.60497505501E+03  0.24161848444E+04  0.25370708880E+04  0.12699999809E+01 0.  1.
</event>
<event>
 5   0  0.1140808E-08  0.3500041E+04  0.7818609E-02  0.8113780E-01
        1   -1    0    0  501    0  0.00000000000E+00  0.00000000000E+00  0.14846435413E+04  0.14846435413E+04  0.50400001928E-02 0.  1.
       -1   -1    0    0    0  501  0.00000000000E+00  0.00000000000E+00 -0.20628335586E+04  0.20628335586E+04  0.50400001928E-02 0. -1.
    10030    2    1    2    0    0  0.00000000000E+00  0.00000000000E+00 -0.57819001731E+03  0.35474770998E+04  0.35000414394E+04 0.  0.
        3    1    3    3  502    0 -0.13497414662E+04  0.21229405207E+03 -0.13973963048E+04  0.19543764308E+04  0.10100000352E+00 0. -1.
       -3    1    3    3    0  502  0.13497414662E+04 -0.21229405207E+03  0.81920628750E+03  0.15931006691E+04  0.10100000352E+00 0.  1.
</event>
<event>
 5   0  0.1121462E-08  0.3497439E+04  0.7818609E-02  0.8114397E-01
        1   -1    0    0  501    0  0.00000000000E+00  0.00000000000E+00  0.99864962475E+03  0.99864962476E+03  0.50400001928E-02 0. -1.
       -1   -1    0    0    0  501  0.00000000000E+00  0.00000000000E+00 -0.30621550875E+04  0.30621550875E+04  0.50400001928E-02 0.  1.
    10030    2    1    2    0    0  0.00000000000E+00  0.00000000000E+00 -0.20635054627E+04  0.40608047122E+04  0.34974390797E+04 0.  0.
        4    1    3    3  502    0 -0.12071112562E+04 -0.25113393753E+03 -0.24716001569E+04  0.27620635018E+04  0.12699999809E+01 0.  1.
       -4    1    3    3    0  502  0.12071112562E+04  0.25113393753E+03  0.40809469417E+03  0.12987412105E+04  0.12699999809E+01 0. -1.
</event>
<event>
 5   0  0.1121462E-08  0.3499030E+04  0.7818609E-02  0.8114020E-01
       -1   -1    0    0    0  501  0.00000000000E+00  0.00000000000E+00  0.11514220904E+04  0.11514220904E+04  0.50400001928E-02 0.  1.
        1   -1    0    0  501    0  0.00000000000E+00  0.00000000000E+00 -0.26582808547E+04  0.26582808547E+04  0.50400001928E-02 0. -1.
    10030    2    1    2    0    0  0.00000000000E+00  0.00000000000E+00 -0.15068587643E+04  0.38097029450E+04  0.34990303219E+04 0.  0.
        4    1    3    3  502    0 -0.67374084580E+03  0.11061317185E+04 -0.20340163119E+04  0.24113643599E+04  0.12699999809E+01 0. -1.
       -4    1    3    3    0  502  0.67374084580E+03 -0.11061317185E+04  0.52715754761E+03  0.13983385852E+04  0.12699999809E+01 0.  1.
</event>
<event>
 5   0  0.3467834E-08  0.3497385E+04  0.7818609E-02  0.8114410E-01
       -2   -1    0    0    0  501  0.00000000000E+00  0.00000000000E+00  0.13262975443E+04  0.13262975443E+04  0.25500000920E-02 0. -1.
        2   -1    0    0  501    0  0.00000000000E+00  0.00000000000E+00 -0.23056097896E+04  0.23056097896E+04  0.25500000920E-02 0.  1.
    10030    2    1    2    0    0  0.00000000000E+00  0.00000000000E+00 -0.97931224533E+03  0.36319073339E+04  0.34973845096E+04 0.  0.
        3    1    3    3  502    0 -0.12059304894E+04 -0.14825636182E+03  0.81636493792E+03  0.14637964394E+04  0.10100000352E+00 0. -1.
       -3    1    3    3    0  502  0.12059304894E+04  0.14825636182E+03 -0.17956771833E+04  0.21681108945E+04  0.10100000352E+00 0.  1.
</event>
<event>
 5   0  0.3553585E-08  0.3500509E+04  0.7818609E-02  0.8113669E-01
        2   -1    0    0  501    0  0.00000000000E+00  0.00000000000E+00  0.27627266606E+04  0.27627266606E+04  0.25500000920E-02 0. -1.
       -2   -1    0    0    0  501  0.00000000000E+00  0.00000000000E+00 -0.11088285108E+04  0.11088285108E+04  0.25500000920E-02 0.  1.
    10030    2    1    2    0    0  0.00000000000E+00  0.00000000000E+00  0.16538981498E+04  0.38715551714E+04  0.35005085852E+04 0.  0.
        2    1    3    3  502    0  0.52478929814E+03  0.11254171863E+04  0.21911527461E+04  0.25185547457E+04  0.25500000920E-02 0. -1.
       -2    1    3    3    0  502 -0.52478929814E+03 -0.11254171863E+04 -0.53725459624E+03  0.13530004257E+04  0.25500000920E-02 0.  1.
</event>
<event>
 5   0  0.3467834E-08  0.3499810E+04  0.7818609E-02  0.8113835E-01
        2   -1    0    0  501    0  0.00000000000E+00  0.00000000000E+00  0.25188987375E+04  0.25188987375E+04  0.25500000920E-02 0.  1.
       -2   -1    0    0    0  501  0.00000000000E+00  0.00000000000E+00 -0.12156769898E+04  0.12156769898E+04  0.25500000920E-02 0. -1.
    10030    2    1    2    0    0  0.00000000000E+00  0.00000000000E+00  0.13032217477E+04  0.37345757272E+04  0.34998098432E+04 0.  0.
        3    1    3    3  502    0 -0.97239161864E+03  0.87966251337E+02  0.22012234677E+04  0.24080424179E+04  0.10100000352E+00 0.  1.
       -3    1    3    3    0  502  0.97239161864E+03 -0.87966251337E+02 -0.89800172001E+03  0.13265333093E+04  0.10100000352E+00 0. -1.
</event>
<event>
 5   0  0.3554451E-08  0.3494482E+04  0.7818609E-02  0.8115099E-01
        2   -1    0    0  501    0  0.00000000000E+00  0.00000000000E+00  0.19467641994E+04  0.19467641994E+04  0.25500000920E-02 0.  1.
       -2   -1    0    0    0  501  0.00000000000E+00  0.00000000000E+00 -0.15681669871E+04  0.15681669871E+04  0.25500000920E-02 0. -1.
    10030    2    1    2    0    0  0.00000000000E+00  0.00000000000E+00  0.37859721235E+03  0.35149311865E+04  0.34944821357E+04 0.  0.
        5    1    3    3  502    0  0.10946559299E+04 -0.95398570248E+03  0.11668235339E+04  0.18627559085E+04  0.46999998093E+01 0.  1.
       -5    1    3    3    0  502 -0.10946559299E+04  0.95398570248E+03 -0.78822632151E+03  0.16521752780E+04  0.46999998093E+01 0. -1.
</event>
<event>
 5   0  0.1129219E-08  0.3498921E+04  0.7818609E-02  0.8114046E-01
        1   -1    0    0  501    0  0.00000000000E+00  0.00000000000E+00  0.23039198169E+04  0.23039198169E+04  0.50400001928E-02 0.  1.
       -1   -1    0    0    0  501  0.00000000000E+00  0.00000000000E+00 -0.13284368315E+04  0.13284368315E+04  0.50400001928E-02 0. -1.
    10030    2    1    2    0    0  0.00000000000E+00  0.00000000000E+00  0.97548298543E+03  0.36323566484E+04  0.34989209431E+04 0.  0.
        5    1    3    3  502    0  0.73377623250E+03 -0.13936884604E+04  0.12782226093E+04  0.20284649893E+04  0.46999998093E+01 0.  1.
       -5    1    3    3    0  502 -0.73377623250E+03  0.13936884604E+04 -0.30273962392E+03  0.16038916590E+04  0.46999998093E+01 0. -1.
</event>
<event>
 5   0  0.1121462E-08  0.3506223E+04  0.7818609E-02  0.8112317E-01
        1   -1    0    0  501    0  0.00000000000E+00  0.00000000000E+00  0.20097810055E+04  0.20097810055E+04  0.50400001928E-02 0. -1.
       -1   -1    0    0    0  501  0.00000000000E+00  0.00000000000E+00 -0.15292211103E+04  0.15292211103E+04  0.50400001928E-02 0.  1.
    10030    2    1    2    0    0  0.00000000000E+00  0.00000000000E+00  0.48055989525E+03  0.35390021158E+04  0.35062227771E+04 0.  0.
        2    1    3    3  502    0  0.46452956236E+03  0.10528171007E+03  0.19432186441E+04  0.20007425251E+04  0.25500000920E-02 0. -1.
       -2    1    3    3    0  502 -0.46452956236E+03 -0.10528171007E+03 -0.14626587489E+04  0.15382595907E+04  0.25500000920E-02 0.  1.
</event>
<event>
 5   0  0.1129219E-08  0.3499178E+04  0.7818609E-02  0.8113985E-01
       -1   -1    0    0    0  501  0.00000000000E+00  0.00000000000E+00  0.25855172454E+04  0.25855172454E+04  0.50400001928E-02 0. -1.
        1   -1    0    0  501    0  0.00000000000E+00  0.00000000000E+00 -0.11839260360E+04  0.11839260360E+04  0.50400001928E-02 0.  1.
    10030    2    1    2    0    0  0.00000000000E+00  0.00000000000E+00  0.14015912094E+04  0.37694432814E+04  0.34991777225E+04 0.  0.
        5    1    3    3  502    0 -0.14486668331E+04  0.21548674716E+03 -0.33018760113E+03  0.15013713976E+04  0.46999998093E+01 0.  1.
       -5    1    3    3    0  502  0.14486668331E+04 -0.21548674716E+03  0.17317788105E+04  0.22680718838E+04  0.46999998093E+01 0. -1.
</event>
<event>
 5   0  0.3553585E-08  0.3500425E+04  0.7818609E-02  0.8113689E-01
       -2   -1    0    0    0  501  0.00000000000E+00  0.00000000000E+00  0.25949468085E+04  0.25949468085E+04  0.25500000920E-02 0. -1.
        2   -1    0    0  501    0  0.00000000000E+00  0.00000000000E+00 -0.11804649536E+04  0.11804649536E+04  0.25500000920E-02 0.  1.
    10030    2    1    2    0    0  0.00000000000E+00  0.00000000000E+00  0.14144818550E+04  0.37754117621E+04  0.35004249821E+04 0.  0.
        2    1    3    3  502    0  0.14214645598E+04 -0.67033738524E+03 -0.12354996182E+03  0.15764448287E+04  0.25500000920E-02 0.  1.
       -2    1    3    3    0  502 -0.14214645598E+04  0.67033738524E+03  0.15380318168E+04  0.21989669334E+04  0.25500000920E-02 0. -1.
</event>
<event>
 5   0  0.3628017E-08  0.3499090E+04  0.7818609E-02  0.8114006E-01
       -2   -1    0    0    0  501  0.00000000000E+00  0.00000000000E+00  0.98825069643E+03  0.98825069643E+03  0.25500000920E-02 0.  1.
        2   -1    0    0  501    0  0.00000000000E+00  0.00000000000E+00 -0.30972987929E+04  0.30972987929E+04  0.25500000920E-02 0. -1.
    10030    2    1    2    0    0  0.00000000000E+00  0.00000000000E+00 -0.21090480964E+04  0.40855494893E+04  0.34990899898E+04 0.  0.
        1    1    3    3  502    0 -0.80084484456E+03  0.14906306229E+04 -0.15735176283E+04  0.23106903396E+04  0.50400001928E-02 0. -1.
       -1    1    3    3    0  502  0.80084484456E+03 -0.14906306229E+04 -0.53553046818E+03  0.17748591497E+04  0.50400001928E-02 0.  1.
</event>
<event>
 5   0  0.3628017E-08  0.3502389E+04  0.7818609E-02  0.8113224E-01
        2   -1    0    0  501    0  0.00000000000E+00  0.00000000000E+00  0.12676858823E+04  0.12676858823E+04  0.25500000920E-02 0.  1.
       -2   -1    0    0    0  501  0.00000000000E+00  0.00000000000E+00 -0.24191176968E+04  0.24191176968E+04  0.25500000920E-02 0. -1.
    10030    2    1    2    0    0  0.00000000000E+00  0.00000000000E+00 -0.11514318145E+04  0.36868035790E+04  0.35023885289E+04 0.  0.
        1    1    3    3  502    0 -0.65687594021E+03  0.14954460184E+04 -0.12405038864E+04  0.20510228392E+04  0.50400001928E-02 0. -1.
       -1    1    3    3    0  502  0.65687594021E+03 -0.14954460184E+04  0.89072071909E+02  0.16357807398E+04  0.50400001928E-02 0.  1.
</event>
<event>
 5   0  0.3467834E-08  0.3498899E+04  0.7818609E-02  0.8114051E-01
        2   -1    0    0  501    0  0.00000000000E+00  0.00000000000E+00  0.20137065979E+04  0.20137065979E+04  0.25500000920E-02 0. -1.
       -2   -1    0    0    0  501  0.00000000000E+00  0.00000000000E+00 -0.15198704862E+04  0.15198704862E+04  0.25500000920E-02 0.  1.
    10030    2    1    2    0    0  0.00000000000E+00  0.00000000000E+00  0.49383611163E+03  0.35335770841E+04  0.34988988131E+04 0.  0.
        3    1    3    3  502    0  0.61976487142E+03  0.15520269744E+04 -0.27558484683E+03  0.16937659942E+04  0.10100000352E+00 0.  1.
       -3    1    3    3    0  502 -0.61976487142E+03 -0.15520269744E+04  0.76942095846E+03  0.18398110899E+04  0.10100000352E+00 0. -1.
</event>
<event>
 5   0  0.1121462E-08  0.3500073E+04  0.7818609E-02  0.8113773E-01
        1   -1    0    0  501    0  0.00000000000E+00  0.00000000000E+00  0.16376304256E+04  0.16376304256E+04  0.50400001928E-02 0.  1.
       -1   -1    0    0    0  501  0.00000000000E+00  0.00000000000E+00 -0.18701580541E+04  0.18701580541E+04  0.50400001928E-02 0. -1.
    10030    2    1    2    0    0  0.00000000000E+00  0.00000000000E+00 -0.23252762851E+03  0.35077884796E+04  0.35000729878E+04 0.  0.
        4    1    3    3  502    0  0.11983352690E+04 -0.12252046562E+04 -0.47129356740E+03  0.17774287907E+04  0.12699999809E+01 0. -1.
       -4    1    3    3    0  502 -0.11983352690E+04  0.12252046562E+04  0.23876593889E+03  0.17303596889E+04  0.12699999809E+01 0.  1.
</event>
<event>
 5   0  0.3467834E-08  0.3502404E+04  0.7818609E-02  0.8113221E-01
       -2   -1    0    0    0  501  0.00000000000E+00  0.00000000000E+00  0.31996783593E+04  0.31996783593E+04  0.25500000920E-02 0.  1.
        2   -1    0    0  501    0  0.00000000000E+00  0.00000000000E+00 -0.95844246655E+03  0.95844246655E+03  0.25500000920E-02 0. -1.
    10030    2    1    2    0    0  0.00000000000E+00  0.00000000000E+00  0.22412358927E+04  0.41581208258E+04  0.35024035283E+04 0.  0.
        3    1    3    3  502    0  0.15782771197E+04 -0.18300857010E+03  0.19948634929E+04  0.25502806059E+04  0.10100000352E+00 0.  1.
       -3    1    3    3    0  502 -0.15782771197E+04  0.18300857010E+03  0.24637239985E+03  0.16078402200E+04  0.10100000352E+00 0. -1.
</event>
<event>
 5   0  0.1121462E-08  0.3500885E+04  0.7818609E-02  0.8113580E-01
       -1   -1    0    0    0  501  0.00000000000E+00  0.00000000000E+00  0.12888212605E+04  0.12888212605E+04  0.50400001928E-02 0.  1.
        1   -1    0    0  501    0  0.00000000000E+00  0.00000000000E+00 -0.23774038877E+04  0.23774038877E+04  0.50400001928E-02 0. -1.
    10030    2    1    2    0    0  0.00000000000E+00  0.00000000000E+00 -0.10885826272E+04  0.36662251482E+04  0.35008848454E+04 0.  0.
        2    1    3    3  502    0 -0.35784617772E+03 -0.10801595032E+04 -0.19372426279E+04  0.22467103593E+04  0.25500000920E-02 0. -1.
       -2    1    3    3    0  502  0.35784617772E+03  0.10801595032E+04  0.84866000061E+03  0.14195147889E+04  0.25500000920E-02 0.  1.
</event>
<event>
 5   0  0.1121462E-08  0.3500291E+04  0.7818609E-02  0.8113721E-01
        1   -1    0    0  501    0  0.00000000000E+00  0.00000000000E+00  0.18774240570E+04  0.18774240570E+04  0.50400001928E-02 0.  1.
       -1   -1    0    0    0  501  0.00000000000E+00  0.00000000000E+00 -0.16314958555E+04  0.16314958555E+04  0.50400001928E-02 0. -1.
    10030    2    1    2    0    0  0.00000000000E+00  0.00000000000E+00  0.24592820156E+03  0.35089199125E+04  0.35002911696E+04 0.  0.
        2    1    3    3  502    0 -0.84198514614E+03  0.11940220694E+04 -0.84293688926E+03  0.16867632578E+04  0.25500000920E-02 0. -1.
       -2    1    3    3    0  502  0.84198514614E+03 -0.11940220694E+04  0.10888650908E+04  0.18221566548E+04  0.25500000920E-02 0.  1.
</event>
<event>
 5   0  0.3467834E-08  0.3502242E+04  0.7818609E-02  0.8113259E-01
       -2   -1    0    0    0  501  0.00000000000E+00  0.00000000000E+00  0.17613437686E+04  0.17613437686E+04  0.25500000920E-02 0.  1.
        2   -1    0    0  501    0  0.00000000000E+00  0.00000000000E+00 -0.17409577328E+04  0.17409577328E+04  0.25500000920E-02 0. -1.
    10030    2    1    2    0    0  0.00000000000E+00  0.00000000000E+00  0.20386035798E+02  0.35023015014E+04  0.35022421699E+04 0.  0.
        3    1    3    3  502    0  0.16651001222E+04 -0.43771384663E+03  0.33000027347E+03  0.17530122701E+04  0.10100000352E+00 0.  1.
       -3    1    3    3    0  502 -0.16651001222E+04  0.43771384663E+03 -0.30961423767E+03  0.17492892313E+04  0.10100000352E+00 0. -1.
</event>
<event>
 5   0  0.1121462E-08  0.3500411E+04  0.7818609E-02  0.8113693E-01
       -1   -1    0    0    0  501  0.00000000000E+00  0.00000000000E+00  0.12132056260E+04  0.12132056260E+04  0.50400001928E-02 0. -1.
        1   -1    0    0  501    0  0.00000000000E+00  0.00000000000E+00 -0.25248967035E+04  0.25248967035E+04  0.50400001928E-02 0.  1.
    10030    2    1    2    0    0  0.00000000000E+00  0.00000000000E+00 -0.13116910775E+04  0.37381023295E+04  0.35004107678E+04 0.  0.
        2    1    3    3  502    0  0.15800911299E+03  0.61479408769E+01  0.12055615780E+04  0.12158879040E+04  0.25500000920E-02 0. -1.
       -2    1    3    3    0  502 -0.15800911299E+03 -0.61479408769E+01 -0.25172526554E+04  0.25222144255E+04  0.25500000920E-02 0.  1.
</event>
<event>
 5   0  0.1121462E-08  0.3501471E+04  0.7818609E-02  0.8113441E-01
        1   -1    0    0  501    0  0.00000000000E+00  0.00000000000E+00  0.19413109170E+04  0.19413109170E+04  0.50400001928E-02 0.  1.
       -1   -1    0    0    0  501  0.00000000000E+00  0.00000000000E+00 -0.15788685328E+04  0.15788685328E+04  0.50400001928E-02 0. -1.
    10030    2    1    2    0    0  0.00000000000E+00  0.00000000000E+00  0.36244238420E+03  0.35201794498E+04  0.35014709590E+04 0.  0.
        2    1    3    3  502    0 -0.73376376608E+03 -0.54549989430E+03  0.16822139424E+04  0.19146339459E+04  0.25500000920E-02 0.  1.
       -2    1    3    3    0  502  0.73376376608E+03  0.54549989430E+03 -0.13197715582E+04  0.16055455038E+04  0.25500000920E-02 0. -1.
</event>
<event>
 5   0  0.1121462E-08  0.3500323E+04  0.7818609E-02  0.8113713E-01
       -3   -1    0    0    0  501  0.00000000000E+00  0.00000000000E+00  0.20166343817E+04  0.20166343843E+04  0.10100000352E+00 0.  1.
        3   -1    0    0  501    0  0.00000000000E+00  0.00000000000E+00 -0.15189000225E+04  0.15189000258E+04  0.10100000352E+00 0. -1.
    10030    2    1    2    0    0  0.00000000000E+00  0.00000000000E+00  0.49773435925E+03  0.35355344101E+04  0.35003234240E+04 0.  0.
        4    1    3    3  502    0  0.97227922567E+03  0.14388260760E+04  0.28690375209E+02  0.17367706009E+04  0.12699999809E+01 0. -1.
       -4    1    3    3    0  502 -0.97227922567E+03 -0.14388260760E+04  0.46904398404E+03  0.17987638092E+04  0.12699999809E+01 0.  1.
</event>
<event>
 5   0  0.3553585E-08  0.3499554E+04  0.7818609E-02  0.8113896E-01
        2   -1    0    0  501    0  0.00000000000E+00  0.00000000000E+00  0.15169323181E+04  0.15169323181E+04  0.25500000920E-02 0. -1.
       -2   -1    0    0    0  501  0.00000000000E+00  0.00000000000E+00 -0.20183628851E+04  0.20183628851E+04  0.25500000920E-02 0.  1.
    10030    2    1    2    0    0  0.00000000000E+00  0.00000000000E+00 -0.50143056698E+03  0.35352952032E+04  0.34995541945E+04 0.  0.
        2    1    3    3  502    0 -0.33391613352E+03 -0.65303720251E+03  0.13541448409E+04  0.15400213707E+04  0.25500000920E-02 0. -1.
       -2    1    3    3    0  502  0.33391613352E+03  0.65303720251E+03 -0.18555754079E+04  0.19952738325E+04  0.25500000920E-02 0.  1.
</event>
<event>
 5   0  0.3553585E-08  0.3499808E+04  0.7818609E-02  0.8113835E-01
       -2   -1    0    0    0  501  0.00000000000E+00  0.00000000000E+00  0.14049136748E+04  0.14049136748E+04  0.25500000920E-02 0. -1.
        2   -1    0    0  501    0  0.00000000000E+00  0.00000000000E+00 -0.21796101920E+04  0.21796101920E+04  0.25500000920E-02 0.  1.
    10030    2    1    2    0    0  0.00000000000E+00  0.00000000000E+00 -0.77469651717E+03  0.35845238668E+04  0.34998080887E+04 0.  0.
        2    1    3    3  502    0 -0.19887235790E+03 -0.78363067410E+03 -0.19768605825E+04  0.21357914249E+04  0.25500000920E-02 0.  1.
       -2    1    3    3    0  502  0.19887235790E+03  0.78363067410E+03  0.12021640653E+04  0.14487324419E+04  0.25500000920E-02 0. -1.
</event>
<event>
 5   0  0.1140808E-08  0.3504241E+04  0.7818609E-02  0.8112786E-01
        1   -1    0    0  501    0  0.00000000000E+00  0.00000000000E+00  0.16544892774E+04  0.16544892774E+04  0.50400001928E-02 0.  1.
       -1   -1    0    0    0  501  0.00000000000E+00  0.00000000000E+00 -0.18555130169E+04  0.18555130169E+04  0.50400001928E-02 0. -1.
    10030    2    1    2    0    0  0.00000000000E+00  0.00000000000E+00 -0.20102373943E+03  0.35100022943E+04  0.35042410822E+04 0.  0.
        3    1    3    3  502    0  0.94936106593E+03 -0.11428656980E+04 -0.10307464024E+04  0.18082772446E+04  0.10100000352E+00 0. -1.
       -3    1    3    3    0  502 -0.94936106593E+03  0.11428656980E+04  0.82972266293E+03  0.17017250497E+04  0.10100000352E+00 0.  1.
</event>
<event>
 5   0  0.3700096E-08  0.3506004E+04  0.7818609E-02  0.8112368E-01
       -2   -1    0    0    0  501  0.00000000000E+00  0.00000000000E+00  0.25758046254E+04  0.25758046254E+04  0.25500000920E-02 0. -1.
        2   -1    0    0  501    0  0.00000000000E+00  0.00000000000E+00 -0.11930316919E+04  0.11930316919E+04  0.25500000920E-02 0.  1.
    10030    2    1    2    0    0  0.00000000000E+00  0.00000000000E+00  0.13827729335E+04  0.37688363174E+04  0.35060043071E+04 0.  0.
        4    1    3    3  502    0 -0.84645676748E+03  0.64758930358E+03 -0.80476961271E+03  0.13354836981E+04  0.12699999809E+01 0.  1.
       -4    1    3    3    0  502  0.84645676748E+03 -0.64758930358E+03  0.21875425463E+04  0.24333526193E+04  0.12699999809E+01 0. -1.
</event>
<event>
 5   0  0.1121462E-08  0.3499810E+04  0.7818609E-02  0.8113835E-01
       -1   -1    0    0    0  501  0.00000000000E+00  0.00000000000E+00  0.16026254596E+04  0.16026254596E+04  0.50400001928E-02 0.  1.
        1   -1    0    0  501    0  0.00000000000E+00  0.00000000000E+00 -0.19107195459E+04  0.19107195459E+04  0.50400001928E-02 0. -1.
    10030    2    1    2    0    0  0.00000000000E+00  0.00000000000E+00 -0.30809408637E+03  0.35133450055E+04  0.34998101608E+04 0.  0.
        1    1    3    3  502    0 -0.18226751580E+01  0.13670412851E+04 -0.12506831010E+04  0.18528392851E+04  0.50400001928E-02 0. -1.
       -1    1    3    3    0  502  0.18226751580E+01 -0.13670412851E+04  0.94258901459E+03  0.16605057205E+04  0.50400001928E-02 0.  1.
</event>
<event>
 5   0  0.3553585E-08  0.3500432E+04  0.7818609E-02  0.8113687E-01
       -2   -1    0    0    0  501  0.00000000000E+00  0.00000000000E+00  0.11847166646E+04  0.11847166646E+04  0.25500000920E-02 0.  1.
        2   -1    0    0  501    0  0.00000000000E+00  0.00000000000E+00 -0.25856451413E+04  0.25856451413E+04  0.25500000920E-02 0. -1.
    10030    2    1    2    0    0  0.00000000000E+00  0.00000000000E+00 -0.14009284767E+04  0.37703618059E+04  0.35004324805E+04 0.  0.
        2    1    3    3  502    0  0.12575023600E+04  0.16685654072E+03 -0.19993142323E+04  0.23677860314E+04  0.25500000920E-02 0. -1.
       -2    1    3    3    0  502 -0.12575023600E+04 -0.16685654072E+03  0.59838575569E+03  0.14025757745E+04  0.25500000920E-02 0.  1.
</event>
<event>
 5   0  0.1129219E-08  0.3499388E+04  0.7818609E-02  0.8113935E-01
        1   -1    0    0  501    0  0.00000000000E+00  0.00000000000E+00  0.10982509513E+04  0.10982509513E+04  0.50400001928E-02 0.  1.
       -1   -1    0    0    0  501  0.00000000000E+00  0.00000000000E+00 -0.27875496110E+04  0.27875496110E+04  0.50400001928E-02 0. -1.
    10030    2    1    2    0    0  0.00000000000E+00  0.00000000000E+00 -0.16892986597E+04  0.38858005623E+04  0.34993879534E+04 0.  0.
        5    1    3    3  502    0  0.89784271006E+02 -0.11925009115E+04 -0.22629020971E+04  0.25594662784E+04  0.46999998093E+01 0. -1.
       -5    1    3    3    0  502 -0.89784271006E+02  0.11925009115E+04  0.57360343745E+03  0.13263342839E+04  0.46999998093E+01 0.  1.
</event>
<event>
 5   0  0.3628017E-08  0.3500663E+04  0.7818609E-02  0.8113633E-01
       -2   -1    0    0    0  501  0.00000000000E+00  0.00000000000E+00  0.16791189138E+04  0.16791189138E+04  0.25500000920E-02 0. -1.
        2   -1    0    0  501    0  0.00000000000E+00  0.00000000000E+00 -0.18245644516E+04  0.18245644516E+04  0.25500000920E-02 0.  1.
    10030    2    1    2    0    0  0.00000000000E+00  0.00000000000E+00 -0.14544553779E+03  0.35036833654E+04  0.35006631829E+04 0.  0.
        1    1    3    3  502    0 -0.44268467093E+02  0.80022545413E+03 -0.16301308753E+04  0.18164930898E+04  0.50400001928E-02 0.  1.
       -1    1    3    3    0  502  0.44268467093E+02 -0.80022545413E+03  0.14846853375E+04  0.16871902756E+04  0.50400001928E-02 0. -1.
</event>
<event>
 5   0  0.1121462E-08  0.3499260E+04  0.7818609E-02  0.8113965E-01
        1   -1    0    0  501    0  0.00000000000E+00  0.00000000000E+00  0.22122090822E+04  0.22122090822E+04  0.50400001928E-02 0.  1.
       -1   -1    0    0    0  501  0.00000000000E+00  0.00000000000E+00 -0.13837776642E+04  0.13837776642E+04  0.50400001928E-02 0. -1.
    10030    2    1    2    0    0  0.00000000000E+00  0.00000000000E+00  0.82843141800E+03  0.35959867464E+04  0.34992602170E+04 0.  0.
        2    1    3    3  502    0  0.17619147235E+03 -0.15259647408E+04  0.12749808698E+04  0.19962935765E+04  0.25500000920E-02 0.  1.
       -2    1    3    3    0  502 -0.17619147235E+03  0.15259647408E+04 -0.44654945178E+03  0.15996931700E+04  0.25500000920E-02 0. -1.
</event>
<event>
 5   0  0.1140808E-08  0.3499208E+04  0.7818609E-02  0.8113978E-01
        1   -1    0    0  501    0  0.00000000000E+00  0.00000000000E+00  0.25744179634E+04  0.25744179634E+04  0.50400001928E-02 0.  1.
       -1   -1    0    0    0  501  0.00000000000E+00  0.00000000000E+00 -0.11890509110E+04  0.11890509110E+04  0.50400001928E-02 0. -1.
    10030    2    1    2    0    0  0.00000000000E+00  0.00000000000E+00  0.13853670524E+04  0.37634688744E+04  0.34992079245E+04 0.  0.
        3    1    3    3  502    0 -0.17114122672E+04 -0.31122488948E+03  0.89481591142E+03  0.19561412029E+04  0.10100000352E+00 0. -1.
       -3    1    3    3    0  502  0.17114122672E+04  0.31122488948E+03  0.49055114099E+03  0.18073276715E+04  0.10100000352E+00 0.  1.
</event>
<event>
 5   0  0.1121462E-08  0.3498479E+04  0.7818609E-02  0.8114150E-01
       -1   -1    0    0    0  501  0.00000000000E+00  0.00000000000E+00  0.16758432319E+04  0.16758432319E+04  0.50400001928E-02 0.  1.
        1   -1    0    0  501    0  0.00000000000E+00  0.00000000000E+00 -0.18258503908E+04  0.18258503908E+04  0.50400001928E-02 0. -1.
    10030    2    1    2    0    0  0.00000000000E+00  0.00000000000E+00 -0.15000715890E+03  0.35016936226E+04  0.34984791094E+04 0.  0.
        4    1    3    3  502    0  0.12032725967E+04 -0.31757183500E+03  0.11554023703E+04  0.16981381164E+04  0.12699999809E+01 0.  1.
       -4    1    3    3    0  502 -0.12032725967E+04  0.31757183500E+03 -0.13054095292E+04  0.18035555062E+04  0.12699999809E+01 0. -1.
</event>
<event>
 5   0  0.1121462E-08  0.3504134E+04  0.7818609E-02  0.8112811E-01
       -1   -1    0    0    0  501  0.00000000000E+00  0.00000000000E+00  0.11604114737E+04  0.11604114737E+04  0.50400001928E-02 0. -1.
        1   -1    0    0  501    0  0.00000000000E+00  0.00000000000E+00 -0.26453877915E+04  0.26453877915E+04  0.50400001928E-02 0.  1.
    10030    2    1    2    0    0  0.00000000000E+00  0.00000000000E+00 -0.14849763178E+04  0.38057992651E+04  0.35041337563E+04 0.  0.
        4    1    3    3  502    0  0.14477642113E+04  0.94170900068E+03 -0.42232283765E+03  0.17779750407E+04  0.12699999809E+01 0.  1.
       -4    1    3    3    0  502 -0.14477642113E+04 -0.94170900068E+03 -0.10626534801E+04  0.20278242244E+04  0.12699999809E+01 0. -1.
</event>
<event>
 5   0  0.3553585E-08  0.3500144E+04  0.7818609E-02  0.8113756E-01
       -2   -1    0    0    0  501  0.00000000000E+00  0.00000000000E+00  0.11141685465E+04  0.11141685465E+04  0.25500000920E-02 0.  1.
        2   -1    0    0  501    0  0.00000000000E+00  0.00000000000E+00 -0.27489119749E+04  0.27489119749E+04  0.25500000920E-02 0. -1.
    10030    2    1    2    0    0  0.00000000000E+00  0.00000000000E+00 -0.16347434285E+04  0.38630805214E+04  0.35001435739E+04 0.  0.
        2    1    3    3  502    0 -0.14334579611E+04  0.12629390388E+03  0.28189632808E+03  0.14663619663E+04  0.25500000920E-02 0.  1.
       -2    1    3    3    0  502  0.14334579611E+04 -0.12629390388E+03 -0.19166397565E+04  0.23967185552E+04  0.25500000920E-02 0. -1.
</event>
<event>
 5   0  0.3553585E-08  0.3500982E+04  0.7818609E-02  0.8113557E-01
       -2   -1    0    0    0  501  0.00000000000E+00  0.00000000000E+00  0.13504014291E+04  0.13504014291E+04  0.25500000920E-02 0. -1.
        2   -1    0    0  501    0  0.00000000000E+00  0.00000000000E+00 -0.22691175359E+04  0.22691175360E+04  0.25500000920E-02 0.  1.
    10030    2    1    2    0    0  0.00000000000E+00  0.00000000000E+00 -0.91871610681E+03  0.36195189651E+04  0.35009824698E+04 0.  0.
        2    1    3    3  502    0  0.19266288433E+03 -0.36985835615E+02 -0.22577162321E+04  0.22662236261E+04  0.25500000920E-02 0.  1.
       -2    1    3    3    0  502 -0.19266288433E+03  0.36985835615E+02  0.13390001253E+04  0.13532953390E+04  0.25500000920E-02 0. -1.
</event>
<event>
 5   0  0.3700096E-08  0.3501021E+04  0.7818609E-02  0.8113548E-01
        2   -1    0    0  501    0  0.00000000000E+00  0.00000000000E+00  0.28972298212E+04  0.28972298212E+04  0.25500000920E-02 0.  1.
       -2   -1    0    0    0  501  0.00000000000E+00  0.00000000000E+00 -0.10576609068E+04  0.10576609068E+04  0.25500000920E-02 0. -1.
    10030    2    1    2    0    0  0.00000000000E+00  0.00000000000E+00  0.18395689144E+04  0.39548907280E+04  0.35010208339E+04 0.  0.
        4    1    3    3  502    0  0.61010912808E+03 -0.76969825700E+03 -0.71706895224E+03  0.12160830770E+04  0.12699999809E+01 0. -1.
       -4    1    3    3    0  502 -0.61010912808E+03  0.76969825700E+03  0.25566378666E+04  0.27388076510E+04  0.12699999809E+01 0.  1.
</event>
<event>
 5   0  0.3554451E-08  0.3500097E+04  0.7818609E-02  0.8113767E-01
       -2   -1    0    0    0  501  0.00000000000E+00  0.00000000000E+00  0.13861835961E+04  0.13861835961E+04  0.25500000920E-02 0.  1.
        2   -1    0    0  501    0  0.00000000000E+00  0.00000000000E+00 -0.22094254243E+04  0.22094254243E+04  0.25500000920E-02 0. -1.
    10030    2    1    2    0    0  0.00000000000E+00  0.00000000000E+00 -0.82324182819E+03  0.35956090205E+04  0.35000967301E+04 0.  0.
        5    1    3    3  502    0 -0.16759870572E+04 -0.47600969176E+03 -0.58082548390E+03  0.18365451738E+04  0.46999998093E+01 0. -1.
       -5    1    3    3    0  502  0.16759870572E+04  0.47600969176E+03 -0.24241634429E+03  0.17590638467E+04  0.46999998093E+01 0.  1.
</event>
<event>
 5   0  0.3553585E-08  0.3500606E+04  0.7818609E-02  0.8113646E-01
        2   -1    0    0  501    0  0.00000000000E+00  0.00000000000E+00  0.19128355347E+04  0.19128355347E+04  0.25500000920E-02 0.  1.
       -2   -1    0    0    0  501  0.00000000000E+00  0.00000000000E+00 -0.16015805935E+04  0.16015805935E+04  0.25500000920E-02 0. -1.
    10030    2    1    2    0    0  0.00000000000E+00  0.00000000000E+00  0.31125494119E+03  0.35144161281E+04  0.35006058166E+04 0.  0.
        2    1    3    3  502    0  0.33298771610E+03  0.17170763015E+04  0.22167780272E+03  0.17630578244E+04  0.25500000920E-02 0.  1.
       -2    1    3    3    0  502 -0.33298771610E+03 -0.17170763015E+04  0.89577138473E+02  0.17513583037E+04  0.25500000920E-02 0. -1.
</event>
<event>
 5   0  0.3628017E-08  0.3501124E+04  0.7818609E-02  0.8113524E-01
       -2   -1    0    0    0  501  0.00000000000E+00  0.00000000000E+00  0.23857889454E+04  0.23857889454E+04  0.25500000920E-02 0. -1.
        2   -1    0    0  501    0  0.00000000000E+00  0.00000000000E+00 -0.12844667567E+04  0.12844667567E+04  0.25500000920E-02 0.  1.
    10030    2    1    2    0    0  0.00000000000E+00  0.00000000000E+00  0.11013221887E+04  0.36702557022E+04  0.35011235848E+04 0.  0.
        1    1    3    3  502    0 -0.38704475269E+03  0.18732517265E+03 -0.12282443702E+04  0.13013372330E+04  0.50400001928E-02 0.  1.
       -1    1    3    3    0  502  0.38704475269E+03 -0.18732517265E+03  0.23295665590E+04  0.23689184692E+04  0.50400001928E-02 0. -1.
</event>
<event>
 5   0  0.3700096E-08  0.3499917E+04  0.7818609E-02  0.8113810E-01
        2   -1    0    0  501    0  0.00000000000E+00  0.00000000000E+00  0.21213421067E+04  0.21213421067E+04  0.25500000920E-02 0.  1.
       -2   -1    0    0    0  501  0.00000000000E+00  0.00000000000E+00 -0.14435926768E+04  0.14435926768E+04  0.25500000920E-02 0. -1.
    10030    2    1    2    0    0  0.00000000000E+00  0.00000000000E+00  0.67774942995E+03  0.35649347835E+04  0.34999165306E+04 0.  0.
        4    1    3    3  502    0 -0.60973510761E+03  0.90431173348E+03 -0.10550493138E+04  0.15174608002E+04  0.12699999809E+01 0. -1.
       -4    1    3    3    0  502  0.60973510761E+03 -0.90431173348E+03  0.17327987438E+04  0.20474739833E+04  0.12699999809E+01 0.  1.
</event>
<event>
 5   0  0.3700096E-08  0.3500905E+04  0.7818609E-02  0.8113575E-01
        2   -1    0    0  501    0  0.00000000000E+00  0.00000000000E+00  0.20934199408E+04  0.20934199408E+04  0.25500000920E-02 0.  1.
       -2   -1    0    0    0  501  0.00000000000E+00  0.00000000000E+00 -0.14636742144E+04  0.14636742144E+04  0.25500000920E-02 0. -1.
    10030    2    1    2    0    0  0.00000000000E+00  0.00000000000E+00  0.62974572640E+03  0.35570941551E+04  0.35009054755E+04 0.  0.
        4    1    3    3  502    0 -0.12026107132E+04  0.88761055738E+03 -0.61076917880E+03  0.16146719889E+04  0.12699999809E+01 0. -1.
       -4    1    3    3    0  502  0.12026107132E+04 -0.88761055738E+03  0.12405149052E+04  0.19424221663E+04  0.12699999809E+01 0.  1.
</event>
<event>
 5   0  0.3554451E-08  0.3499663E+04  0.7818609E-02  0.8113870E-01
       -2   -1    0    0    0  501  0.00000000000E+00  0.00000000000E+00  0.11532162396E+04  0.11532162396E+04  0.25500000920E-02 0.  1.
        2   -1    0    0  501    0  0.00000000000E+00  0.00000000000E+00 -0.26551048758E+04  0.26551048758E+04  0.25500000920E-02 0. -1.
    10030    2    1    2    0    0  0.00000000000E+00  0.00000000000E+00 -0.15018886362E+04  0.38083211154E+04  0.34996628755E+04 0.  0.
        5    1    3    3  502    0  0.13693053971E+04  0.10833352673E+04 -0.87632514651E+03  0.19536070292E+04  0.46999998093E+01 0. -1.
       -5    1    3    3    0  502 -0.13693053971E+04 -0.10833352673E+04 -0.62556348972E+03  0.18547140862E+04  0.46999998093E+01 0.  1.
</event>
<event>
 5   0  0.1121462E-08  0.3499425E+04  0.7818609E-02  0.8113926E-01
       -1   -1    0    0    0  501  0.00000000000E+00  0.00000000000E+00  0.11909922628E+04  0.11909922628E+04  0.50400001928E-02 0.  1.
        1   -1    0    0  501    0  0.00000000000E+00  0.00000000000E+00 -0.25705401644E+04  0.25705401644E+04  0.50400001928E-02 0. -1.
    10030    2    1    2    0    0  0.00000000000E+00  0.00000000000E+00 -0.13795479016E+04  0.37615324273E+04  0.34994247797E+04 0.  0.
        4    1    3    3  502    0  0.13521772105E+04 -0.37274566522E+03  0.43459905112E+03  0.14684006564E+04  0.12699999809E+01 0. -1.
       -4    1    3    3    0  502 -0.13521772105E+04  0.37274566522E+03 -0.18141469527E+04  0.22931317709E+04  0.12699999809E+01 0.  1.
</event>
<event>
 5   0  0.3554451E-08  0.3500666E+04  0.7818609E-02  0.8113632E-01
       -2   -1    0    0    0  501  0.00000000000E+00  0.00000000000E+00  0.17075780551E+04  0.17075780551E+04  0.25500000920E-02 0. -1.
        2   -1    0    0  501    0  0.00000000000E+00  0.00000000000E+00 -0.17941583289E+04  0.17941583289E+04  0.25500000920E-02 0.  1.
    10030    2    1    2    0    0  0.00000000000E+00  0.00000000000E+00 -0.86580273829E+02  0.35017363841E+04  0.35006658738E+04 0.  0.
        5    1    3    3  502    0 -0.37088953074E+03 -0.15901675672E+02 -0.17543193932E+04  0.17931733131E+04  0.46999998093E+01 0.  1.
       -5    1    3    3    0  502  0.37088953074E+03  0.15901675672E+02  0.16677391194E+04  0.17085630710E+04  0.46999998093E+01 0. -1.
</event>
<event>
 5   0  0.3467834E-08  0.3499734E+04  0.7818609E-02  0.8113853E-01
       -2   -1    0    0    0  501  0.00000000000E+00  0.00000000000E+00  0.15555291461E+04  0.15555291461E+04  0.25500000920E-02 0. -1.
        2   -1    0    0  501    0  0.00000000000E+00  0.00000000000E+00 -0.19684838911E+04  0.19684838911E+04  0.25500000920E-02 0.  1.
    10030    2    1    2    0    0  0.00000000000E+00  0.00000000000E+00 -0.41295474503E+03  0.35240130373E+04  0.34997337421E+04 0.  0.
        3    1    3    3  502    0 -0.92416734671E+03  0.13269606847E+04  0.46683492619E+03  0.16831057014E+04  0.10100000352E+00 0. -1.
       -3    1    3    3    0  502  0.92416734671E+03 -0.13269606847E+04 -0.87978967122E+03  0.18409073359E+04  0.10100000352E+00 0.  1.
</event>
<event>
 5   0  0.1121462E-08  0.3496442E+04  0.7818609E-02  0.8114634E-01
        1   -1    0    0  501    0  0.00000000000E+00  0.00000000000E+00  0.24596464529E+04  0.24596464529E+04  0.50400001928E-02 0. -1.
       -1   -1    0    0    0  501  0.00000000000E+00  0.00000000000E+00 -0.12425677251E+04  0.12425677252E+04  0.50400001928E-02 0.  1.
    10030    2    1    2    0    0  0.00000000000E+00  0.00000000000E+00  0.12170787277E+04  0.37022141780E+04  0.34964423620E+04 0.  0.
        2    1    3    3  502    0  0.11036783355E+04 -0.63569722607E+03 -0.65945959797E+03  0.14342607130E+04  0.25500000920E-02 0.  1.
       -2    1    3    3    0  502 -0.11036783355E+04  0.63569722607E+03  0.18765383257E+04  0.22679534650E+04  0.25500000920E-02 0. -1.
</event>
<event>
 5   0  0.1121462E-08  0.3498263E+04  0.7818609E-02  0.8114202E-01
        1   -1    0    0  501    0  0.00000000000E+00  0.00000000000E+00  0.17171128964E+04  0.17171128964E+04  0.50400001928E-02 0.  1.
       -1   -1    0    0    0  501  0.00000000000E+00  0.00000000000E+00 -0.17817467112E+04  0.17817467112E+04  0.50400001928E-02 0. -1.
    10030    2    1    2    0    0  0.00000000000E+00  0.00000000000E+00 -0.64633814816E+02  0.34988596076E+04  0.34982625722E+04 0.  0.
        1    1    3    3  502    0 -0.15340054598E+04  0.88408596294E+02 -0.86820557023E+03  0.17648710273E+04  0.50400001928E-02 0. -1.
       -1    1    3    3    0  502  0.15340054598E+04 -0.88408596294E+02  0.80357175542E+03  0.17339885804E+04  0.50400001928E-02 0.  1.
</event>
<event>
 5   0  0.1129219E-08  0.3498690E+04  0.7818609E-02  0.8114101E-01
       -1   -1    0    0    0  501  0.00000000000E+00  0.00000000000E+00  0.22553846862E+04  0.22553846862E+04  0.50400001928E-02 0.  1.
        1   -1    0    0  501    0  0.00000000000E+00  0.00000000000E+00 -0.13568450401E+04  0.13568450401E+04  0.50400001928E-02 0. -1.
    10030    2    1    2    0    0  0.00000000000E+00  0.00000000000E+00  0.89853964619E+03  0.36122297263E+04  0.34986897690E+04 0.  0.
        5    1    3    3  502    0  0.54770281212E+02 -0.13874958832E+03  0.22487998968E+04  0.22537467244E+04  0.46999998093E+01 0.  1.
       -5    1    3    3    0  502 -0.54770281212E+02  0.13874958832E+03 -0.13502602506E+04  0.13584830019E+04  0.46999998093E+01 0. -1.
</event>
<event>
 5   0  0.1129219E-08  0.3500564E+04  0.7818609E-02  0.8113656E-01
        1   -1    0    0  501    0  0.00000000000E+00  0.00000000000E+00  0.13220928212E+04  0.13220928212E+04  0.50400001928E-02 0. -1.
       -1   -1    0    0    0  501  0.00000000000E+00  0.00000000000E+00 -0.23171502678E+04  0.23171502678E+04  0.50400001928E-02 0.  1.
    10030    2    1    2    0    0  0.00000000000E+00  0.00000000000E+00 -0.99505744664E+03  0.36392430890E+04  0.35005643744E+04 0.  0.
        5    1    3    3  502    0  0.19444615454E+03  0.13445966193E+04  0.64968953827E+03  0.15059442094E+04  0.46999998093E+01 0. -1.
       -5    1    3    3    0  502 -0.19444615454E+03 -0.13445966193E+04 -0.16447469849E+04  0.21332988797E+04  0.46999998093E+01 0.  1.
</event>
<event>
 5   0  0.3628017E-08  0.3500144E+04  0.7818609E-02  0.8113756E-01
        2   -1    0    0  501    0  0.00000000000E+00  0.00000000000E+00  0.12897013421E+04  0.12897013421E+04  0.25500000920E-02 0. -1.
       -2   -1    0    0    0  501  0.00000000000E+00  0.00000000000E+00 -0.23747759338E+04  0.23747759338E+04  0.25500000920E-02 0.  1.
    10030    2    1    2    0    0  0.00000000000E+00  0.00000000000E+00 -0.10850745917E+04  0.36644772760E+04  0.35001438308E+04 0.  0.
        1    1    3    3  502    0 -0.88924338912E+03 -0.93449512681E+03 -0.17807379568E+04  0.21988775814E+04  0.50400001928E-02 0. -1.
       -1    1    3    3    0  502  0.88924338912E+03  0.93449512681E+03  0.69566336512E+03  0.14655996946E+04  0.50400001928E-02 0.  1.
</event>
<event>
 5   0  0.3628017E-08  0.3499792E+04  0.7818609E-02  0.8113839E-01
        2   -1    0    0  501    0  0.00000000000E+00  0.00000000000E+00  0.17066843911E+04  0.17066843911E+04  0.25500000920E-02 0. -1.
       -2   -1    0    0    0  501  0.00000000000E+00  0.00000000000E+00 -0.17942014774E+04  0.17942014774E+04  0.25500000920E-02 0.  1.
    10030    2    1    2    0    0  0.00000000000E+00  0.00000000000E+00 -0.87517086341E+02  0.35008858685E+04  0.34997917972E+04 0.  0.
        1    1    3    3  502    0 -0.12067740730E+03 -0.13418724148E+04 -0.11607772464E+04  0.17783667872E+04  0.50400001928E-02 0.  1.
       -1    1    3    3    0  502  0.12067740730E+03  0.13418724148E+04  0.10732601600E+04  0.17225190813E+04  0.50400001928E-02 0. -1.
</event>
<event>
 5   0  0.1121462E-08  0.3493009E+04  0.7818609E-02  0.8115449E-01
       -1   -1    0    0    0  501  0.00000000000E+00  0.00000000000E+00  0.98727158699E+03  0.98727158700E+03  0.50400001928E-02 0. -1.
        1   -1    0    0  501    0  0.00000000000E+00  0.00000000000E+00 -0.30896032136E+04  0.30896032136E+04  0.50400001928E-02 0.  1.
    10030    2    1    2    0    0  0.00000000000E+00  0.00000000000E+00 -0.21023316266E+04  0.40768748006E+04  0.34930087134E+04 0.  0.
        1    1    3    3  502    0  0.64380408255E+03 -0.39305955828E+03  0.78734913124E+03  0.10903660704E+04  0.50400001928E-02 0. -1.
       -1    1    3    3    0  502 -0.64380408255E+03  0.39305955828E+03 -0.28896807579E+04  0.29865087302E+04  0.50400001928E-02 0.  1.
</event>
<event>
 5   0  0.3553585E-08  0.3505161E+04  0.7818609E-02  0.8112568E-01
        2   -1    0    0  501    0  0.00000000000E+00  0.00000000000E+00  0.21618580089E+04  0.21618580089E+04  0.25500000920E-02 0.  1.
       -2   -1    0    0    0  501  0.00000000000E+00  0.00000000000E+00 -0.14207863445E+04  0.14207863445E+04  0.25500000920E-02 0. -1.
    10030    2    1    2    0    0  0.00000000000E+00  0.00000000000E+00  0.74107166441E+03  0.35826443535E+04  0.35051609594E+04 0.  0.
        2    1    3    3  502    0  0.40222523314E+03  0.31629859130E+03  0.20838079902E+04  0.21457133260E+04  0.25500000920E-02 0.  1.
       -2    1    3    3    0  502 -0.40222523314E+03 -0.31629859130E+03 -0.13427363258E+04  0.14369310275E+04  0.25500000920E-02 0. -1.
</event>
<event>
 5   0  0.3554451E-08  0.3495583E+04  0.7818609E-02  0.8114838E-01
        2   -1    0    0  501    0  0.00000000000E+00  0.00000000000E+00  0.15358005992E+04  0.15358005992E+04  0.25500000920E-02 0. -1.
       -2   -1    0    0    0  501  0.00000000000E+00  0.00000000000E+00 -0.19890438403E+04  0.19890438403E+04  0.25500000920E-02 0.  1.
    10030    2    1    2    0    0  0.00000000000E+00  0.00000000000E+00 -0.45324324109E+03  0.35248444395E+04  0.34955827679E+04 0.  0.
        5    1    3    3  502    0 -0.15814867816E+04  0.57762734635E+03  0.24634507547E+03  0.17016056470E+04  0.46999998093E+01 0. -1.
       -5    1    3    3    0  502  0.15814867816E+04 -0.57762734635E+03 -0.69958831655E+03  0.18232387925E+04  0.46999998093E+01 0.  1.
</event>
<event>
 5   0  0.3554451E-08  0.3500338E+04  0.7818609E-02  0.8113710E-01
       -2   -1    0    0    0  501  0.00000000000E+00  0.00000000000E+00  0.20753812087E+04  0.20753812087E+04  0.25500000920E-02 0.  1.
        2   -1    0    0  501    0  0.00000000000E+00  0.00000000000E+00 -0.14759177879E+04  0.14759177879E+04  0.25500000920E-02 0. -1.
    10030    2    1    2    0    0  0.00000000000E+00  0.00000000000E+00  0.59946342081E+03  0.35512989965E+04  0.35003382936E+04 0.  0.
        5    1    3    3  502    0 -0.50479817336E+03 -0.16154678033E+04 -0.15230237637E+03  0.16993456161E+04  0.46999998093E+01 0. -1.
       -5    1    3    3    0  502  0.50479817336E+03  0.16154678033E+04  0.75176579717E+03  0.18519533804E+04  0.46999998093E+01 0.  1.
</event>
<event>
 5   0  0.1121462E-08  0.3501838E+04  0.7818609E-02  0.8113354E-01
        1   -1    0    0  501    0  0.00000000000E+00  0.00000000000E+00  0.15741030887E+04  0.15741030887E+04  0.50400001928E-02 0. -1.
       -1   -1    0    0    0  501  0.00000000000E+00  0.00000000000E+00 -0.19475968164E+04  0.19475968164E+04  0.50400001928E-02 0.  1.
    10030    2    1    2    0    0  0.00000000000E+00  0.00000000000E+00 -0.37349372762E+03  0.35216999051E+04  0.35018384682E+04 0.  0.
        1    1    3    3  502    0 -0.12957554876E+04  0.81249116719E+03 -0.10439862867E+04  0.18517644416E+04  0.50400001928E-02 0.  1.
       -1    1    3    3    0  502  0.12957554876E+04 -0.81249116719E+03  0.67049255913E+03  0.16699354635E+04  0.50400001928E-02 0. -1.
</event>
<event>
 5   0  0.1121462E-08  0.3498331E+04  0.7818609E-02  0.8114186E-01
        1   -1    0    0  501    0  0.00000000000E+00  0.00000000000E+00  0.12341986866E+04  0.12341986866E+04  0.50400001928E-02 0. -1.
       -1   -1    0    0    0  501  0.00000000000E+00  0.00000000000E+00 -0.24790009936E+04  0.24790009936E+04  0.50400001928E-02 0.  1.
    10030    2    1    2    0    0  0.00000000000E+00  0.00000000000E+00 -0.12448023071E+04  0.37131996802E+04  0.34983308994E+04 0.  0.
        4    1    3    3  502    0  0.37342857151E+01 -0.30465745241E+03  0.12058158805E+04  0.12437136563E+04  0.12699999809E+01 0. -1.
       -4    1    3    3    0  502 -0.37342857151E+01  0.30465745241E+03 -0.24506181876E+04  0.24694860239E+04  0.12699999809E+01 0.  1.
</event>
<event>
 5   0  0.3467834E-08  0.3499438E+04  0.7818609E-02  0.8113923E-01
       -2   -1    0    0    0  501  0.00000000000E+00  0.00000000000E+00  0.12139027505E+04  0.12139027505E+04  0.25500000920E-02 0.  1.
        2   -1    0    0  501    0  0.00000000000E+00  0.00000000000E+00 -0.25220449285E+04  0.25220449285E+04  0.25500000920E-02 0. -1.
    10030    2    1    2    0    0  0.00000000000E+00  0.00000000000E+00 -0.13081421780E+04  0.37359476790E+04  0.34994383981E+04 0.  0.
        3    1    3    3  502    0 -0.21393777008E+03 -0.17283145643E+04 -0.47328428150E+03  0.18046713341E+04  0.10100000352E+00 0.  1.
       -3    1    3    3    0  502  0.21393777008E+03  0.17283145643E+04 -0.83485789646E+03  0.19312763449E+04  0.10100000352E+00 0. -1.
</event>
<event>
 5   0  0.3628017E-08  0.3500552E+04  0.7818609E-02  0.8113659E-01
       -2   -1    0    0    0  501  0.00000000000E+00  0.00000000000E+00  0.11229136975E+04  0.11229136975E+04  0.25500000920E-02 0.  1.
        2   -1    0    0  501    0  0.00000000000E+00  0.00000000000E+00 -0.27281408085E+04  0.27281408085E+04  0.25500000920E-02 0. -1.
    10030    2    1    2    0    0  0.00000000000E+00  0.00000000000E+00 -0.16052271110E+04  0.38510545060E+04  0.35005523465E+04 0.  0.
        1    1    3    3  502    0  0.47951325045E+03 -0.44915500229E+03 -0.25873290530E+04  0.26694465347E+04  0.50400001928E-02 0. -1.
       -1    1    3    3    0  502 -0.47951325045E+03  0.44915500229E+03  0.98210194193E+03  0.11816079713E+04  0.50400001928E-02 0.  1.
</event>
<event>
 5   0  0.3554451E-08  0.3499051E+04  0.7818609E-02  0.8114015E-01
        2   -1    0    0  501    0  0.00000000000E+00  0.00000000000E+00  0.19609262785E+04  0.19609262785E+04  0.25500000920E-02 0.  1.
       -2   -1    0    0    0  501  0.00000000000E+00  0.00000000000E+00 -0.15609146969E+04  0.15609146969E+04  0.25500000920E-02 0. -1.
    10030    2    1    2    0    0  0.00000000000E+00  0.00000000000E+00  0.40001158164E+03  0.35218409754E+04  0.34990505270E+04 0.  0.
        5    1    3    3  502    0  0.15329372701E+04 -0.74450991611E+03  0.59834209326E+03  0.18061636249E+04  0.46999998093E+01 0.  1.
       -5    1    3    3    0  502 -0.15329372701E+04  0.74450991611E+03 -0.19833051162E+03  0.17156773505E+04  0.46999998093E+01 0. -1.
</event>
<event>
 5   0  0.1121462E-08  0.3499409E+04  0.7818609E-02  0.8113930E-01
       -1   -1    0    0    0  501  0.00000000000E+00  0.00000000000E+00  0.23295356274E+04  0.23295356274E+04  0.50400001928E-02 0.  1.
        1   -1    0    0  501    0  0.00000000000E+00  0.00000000000E+00 -0.13141953913E+04  0.13141953913E+04  0.50400001928E-02 0. -1.
    10030    2    1    2    0    0  0.00000000000E+00  0.00000000000E+00  0.10153402361E+04  0.36437310187E+04  0.34994085131E+04 0.  0.
        2    1    3    3  502    0  0.17069901368E+04  0.29782847149E+03  0.25486510192E+03  0.17514203795E+04  0.25500000920E-02 0.  1.
       -2    1    3    3    0  502 -0.17069901368E+04 -0.29782847149E+03  0.76047513419E+03  0.18923106392E+04  0.25500000920E-02 0. -1.
</event>
<event>
 5   0  0.3467834E-08  0.3504767E+04  0.7818609E-02  0.8112661E-01
       -2   -1    0    0    0  501  0.00000000000E+00  0.00000000000E+00  0.22414171799E+04  0.22414171799E+04  0.25500000920E-02 0.  1.
        2   -1    0    0  501    0  0.00000000000E+00  0.00000000000E+00 -0.13700478301E+04  0.13700478301E+04  0.25500000920E-02 0. -1.
    10030    2    1    2    0    0  0.00000000000E+00  0.00000000000E+00  0.87136934971E+03  0.36114650100E+04  0.35047674637E+04 0.  0.
        3    1    3    3  502    0  0.92926537691E+03 -0.10531965617E+03 -0.10913973241E+04  0.14372802440E+04  0.10100000352E+00 0. -1.
       -3    1    3    3    0  502 -0.92926537691E+03  0.10531965617E+03  0.19627666738E+04  0.21741847660E+04  0.10100000352E+00 0.  1.
</event>
<event>
 5   0  0.3700096E-08  0.3503232E+04  0.7818609E-02  0.8113024E-01
       -2   -1    0    0    0  501  0.00000000000E+00  0.00000000000E+00  0.14027429976E+04  0.14027429976E+04  0.25500000920E-02 0.  1.
        2   -1    0    0  501    0  0.00000000000E+00  0.00000000000E+00 -0.21872563644E+04  0.21872563644E+04  0.25500000920E-02 0. -1.
    10030    2    1    2    0    0  0.00000000000E+00  0.00000000000E+00 -0.78451336677E+03  0.35899993620E+04  0.35032319644E+04 0.  0.
        4    1    3    3  502    0 -0.70097853404E+02  0.72324180141E+03 -0.20255207217E+04  0.21519126886E+04  0.12699999809E+01 0. -1.
       -4    1    3    3    0  502  0.70097853404E+02 -0.72324180141E+03  0.12410073549E+04  0.14380866734E+04  0.12699999809E+01 0.  1.
</event>
<event>
 5   0  0.1121462E-08  0.3500380E+04  0.7818609E-02  0.8113700E-01
        3   -1    0    0  501    0  0.00000000000E+00  0.00000000000E+00  0.22352509315E+04  0.22352509338E+04  0.10100000352E+00 0.  1.
       -3   -1    0    0    0  501  0.00000000000E+00  0.00000000000E+00 -0.13703901557E+04  0.13703901595E+04  0.10100000352E+00 0. -1.
    10030    2    1    2    0    0  0.00000000000E+00  0.00000000000E+00  0.86486077574E+03  0.36056410932E+04  0.35003804838E+04 0.  0.
        5    1    3    3  502    0 -0.13045323515E+04 -0.11108824338E+04  0.64939797250E+02  0.17146730607E+04  0.46999998093E+01 0. -1.
       -5    1    3    3    0  502  0.13045323515E+04  0.11108824338E+04  0.79992097849E+03  0.18909680325E+04  0.46999998093E+01 0.  1.
</event>
<event>
 5   0  0.3467834E-08  0.3499855E+04  0.7818609E-02  0.8113824E-01
       -2   -1    0    0    0  501  0.00000000000E+00  0.00000000000E+00  0.10008238208E+04  0.10008238208E+04  0.25500000920E-02 0. -1.
        2   -1    0    0  501    0  0.00000000000E+00  0.00000000000E+00 -0.30597259621E+04  0.30597259621E+04  0.25500000920E-02 0.  1.
    10030    2    1    2    0    0  0.00000000000E+00  0.00000000000E+00 -0.20589021413E+04  0.40605497829E+04  0.34998552130E+04 0.  0.
        3    1    3    3  502    0 -0.98321402166E+03 -0.17251798780E+03 -0.26969908444E+04  0.28758010873E+04  0.10100000352E+00 0.  1.
       -3    1    3    3    0  502  0.98321402166E+03  0.17251798780E+03  0.63808870316E+03  0.11847486956E+04  0.10100000352E+00 0. -1.
</event>
<event>
 5   0  0.3700096E-08  0.3499619E+04  0.7818609E-02  0.8113880E-01
        2   -1    0    0  501    0  0.00000000000E+00  0.00000000000E+00  0.29033941425E+04  0.29033941425E+04  0.25500000920E-02 0.  1.
       -2   -1    0    0    0  501  0.00000000000E+00  0.00000000000E+00 -0.10545705982E+04  0.10545705982E+04  0.25500000920E-02 0. -1.
    10030    2    1    2    0    0  0.00000000000E+00  0.00000000000E+00  0.18488235443E+04  0.39579647407E+04  0.34996194637E+04 0.  0.
        4    1    3    3  502    0 -0.14819687198E+04  0.85694451412E+03  0.13341403754E+04  0.21703726272E+04  0.12699999809E+01 0.  1.
       -4    1    3    3    0  502  0.14819687198E+04 -0.85694451412E+03  0.51468316887E+03  0.17875921134E+04  0.12699999809E+01 0. -1.
</event>
<event>
 5   0  0.3628017E-08  0.3498970E+04  0.7818609E-02  0.8114034E-01
       -2   -1    0    0    0  501  0.00000000000E+00  0.00000000000E+00  0.17759728674E+04  0.17759728674E+04  0.25500000920E-02 0.  1.
        2   -1    0    0  501    0  0.00000000000E+00  0.00000000000E+00 -0.17233924926E+04  0.17233924926E+04  0.25500000920E-02 0. -1.
    10030    2    1    2    0    0  0.00000000000E+00  0.00000000000E+00  0.52580374780E+02  0.34993653600E+04  0.34989703096E+04 0.  0.
        1    1    3    3  502    0  0.12867852558E+04 -0.30854132727E+03  0.11708337722E+04  0.17668802357E+04  0.50400001928E-02 0.  1.
       -1    1    3    3    0  502 -0.12867852558E+04  0.30854132727E+03 -0.11182533974E+04  0.17324851243E+04  0.50400001928E-02 0. -1.
</event>
<event>
 5   0  0.1121462E-08  0.3499870E+04  0.7818609E-02  0.8113821E-01
       -1   -1    0    0    0  501  0.00000000000E+00  0.00000000000E+00  0.13525866163E+04  0.13525866163E+04  0.50400001928E-02 0. -1.
        1   -1    0    0  501    0  0.00000000000E+00  0.00000000000E+00 -0.22640127655E+04  0.22640127655E+04  0.50400001928E-02 0.  1.
    10030    2    1    2    0    0  0.00000000000E+00  0.00000000000E+00 -0.91142614913E+03  0.36165993818E+04  0.34998704923E+04 0.  0.
        4    1    3    3  502    0  0.84073271388E+03 -0.10515836066E+04 -0.16108568799E+04  0.20994096976E+04  0.12699999809E+01 0.  1.
       -4    1    3    3    0  502 -0.84073271388E+03  0.10515836066E+04  0.69943073079E+03  0.15171896842E+04  0.12699999809E+01 0. -1.
</event>
<event>
 5   0  0.3467834E-08  0.3499800E+04  0.7818609E-02  0.8113837E-01
       -2   -1    0    0    0  501  0.00000000000E+00  0.00000000000E+00  0.14374929136E+04  0.14374929136E+04  0.25500000920E-02 0.  1.
        2   -1    0    0  501    0  0.00000000000E+00  0.00000000000E+00 -0.21302023670E+04  0.21302023670E+04  0.25500000920E-02 0. -1.
    10030    2    1    2    0    0  0.00000000000E+00  0.00000000000E+00 -0.69270945345E+03  0.35676952806E+04  0.34998004555E+04 0.  0.
        3    1    3    3  502    0 -0.42319363849E+03  0.89646050674E+03 -0.18163475468E+04  0.20692638104E+04  0.10100000352E+00 0. -1.
       -3    1    3    3    0  502  0.42319363849E+03 -0.89646050674E+03  0.11236380934E+04  0.14984314702E+04  0.10100000352E+00 0.  1.
</event>
<event>
 5   0  0.3554451E-08  0.3504607E+04  0.7818609E-02  0.8112699E-01
       -2   -1    0    0    0  501  0.00000000000E+00  0.00000000000E+00  0.11464023425E+04  0.11464023425E+04  0.25500000920E-02 0. -1.
        2   -1    0    0  501    0  0.00000000000E+00  0.00000000000E+00 -0.26784374156E+04  0.26784374156E+04  0.25500000920E-02 0.  1.
    10030    2    1    2    0    0  0.00000000000E+00  0.00000000000E+00 -0.15320350731E+04  0.38248397582E+04  0.35046066413E+04 0.  0.
        5    1    3    3  502    0 -0.13850341235E+04 -0.64364511953E+02 -0.19354106140E+04  0.23808189029E+04  0.46999998093E+01 0.  1.
       -5    1    3    3    0  502  0.13850341235E+04  0.64364511953E+02  0.40337554088E+03  0.14440208553E+04  0.46999998093E+01 0. -1.
</event>
<event>
 5   0  0.1140808E-08  0.3500496E+04  0.7818609E-02  0.8113672E-01
       -1   -1    0    0    0  501  0.00000000000E+00  0.00000000000E+00  0.18980868776E+04  0.18980868777E+04  0.50400001928E-02 0.  1.
        1   -1    0    0  501    0  0.00000000000E+00  0.00000000000E+00 -0.16139238465E+04  0.16139238465E+04  0.50400001928E-02 0. -1.
    10030    2    1    2    0    0  0.00000000000E+00  0.00000000000E+00  0.28416303117E+03  0.35120107241E+04  0.35004957789E+04 0.  0.
        3    1    3    3  502    0 -0.67679289641E+03  0.95799776699E+03  0.14454157375E+04  0.18614604510E+04  0.10100000352E+00 0.  1.
       -3    1    3    3    0  502  0.67679289641E+03 -0.95799776699E+03 -0.11612527063E+04  0.16505502732E+04  0.10100000352E+00 0. -1.
</event>
<event>
 5   0  0.1121462E-08  0.3498996E+04  0.7818609E-02  0.8114028E-01
       -1   -1    0    0    0  501  0.00000000000E+00  0.00000000000E+00  0.30066259276E+04  0.30066259276E+04  0.50400001928E-02 0. -1.
        1   -1    0    0  501    0  0.00000000000E+00  0.00000000000E+00 -0.10179995570E+04  0.10179995570E+04  0.50400001928E-02 0.  1.
    10030    2    1    2    0    0  0.00000000000E+00  0.00000000000E+00  0.19886263706E+04  0.40246254846E+04  0.34989963489E+04 0.  0.
        4    1    3    3  502    0 -0.13475900540E+04  0.11058547653E+04  0.82437371268E+03  0.19283431611E+04  0.12699999809E+01 0.  1.
       -4    1    3    3    0  502  0.13475900540E+04 -0.11058547653E+04  0.11642526579E+04  0.20962823236E+04  0.12699999809E+01 0. -1.
</event>
<event>
 5   0  0.3700096E-08  0.3499943E+04  0.7818609E-02  0.8113803E-01
       -2   -1    0    0    0  501  0.00000000000E+00  0.00000000000E+00  0.11793733049E+04  0.11793733049E+04  0.25500000920E-02 0. -1.
        2   -1    0    0  501    0  0.00000000000E+00  0.00000000000E+00 -0.25966341326E+04  0.25966341327E+04  0.25500000920E-02 0.  1.
    10030    2    1    2    0    0  0.00000000000E+00  0.00000000000E+00 -0.14172608277E+04  0.37760074376E+04  0.34999434159E+04 0.  0.
        4    1    3    3  502    0  0.10459980125E+04 -0.87952138723E+03  0.47062163485E+03  0.14453913134E+04  0.12699999809E+01 0. -1.
       -4    1    3    3    0  502 -0.10459980125E+04  0.87952138723E+03 -0.18878824626E+04  0.23306161242E+04  0.12699999809E+01 0.  1.
</event>
<event>
 5   0  0.1140808E-08  0.3500571E+04  0.7818609E-02  0.8113655E-01
        1   -1    0    0  501    0  0.00000000000E+00  0.00000000000E+00  0.13822233108E+04  0.13822233108E+04  0.50400001928E-02 0.  1.
       -1   -1    0    0    0  501  0.00000000000E+00  0.00000000000E+00 -0.22163559867E+04  0.22163559867E+04  0.50400001928E-02 0. -1.
    10030    2    1    2    0    0  0.00000000000E+00  0.00000000000E+00 -0.83413267591E+03  0.35985792975E+04  0.35005707591E+04 0.  0.
        3    1    3    3  502    0  0.12330836638E+04 -0.10280100189E+04 -0.11338683861E+04  0.19654407770E+04  0.10100000352E+00 0. -1.
       -3    1    3    3    0  502 -0.12330836638E+04  0.10280100189E+04  0.29973571020E+03  0.16331385205E+04  0.10100000352E+00 0.  1.
</event>
<event>
 5   0  0.3554451E-08  0.3499995E+04  0.7818609E-02  0.8113791E-01
        2   -1    0    0  501    0  0.00000000000E+00  0.00000000000E+00  0.19503207350E+04  0.19503207350E+04  0.25500000920E-02 0. -1.
       -2   -1    0    0    0  501  0.00000000000E+00  0.00000000000E+00 -0.15702503128E+04  0.15702503128E+04  0.25500000920E-02 0.  1.
    10030    2    1    2    0    0  0.00000000000E+00  0.00000000000E+00  0.38007042228E+03  0.35205710478E+04  0.34999952824E+04 0.  0.
        5    1    3    3  502    0 -0.13087048023E+04  0.14565515536E+03  0.13494369501E+04  0.18854511015E+04  0.46999998093E+01 0. -1.
       -5    1    3    3    0  502  0.13087048023E+04 -0.14565515536E+03 -0.96936652780E+03  0.16351199464E+04  0.46999998093E+01 0.  1.
</event>
<event>
 5   0  0.3553585E-08  0.3502023E+04  0.7818609E-02  0.8113311E-01
       -2   -1    0    0    0  501  0.00000000000E+00  0.00000000000E+00  0.17446845417E+04  0.17446845417E+04  0.25500000920E-02 0. -1.
        2   -1    0    0  501    0  0.00000000000E+00  0.00000000000E+00 -0.17573617521E+04  0.17573617521E+04  0.25500000920E-02 0.  1.
    10030    2    1    2    0    0  0.00000000000E+00  0.00000000000E+00 -0.12677210409E+02  0.35020462937E+04  0.35020233482E+04 0.  0.
        2    1    3    3  502    0 -0.31675636343E+01  0.17499698494E+04  0.53972448626E+02  0.17508048242E+04  0.25500000920E-02 0.  1.
       -2    1    3    3    0  502  0.31675636343E+01 -0.17499698494E+04 -0.66649659035E+02  0.17512414695E+04  0.25500000920E-02 0. -1.
</event>
<event>
 5   0  0.3554451E-08  0.3507644E+04  0.7818609E-02  0.8111981E-01
       -2   -1    0    0    0  501  0.00000000000E+00  0.00000000000E+00  0.14352109980E+04  0.14352109980E+04  0.25500000920E-02 0. -1.
        2   -1    0    0  501    0  0.00000000000E+00  0.00000000000E+00 -0.21431628587E+04  0.21431628587E+04  0.25500000920E-02 0.  1.
    10030    2    1    2    0    0  0.00000000000E+00  0.00000000000E+00 -0.70795186070E+03  0.35783738567E+04  0.35076435995E+04 0.  0.
        5    1    3    3  502    0 -0.88606517648E+03  0.38205171430E+02 -0.18975283646E+04  0.20945660926E+04  0.46999998093E+01 0.  1.
       -5    1    3    3    0  502  0.88606517648E+03 -0.38205171430E+02  0.11895765039E+04  0.14838077641E+04  0.46999998093E+01 0. -1.
</event>
<event>
 5   0  0.1129219E-08  0.3524307E+04  0.7818609E-02  0.8108054E-01
       -1   -1    0    0    0  501  0.00000000000E+00  0.00000000000E+00  0.16049504670E+04  0.16049504670E+04  0.50400001928E-02 0.  1.
        1   -1    0    0  501    0  0.00000000000E+00  0.00000000000E+00 -0.19347540061E+04  0.19347540061E+04  0.50400001928E-02 0. -1.
    10030    2    1    2    0    0  0.00000000000E+00  0.00000000000E+00 -0.32980353905E+03  0.35397044731E+04  0.35243066527E+04 0.  0.
        5    1    3    3  502    0 -0.30271973757E+03  0.16747176025E+04  0.29408935019E+03  0.17270868314E+04  0.46999998093E+01 0. -1.
       -5    1    3    3    0  502  0.30271973757E+03 -0.16747176025E+04 -0.62389288924E+03  0.18126176416E+04  0.46999998093E+01 0.  1.
</event>
<event>
 5   0  0.1121462E-08  0.3501379E+04  0.7818609E-02  0.8113463E-01
        1   -1    0    0  501    0  0.00000000000E+00  0.00000000000E+00  0.15143541259E+04  0.15143541259E+04  0.50400001928E-02 0.  1.
       -1   -1    0    0    0  501  0.00000000000E+00  0.00000000000E+00 -0.20239078146E+04  0.20239078146E+04  0.50400001928E-02 0. -1.
    10030    2    1    2    0    0  0.00000000000E+00  0.00000000000E+00 -0.50955368875E+03  0.35382619405E+04  0.35013786710E+04 0.  0.
        4    1    3    3  502    0 -0.83561505604E+03 -0.53477061930E+03 -0.17124276021E+04  0.19790507933E+04  0.12699999809E+01 0.  1.
       -4    1    3    3    0  502  0.83561505604E+03  0.53477061930E+03  0.12028739134E+04  0.15592111472E+04  0.12699999809E+01 0. -1.
</event>
<event>
 5   0  0.3467834E-08  0.3503445E+04  0.7818609E-02  0.8112974E-01
        2   -1    0    0  501    0  0.00000000000E+00  0.00000000000E+00  0.17274632819E+04  0.17274632819E+04  0.25500000920E-02 0.  1.
       -2   -1    0    0    0  501  0.00000000000E+00  0.00000000000E+00 -0.17763225849E+04  0.17763225849E+04  0.25500000920E-02 0. -1.
    10030    2    1    2    0    0  0.00000000000E+00  0.00000000000E+00 -0.48859302996E+02  0.35037858669E+04  0.35034451857E+04 0.  0.
        3    1    3    3  502    0  0.19907564983E+03 -0.76713938937E+03  0.15378996081E+04  0.17301066938E+04  0.10100000352E+00 0.  1.
       -3    1    3    3    0  502 -0.19907564983E+03  0.76713938937E+03 -0.15867589111E+04  0.17736791731E+04  0.10100000352E+00 0. -1.
</event>
<event>
 5   0  0.1121462E-08  0.3500811E+04  0.7818609E-02  0.8113598E-01
        1   -1    0    0  501    0  0.00000000000E+00  0.00000000000E+00  0.25897732775E+04  0.25897732775E+04  0.50400001928E-02 0.  1.
       -1   -1    0    0    0  501  0.00000000000E+00  0.00000000000E+00 -0.11830843225E+04  0.11830843225E+04  0.50400001928E-02 0. -1.
    10030    2    1    2    0    0  0.00000000000E+00  0.00000000000E+00  0.14066889550E+04  0.37728576000E+04  0.35008114279E+04 0.  0.
        2    1    3    3  502    0 -0.10170084491E+03  0.15330662841E+04 -0.20044510898E+03  0.15494558835E+04  0.25500000920E-02 0.  1.
       -2    1    3    3    0  502  0.10170084491E+03 -0.15330662841E+04  0.16071340640E+04  0.22234017165E+04  0.25500000920E-02 0. -1.
</event>
<event>
 5   0  0.3700096E-08  0.3500597E+04  0.7818609E-02  0.8113649E-01
        2   -1    0    0  501    0  0.00000000000E+00  0.00000000000E+00  0.18151439501E+04  0.18151439501E+04  0.25500000920E-02 0. -1.
       -2   -1    0    0    0  501  0.00000000000E+00  0.00000000000E+00 -0.16877693554E+04  0.16877693554E+04  0.25500000920E-02 0.  1.
    10030    2    1    2    0    0  0.00000000000E+00  0.00000000000E+00  0.12737459467E+03  0.35029133054E+04  0.35005967117E+04 0.  0.
        4    1    3    3  502    0 -0.16153355143E+03 -0.40033361249E+02 -0.16798339570E+04  0.16880579061E+04  0.12699999809E+01 0.  1.
       -4    1    3    3    0  502  0.16153355143E+03  0.40033361249E+02  0.18072085517E+04  0.18148553993E+04  0.12699999809E+01 0. -1.
</event>
<event>
 5   0  0.1121462E-08  0.3500256E+04  0.7818609E-02  0.8113729E-01
       -1   -1    0    0    0  501  0.00000000000E+00  0.00000000000E+00  0.14564495117E+04  0.14564495117E+04  0.50400001928E-02 0.  1.
        1   -1    0    0  501    0  0.00000000000E+00  0.00000000000E+00 -0.21030241248E+04  0.21030241248E+04  0.50400001928E-02 0. -1.
    10030    2    1    2    0    0  0.00000000000E+00  0.00000000000E+00 -0.64657461311E+03  0.35594736365E+04  0.35002562533E+04 0.  0.
        4    1    3    3  502    0  0.59619667130E+03  0.15135159379E+04  0.33320859565E+03  0.16604850335E+04  0.12699999809E+01 0.  1.
       -4    1    3    3    0  502 -0.59619667130E+03 -0.15135159379E+04 -0.97978320876E+03  0.18989886030E+04  0.12699999809E+01 0. -1.
</event>
<event>
 5   0  0.1121462E-08  0.3500210E+04  0.7818609E-02  0.8113740E-01
       -1   -1    0    0    0  501  0.00000000000E+00  0.00000000000E+00  0.17167675961E+04  0.17167675961E+04  0.50400001928E-02 0.  1.
        1   -1    0    0  501    0  0.00000000000E+00  0.00000000000E+00 -0.17840901777E+04  0.17840901777E+04  0.50400001928E-02 0. -1.
    10030    2    1    2    0    0  0.00000000000E+00  0.00000000000E+00 -0.67322581569E+02  0.35008577738E+04  0.35002103969E+04 0.  0.
        1    1    3    3  502    0 -0.13809890393E+04 -0.51219818819E+03  0.91170689006E+03  0.17322491634E+04  0.50400001928E-02 0.  1.
       -1    1    3    3    0  502  0.13809890393E+04  0.51219818819E+03 -0.97902947163E+03  0.17686086104E+04  0.50400001928E-02 0. -1.
</event>
<event>
 5   0  0.1129219E-08  0.3500031E+04  0.7818609E-02  0.8113783E-01
       -1   -1    0    0    0  501  0.00000000000E+00  0.00000000000E+00  0.15188901487E+04  0.15188901487E+04  0.50400001928E-02 0.  1.
        1   -1    0    0  501    0  0.00000000000E+00  0.00000000000E+00 -0.20163109748E+04  0.20163109748E+04  0.50400001928E-02 0. -1.
    10030    2    1    2    0    0  0.00000000000E+00  0.00000000000E+00 -0.49742082614E+03  0.35352011235E+04  0.35000313578E+04 0.  0.
        5    1    3    3  502    0 -0.12505598684E+04  0.63876829521E+03 -0.13035259164E+04  0.19160184822E+04  0.46999998093E+01 0. -1.
       -5    1    3    3    0  502  0.12505598684E+04 -0.63876829521E+03  0.80610509022E+03  0.16191826413E+04  0.46999998093E+01 0.  1.
</event>
<event>
 5   0  0.1140808E-08  0.3500011E+04  0.7818609E-02  0.8113787E-01
       -1   -1    0    0    0  501  0.00000000000E+00  0.00000000000E+00  0.13738215215E+04  0.13738215215E+04  0.50400001928E-02 0.  1.
        1   -1    0    0  501    0  0.00000000000E+00  0.00000000000E+00 -0.22291975266E+04  0.22291975266E+04  0.50400001928E-02 0. -1.
    10030    2    1    2    0    0  0.00000000000E+00  0.00000000000E+00 -0.85537600508E+03  0.36030190481E+04  0.35000111644E+04 0.  0.
        3    1    3    3  502    0  0.15752736440E+04 -0.32600428186E+03 -0.11369901903E+04  0.19699016595E+04  0.10100000352E+00 0. -1.
       -3    1    3    3    0  502 -0.15752736440E+04  0.32600428186E+03  0.28161418518E+03  0.16331173885E+04  0.10100000352E+00 0.  1.
</event>
<event>
 5   0  0.3553585E-08  0.3504222E+04  0.7818609E-02  0.8112790E-01
       -2   -1    0    0    0  501  0.00000000000E+00  0.00000000000E+00  0.16281980386E+04  0.16281980386E+04  0.25500000920E-02 0.  1.
        2   -1    0    0  501    0  0.00000000000E+00  0.00000000000E+00 -0.18854539544E+04  0.18854539544E+04  0.25500000920E-02 0. -1.
    10030    2    1    2    0    0  0.00000000000E+00  0.00000000000E+00 -0.25725591579E+03  0.35136519930E+04  0.35042216999E+04 0.  0.
        2    1    3    3  502    0  0.17190894818E+04 -0.18663314888E+03 -0.41186264673E+03  0.17775633374E+04  0.25500000920E-02 0.  1.
       -2    1    3    3    0  502 -0.17190894818E+04  0.18663314888E+03  0.15460673094E+03  0.17360886556E+04  0.25500000920E-02 0. -1.
</event>
<event>
 5   0  0.1121462E-08  0.3493776E+04  0.7818609E-02  0.8115267E-01
        1   -1    0    0  501    0  0.00000000000E+00  0.00000000000E+00  0.10097576801E+04  0.10097576801E+04  0.50400001928E-02 0.  1.
       -1   -1    0    0    0  501  0.00000000000E+00  0.00000000000E+00 -0.30221284930E+04  0.30221284930E+04  0.50400001928E-02 0. -1.
    10030    2    1    2    0    0  0.00000000000E+00  0.00000000000E+00 -0.20123708129E+04  0.40318861731E+04  0.34937758692E+04 0.  0.
        4    1    3    3  502    0  0.20476694188E+03  0.55912481743E+03 -0.29014026159E+04  0.29618725182E+04  0.12699999809E+01 0. -1.
       -4    1    3    3    0  502 -0.20476694188E+03 -0.55912481743E+03  0.88903180296E+03  0.10700136548E+04  0.12699999809E+01 0.  1.
</event>
<event>
 5   0  0.3554451E-08  0.3498430E+04  0.7818609E-02  0.8114162E-01
       -2   -1    0    0    0  501  0.00000000000E+00  0.00000000000E+00  0.12040307326E+04  0.12040307326E+04  0.25500000920E-02 0.  1.
        2   -1    0    0  501    0  0.00000000000E+00  0.00000000000E+00 -0.25412587040E+04  0.25412587040E+04  0.25500000920E-02 0. -1.
    10030    2    1    2    0    0  0.00000000000E+00  0.00000000000E+00 -0.13372279715E+04  0.37452894366E+04  0.34984302646E+04 0.  0.
        5    1    3    3  502    0 -0.74766537814E+01  0.21915734194E+01  0.12040053966E+04  0.12040397786E+04  0.46999998093E+01 0.  1.
       -5    1    3    3    0  502  0.74766537814E+01 -0.21915734194E+01 -0.25412333681E+04  0.25412496580E+04  0.46999998093E+01 0. -1.
</event>
<event>
 5   0  0.3700096E-08  0.3496407E+04  0.7818609E-02  0.8114642E-01
        2   -1    0    0  501    0  0.00000000000E+00  0.00000000000E+00  0.19880006962E+04  0.19880006962E+04  0.25500000920E-02 0.  1.
       -2   -1    0    0    0  501  0.00000000000E+00  0.00000000000E+00 -0.15373312399E+04  0.15373312399E+04  0.25500000920E-02 0. -1.
    10030    2    1    2    0    0  0.00000000000E+00  0.00000000000E+00  0.45066945624E+03  0.35253319361E+04  0.34964070560E+04 0.  0.
        4    1    3    3  502    0  0.95440942206E+03  0.73981563146E+02  0.17002566057E+04  0.19512162245E+04  0.12699999809E+01 0.  1.
       -4    1    3    3    0  502 -0.95440942206E+03 -0.73981563146E+02 -0.12495871495E+04  0.15741157116E+04  0.12699999809E+01 0. -1.
</event>
<event>
 5   0  0.1121462E-08  0.3497793E+04  0.7818609E-02  0.8114313E-01
       -1   -1    0    0    0  501  0.00000000000E+00  0.00000000000E+00  0.26660704110E+04  0.26660704110E+04  0.50400001928E-02 0.  1.
        1   -1    0    0  501    0  0.00000000000E+00  0.00000000000E+00 -0.11472460633E+04  0.11472460633E+04  0.50400001928E-02 0. -1.
    10030    2    1    2    0    0  0.00000000000E+00  0.00000000000E+00  0.15188243477E+04  0.38133164742E+04  0.34977928946E+04 0.  0.
        1    1    3    3  502    0 -0.34661220026E+03  0.78472685440E+02 -0.11074660087E+04  0.11630902545E+04  0.50400001928E-02 0. -1.
       -1    1    3    3    0  502  0.34661220026E+03 -0.78472685440E+02  0.26262903564E+04  0.26502262197E+04  0.50400001928E-02 0.  1.
</event>
<event>
 5   0  0.3554451E-08  0.3498417E+04  0.7818609E-02  0.8114165E-01
        2   -1    0    0  501    0  0.00000000000E+00  0.00000000000E+00  0.20152952694E+04  0.20152952694E+04  0.25500000920E-02 0. -1.
       -2   -1    0    0    0  501  0.00000000000E+00  0.00000000000E+00 -0.15182543823E+04  0.15182543823E+04  0.25500000920E-02 0.  1.
    10030    2    1    2    0    0  0.00000000000E+00  0.00000000000E+00  0.49704088715E+03  0.35335496517E+04  0.34984172847E+04 0.  0.
        5    1    3    3  502    0 -0.52036532468E+03 -0.14181877810E+04 -0.64219268987E+03  0.16414841438E+04  0.46999998093E+01 0.  1.
       -5    1    3    3    0  502  0.52036532468E+03  0.14181877810E+04  0.11392335770E+04  0.18920655080E+04  0.46999998093E+01 0. -1.
</event>
<event>
 5   0  0.3628017E-08  0.3499352E+04  0.7818609E-02  0.8113943E-01
        2   -1    0    0  501    0  0.00000000000E+00  0.00000000000E+00  0.16515636232E+04  0.16515636232E+04  0.25500000920E-02 0. -1.
       -2   -1    0    0    0  501  0.00000000000E+00  0.00000000000E+00 -0.18536173389E+04  0.18536173389E+04  0.25500000920E-02 0.  1.
    10030    2    1    2    0    0  0.00000000000E+00  0.00000000000E+00 -0.20205371570E+03  0.35051809622E+04  0.34993524935E+04 0.  0.
        1    1    3    3  502    0  0.16834516588E+04 -0.35192519202E+03 -0.42328641757E+03  0.17711669090E+04  0.50400001928E-02 0.  1.
       -1    1    3    3    0  502 -0.16834516588E+04  0.35192519202E+03  0.22123270187E+03  0.17340140532E+04  0.50400001928E-02 0. -1.
</event>
<event>
 5   0  0.3467834E-08  0.3499891E+04  0.7818609E-02  0.8113816E-01
        2   -1    0    0  501    0  0.00000000000E+00  0.00000000000E+00  0.20149906177E+04  0.20149906177E+04  0.25500000920E-02 0. -1.
       -2   -1    0    0    0  501  0.00000000000E+00  0.00000000000E+00 -0.15197632789E+04  0.15197632789E+04  0.25500000920E-02 0.  1.
    10030    2    1    2    0    0  0.00000000000E+00  0.00000000000E+00  0.49522733880E+03  0.35347538967E+04  0.34998907116E+04 0.  0.
        3    1    3    3  502    0  0.14984367122E+04 -0.62598880361E+03 -0.41090441744E+03  0.16751170148E+04  0.10100000352E+00 0.  1.
       -3    1    3    3    0  502 -0.14984367122E+04  0.62598880361E+03  0.90613175623E+03  0.18596368819E+04  0.10100000352E+00 0. -1.
</event>
<event>
 5   0  0.1121462E-08  0.3500350E+04  0.7818609E-02  0.8113707E-01
       -1   -1    0    0    0  501  0.00000000000E+00  0.00000000000E+00  0.20233090077E+04  0.20233090077E+04  0.50400001928E-02 0.  1.
        1   -1    0    0  501    0  0.00000000000E+00  0.00000000000E+00 -0.15139125209E+04  0.15139125209E+04  0.50400001928E-02 0. -1.
    10030    2    1    2    0    0  0.00000000000E+00  0.00000000000E+00  0.50939648680E+03  0.35372215286E+04  0.35003501770E+04 0.  0.
        1    1    3    3  502    0 -0.12363846648E+04  0.50143601650E+03  0.13993378946E+04  0.19334507135E+04  0.50400001928E-02 0. -1.
       -1    1    3    3    0  502  0.12363846648E+04 -0.50143601650E+03 -0.88994140782E+03  0.16037708151E+04  0.50400001928E-02 0.  1.
</event>
<event>
 5   0  0.1121462E-08  0.3500116E+04  0.7818609E-02  0.8113763E-01
        1   -1    0    0  501    0  0.00000000000E+00  0.00000000000E+00  0.20974424881E+04  0.20974424881E+04  0.50400001928E-02 0. -1.
       -1   -1    0    0    0  501  0.00000000000E+00  0.00000000000E+00 -0.14602079215E+04  0.14602079215E+04  0.50400001928E-02 0.  1.
    10030    2    1    2    0    0  0.00000000000E+00  0.00000000000E+00  0.63723456663E+03  0.35576504097E+04  0.35001155044E+04 0.  0.
        2    1    3    3  502    0 -0.71318894240E+01 -0.75038205396E+03 -0.12883766769E+04  0.14909857653E+04  0.25500000920E-02 0.  1.
       -2    1    3    3    0  502  0.71318894240E+01  0.75038205396E+03  0.19256112436E+04  0.20666646443E+04  0.25500000920E-02 0. -1.
</event>
<event>
 5   0  0.3628017E-08  0.3502081E+04  0.7818609E-02  0.8113297E-01
        2   -1    0    0  501    0  0.00000000000E+00  0.00000000000E+00  0.25810316387E+04  0.25810316387E+04  0.25500000920E-02 0. -1.
       -2   -1    0    0    0  501  0.00000000000E+00  0.00000000000E+00 -0.11879527707E+04  0.11879527707E+04  0.25500000920E-02 0.  1.
    10030    2    1    2    0    0  0.00000000000E+00  0.00000000000E+00  0.13930788680E+04  0.37689844094E+04  0.35020814876E+04 0.  0.
        1    1    3    3  502    0 -0.79959728412E+03 -0.11156051219E+04 -0.47362252152E+03  0.14519810252E+04  0.50400001928E-02 0.  1.
       -1    1    3    3    0  502  0.79959728412E+03  0.11156051219E+04  0.18667013896E+04  0.23170033842E+04  0.50400001928E-02 0. -1.
</event>
<event>
 5   0  0.3467834E-08  0.3500307E+04  0.7818609E-02  0.8113717E-01
       -2   -1    0    0    0  501  0.00000000000E+00  0.00000000000E+00  0.97786170450E+03  0.97786170450E+03  0.25500000920E-02 0. -1.
        2   -1    0    0  501    0  0.00000000000E+00  0.00000000000E+00 -0.31323835044E+04  0.31323835044E+04  0.25500000920E-02 0.  1.
    10030    2    1    2    0    0  0.00000000000E+00  0.00000000000E+00 -0.21545217999E+04  0.41102452089E+04  0.35003073424E+04 0.  0.
        3    1    3    3  502    0  0.85266643723E+03  0.11432727221E+04  0.11385349764E+03  0.14307603571E+04  0.10100000352E+00 0. -1.
       -3    1    3    3    0  502 -0.85266643723E+03 -0.11432727221E+04 -0.22683752975E+04  0.26794848518E+04  0.10100000352E+00 0.  1.
</event>
<event>
 5   0  0.1129219E-08  0.3476152E+04  0.7818609E-02  0.8119465E-01
        1   -1    0    0  501    0  0.00000000000E+00  0.00000000000E+00  0.15043117858E+04  0.15043117858E+04  0.50400001928E-02 0. -1.
       -1   -1    0    0    0  501  0.00000000000E+00  0.00000000000E+00 -0.20081668377E+04  0.20081668377E+04  0.50400001928E-02 0.  1.
    10030    2    1    2    0    0  0.00000000000E+00  0.00000000000E+00 -0.50385505195E+03  0.35124786235E+04  0.34761524948E+04 0.  0.
        5    1    3    3  502    0 -0.41888570301E+03 -0.52706295427E+03 -0.18710540325E+04  0.19884983964E+04  0.46999998093E+01 0.  1.
       -5    1    3    3    0  502  0.41888570301E+03  0.52706295427E+03  0.13671989806E+04  0.15239802271E+04  0.46999998093E+01 0. -1.
</event>
<event>
 5   0  0.3467834E-08  0.3506473E+04  0.7818609E-02  0.8112258E-01
        2   -1    0    0  501    0  0.00000000000E+00  0.00000000000E+00  0.27503000187E+04  0.27503000187E+04  0.25500000920E-02 0. -1.
       -2   -1    0    0    0  501  0.00000000000E+00  0.00000000000E+00 -0.11176375417E+04  0.11176375417E+04  0.25500000920E-02 0.  1.
    10030    2    1    2    0    0  0.00000000000E+00  0.00000000000E+00  0.16326624771E+04  0.38679375604E+04  0.35064731865E+04 0.  0.
        3    1    3    3  502    0 -0.31896240774E+03 -0.20491936502E+03  0.27045437174E+04  0.27309862126E+04  0.10100000352E+00 0. -1.
       -3    1    3    3    0  502  0.31896240774E+03  0.20491936502E+03 -0.10718812404E+04  0.11369513478E+04  0.10100000352E+00 0.  1.
</event>
<event>
 5   0  0.1121462E-08  0.3490850E+04  0.7818609E-02  0.8115962E-01
        1   -1    0    0  501    0  0.00000000000E+00  0.00000000000E+00  0.16376285249E+04  0.16376285249E+04  0.50400001928E-02 0. -1.
       -1   -1    0    0    0  501  0.00000000000E+00  0.00000000000E+00 -0.18603171176E+04  0.18603171176E+04  0.50400001928E-02 0.  1.
    10030    2    1    2    0    0  0.00000000000E+00  0.00000000000E+00 -0.22268859265E+03  0.34979456425E+04  0.34908499694E+04 0.  0.
        4    1    3    3  502    0  0.16517727909E+04 -0.44564357230E+03  0.23512610570E+03  0.17269155871E+04  0.12699999809E+01 0. -1.
       -4    1    3    3    0  502 -0.16517727909E+04  0.44564357230E+03 -0.45781469835E+03  0.17710300555E+04  0.12699999809E+01 0.  1.
</event>
<event>
 5   0  0.1121462E-08  0.3501879E+04  0.7818609E-02  0.8113345E-01
       -1   -1    0    0    0  501  0.00000000000E+00  0.00000000000E+00  0.16036000046E+04  0.16036000046E+04  0.50400001928E-02 0.  1.
        1   -1    0    0  501    0  0.00000000000E+00  0.00000000000E+00 -0.19118162204E+04  0.19118162204E+04  0.50400001928E-02 0. -1.
    10030    2    1    2    0    0  0.00000000000E+00  0.00000000000E+00 -0.30821621573E+03  0.35154162250E+04  0.35018786386E+04 0.  0.
        4    1    3    3  502    0 -0.16348821746E+04  0.19363867887E+03 -0.75261019460E+03  0.18101821402E+04  0.12699999809E+01 0.  1.
       -4    1    3    3    0  502  0.16348821746E+04 -0.19363867887E+03  0.44439397888E+03  0.17052340848E+04  0.12699999809E+01 0. -1.
</event>
<event>
 5   0  0.3467834E-08  0.3498810E+04  0.7818609E-02  0.8114072E-01
       -2   -1    0    0    0  501  0.00000000000E+00  0.00000000000E+00  0.14311572481E+04  0.14311572481E+04  0.25500000920E-02 0.  1.
        2   -1    0    0  501    0  0.00000000000E+00  0.00000000000E+00 -0.21384216552E+04  0.21384216552E+04  0.25500000920E-02 0. -1.
    10030    2    1    2    0    0  0.00000000000E+00  0.00000000000E+00 -0.70726440706E+03  0.35695789033E+04  0.34988098841E+04 0.  0.
        3    1    3    3  502    0 -0.27063690544E+03  0.30497997941E+03  0.13820009961E+04  0.14408969032E+04  0.10100000352E+00 0.  1.
       -3    1    3    3    0  502  0.27063690544E+03 -0.30497997941E+03 -0.20892654031E+04  0.21286820000E+04  0.10100000352E+00 0. -1.
</event>
<event>
 5   0  0.1129219E-08  0.3499225E+04  0.7818609E-02  0.8113974E-01
       -1   -1    0    0    0  501  0.00000000000E+00  0.00000000000E+00  0.19256255751E+04  0.19256255751E+04  0.50400001928E-02 0.  1.
        1   -1    0    0  501    0  0.00000000000E+00  0.00000000000E+00 -0.15896881515E+04  0.15896881515E+04  0.50400001928E-02 0. -1.
    10030    2    1    2    0    0  0.00000000000E+00  0.00000000000E+00  0.33593742364E+03  0.35153137266E+04  0.34992251490E+04 0.  0.
        5    1    3    3  502    0 -0.94181363088E+03 -0.57615967338E+03 -0.11955295929E+04  0.16273555180E+04  0.46999998093E+01 0. -1.
       -5    1    3    3    0  502  0.94181363088E+03  0.57615967338E+03  0.15314670165E+04  0.18879582086E+04  0.46999998093E+01 0.  1.
</event>
<event>
 5   0  0.1121462E-08  0.3500303E+04  0.7818609E-02  0.8113718E-01
        1   -1    0    0  501    0  0.00000000000E+00  0.00000000000E+00  0.21253111937E+04  0.21253111937E+04  0.50400001928E-02 0.  1.
       -1   -1    0    0    0  501  0.00000000000E+00  0.00000000000E+00 -0.14412147393E+04  0.14412147393E+04  0.50400001928E-02 0. -1.
    10030    2    1    2    0    0  0.00000000000E+00  0.00000000000E+00  0.68409645443E+03  0.35665259330E+04  0.35003027400E+04 0.  0.
        1    1    3    3  502    0  0.11967638793E+04  0.10866065739E+04  0.10256148787E+04  0.19143780997E+04  0.50400001928E-02 0.  1.
       -1    1    3    3    0  502 -0.11967638793E+04 -0.10866065739E+04 -0.34151842425E+03  0.16521478333E+04  0.50400001928E-02 0. -1.
</event>
<event>
 5   0  0.1121462E-08  0.3498755E+04  0.7818609E-02  0.8114085E-01
        1   -1    0    0  501    0  0.00000000000E+00  0.00000000000E+00  0.24209215253E+04  0.24209215253E+04  0.50400001928E-02 0.  1.
       -1   -1    0    0    0  501  0.00000000000E+00  0.00000000000E+00 -0.12641145403E+04  0.12641145404E+04  0.50400001928E-02 0. -1.
    10030    2    1    2    0    0  0.00000000000E+00  0.00000000000E+00  0.11568069849E+04  0.36850360656E+04  0.34987552650E+04 0.  0.
        4    1    3    3  502    0 -0.81793484266E+02  0.67890291568E+03 -0.11175193216E+04  0.13101337298E+04  0.12699999809E+01 0. -1.
       -4    1    3    3    0  502  0.81793484266E+02 -0.67890291568E+03  0.22743263065E+04  0.23749023358E+04  0.12699999809E+01 0.  1.
</event>
<event>
 5   0  0.3553585E-08  0.3501114E+04  0.7818609E-02  0.8113526E-01
        2   -1    0    0  501    0  0.00000000000E+00  0.00000000000E+00  0.25818549940E+04  0.25818549940E+04  0.25500000920E-02 0. -1.
       -2   -1    0    0    0  501  0.00000000000E+00  0.00000000000E+00 -0.11869178240E+04  0.11869178240E+04  0.25500000920E-02 0.  1.
    10030    2    1    2    0    0  0.00000000000E+00  0.00000000000E+00  0.13949371700E+04  0.37687728180E+04  0.35011139435E+04 0.  0.
        2    1    3    3  502    0 -0.14092270747E+03 -0.78431468999E+03 -0.98035729629E+03  0.12633721427E+04  0.25500000920E-02 0.  1.
       -2    1    3    3    0  502  0.14092270747E+03  0.78431468999E+03  0.23752944663E+04  0.25054006753E+04  0.25500000920E-02 0. -1.
</event>
<event>
 5   0  0.3553585E-08  0.3497619E+04  0.7818609E-02  0.8114355E-01
        2   -1    0    0  501    0  0.00000000000E+00  0.00000000000E+00  0.13086916120E+04  0.13086916120E+04  0.25500000920E-02 0.  1.
       -2   -1    0    0    0  501  0.00000000000E+00  0.00000000000E+00 -0.23369401989E+04  0.23369401989E+04  0.25500000920E-02 0. -1.
    10030    2    1    2    0    0  0.00000000000E+00  0.00000000000E+00 -0.10282485870E+04  0.36456318109E+04  0.34976186390E+04 0.  0.
        2    1    3    3  502    0 -0.11397316266E+04 -0.38680009685E+03  0.80831905703E+03  0.14498214351E+04  0.25500000920E-02 0.  1.
       -2    1    3    3    0  502  0.11397316266E+04  0.38680009685E+03 -0.18365676440E+04  0.21958103758E+04  0.25500000920E-02 0. -1.
</event>
<event>
 5   0  0.3553585E-08  0.3499031E+04  0.7818609E-02  0.8114020E-01
       -2   -1    0    0    0  501  0.00000000000E+00  0.00000000000E+00  0.15225098455E+04  0.15225098455E+04  0.25500000920E-02 0. -1.
        2   -1    0    0  501    0  0.00000000000E+00  0.00000000000E+00 -0.20103674607E+04  0.20103674607E+04  0.25500000920E-02 0.  1.
    10030    2    1    2    0    0  0.00000000000E+00  0.00000000000E+00 -0.48785761521E+03  0.35328773062E+04  0.34990308669E+04 0.  0.
        2    1    3    3  502    0 -0.52957551964E+03 -0.62959461477E+03  0.13150158078E+04  0.15511628492E+04  0.25500000920E-02 0. -1.
       -2    1    3    3    0  502  0.52957551964E+03  0.62959461477E+03 -0.18028734230E+04  0.19817144570E+04  0.25500000920E-02 0.  1.
</event>
<event>
 5   0  0.1121462E-08  0.3500591E+04  0.7818609E-02  0.8113650E-01
        1   -1    0    0  501    0  0.00000000000E+00  0.00000000000E+00  0.11108408326E+04  0.11108408326E+04  0.50400001928E-02 0. -1.
       -1   -1    0    0    0  501  0.00000000000E+00  0.00000000000E+00 -0.27578517615E+04  0.27578517615E+04  0.50400001928E-02 0.  1.
    10030    2    1    2    0    0  0.00000000000E+00  0.00000000000E+00 -0.16470109290E+04  0.38686925941E+04  0.35005910055E+04 0.  0.
        2    1    3    3  502    0  0.14547221468E+04  0.62972736476E+03 -0.16436767214E+04  0.22835162016E+04  0.25500000920E-02 0. -1.
       -2    1    3    3    0  502 -0.14547221468E+04 -0.62972736476E+03 -0.33342075643E+01  0.15851763925E+04  0.25500000920E-02 0.  1.
</event>
<event>
 5   0  0.1121462E-08  0.3500352E+04  0.7818609E-02  0.8113707E-01
        1   -1    0    0  501    0  0.00000000000E+00  0.00000000000E+00  0.12089058830E+04  0.12089058830E+04  0.50400001928E-02 0. -1.
       -1   -1    0    0    0  501  0.00000000000E+00  0.00000000000E+00 -0.25337915265E+04  0.25337915265E+04  0.50400001928E-02 0.  1.
    10030    2    1    2    0    0  0.00000000000E+00  0.00000000000E+00 -0.13248856435E+04  0.37426974095E+04  0.35003516867E+04 0.  0.
        4    1    3    3  502    0  0.95575385970E+03 -0.30027377543E+03  0.87200546361E+03  0.13281659994E+04  0.12699999809E+01 0. -1.
       -4    1    3    3    0  502 -0.95575385970E+03  0.30027377543E+03 -0.21968911071E+04  0.24145314100E+04  0.12699999809E+01 0.  1.
</event>
<event>
 5   0  0.1140808E-08  0.3500582E+04  0.7818609E-02  0.8113652E-01
        1   -1    0    0  501    0  0.00000000000E+00  0.00000000000E+00  0.25165945690E+04  0.25165945690E+04  0.50400001928E-02 0. -1.
       -1   -1    0    0    0  501  0.00000000000E+00  0.00000000000E+00 -0.12173268810E+04  0.12173268810E+04  0.50400001928E-02 0.  1.
    10030    2    1    2    0    0  0.00000000000E+00  0.00000000000E+00  0.12992676879E+04  0.37339214500E+04  0.35005817902E+04 0.  0.
        3    1    3    3  502    0  0.27018066709E+03  0.28120295168E+03  0.24696669246E+04  0.25002654703E+04  0.10100000352E+00 0. -1.
       -3    1    3    3    0  502 -0.27018066709E+03 -0.28120295168E+03 -0.11703992367E+04  0.12336559798E+04  0.10100000352E+00 0.  1.
</event>
<event>
 5   0  0.3554451E-08  0.3495019E+04  0.7818609E-02  0.8114971E-01
       -2   -1    0    0    0  501  0.00000000000E+00  0.00000000000E+00  0.18603968184E+04  0.18603968184E+04  0.25500000920E-02 0. -1.
        2   -1    0    0  501    0  0.00000000000E+00  0.00000000000E+00 -0.16414724880E+04  0.16414724880E+04  0.25500000920E-02 0.  1.
    10030    2    1    2    0    0  0.00000000000E+00  0.00000000000E+00  0.21892433045E+03  0.35018693064E+04  0.34950194243E+04 0.  0.
        5    1    3    3  502    0 -0.60711823370E+03 -0.26371702674E+03 -0.15109981594E+04  0.16496292758E+04  0.46999998093E+01 0.  1.
       -5    1    3    3    0  502  0.60711823370E+03  0.26371702674E+03  0.17299224899E+04  0.18522400306E+04  0.46999998093E+01 0. -1.
</event>
<event>
 5   0  0.1121462E-08  0.3510372E+04  0.7818609E-02  0.8111336E-01
       -1   -1    0    0    0  501  0.00000000000E+00  0.00000000000E+00  0.17537179135E+04  0.17537179135E+04  0.50400001928E-02 0.  1.
        1   -1    0    0  501    0  0.00000000000E+00  0.00000000000E+00 -0.17566549113E+04  0.17566549113E+04  0.50400001928E-02 0. -1.
    10030    2    1    2    0    0  0.00000000000E+00  0.00000000000E+00 -0.29369978832E+01  0.35103728248E+04  0.35103715962E+04 0.  0.
        4    1    3    3  502    0  0.80930690151E+03 -0.35851041861E+03 -0.15171102112E+04  0.17564544932E+04  0.12699999809E+01 0. -1.
       -4    1    3    3    0  502 -0.80930690151E+03  0.35851041861E+03  0.15141732133E+04  0.17539183316E+04  0.12699999809E+01 0.  1.
</event>
<event>
 5   0  0.3554451E-08  0.3500083E+04  0.7818609E-02  0.8113770E-01
       -2   -1    0    0    0  501  0.00000000000E+00  0.00000000000E+00  0.18038649517E+04  0.18038649517E+04  0.25500000920E-02 0. -1.
        2   -1    0    0  501    0  0.00000000000E+00  0.00000000000E+00 -0.16978243187E+04  0.16978243187E+04  0.25500000920E-02 0.  1.
    10030    2    1    2    0    0  0.00000000000E+00  0.00000000000E+00  0.10604063299E+03  0.35016892704E+04  0.35000833034E+04 0.  0.
        5    1    3    3  502    0  0.40584004588E+03 -0.71904321252E+03  0.15967430227E+04  0.17975927388E+04  0.46999998093E+01 0. -1.
       -5    1    3    3    0  502 -0.40584004588E+03  0.71904321252E+03 -0.14907023897E+04  0.17040965316E+04  0.46999998093E+01 0.  1.
</event>
<event>
 5   0  0.1121462E-08  0.3498362E+04  0.7818609E-02  0.8114178E-01
       -1   -1    0    0    0  501  0.00000000000E+00  0.00000000000E+00  0.15470323946E+04  0.15470323946E+04  0.50400001928E-02 0.  1.
        1   -1    0    0  501    0  0.00000000000E+00  0.00000000000E+00 -0.19777443304E+04  0.19777443304E+04  0.50400001928E-02 0. -1.
    10030    2    1    2    0    0  0.00000000000E+00  0.00000000000E+00 -0.43071193582E+03  0.35247767249E+04  0.34983622152E+04 0.  0.
        4    1    3    3  502    0  0.25884178556E+03 -0.12616652628E+04  0.97714920860E+03  0.16166695686E+04  0.12699999809E+01 0.  1.
       -4    1    3    3    0  502 -0.25884178556E+03  0.12616652628E+04 -0.14078611444E+04  0.19081071563E+04  0.12699999809E+01 0. -1.
</event>
<event>
 5   0  0.1121462E-08  0.3498941E+04  0.7818609E-02  0.8114041E-01
        3   -1    0    0  501    0  0.00000000000E+00  0.00000000000E+00  0.13948230520E+04  0.13948230557E+04  0.10100000352E+00 0.  1.
       -3   -1    0    0    0  501  0.00000000000E+00  0.00000000000E+00 -0.21942900723E+04  0.21942900747E+04  0.10100000352E+00 0. -1.
    10030    2    1    2    0    0  0.00000000000E+00  0.00000000000E+00 -0.79946702033E+03  0.35891131303E+04  0.34989406319E+04 0.  0.
        4    1    3    3  502    0  0.75146612718E+03  0.44943279831E+03  0.11538796377E+04  0.14484926689E+04  0.12699999809E+01 0.  1.
       -4    1    3    3    0  502 -0.75146612718E+03 -0.44943279831E+03 -0.19533466581E+04  0.21406204614E+04  0.12699999809E+01 0. -1.
</event>
<event>
 5   0  0.1140808E-08  0.3492871E+04  0.7818609E-02  0.8115482E-01
       -1   -1    0    0    0  501  0.00000000000E+00  0.00000000000E+00  0.17847939237E+04  0.17847939237E+04  0.50400001928E-02 0.  1.
        1   -1    0    0  501    0  0.00000000000E+00  0.00000000000E+00 -0.17089012163E+04  0.17089012163E+04  0.50400001928E-02 0. -1.
    10030    2    1    2    0    0  0.00000000000E+00  0.00000000000E+00  0.75892707429E+02  0.34936951401E+04  0.34928707432E+04 0.  0.
        3    1    3    3  502    0  0.63216496019E+03 -0.56151771020E+03  0.15664110165E+04  0.17800500439E+04  0.10100000352E+00 0.  1.
       -3    1    3    3    0  502 -0.63216496019E+03  0.56151771020E+03 -0.14905183091E+04  0.17136450962E+04  0.10100000352E+00 0. -1.
</event>
<event>
 5   0  0.1140808E-08  0.3500569E+04  0.7818609E-02  0.8113655E-01
        1   -1    0    0  501    0  0.00000000000E+00  0.00000000000E+00  0.25146002945E+04  0.25146002945E+04  0.50400001928E-02 0.  1.
       -1   -1    0    0    0  501  0.00000000000E+00  0.00000000000E+00 -0.12182832755E+04  0.12182832755E+04  0.50400001928E-02 0. -1.
    10030    2    1    2    0    0  0.00000000000E+00  0.00000000000E+00  0.12963170191E+04  0.37328835700E+04  0.35005688014E+04 0.  0.
        3    1    3    3  502    0 -0.12157598498E+03 -0.94723436495E+02 -0.12110333302E+04  0.12208009611E+04  0.10100000352E+00 0. -1.
       -3    1    3    3    0  502  0.12157598498E+03  0.94723436495E+02  0.25073503493E+04  0.25120826089E+04  0.10100000352E+00 0.  1.
</event>
<event>
 5   0  0.3700096E-08  0.3512170E+04  0.7818609E-02  0.8110912E-01
        2   -1    0    0  501    0  0.00000000000E+00  0.00000000000E+00  0.13279461734E+04  0.13279461734E+04  0.25500000920E-02 0. -1.
       -2   -1    0    0    0  501  0.00000000000E+00  0.00000000000E+00 -0.23222581793E+04  0.23222581793E+04  0.25500000920E-02 0.  1.
    10030    2    1    2    0    0  0.00000000000E+00  0.00000000000E+00 -0.99431200597E+03  0.36502043527E+04  0.35121696216E+04 0.  0.
        4    1    3    3  502    0 -0.42553906924E+03 -0.18930466418E+03 -0.22568976611E+04  0.23044540397E+04  0.12699999809E+01 0.  1.
       -4    1    3    3    0  502  0.42553906924E+03  0.18930466418E+03  0.12625856552E+04  0.13457503130E+04  0.12699999809E+01 0. -1.
</event>
<event>
 5   0  0.3553585E-08  0.3501555E+04  0.7818609E-02  0.8113421E-01
       -2   -1    0    0    0  501  0.00000000000E+00  0.00000000000E+00  0.15842105745E+04  0.15842105745E+04  0.25500000920E-02 0. -1.
        2   -1    0    0  501    0  0.00000000000E+00  0.00000000000E+00 -0.19348580094E+04  0.19348580094E+04  0.25500000920E-02 0.  1.
    10030    2    1    2    0    0  0.00000000000E+00  0.00000000000E+00 -0.35064743486E+03  0.35190685839E+04  0.35015553793E+04 0.  0.
        2    1    3    3  502    0  0.13565688763E+04 -0.88944978237E+03 -0.83727002137E+03  0.18254920214E+04  0.25500000920E-02 0.  1.
       -2    1    3    3    0  502 -0.13565688763E+04  0.88944978237E+03  0.48662258650E+03  0.16935765625E+04  0.25500000920E-02 0. -1.
</event>
<event>
 5   0  0.1140808E-08  0.3498928E+04  0.7818609E-02  0.8114044E-01
        1   -1    0    0  501    0  0.00000000000E+00  0.00000000000E+00  0.17871918625E+04  0.17871918625E+04  0.50400001928E-02 0.  1.
       -1   -1    0    0    0  501  0.00000000000E+00  0.00000000000E+00 -0.17125329877E+04  0.17125329877E+04  0.50400001928E-02 0. -1.
    10030    2    1    2    0    0  0.00000000000E+00  0.00000000000E+00  0.74658874738E+02  0.34997248502E+04  0.34989284188E+04 0.  0.
        3    1    3    3  502    0 -0.12715220186E+04 -0.95934300273E+03  0.76103940973E+03  0.17653011737E+04  0.10100000352E+00 0.  1.
       -3    1    3    3    0  502  0.12715220186E+04  0.95934300273E+03 -0.68638053499E+03  0.17344236765E+04  0.10100000352E+00 0. -1.
</event>
<event>
 5   0  0.3467834E-08  0.3503389E+04  0.7818609E-02  0.8112987E-01
       -2   -1    0    0    0  501  0.00000000000E+00  0.00000000000E+00  0.11941496450E+04  0.11941496450E+04  0.25500000920E-02 0. -1.
        2   -1    0    0  501    0  0.00000000000E+00  0.00000000000E+00 -0.25695548664E+04  0.25695548664E+04  0.25500000920E-02 0.  1.
    10030    2    1    2    0    0  0.00000000000E+00  0.00000000000E+00 -0.13754052215E+04  0.37637045114E+04  0.35033886633E+04 0.  0.
        3    1    3    3  502    0 -0.16405073281E+04  0.30732111166E+03 -0.11647741341E+03  0.16731041681E+04  0.10100000352E+00 0. -1.
       -3    1    3    3    0  502  0.16405073281E+04 -0.30732111166E+03 -0.12589278081E+04  0.20906003433E+04  0.10100000352E+00 0.  1.
</event>
<event>
 5   0  0.1121462E-08  0.3498245E+04  0.7818609E-02  0.8114206E-01
       -1   -1    0    0    0  501  0.00000000000E+00  0.00000000000E+00  0.18526647838E+04  0.18526647838E+04  0.50400001928E-02 0.  1.
        1   -1    0    0  501    0  0.00000000000E+00  0.00000000000E+00 -0.16513670665E+04  0.16513670665E+04  0.50400001928E-02 0. -1.
    10030    2    1    2    0    0  0.00000000000E+00  0.00000000000E+00  0.20129771736E+03  0.35040318503E+04  0.34982450510E+04 0.  0.
        1    1    3    3  502    0  0.12397263909E+04 -0.68501144805E+03  0.11286347119E+04  0.18110710977E+04  0.50400001928E-02 0.  1.
       -1    1    3    3    0  502 -0.12397263909E+04  0.68501144805E+03 -0.92733699455E+03  0.16929607525E+04  0.50400001928E-02 0. -1.
</event>
<event>
 5   0  0.1121462E-08  0.3499837E+04  0.7818609E-02  0.8113829E-01
       -1   -1    0    0    0  501  0.00000000000E+00  0.00000000000E+00  0.14456676168E+04  0.14456676168E+04  0.50400001928E-02 0.  1.
        1   -1    0    0  501    0  0.00000000000E+00  0.00000000000E+00 -0.21182008633E+04  0.21182008633E+04  0.50400001928E-02 0. -1.
    10030    2    1    2    0    0  0.00000000000E+00  0.00000000000E+00 -0.67253324646E+03  0.35638684801E+04  0.34998367927E+04 0.  0.
        4    1    3    3  502    0 -0.76344140564E+03 -0.82740320925E+03  0.10279355985E+04  0.15244973132E+04  0.12699999809E+01 0.  1.
       -4    1    3    3    0  502  0.76344140564E+03  0.82740320925E+03 -0.17004688450E+04  0.20393711668E+04  0.12699999809E+01 0. -1.
</event>
<event>
 5   0  0.1129219E-08  0.3500815E+04  0.7818609E-02  0.8113597E-01
       -1   -1    0    0    0  501  0.00000000000E+00  0.00000000000E+00  0.17159900722E+04  0.17159900722E+04  0.50400001928E-02 0. -1.
        1   -1    0    0  501    0  0.00000000000E+00  0.00000000000E+00 -0.17855151332E+04  0.17855151332E+04  0.50400001928E-02 0.  1.
    10030    2    1    2    0    0  0.00000000000E+00  0.00000000000E+00 -0.69525060979E+02  0.35015052055E+04  0.35008149008E+04 0.  0.
        5    1    3    3  502    0 -0.66083908099E+02  0.82924862660E+03  0.15056332862E+04  0.17201668669E+04  0.46999998093E+01 0. -1.
       -5    1    3    3    0  502  0.66083908099E+02 -0.82924862660E+03 -0.15751583472E+04  0.17813383385E+04  0.46999998093E+01 0.  1.
</event>
<event>
 5   0  0.3467834E-08  0.3500739E+04  0.7818609E-02  0.8113615E-01
        2   -1    0    0  501    0  0.00000000000E+00  0.00000000000E+00  0.26507065957E+04  0.26507065957E+04  0.25500000920E-02 0. -1.
       -2   -1    0    0    0  501  0.00000000000E+00  0.00000000000E+00 -0.11558400207E+04  0.11558400207E+04  0.25500000920E-02 0.  1.
    10030    2    1    2    0    0  0.00000000000E+00  0.00000000000E+00  0.14948665751E+04  0.38065466164E+04  0.35007386457E+04 0.  0.
        3    1    3    3  502    0  0.37304052366E+02 -0.16716498324E+04  0.13103305530E+04  0.21243283463E+04  0.10100000352E+00 0. -1.
       -3    1    3    3    0  502 -0.37304052366E+02  0.16716498324E+04  0.18453602203E+03  0.16822182701E+04  0.10100000352E+00 0.  1.
</event>
<event>
 5   0  0.1121462E-08  0.3503864E+04  0.7818609E-02  0.8112875E-01
        1   -1    0    0  501    0  0.00000000000E+00  0.00000000000E+00  0.11877051454E+04  0.11877051454E+04  0.50400001928E-02 0.  1.
       -1   -1    0    0    0  501  0.00000000000E+00  0.00000000000E+00 -0.25841980075E+04  0.25841980075E+04  0.50400001928E-02 0. -1.
    10030    2    1    2    0    0  0.00000000000E+00  0.00000000000E+00 -0.13964928621E+04  0.37719031529E+04  0.35038637361E+04 0.  0.
        1    1    3    3  502    0  0.13993695491E+03  0.12681315030E+04 -0.19907283494E+04  0.23644744070E+04  0.50400001928E-02 0. -1.
       -1    1    3    3    0  502 -0.13993695491E+03 -0.12681315030E+04  0.59423548733E+03  0.14074287459E+04  0.50400001928E-02 0.  1.
</event>
<event>
 5   0  0.3628017E-08  0.3500891E+04  0.7818609E-02  0.8113579E-01
       -2   -1    0    0    0  501  0.00000000000E+00  0.00000000000E+00  0.13628750928E+04  0.13628750928E+04  0.25500000920E-02 0.  1.
        2   -1    0    0  501    0  0.00000000000E+00  0.00000000000E+00 -0.22482318926E+04  0.22482318926E+04  0.25500000920E-02 0. -1.
    10030    2    1    2    0    0  0.00000000000E+00  0.00000000000E+00 -0.88535679976E+03  0.36111069855E+04  0.35008908863E+04 0.  0.
        1    1    3    3  502    0 -0.14508767994E+04  0.94069047534E+03 -0.72349401802E+03  0.18744027453E+04  0.50400001928E-02 0. -1.
       -1    1    3    3    0  502  0.14508767994E+04 -0.94069047534E+03 -0.16186278174E+03  0.17367042401E+04  0.50400001928E-02 0.  1.
</event>
<event>
 5   0  0.1121462E-08  0.3500206E+04  0.7818609E-02  0.8113741E-01
       -1   -1    0    0    0  501  0.00000000000E+00  0.00000000000E+00  0.12623155709E+04  0.12623155709E+04  0.50400001928E-02 0. -1.
        1   -1    0    0  501    0  0.00000000000E+00  0.00000000000E+00 -0.24263832623E+04  0.24263832623E+04  0.50400001928E-02 0.  1.
    10030    2    1    2    0    0  0.00000000000E+00  0.00000000000E+00 -0.11640676914E+04  0.36886988332E+04  0.35002064927E+04 0.  0.
        4    1    3    3  502    0 -0.85090387169E+03 -0.68747116750E+03 -0.20216917116E+04  0.22986720068E+04  0.12699999809E+01 0.  1.
       -4    1    3    3    0  502  0.85090387169E+03  0.68747116750E+03  0.85762402027E+03  0.13900268264E+04  0.12699999809E+01 0. -1.
</event>
<event>
 5   0  0.1129219E-08  0.3500026E+04  0.7818609E-02  0.8113784E-01
       -1   -1    0    0    0  501  0.00000000000E+00  0.00000000000E+00  0.20064807039E+04  0.20064807039E+04  0.50400001928E-02 0.  1.
        1   -1    0    0  501    0  0.00000000000E+00  0.00000000000E+00 -0.15263269897E+04  0.15263269897E+04  0.50400001928E-02 0. -1.
    10030    2    1    2    0    0  0.00000000000E+00  0.00000000000E+00  0.48015371415E+03  0.35328076936E+04  0.35000260872E+04 0.  0.
        5    1    3    3  502    0 -0.33099357174E+03 -0.16682482968E+04 -0.17599070524E+03  0.17098549478E+04  0.46999998093E+01 0.  1.
       -5    1    3    3    0  502  0.33099357174E+03  0.16682482968E+04  0.65614441938E+03  0.18229527458E+04  0.46999998093E+01 0. -1.
</event>
<event>
 5   0  0.1121462E-08  0.3500375E+04  0.7818609E-02  0.8113701E-01
       -1   -1    0    0    0  501  0.00000000000E+00  0.00000000000E+00  0.26386451244E+04  0.26386451244E+04  0.50400001928E-02 0.  1.
        1   -1    0    0  501    0  0.00000000000E+00  0.00000000000E+00 -0.11608820395E+04  0.11608820395E+04  0.50400001928E-02 0. -1.
    10030    2    1    2    0    0  0.00000000000E+00  0.00000000000E+00  0.14777630848E+04  0.37995271639E+04  0.35003746849E+04 0.  0.
        2    1    3    3  502    0 -0.37385260409E+03  0.14921013597E+04  0.16451121549E+04  0.22522269511E+04  0.25500000920E-02 0.  1.
       -2    1    3    3    0  502  0.37385260409E+03 -0.14921013597E+04 -0.16734907008E+03  0.15473002128E+04  0.25500000920E-02 0. -1.
</event>
<event>
 5   0  0.1121462E-08  0.3500307E+04  0.7818609E-02  0.8113717E-01
        1   -1    0    0  501    0  0.00000000000E+00  0.00000000000E+00  0.14853721112E+04  0.14853721112E+04  0.50400001928E-02 0. -1.
       -1   -1    0    0    0  501  0.00000000000E+00  0.00000000000E+00 -0.20621351097E+04  0.20621351097E+04  0.50400001928E-02 0.  1.
    10030    2    1    2    0    0  0.00000000000E+00  0.00000000000E+00 -0.57676299854E+03  0.35475072209E+04  0.35003074045E+04 0.  0.
        4    1    3    3  502    0  0.14168022968E+04  0.84927210010E+03 -0.87449151631E+03  0.18690449093E+04  0.12699999809E+01 0. -1.
       -4    1    3    3    0  502 -0.14168022968E+04 -0.84927210010E+03  0.29772851777E+03  0.16784623115E+04  0.12699999809E+01 0.  1.
</event>
<event>
 5   0  0.1129219E-08  0.3499966E+04  0.7818609E-02  0.8113798E-01
        1   -1    0    0  501    0  0.00000000000E+00  0.00000000000E+00  0.21993016058E+04  0.21993016059E+04  0.50400001928E-02 0. -1.
       -1   -1    0    0    0  501  0.00000000000E+00  0.00000000000E+00 -0.13924606533E+04  0.13924606533E+04  0.50400001928E-02 0.  1.
    10030    2    1    2    0    0  0.00000000000E+00  0.00000000000E+00  0.80684095257E+03  0.35917622591E+04  0.34999662575E+04 0.  0.
        5    1    3    3  502    0  0.10432508884E+04 -0.79714839164E+03 -0.78390361376E+03  0.15291647851E+04  0.46999998093E+01 0.  1.
       -5    1    3    3    0  502 -0.10432508884E+04  0.79714839164E+03  0.15907445663E+04  0.20625974740E+04  0.46999998093E+01 0. -1.
</event>
<event>
 5   0  0.3553585E-08  0.3494964E+04  0.7818609E-02  0.8114984E-01
       -2   -1    0    0    0  501  0.00000000000E+00  0.00000000000E+00  0.19216932318E+04  0.19216932318E+04  0.25500000920E-02 0. -1.
        2   -1    0    0  501    0  0.00000000000E+00  0.00000000000E+00 -0.15890638091E+04  0.15890638091E+04  0.25500000920E-02 0.  1.
    10030    2    1    2    0    0  0.00000000000E+00  0.00000000000E+00  0.33262942275E+03  0.35107570409E+04  0.34949639007E+04 0.  0.
        2    1    3    3  502    0 -0.32136152263E+02  0.14512008918E+04 -0.81105495898E+03  0.16627768663E+04  0.25500000920E-02 0.  1.
       -2    1    3    3    0  502  0.32136152263E+02 -0.14512008918E+04  0.11436843817E+04  0.18479801746E+04  0.25500000920E-02 0. -1.
</event>
<event>
 5   0  0.1121462E-08  0.3502774E+04  0.7818609E-02  0.8113133E-01
       -1   -1    0    0    0  501  0.00000000000E+00  0.00000000000E+00  0.14740395973E+04  0.14740395973E+04  0.50400001928E-02 0.  1.
        1   -1    0    0  501    0  0.00000000000E+00  0.00000000000E+00 -0.20809180628E+04  0.20809180628E+04  0.50400001928E-02 0. -1.
    10030    2    1    2    0    0  0.00000000000E+00  0.00000000000E+00 -0.60687846550E+03  0.35549576602E+04  0.35027735430E+04 0.  0.
        1    1    3    3  502    0 -0.58716666284E+03 -0.45228266882E+03  0.13070318672E+04  0.15025500339E+04  0.50400001928E-02 0.  1.
       -1    1    3    3    0  502  0.58716666284E+03  0.45228266882E+03 -0.19139103327E+04  0.20524076262E+04  0.50400001928E-02 0. -1.
</event>
<event>
 5   0  0.1121462E-08  0.3502247E+04  0.7818609E-02  0.8113258E-01
       -1   -1    0    0    0  501  0.00000000000E+00  0.00000000000E+00  0.28140142740E+04  0.28140142740E+04  0.50400001928E-02 0. -1.
        1   -1    0    0  501    0  0.00000000000E+00  0.00000000000E+00 -0.10897008306E+04  0.10897008306E+04  0.50400001928E-02 0.  1.
    10030    2    1    2    0    0  0.00000000000E+00  0.00000000000E+00  0.17243134434E+04  0.39037151046E+04  0.35022471025E+04 0.  0.
        1    1    3    3  502    0 -0.13967645626E+04 -0.20314777954E+03  0.20174084287E+04  0.24621448032E+04  0.50400001928E-02 0. -1.
       -1    1    3    3    0  502  0.13967645626E+04  0.20314777954E+03 -0.29309498529E+03  0.14415703014E+04  0.50400001928E-02 0.  1.
</event>
<event>
 5   0  0.1121462E-08  0.3501076E+04  0.7818609E-02  0.8113535E-01
       -1   -1    0    0    0  501  0.00000000000E+00  0.00000000000E+00  0.12736081426E+04  0.12736081426E+04  0.50400001928E-02 0.  1.
        1   -1    0    0  501    0  0.00000000000E+00  0.00000000000E+00 -0.24060647404E+04  0.24060647404E+04  0.50400001928E-02 0. -1.
    10030    2    1    2    0    0  0.00000000000E+00  0.00000000000E+00 -0.11324565978E+04  0.36796728830E+04  0.35010762032E+04 0.  0.
        1    1    3    3  502    0 -0.66121956897E+03  0.15245571145E+04 -0.11446649491E+04  0.20178561791E+04  0.50400001928E-02 0.  1.
       -1    1    3    3    0  502  0.66121956897E+03 -0.15245571145E+04  0.12208351343E+02  0.16618167040E+04  0.50400001928E-02 0. -1.
</event>
<event>
 5   0  0.3700096E-08  0.3505373E+04  0.7818609E-02  0.8112518E-01
       -2   -1    0    0    0  501  0.00000000000E+00  0.00000000000E+00  0.10500161585E+04  0.10500161585E+04  0.25500000920E-02 0.  1.
        2   -1    0    0  501    0  0.00000000000E+00  0.00000000000E+00 -0.29255842826E+04  0.29255842826E+04  0.25500000920E-02 0. -1.
    10030    2    1    2    0    0  0.00000000000E+00  0.00000000000E+00 -0.18755681241E+04  0.39756004411E+04  0.35053734579E+04 0.  0.
        4    1    3    3  502    0  0.16047259368E+04  0.62319150883E+03 -0.56438312713E+03  0.18116409456E+04  0.12699999809E+01 0. -1.
       -4    1    3    3    0  502 -0.16047259368E+04 -0.62319150883E+03 -0.13111849970E+04  0.21639594955E+04  0.12699999809E+01 0.  1.
</event>
<event>
 5   0  0.1140808E-08  0.3490987E+04  0.7818609E-02  0.8115929E-01
       -1   -1    0    0    0  501  0.00000000000E+00  0.00000000000E+00  0.17035272450E+04  0.17035272450E+04  0.50400001928E-02 0. -1.
        1   -1    0    0  501    0  0.00000000000E+00  0.00000000000E+00 -0.17884939883E+04  0.17884939883E+04  0.50400001928E-02 0.  1.
    10030    2    1    2    0    0  0.00000000000E+00  0.00000000000E+00 -0.84966743272E+02  0.34920212333E+04  0.34909873884E+04 0.  0.
        3    1    3    3  502    0 -0.10786953733E+04 -0.68353551019E+03 -0.12327701031E+04  0.17749722925E+04  0.10100000352E+00 0.  1.
       -3    1    3    3    0  502  0.10786953733E+04  0.68353551019E+03  0.11478033598E+04  0.17170489408E+04  0.10100000352E+00 0. -1.
</event>
<event>
 5   0  0.3700096E-08  0.3489547E+04  0.7818609E-02  0.8116272E-01
        2   -1    0    0  501    0  0.00000000000E+00  0.00000000000E+00  0.26812896851E+04  0.26812896851E+04  0.25500000920E-02 0. -1.
       -2   -1    0    0    0  501  0.00000000000E+00  0.00000000000E+00 -0.11353623437E+04  0.11353623437E+04  0.25500000920E-02 0.  1.
    10030    2    1    2    0    0  0.00000000000E+00  0.00000000000E+00  0.15459273413E+04  0.38166520288E+04  0.34895474441E+04 0.  0.
        4    1    3    3  502    0  0.35930192414E+03 -0.16679371939E+04  0.11720228936E+04  0.20699641619E+04  0.12699999809E+01 0.  1.
       -4    1    3    3    0  502 -0.35930192414E+03  0.16679371939E+04  0.37390444772E+03  0.17466878669E+04  0.12699999809E+01 0. -1.
</event>
<event>
 5   0  0.3467834E-08  0.3499170E+04  0.7818609E-02  0.8113987E-01
        2   -1    0    0  501    0  0.00000000000E+00  0.00000000000E+00  0.19016513796E+04  0.19016513796E+04  0.25500000920E-02 0.  1.
       -2   -1    0    0    0  501  0.00000000000E+00  0.00000000000E+00 -0.16096791335E+04  0.16096791336E+04  0.25500000920E-02 0. -1.
    10030    2    1    2    0    0  0.00000000000E+00  0.00000000000E+00  0.29197224607E+03  0.35113305132E+04  0.34991704989E+04 0.  0.
        3    1    3    3  502    0 -0.67384232661E+03 -0.29180931046E+03 -0.14475602810E+04  0.16231595523E+04  0.10100000352E+00 0. -1.
       -3    1    3    3    0  502  0.67384232661E+03  0.29180931046E+03  0.17395325270E+04  0.18881709609E+04  0.10100000352E+00 0.  1.
</event>
<event>
 5   0  0.3628017E-08  0.3499743E+04  0.7818609E-02  0.8113851E-01
       -2   -1    0    0    0  501  0.00000000000E+00  0.00000000000E+00  0.17474025731E+04  0.17474025731E+04  0.25500000920E-02 0. -1.
        2   -1    0    0  501    0  0.00000000000E+00  0.00000000000E+00 -0.17523443673E+04  0.17523443673E+04  0.25500000920E-02 0.  1.
    10030    2    1    2    0    0  0.00000000000E+00  0.00000000000E+00 -0.49417941663E+01  0.34997469405E+04  0.34997434514E+04 0.  0.
        1    1    3    3  502    0  0.12504130473E+03 -0.49025319972E+03  0.16726628658E+04  0.17475081088E+04  0.50400001928E-02 0. -1.
       -1    1    3    3    0  502 -0.12504130473E+03  0.49025319972E+03 -0.16776046600E+04  0.17522388316E+04  0.50400001928E-02 0.  1.
</event>
<event>
 5   0  0.3700096E-08  0.3500117E+04  0.7818609E-02  0.8113762E-01
        2   -1    0    0  501    0  0.00000000000E+00  0.00000000000E+00  0.19944954825E+04  0.19944954825E+04  0.25500000920E-02 0.  1.
       -2   -1    0    0    0  501  0.00000000000E+00  0.00000000000E+00 -0.15355790663E+04  0.15355790663E+04  0.25500000920E-02 0. -1.
    10030    2    1    2    0    0  0.00000000000E+00  0.00000000000E+00  0.45891641619E+03  0.35300745487E+04  0.35001174327E+04 0.  0.
        4    1    3    3  502    0 -0.28364538834E+02 -0.11786427402E+04  0.15338569556E+04  0.19346115964E+04  0.12699999809E+01 0.  1.
       -4    1    3    3    0  502  0.28364538834E+02  0.11786427402E+04 -0.10749405394E+04  0.15954629523E+04  0.12699999809E+01 0. -1.
</event>
<event>
 5   0  0.1140808E-08  0.3500822E+04  0.7818609E-02  0.8113595E-01
       -1   -1    0    0    0  501  0.00000000000E+00  0.00000000000E+00  0.12062256990E+04  0.12062256990E+04  0.50400001928E-02 0. -1.
        1   -1    0    0  501    0  0.00000000000E+00  0.00000000000E+00 -0.25401038293E+04  0.25401038293E+04  0.50400001928E-02 0.  1.
    10030    2    1    2    0    0  0.00000000000E+00  0.00000000000E+00 -0.13338781303E+04  0.37463295283E+04  0.35008219132E+04 0.  0.
        3    1    3    3  502    0  0.13451877188E+04 -0.59414403805E+03  0.34906410613E+03  0.15114175125E+04  0.10100000352E+00 0. -1.
       -3    1    3    3    0  502 -0.13451877188E+04  0.59414403805E+03 -0.16829422364E+04  0.22349120157E+04  0.10100000352E+00 0.  1.
</event>
<event>
 5   0  0.3467834E-08  0.3500767E+04  0.7818609E-02  0.8113608E-01
       -2   -1    0    0    0  501  0.00000000000E+00  0.00000000000E+00  0.15267282280E+04  0.15267282280E+04  0.25500000920E-02 0.  1.
        2   -1    0    0  501    0  0.00000000000E+00  0.00000000000E+00 -0.20068026888E+04  0.20068026888E+04  0.25500000920E-02 0. -1.
    10030    2    1    2    0    0  0.00000000000E+00  0.00000000000E+00 -0.48007446081E+03  0.35335309167E+04  0.35007669519E+04 0.  0.
        3    1    3    3  502    0 -0.11924698575E+04  0.36628267092E+03  0.99933692226E+03  0.15983809466E+04  0.10100000352E+00 0.  1.
       -3    1    3    3    0  502  0.11924698575E+04 -0.36628267092E+03 -0.14794113831E+04  0.19351499701E+04  0.10100000352E+00 0. -1.
</event>
<event>
 5   0  0.1140808E-08  0.3506700E+04  0.7818609E-02  0.8112204E-01
       -1   -1    0    0    0  501  0.00000000000E+00  0.00000000000E+00  0.14664392216E+04  0.14664392216E+04  0.50400001928E-02 0. -1.
        1   -1    0    0  501    0  0.00000000000E+00  0.00000000000E+00 -0.20963950993E+04  0.20963950993E+04  0.50400001928E-02 0.  1.
    10030    2    1    2    0    0  0.00000000000E+00  0.00000000000E+00 -0.62995587767E+03  0.35628343209E+04  0.35066998718E+04 0.  0.
        3    1    3    3  502    0  0.91308662274E+03  0.72670242868E+03 -0.16445173334E+04  0.20164971784E+04  0.10100000352E+00 0.  1.
       -3    1    3    3    0  502 -0.91308662274E+03 -0.72670242868E+03  0.10145614558E+04  0.15463371425E+04  0.10100000352E+00 0. -1.
</event>
<event>
 5   0  0.3700096E-08  0.3506615E+04  0.7818609E-02  0.8112224E-01
       -2   -1    0    0    0  501  0.00000000000E+00  0.00000000000E+00  0.13081123064E+04  0.13081123064E+04  0.25500000920E-02 0.  1.
        2   -1    0    0  501    0  0.00000000000E+00  0.00000000000E+00 -0.23500178391E+04  0.23500178391E+04  0.25500000920E-02 0. -1.
    10030    2    1    2    0    0  0.00000000000E+00  0.00000000000E+00 -0.10419055328E+04  0.36581301455E+04  0.35066150376E+04 0.  0.
        4    1    3    3  502    0  0.30057920188E+03 -0.38678897547E+03  0.12352760709E+04  0.13288574613E+04  0.12699999809E+01 0.  1.
       -4    1    3    3    0  502 -0.30057920188E+03  0.38678897547E+03 -0.22771816037E+04  0.23292726842E+04  0.12699999809E+01 0. -1.
</event>
<event>
 5   0  0.3553585E-08  0.3503229E+04  0.7818609E-02  0.8113025E-01
       -2   -1    0    0    0  501  0.00000000000E+00  0.00000000000E+00  0.12192183840E+04  0.12192183840E+04  0.25500000920E-02 0.  1.
        2   -1    0    0  501    0  0.00000000000E+00  0.00000000000E+00 -0.25164916319E+04  0.25164916319E+04  0.25500000920E-02 0. -1.
    10030    2    1    2    0    0  0.00000000000E+00  0.00000000000E+00 -0.12972732479E+04  0.37357100160E+04  0.35032287170E+04 0.  0.
        2    1    3    3  502    0  0.92545723845E+03 -0.85299696099E+03  0.65043477175E+03  0.14167357933E+04  0.25500000920E-02 0.  1.
       -2    1    3    3    0  502 -0.92545723845E+03  0.85299696099E+03 -0.19477080196E+04  0.23189742227E+04  0.25500000920E-02 0. -1.
</event>
<event>
 5   0  0.3628017E-08  0.3500914E+04  0.7818609E-02  0.8113573E-01
       -2   -1    0    0    0  501  0.00000000000E+00  0.00000000000E+00  0.13777395224E+04  0.13777395224E+04  0.25500000920E-02 0.  1.
        2   -1    0    0  501    0  0.00000000000E+00  0.00000000000E+00 -0.22240045719E+04  0.22240045719E+04  0.25500000920E-02 0. -1.
    10030    2    1    2    0    0  0.00000000000E+00  0.00000000000E+00 -0.84626504952E+03  0.36017440943E+04  0.35009135932E+04 0.  0.
        1    1    3    3  502    0  0.28573821558E+03  0.12916459636E+04 -0.16024920686E+04  0.20779741223E+04  0.50400001928E-02 0. -1.
       -1    1    3    3    0  502 -0.28573821558E+03 -0.12916459636E+04  0.75622701907E+03  0.15237699720E+04  0.50400001928E-02 0.  1.
</event>
<event>
 5   0  0.3467834E-08  0.3516463E+04  0.7818609E-02  0.8109899E-01
       -2   -1    0    0    0  501  0.00000000000E+00  0.00000000000E+00  0.18548429069E+04  0.18548429069E+04  0.25500000920E-02 0.  1.
        2   -1    0    0  501    0  0.00000000000E+00  0.00000000000E+00 -0.16666523327E+04  0.16666523327E+04  0.25500000920E-02 0. -1.
    10030    2    1    2    0    0  0.00000000000E+00  0.00000000000E+00  0.18819057420E+03  0.35214952397E+04  0.35164631422E+04 0.  0.
        3    1    3    3  502    0 -0.89522083505E+03 -0.12986212850E+04 -0.68389523005E+03  0.17191713938E+04  0.10100000352E+00 0. -1.
       -3    1    3    3    0  502  0.89522083505E+03  0.12986212850E+04  0.87208580425E+03  0.18023238459E+04  0.10100000352E+00 0.  1.
</event>
<event>
 5   0  0.3553585E-08  0.3500143E+04  0.7818609E-02  0.8113756E-01
        2   -1    0    0  501    0  0.00000000000E+00  0.00000000000E+00  0.24720375491E+04  0.24720375491E+04  0.25500000920E-02 0. -1.
       -2   -1    0    0    0  501  0.00000000000E+00  0.00000000000E+00 -0.12389578097E+04  0.12389578097E+04  0.25500000920E-02 0.  1.
    10030    2    1    2    0    0  0.00000000000E+00  0.00000000000E+00  0.12330797394E+04  0.37109953587E+04  0.35001429840E+04 0.  0.
        2    1    3    3  502    0  0.22575578328E+03 -0.14288684958E+04 -0.42774074072E+03  0.15085068754E+04  0.25500000920E-02 0.  1.
       -2    1    3    3    0  502 -0.22575578328E+03  0.14288684958E+04  0.16608204801E+04  0.22024884833E+04  0.25500000920E-02 0. -1.
</event>
<event>
 5   0  0.1121462E-08  0.3499905E+04  0.7818609E-02  0.8113813E-01
        1   -1    0    0  501    0  0.00000000000E+00  0.00000000000E+00  0.20625957766E+04  0.20625957766E+04  0.50400001928E-02 0. -1.
       -1   -1    0    0    0  501  0.00000000000E+00  0.00000000000E+00 -0.14846987667E+04  0.14846987667E+04  0.50400001928E-02 0.  1.
    10030    2    1    2    0    0  0.00000000000E+00  0.00000000000E+00  0.57789700983E+03  0.35472945433E+04  0.34999048020E+04 0.  0.
        4    1    3    3  502    0  0.10737106589E+04  0.11550737972E+03 -0.11066987839E+04  0.15462795171E+04  0.12699999809E+01 0.  1.
       -4    1    3    3    0  502 -0.10737106589E+04 -0.11550737972E+03  0.16845957937E+04  0.20010150262E+04  0.12699999809E+01 0. -1.
</event>
<event>
 5   0  0.1121462E-08  0.3500895E+04  0.7818609E-02  0.8113578E-01
        1   -1    0    0  501    0  0.00000000000E+00  0.00000000000E+00  0.23903570943E+04  0.23903570943E+04  0.50400001928E-02 0. -1.
       -1   -1    0    0    0  501  0.00000000000E+00  0.00000000000E+00 -0.12818445158E+04  0.12818445158E+04  0.50400001928E-02 0.  1.
    10030    2    1    2    0    0  0.00000000000E+00  0.00000000000E+00  0.11085125786E+04  0.36722016101E+04  0.35008948182E+04 0.  0.
        2    1    3    3  502    0 -0.10880628660E+04  0.12128934418E+04 -0.11662987169E+03  0.16335831257E+04  0.25500000920E-02 0.  1.
       -2    1    3    3    0  502  0.10880628660E+04 -0.12128934418E+04  0.12251424503E+04  0.20386184844E+04  0.25500000920E-02 0. -1.
</event>
<event>
 5   0  0.1121462E-08  0.3503344E+04  0.7818609E-02  0.8112998E-01
        1   -1    0    0  501    0  0.00000000000E+00  0.00000000000E+00  0.22763070615E+04  0.22763070615E+04  0.50400001928E-02 0. -1.
       -1   -1    0    0    0  501  0.00000000000E+00  0.00000000000E+00 -0.13479530454E+04  0.13479530454E+04  0.50400001928E-02 0.  1.
    10030    2    1    2    0    0  0.00000000000E+00  0.00000000000E+00  0.92835401607E+03  0.36242601069E+04  0.35033441371E+04 0.  0.
        4    1    3    3  502    0 -0.25662709304E+03 -0.89801605353E+03 -0.10688823410E+04  0.14194369902E+04  0.12699999809E+01 0.  1.
       -4    1    3    3    0  502  0.25662709304E+03  0.89801605353E+03  0.19972363570E+04  0.22048231167E+04  0.12699999809E+01 0. -1.
</event>
<event>
 5   0  0.1129219E-08  0.3499859E+04  0.7818609E-02  0.8113823E-01
       -1   -1    0    0    0  501  0.00000000000E+00  0.00000000000E+00  0.12005464246E+04  0.12005464246E+04  0.50400001928E-02 0.  1.
        1   -1    0    0  501    0  0.00000000000E+00  0.00000000000E+00 -0.25507161238E+04  0.25507161238E+04  0.50400001928E-02 0. -1.
    10030    2    1    2    0    0  0.00000000000E+00  0.00000000000E+00 -0.13501696992E+04  0.37512625484E+04  0.34998589244E+04 0.  0.
        5    1    3    3  502    0 -0.17352928952E+04  0.17784042160E+03 -0.52594065656E+03  0.18219506886E+04  0.46999998093E+01 0. -1.
       -5    1    3    3    0  502  0.17352928952E+04 -0.17784042160E+03 -0.82422904264E+03  0.19293118598E+04  0.46999998093E+01 0.  1.
</event>
<event>
 5   0  0.1129219E-08  0.3499514E+04  0.7818609E-02  0.8113905E-01
       -1   -1    0    0    0  501  0.00000000000E+00  0.00000000000E+00  0.12751303537E+04  0.12751303537E+04  0.50400001928E-02 0. -1.
        1   -1    0    0  501    0  0.00000000000E+00  0.00000000000E+00 -0.24010486345E+04  0.24010486345E+04  0.50400001928E-02 0.  1.
    10030    2    1    2    0    0  0.00000000000E+00  0.00000000000E+00 -0.11259182809E+04  0.36761789882E+04  0.34995142489E+04 0.  0.
        5    1    3    3  502    0  0.61554757547E+03  0.12847171773E+04  0.50431823193E+03  0.15112101152E+04  0.46999998093E+01 0. -1.
       -5    1    3    3    0  502 -0.61554757547E+03 -0.12847171773E+04 -0.16302365128E+04  0.21649688730E+04  0.46999998093E+01 0.  1.
</event>
<event>
 5   0  0.3467834E-08  0.3500130E+04  0.7818609E-02  0.8113759E-01
        2   -1    0    0  501    0  0.00000000000E+00  0.00000000000E+00  0.19882686578E+04  0.19882686578E+04  0.25500000920E-02 0. -1.
       -2   -1    0    0    0  501  0.00000000000E+00  0.00000000000E+00 -0.15403994904E+04  0.15403994904E+04  0.25500000920E-02 0.  1.
    10030    2    1    2    0    0  0.00000000000E+00  0.00000000000E+00  0.44786916745E+03  0.35286681482E+04  0.35001302989E+04 0.  0.
        3    1    3    3  502    0 -0.45470085207E+03  0.49634362604E+03  0.18525370492E+04  0.19710411941E+04  0.10100000352E+00 0. -1.
       -3    1    3    3    0  502  0.45470085207E+03 -0.49634362604E+03 -0.14046678818E+04  0.15576269541E+04  0.10100000352E+00 0.  1.
</event>
<event>
 5   0  0.3467834E-08  0.3501864E+04  0.7818609E-02  0.8113348E-01
        2   -1    0    0  501    0  0.00000000000E+00  0.00000000000E+00  0.24491434179E+04  0.24491434179E+04  0.25500000920E-02 0.  1.
       -2   -1    0    0    0  501  0.00000000000E+00  0.00000000000E+00 -0.12517690788E+04  0.12517690788E+04  0.25500000920E-02 0. -1.
    10030    2    1    2    0    0  0.00000000000E+00  0.00000000000E+00  0.11973743391E+04  0.37009124967E+04  0.35018635039E+04 0.  0.
        3    1    3    3  502    0  0.11859406357E+04 -0.10895665249E+04 -0.12750293956E+03  0.16155084070E+04  0.10100000352E+00 0.  1.
       -3    1    3    3    0  502 -0.11859406357E+04  0.10895665249E+04  0.13248772786E+04  0.20854040896E+04  0.10100000352E+00 0. -1.
</event>
<event>
 5   0  0.1121462E-08  0.3500583E+04  0.7818609E-02  0.8113652E-01
        3   -1    0    0  501    0  0.00000000000E+00  0.00000000000E+00  0.33033729567E+04  0.33033729583E+04  0.10100000352E+00 0. -1.
       -3   -1    0    0    0  501  0.00000000000E+00  0.00000000000E+00 -0.92739148761E+03  0.92739149311E+03  0.10100000352E+00 0.  1.
    10030    2    1    2    0    0  0.00000000000E+00  0.00000000000E+00  0.23759814691E+04  0.42307644514E+04  0.35005827946E+04 0.  0.
        4    1    3    3  502    0 -0.26939514446E+03  0.28018791389E+03 -0.87457091262E+03  0.95705533019E+03  0.12699999809E+01 0.  1.
       -4    1    3    3    0  502  0.26939514446E+03 -0.28018791389E+03  0.32505523817E+04  0.32737091212E+04  0.12699999809E+01 0. -1.
</event>
<event>
 5   0  0.3628017E-08  0.3500381E+04  0.7818609E-02  0.8113700E-01
        2   -1    0    0  501    0  0.00000000000E+00  0.00000000000E+00  0.19101137659E+04  0.19101137659E+04  0.25500000920E-02 0.  1.
       -2   -1    0    0    0  501  0.00000000000E+00  0.00000000000E+00 -0.16036570677E+04  0.16036570677E+04  0.25500000920E-02 0. -1.
    10030    2    1    2    0    0  0.00000000000E+00  0.00000000000E+00  0.30645669824E+03  0.35137708336E+04  0.35003813740E+04 0.  0.
        1    1    3    3  502    0 -0.13680099139E+04  0.10347626029E+04 -0.19592776819E+03  0.17264334505E+04  0.50400001928E-02 0.  1.
       -1    1    3    3    0  502  0.13680099139E+04 -0.10347626029E+04  0.50238446643E+03  0.17873373831E+04  0.50400001928E-02 0. -1.
</event>
<event>
 5   0  0.1121462E-08  0.3493806E+04  0.7818609E-02  0.8115259E-01
       -1   -1    0    0    0  501  0.00000000000E+00  0.00000000000E+00  0.16789891110E+04  0.16789891110E+04  0.50400001928E-02 0. -1.
        1   -1    0    0  501    0  0.00000000000E+00  0.00000000000E+00 -0.18175640023E+04  0.18175640023E+04  0.50400001928E-02 0.  1.
    10030    2    1    2    0    0  0.00000000000E+00  0.00000000000E+00 -0.13857489135E+03  0.34965531133E+04  0.34938060441E+04 0.  0.
        2    1    3    3  502    0 -0.17438033365E+03 -0.79898991979E+03  0.14755832318E+04  0.16870504636E+04  0.25500000920E-02 0. -1.
       -2    1    3    3    0  502  0.17438033365E+03  0.79898991979E+03 -0.16141581232E+04  0.18095026497E+04  0.25500000920E-02 0.  1.
</event>
<event>
 5   0  0.3467834E-08  0.3499676E+04  0.7818609E-02  0.8113867E-01
        2   -1    0    0  501    0  0.00000000000E+00  0.00000000000E+00  0.21336971108E+04  0.21336971108E+04  0.25500000920E-02 0.  1.
       -2   -1    0    0    0  501  0.00000000000E+00  0.00000000000E+00 -0.14350364918E+04  0.14350364918E+04  0.25500000920E-02 0. -1.
    10030    2    1    2    0    0  0.00000000000E+00  0.00000000000E+00  0.69866061897E+03  0.35687336027E+04  0.34996761088E+04 0.  0.
        3    1    3    3  502    0 -0.35314645192E+03  0.11153587519E+04  0.16762353649E+04  0.20441385889E+04  0.10100000352E+00 0.  1.
       -3    1    3    3    0  502  0.35314645192E+03 -0.11153587519E+04 -0.97757474589E+03  0.15245950138E+04  0.10100000352E+00 0. -1.
</event>
<event>
 5   0  0.3700096E-08  0.3500299E+04  0.7818609E-02  0.8113719E-01
        2   -1    0    0  501    0  0.00000000000E+00  0.00000000000E+00  0.28342830172E+04  0.28342830172E+04  0.25500000920E-02 0.  1.
       -2   -1    0    0    0  501  0.00000000000E+00  0.00000000000E+00 -0.10807048759E+04  0.10807048759E+04  0.25500000920E-02 0. -1.
    10030    2    1    2    0    0  0.00000000000E+00  0.00000000000E+00  0.17535781413E+04  0.39149878931E+04  0.35002991165E+04 0.  0.
        4    1    3    3  502    0  0.26572216992E+03  0.95211451196E+03  0.24921557754E+04  0.26810394136E+04  0.12699999809E+01 0.  1.
       -4    1    3    3    0  502 -0.26572216992E+03 -0.95211451196E+03 -0.73857763411E+03  0.12339484795E+04  0.12699999809E+01 0. -1.
</event>
<event>
 5   0  0.3554451E-08  0.3495526E+04  0.7818609E-02  0.8114851E-01
       -2   -1    0    0    0  501  0.00000000000E+00  0.00000000000E+00  0.13946057618E+04  0.13946057618E+04  0.25500000920E-02 0. -1.
        2   -1    0    0  501    0  0.00000000000E+00  0.00000000000E+00 -0.21903508745E+04  0.21903508745E+04  0.25500000920E-02 0.  1.
    10030    2    1    2    0    0  0.00000000000E+00  0.00000000000E+00 -0.79574511266E+03  0.35849566363E+04  0.34955262551E+04 0.  0.
        5    1    3    3  502    0 -0.16725991150E+04  0.45092653174E+02 -0.91580042924E+03  0.19074416539E+04  0.46999998093E+01 0.  1.
       -5    1    3    3    0  502  0.16725991150E+04 -0.45092653174E+02  0.12005531657E+03  0.16775149824E+04  0.46999998093E+01 0. -1.
</event>
<event>
 5   0  0.1121462E-08  0.3500542E+04  0.7818609E-02  0.8113662E-01
       -1   -1    0    0    0  501  0.00000000000E+00  0.00000000000E+00  0.15133307317E+04  0.15133307317E+04  0.50400001928E-02 0. -1.
        1   -1    0    0  501    0  0.00000000000E+00  0.00000000000E+00 -0.20243085627E+04  0.20243085627E+04  0.50400001928E-02 0.  1.
    10030    2    1    2    0    0  0.00000000000E+00  0.00000000000E+00 -0.51097783100E+03  0.35376392944E+04  0.35005418771E+04 0.  0.
        1    1    3    3  502    0  0.45707619387E+03  0.15914845100E+04  0.31771397146E+03  0.16860260259E+04  0.50400001928E-02 0.  1.
       -1    1    3    3    0  502 -0.45707619387E+03 -0.15914845100E+04 -0.82869180246E+03  0.18516132685E+04  0.50400001928E-02 0. -1.
</event>
<event>
 5   0  0.1140808E-08  0.3500062E+04  0.7818609E-02  0.8113775E-01
       -1   -1    0    0    0  501  0.00000000000E+00  0.00000000000E+00  0.22541110572E+04  0.22541110572E+04  0.50400001928E-02 0.  1.
        1   -1    0    0  501    0  0.00000000000E+00  0.00000000000E+00 -0.13586764697E+04  0.13586764697E+04  0.50400001928E-02 0. -1.
    10030    2    1    2    0    0  0.00000000000E+00  0.00000000000E+00  0.89543458752E+03  0.36127875269E+04  0.35000615158E+04 0.  0.
        3    1    3    3  502    0  0.83317764407E+03  0.91341659626E+03  0.17261932246E+04  0.21232658627E+04  0.10100000352E+00 0.  1.
       -3    1    3    3    0  502 -0.83317764407E+03 -0.91341659626E+03 -0.83075863708E+03  0.14895216642E+04  0.10100000352E+00 0. -1.
</event>
<event>
 5   0  0.1121462E-08  0.3499558E+04  0.7818609E-02  0.8113895E-01
       -1   -1    0    0    0  501  0.00000000000E+00  0.00000000000E+00  0.19214972274E+04  0.19214972275E+04  0.50400001928E-02 0.  1.
        1   -1    0    0  501    0  0.00000000000E+00  0.00000000000E+00 -0.15934062497E+04  0.15934062497E+04  0.50400001928E-02 0. -1.
    10030    2    1    2    0    0  0.00000000000E+00  0.00000000000E+00  0.32809097776E+03  0.35149034771E+04  0.34995575097E+04 0.  0.
        4    1    3    3  502    0 -0.54063591166E+03  0.97586902670E+03 -0.11898703169E+04  0.16310734288E+04  0.12699999809E+01 0. -1.
       -4    1    3    3    0  502  0.54063591166E+03 -0.97586902670E+03  0.15179612946E+04  0.18838300484E+04  0.12699999809E+01 0.  1.
</event>
<event>
 5   0  0.1129219E-08  0.3500245E+04  0.7818609E-02  0.8113732E-01
       -1   -1    0    0    0  501  0.00000000000E+00  0.00000000000E+00  0.16648073450E+04  0.16648073450E+04  0.50400001928E-02 0. -1.
        1   -1    0    0  501    0  0.00000000000E+00  0.00000000000E+00 -0.18398092192E+04  0.18398092192E+04  0.50400001928E-02 0.  1.
    10030    2    1    2    0    0  0.00000000000E+00  0.00000000000E+00 -0.17500187419E+03  0.35046165642E+04  0.35002445066E+04 0.  0.
        5    1    3    3  502    0  0.12817841055E+04 -0.28496895625E+03  0.10709784268E+04  0.16944599965E+04  0.46999998093E+01 0. -1.
       -5    1    3    3    0  502 -0.12817841055E+04  0.28496895625E+03 -0.12459803010E+04  0.18101565677E+04  0.46999998093E+01 0.  1.
</event>
<event>
 5   0  0.3467834E-08  0.3510626E+04  0.7818609E-02  0.8111276E-01
        2   -1    0    0  501    0  0.00000000000E+00  0.00000000000E+00  0.18669770520E+04  0.18669770520E+04  0.25500000920E-02 0. -1.
       -2   -1    0    0    0  501  0.00000000000E+00  0.00000000000E+00 -0.16503277275E+04  0.16503277275E+04  0.25500000920E-02 0.  1.
    10030    2    1    2    0    0  0.00000000000E+00  0.00000000000E+00  0.21664932450E+03  0.35173047795E+04  0.35106261524E+04 0.  0.
        3    1    3    3  502    0 -0.69561550359E+03 -0.15035342963E+04 -0.47297534444E+03  0.17228470610E+04  0.10100000352E+00 0.  1.
       -3    1    3    3    0  502  0.69561550359E+03  0.15035342963E+04  0.68962466894E+03  0.17944577184E+04  0.10100000352E+00 0. -1.
</event>
<event>
 5   0  0.1121462E-08  0.3499565E+04  0.7818609E-02  0.8113893E-01
       -1   -1    0    0    0  501  0.00000000000E+00  0.00000000000E+00  0.13285233971E+04  0.13285233971E+04  0.50400001928E-02 0. -1.
        1   -1    0    0  501    0  0.00000000000E+00  0.00000000000E+00 -0.23046185150E+04  0.23046185150E+04  0.50400001928E-02 0.  1.
    10030    2    1    2    0    0  0.00000000000E+00  0.00000000000E+00 -0.97609511796E+03  0.36331419121E+04  0.34995654693E+04 0.  0.
        2    1    3    3  502    0  0.87619693610E+03 -0.11057100485E+04 -0.15626526440E+04  0.21052788575E+04  0.25500000920E-02 0.  1.
       -2    1    3    3    0  502 -0.87619693610E+03  0.11057100485E+04  0.58655752599E+03  0.15278630546E+04  0.25500000920E-02 0. -1.
</event>
<event>
 5   0  0.1121462E-08  0.3495770E+04  0.7818609E-02  0.8114793E-01
        1   -1    0    0  501    0  0.00000000000E+00  0.00000000000E+00  0.10545249728E+04  0.10545249728E+04  0.50400001928E-02 0.  1.
       -1   -1    0    0    0  501  0.00000000000E+00  0.00000000000E+00 -0.28971353501E+04  0.28971353501E+04  0.50400001928E-02 0. -1.
    10030    2    1    2    0    0  0.00000000000E+00  0.00000000000E+00 -0.18426103774E+04  0.39516603229E+04  0.34957697729E+04 0.  0.
        4    1    3    3  502    0 -0.17441374404E+04 -0.10352741646E+03 -0.97629745516E+03  0.20014723758E+04  0.12699999809E+01 0. -1.
       -4    1    3    3    0  502  0.17441374404E+04  0.10352741646E+03 -0.86631292219E+03  0.19501879471E+04  0.12699999809E+01 0.  1.
</event>
<event>
 5   0  0.1140808E-08  0.3499410E+04  0.7818609E-02  0.8113930E-01
       -1   -1    0    0    0  501  0.00000000000E+00  0.00000000000E+00  0.19226748262E+04  0.19226748262E+04  0.50400001928E-02 0.  1.
        1   -1    0    0  501    0  0.00000000000E+00  0.00000000000E+00 -0.15922961934E+04  0.15922961935E+04  0.50400001928E-02 0. -1.
    10030    2    1    2    0    0  0.00000000000E+00  0.00000000000E+00  0.33037863278E+03  0.35149710197E+04  0.34994101258E+04 0.  0.
        3    1    3    3  502    0  0.92489701976E+03  0.13047108433E+04  0.87810800774E+03  0.18244940573E+04  0.10100000352E+00 0.  1.
       -3    1    3    3    0  502 -0.92489701976E+03 -0.13047108433E+04 -0.54772937496E+03  0.16904769623E+04  0.10100000352E+00 0. -1.
</event>
<event>
 5   0  0.1121462E-08  0.3499244E+04  0.7818609E-02  0.8113969E-01
        1   -1    0    0  501    0  0.00000000000E+00  0.00000000000E+00  0.15646338563E+04  0.15646338563E+04  0.50400001928E-02 0. -1.
       -1   -1    0    0    0  501  0.00000000000E+00  0.00000000000E+00 -0.19564818240E+04  0.19564818240E+04  0.50400001928E-02 0.  1.
    10030    2    1    2    0    0  0.00000000000E+00  0.00000000000E+00 -0.39184796770E+03  0.35211156803E+04  0.34992443191E+04 0.  0.
        4    1    3    3  502    0 -0.14095976087E+04  0.75261702377E+03  0.52111553083E+03  0.16807619737E+04  0.12699999809E+01 0. -1.
       -4    1    3    3    0  502  0.14095976087E+04 -0.75261702377E+03 -0.91296349853E+03  0.18403537066E+04  0.12699999809E+01 0.  1.
</event>
<event>
 5   0  0.3553585E-08  0.3500617E+04  0.7818609E-02  0.8113644E-01
        2   -1    0    0  501    0  0.00000000000E+00  0.00000000000E+00  0.22842104200E+04  0.22842104200E+04  0.25500000920E-02 0.  1.
       -2   -1    0    0    0  501  0.00000000000E+00  0.00000000000E+00 -0.13411983461E+04  0.13411983461E+04  0.25500000920E-02 0. -1.
    10030    2    1    2    0    0  0.00000000000E+00  0.00000000000E+00  0.94301207394E+03  0.36254087661E+04  0.35006166528E+04 0.  0.
        2    1    3    3  502    0 -0.52395148731E+03  0.15740806154E+04 -0.10634903695E+03  0.16623973841E+04  0.25500000920E-02 0. -1.
       -2    1    3    3    0  502  0.52395148731E+03 -0.15740806154E+04  0.10493611109E+04  0.19630113820E+04  0.25500000920E-02 0.  1.
</event>
<event>
 5   0  0.3554451E-08  0.3499325E+04  0.7818609E-02  0.8113950E-01
        2   -1    0    0  501    0  0.00000000000E+00  0.00000000000E+00  0.27663157799E+04  0.27663157799E+04  0.25500000920E-02 0.  1.
       -2   -1    0    0    0  501  0.00000000000E+00  0.00000000000E+00 -0.11066411090E+04  0.11066411090E+04  0.25500000920E-02 0. -1.
    10030    2    1    2    0    0  0.00000000000E+00  0.00000000000E+00  0.16596746709E+04  0.38729568889E+04  0.34993249421E+04 0.  0.
        5    1    3    3  502    0 -0.87844911950E+02  0.10660320969E+04 -0.70261530499E+03  0.12797779170E+04  0.46999998093E+01 0. -1.
       -5    1    3    3    0  502  0.87844911950E+02 -0.10660320969E+04  0.23622899759E+04  0.25931789719E+04  0.46999998093E+01 0.  1.
</event>
<event>
 5   0  0.3467834E-08  0.3501341E+04  0.7818609E-02  0.8113472E-01
       -2   -1    0    0    0  501  0.00000000000E+00  0.00000000000E+00  0.10775055389E+04  0.10775055389E+04  0.25500000920E-02 0.  1.
        2   -1    0    0  501    0  0.00000000000E+00  0.00000000000E+00 -0.28443917993E+04  0.28443917993E+04  0.25500000920E-02 0. -1.
    10030    2    1    2    0    0  0.00000000000E+00  0.00000000000E+00 -0.17668862604E+04  0.39218973382E+04  0.35013414107E+04 0.  0.
        3    1    3    3  502    0  0.17449436910E+04 -0.38379469361E+02 -0.10359860445E+04  0.20296720334E+04  0.10100000352E+00 0.  1.
       -3    1    3    3    0  502 -0.17449436910E+04  0.38379469361E+02 -0.73090021589E+03  0.18922253048E+04  0.10100000352E+00 0. -1.
</event>
<event>
 5   0  0.3554451E-08  0.3499419E+04  0.7818609E-02  0.8113928E-01
        2   -1    0    0  501    0  0.00000000000E+00  0.00000000000E+00  0.27467876686E+04  0.27467876686E+04  0.25500000920E-02 0. -1.
       -2   -1    0    0    0  501  0.00000000000E+00  0.00000000000E+00 -0.11145687731E+04  0.11145687731E+04  0.25500000920E-02 0.  1.
    10030    2    1    2    0    0  0.00000000000E+00  0.00000000000E+00  0.16322188955E+04  0.38613564417E+04  0.34994192443E+04 0.  0.
        5    1    3    3  502    0 -0.11366062222E+04  0.97333248593E+03  0.18166524996E+04  0.23536138653E+04  0.46999998093E+01 0. -1.
       -5    1    3    3    0  502  0.11366062222E+04 -0.97333248593E+03 -0.18443360414E+03  0.15077425764E+04  0.46999998093E+01 0.  1.
</event>
<event>
 5   0  0.1121462E-08  0.3498483E+04  0.7818609E-02  0.8114150E-01
       -1   -1    0    0    0  501  0.00000000000E+00  0.00000000000E+00  0.16352654917E+04  0.16352654917E+04  0.50400001928E-02 0. -1.
        1   -1    0    0  501    0  0.00000000000E+00  0.00000000000E+00 -0.18711615252E+04  0.18711615252E+04  0.50400001928E-02 0.  1.
    10030    2    1    2    0    0  0.00000000000E+00  0.00000000000E+00 -0.23589603359E+03  0.35064270169E+04  0.34984830264E+04 0.  0.
        4    1    3    3  502    0 -0.99344925575E+03 -0.47130098959E+03 -0.14814702437E+04  0.18449449158E+04  0.12699999809E+01 0.  1.
       -4    1    3    3    0  502  0.99344925575E+03  0.47130098959E+03  0.12455742101E+04  0.16614821011E+04  0.12699999809E+01 0. -1.
</event>
<event>
 5   0  0.1129219E-08  0.3502832E+04  0.7818609E-02  0.8113119E-01
       -1   -1    0    0    0  501  0.00000000000E+00  0.00000000000E+00  0.16408877520E+04  0.16408877520E+04  0.50400001928E-02 0.  1.
        1   -1    0    0  501    0  0.00000000000E+00  0.00000000000E+00 -0.18693888078E+04  0.18693888078E+04  0.50400001928E-02 0. -1.
    10030    2    1    2    0    0  0.00000000000E+00  0.00000000000E+00 -0.22850105584E+03  0.35102765598E+04  0.35028315394E+04 0.  0.
        5    1    3    3  502    0 -0.67246816769E+03 -0.14936847138E+04 -0.73534814914E+03  0.17955685593E+04  0.46999998093E+01 0. -1.
       -5    1    3    3    0  502  0.67246816769E+03  0.14936847138E+04  0.50684709330E+03  0.17147080005E+04  0.46999998093E+01 0.  1.
</event>
<event>
 5   0  0.1140808E-08  0.3502125E+04  0.7818609E-02  0.8113287E-01
        1   -1    0    0  501    0  0.00000000000E+00  0.00000000000E+00  0.11037406916E+04  0.11037406916E+04  0.50400001928E-02 0.  1.
       -1   -1    0    0    0  501  0.00000000000E+00  0.00000000000E+00 -0.27780252467E+04  0.27780252467E+04  0.50400001928E-02 0. -1.
    10030    2    1    2    0    0  0.00000000000E+00  0.00000000000E+00 -0.16742845551E+04  0.38817659383E+04  0.35021247877E+04 0.  0.
        3    1    3    3  502    0  0.74564796696E+03  0.15708698337E+04 -0.10659048923E+04  0.20395529350E+04  0.10100000352E+00 0. -1.
       -3    1    3    3    0  502 -0.74564796696E+03 -0.15708698337E+04 -0.60837966280E+03  0.18422130033E+04  0.10100000352E+00 0.  1.
</event>
<event>
 5   0  0.1129219E-08  0.3494150E+04  0.7818609E-02  0.8115178E-01
        1   -1    0    0  501    0  0.00000000000E+00  0.00000000000E+00  0.16688072350E+04  0.16688072350E+04  0.50400001928E-02 0. -1.
       -1   -1    0    0    0  501  0.00000000000E+00  0.00000000000E+00 -0.18290140788E+04  0.18290140788E+04  0.50400001928E-02 0.  1.
    10030    2    1    2    0    0  0.00000000000E+00  0.00000000000E+00 -0.16020684372E+03  0.34978213138E+04  0.34941504991E+04 0.  0.
        5    1    3    3  502    0 -0.36485911006E+03  0.37178138359E+03  0.15892534475E+04  0.16724509493E+04  0.46999998093E+01 0. -1.
       -5    1    3    3    0  502  0.36485911006E+03 -0.37178138359E+03 -0.17494602912E+04  0.18253703646E+04  0.46999998093E+01 0.  1.
</event>
<event>
 5   0  0.3553585E-08  0.3499102E+04  0.7818609E-02  0.8114003E-01
       -2   -1    0    0    0  501  0.00000000000E+00  0.00000000000E+00  0.13454875559E+04  0.13454875559E+04  0.25500000920E-02 0.  1.
        2   -1    0    0  501    0  0.00000000000E+00  0.00000000000E+00 -0.22749586611E+04  0.22749586611E+04  0.25500000920E-02 0. -1.
    10030    2    1    2    0    0  0.00000000000E+00  0.00000000000E+00 -0.92947110519E+03  0.36204462170E+04  0.34991019240E+04 0.  0.
        2    1    3    3  502    0  0.16611767336E+04 -0.48973271147E+03 -0.20797195125E+03  0.17443046183E+04  0.25500000920E-02 0.  1.
       -2    1    3    3    0  502 -0.16611767336E+04  0.48973271147E+03 -0.72149915395E+03  0.18761415987E+04  0.25500000920E-02 0. -1.
</event>
<event>
 5   0  0.3467834E-08  0.3500952E+04  0.7818609E-02  0.8113564E-01
        2   -1    0    0  501    0  0.00000000000E+00  0.00000000000E+00  0.94551931209E+03  0.94551931209E+03  0.25500000920E-02 0.  1.
       -2   -1    0    0    0  501  0.00000000000E+00  0.00000000000E+00 -0.32407235134E+04  0.32407235134E+04  0.25500000920E-02 0. -1.
    10030    2    1    2    0    0  0.00000000000E+00  0.00000000000E+00 -0.22952042013E+04  0.41862428255E+04  0.35009522516E+04 0.  0.
        3    1    3    3  502    0 -0.14888568493E+04  0.62521468542E+03 -0.33963072640E+03  0.16501324678E+04  0.10100000352E+00 0.  1.
       -3    1    3    3    0  502  0.14888568493E+04 -0.62521468542E+03 -0.19555734749E+04  0.25361103578E+04  0.10100000352E+00 0. -1.
</event>
<event>
 5   0  0.3467834E-08  0.3500782E+04  0.7818609E-02  0.8113605E-01
       -2   -1    0    0    0  501  0.00000000000E+00  0.00000000000E+00  0.11247201141E+04  0.11247201141E+04  0.25500000920E-02 0.  1.
        2   -1    0    0  501    0  0.00000000000E+00  0.00000000000E+00 -0.27241171770E+04  0.27241171770E+04  0.25500000920E-02 0. -1.
    10030    2    1    2    0    0  0.00000000000E+00  0.00000000000E+00 -0.15993970629E+04  0.38488372910E+04  0.35007824166E+04 0.  0.
        3    1    3    3  502    0 -0.31392098053E+03  0.37181537005E+03 -0.26482570328E+04  0.26925932432E+04  0.10100000352E+00 0. -1.
       -3    1    3    3    0  502  0.31392098053E+03 -0.37181537005E+03  0.10488599699E+04  0.11562440478E+04  0.10100000352E+00 0.  1.
</event>
<event>
 5   0  0.1121462E-08  0.3498727E+04  0.7818609E-02  0.8114092E-01
       -1   -1    0    0    0  501  0.00000000000E+00  0.00000000000E+00  0.14297468674E+04  0.14297468674E+04  0.50400001928E-02 0. -1.
        1   -1    0    0  501    0  0.00000000000E+00  0.00000000000E+00 -0.21404294250E+04  0.21404294250E+04  0.50400001928E-02 0.  1.
    10030    2    1    2    0    0  0.00000000000E+00  0.00000000000E+00 -0.71068255758E+03  0.35701762925E+04  0.34987267772E+04 0.  0.
        2    1    3    3  502    0  0.92054002613E+02  0.11010615234E+04  0.10286234601E+04  0.15095948597E+04  0.25500000920E-02 0. -1.
       -2    1    3    3    0  502 -0.92054002613E+02 -0.11010615234E+04 -0.17393060177E+04  0.20605814327E+04  0.25500000920E-02 0.  1.
</event>
<event>
 5   0  0.3700096E-08  0.3499086E+04  0.7818609E-02  0.8114007E-01
       -2   -1    0    0    0  501  0.00000000000E+00  0.00000000000E+00  0.16195302971E+04  0.16195302971E+04  0.25500000920E-02 0.  1.
        2   -1    0    0  501    0  0.00000000000E+00  0.00000000000E+00 -0.18899925699E+04  0.18899925699E+04  0.25500000920E-02 0. -1.
    10030    2    1    2    0    0  0.00000000000E+00  0.00000000000E+00 -0.27046227279E+03  0.35095228670E+04  0.34990857253E+04 0.  0.
        4    1    3    3  502    0 -0.10102249089E+04  0.10721163155E+04 -0.10819273043E+04  0.18277188146E+04  0.12699999809E+01 0.  1.
       -4    1    3    3    0  502  0.10102249089E+04 -0.10721163155E+04  0.81146503147E+03  0.16818040524E+04  0.12699999809E+01 0. -1.
</event>
<event>
 5   0  0.3467834E-08  0.3500350E+04  0.7818609E-02  0.8113707E-01
       -2   -1    0    0    0  501  0.00000000000E+00  0.00000000000E+00  0.16697038756E+04  0.16697038756E+04  0.25500000920E-02 0. -1.
        2   -1    0    0  501    0  0.00000000000E+00  0.00000000000E+00 -0.18345242034E+04  0.18345242034E+04  0.25500000920E-02 0.  1.
    10030    2    1    2    0    0  0.00000000000E+00  0.00000000000E+00 -0.16482032780E+03  0.35042280791E+04  0.35003497954E+04 0.  0.
        3    1    3    3  502    0  0.87885251593E+03 -0.87907873064E+03 -0.13158267827E+04  0.18101274242E+04  0.10100000352E+00 0.  1.
       -3    1    3    3    0  502 -0.87885251593E+03  0.87907873064E+03  0.11510064549E+04  0.16941006549E+04  0.10100000352E+00 0. -1.
</event>
<event>
 5   0  0.3467834E-08  0.3500574E+04  0.7818609E-02  0.8113654E-01
       -2   -1    0    0    0  501  0.00000000000E+00  0.00000000000E+00  0.13411477446E+04  0.13411477446E+04  0.25500000920E-02 0. -1.
        2   -1    0    0  501    0  0.00000000000E+00  0.00000000000E+00 -0.22842408245E+04  0.22842408245E+04  0.25500000920E-02 0.  1.
    10030    2    1    2    0    0  0.00000000000E+00  0.00000000000E+00 -0.94309307994E+03  0.36253885691E+04  0.35005739129E+04 0.  0.
        3    1    3    3  502    0  0.14489025552E+03  0.15217997413E+04  0.41127718873E+03  0.15830402948E+04  0.10100000352E+00 0. -1.
       -3    1    3    3    0  502 -0.14489025552E+03 -0.15217997413E+04 -0.13543702687E+04  0.20423482743E+04  0.10100000352E+00 0.  1.
</event>
<event>
 5   0  0.3467834E-08  0.3499297E+04  0.7818609E-02  0.8113957E-01
        2   -1    0    0  501    0  0.00000000000E+00  0.00000000000E+00  0.11318127161E+04  0.11318127161E+04  0.25500000920E-02 0.  1.
       -2   -1    0    0    0  501  0.00000000000E+00  0.00000000000E+00 -0.27047496208E+04  0.27047496208E+04  0.25500000920E-02 0. -1.
    10030    2    1    2    0    0  0.00000000000E+00  0.00000000000E+00 -0.15729369047E+04  0.38365623369E+04  0.34992970807E+04 0.  0.
        3    1    3    3  502    0 -0.14946284646E+04 -0.30804869124E+03  0.15185792090E+03  0.15335804777E+04  0.10100000352E+00 0.  1.
       -3    1    3    3    0  502  0.14946284646E+04  0.30804869124E+03 -0.17247948256E+04  0.23029818592E+04  0.10100000352E+00 0. -1.
</event>
<event>
 5   0  0.3554451E-08  0.3501860E+04  0.7818609E-02  0.8113349E-01
        2   -1    0    0  501    0  0.00000000000E+00  0.00000000000E+00  0.29579967516E+04  0.29579967516E+04  0.25500000920E-02 0.  1.
       -2   -1    0    0    0  501  0.00000000000E+00  0.00000000000E+00 -0.10364296261E+04  0.10364296261E+04  0.25500000920E-02 0. -1.
    10030    2    1    2    0    0  0.00000000000E+00  0.00000000000E+00  0.19215671255E+04  0.39944263776E+04  0.35018597728E+04 0.  0.
        5    1    3    3  502    0  0.13472752438E+03  0.17175567000E+04  0.13171017381E+04  0.21686243571E+04  0.46999998093E+01 0. -1.
       -5    1    3    3    0  502 -0.13472752438E+03 -0.17175567000E+04  0.60446538743E+03  0.18258020205E+04  0.46999998093E+01 0.  1.
</event>
<event>
 5   0  0.1140808E-08  0.3496703E+04  0.7818609E-02  0.8114572E-01
       -1   -1    0    0    0  501  0.00000000000E+00  0.00000000000E+00  0.24060738408E+04  0.24060738408E+04  0.50400001928E-02 0. -1.
        1   -1    0    0  501    0  0.00000000000E+00  0.00000000000E+00 -0.12704235297E+04  0.12704235297E+04  0.50400001928E-02 0.  1.
    10030    2    1    2    0    0  0.00000000000E+00  0.00000000000E+00  0.11356503111E+04  0.36764973705E+04  0.34967029165E+04 0.  0.
        3    1    3    3  502    0 -0.13395709102E+03  0.15767188059E+04  0.13495220270E+04  0.20797106546E+04  0.10100000352E+00 0.  1.
       -3    1    3    3    0  502  0.13395709102E+03 -0.15767188059E+04 -0.21387171590E+03  0.15967867159E+04  0.10100000352E+00 0. -1.
</event>
<event>
 5   0  0.1121462E-08  0.3477007E+04  0.7818609E-02  0.8119261E-01
        1   -1    0    0  501    0  0.00000000000E+00  0.00000000000E+00  0.10200771690E+04  0.10200771690E+04  0.50400001928E-02 0. -1.
       -1   -1    0    0    0  501  0.00000000000E+00  0.00000000000E+00 -0.29629081869E+04  0.29629081869E+04  0.50400001928E-02 0.  1.
    10030    2    1    2    0    0  0.00000000000E+00  0.00000000000E+00 -0.19428310178E+04  0.39829853559E+04  0.34770073313E+04 0.  0.
        2    1    3    3  502    0  0.40668348948E+03 -0.14478250955E+04  0.27756077848E+02  0.15041141472E+04  0.25500000920E-02 0. -1.
       -2    1    3    3    0  502 -0.40668348948E+03  0.14478250955E+04 -0.19705870957E+04  0.24788712088E+04  0.25500000920E-02 0.  1.
</event>
<event>
 5   0  0.1121462E-08  0.3496733E+04  0.7818609E-02  0.8114565E-01
        1   -1    0    0  501    0  0.00000000000E+00  0.00000000000E+00  0.13188430272E+04  0.13188430273E+04  0.50400001928E-02 0.  1.
       -1   -1    0    0    0  501  0.00000000000E+00  0.00000000000E+00 -0.23177774233E+04  0.23177774233E+04  0.50400001928E-02 0. -1.
    10030    2    1    2    0    0  0.00000000000E+00  0.00000000000E+00 -0.99893439608E+03  0.36366204506E+04  0.34967325282E+04 0.  0.
        4    1    3    3  502    0 -0.16427963974E+04 -0.12599830398E+03  0.10884915919E+03  0.16512132898E+04  0.12699999809E+01 0. -1.
       -4    1    3    3    0  502  0.16427963974E+04  0.12599830398E+03 -0.11077835553E+04  0.19854071608E+04  0.12699999809E+01 0.  1.
</event>
<event>
 5   0  0.3467834E-08  0.3499579E+04  0.7818609E-02  0.8113890E-01
        2   -1    0    0  501    0  0.00000000000E+00  0.00000000000E+00  0.16280637305E+04  0.16280637305E+04  0.25500000920E-02 0.  1.
       -2   -1    0    0    0  501  0.00000000000E+00  0.00000000000E+00 -0.18806168172E+04  0.18806168172E+04  0.25500000920E-02 0. -1.
    10030    2    1    2    0    0  0.00000000000E+00  0.00000000000E+00 -0.25255308664E+03  0.35086805477E+04  0.34995794211E+04 0.  0.
        3    1    3    3  502    0  0.45360152544E+03 -0.31963674959E+03 -0.17900626242E+04  0.18740987713E+04  0.10100000352E+00 0. -1.
       -3    1    3    3    0  502 -0.45360152544E+03  0.31963674959E+03  0.15375095376E+04  0.16345817765E+04  0.10100000352E+00 0.  1.
</event>
<event>
 5   0  0.3467834E-08  0.3498788E+04  0.7818609E-02  0.8114077E-01
       -2   -1    0    0    0  501  0.00000000000E+00  0.00000000000E+00  0.16818617572E+04  0.16818617572E+04  0.25500000920E-02 0.  1.
        2   -1    0    0  501    0  0.00000000000E+00  0.00000000000E+00 -0.18196377107E+04  0.18196377107E+04  0.25500000920E-02 0. -1.
    10030    2    1    2    0    0  0.00000000000E+00  0.00000000000E+00 -0.13777595348E+03  0.35014994679E+04  0.34987878344E+04 0.  0.
        3    1    3    3  502    0  0.46421486282E+03  0.13244645534E+04 -0.11140523302E+04  0.17918745482E+04  0.10100000352E+00 0. -1.
       -3    1    3    3    0  502 -0.46421486282E+03 -0.13244645534E+04  0.97627637668E+03  0.17096249196E+04  0.10100000352E+00 0.  1.
</event>
<event>
 5   0  0.3628017E-08  0.3502667E+04  0.7818609E-02  0.8113158E-01
        2   -1    0    0  501    0  0.00000000000E+00  0.00000000000E+00  0.23488650796E+04  0.23488650796E+04  0.25500000920E-02 0.  1.
       -2   -1    0    0    0  501  0.00000000000E+00  0.00000000000E+00 -0.13058086349E+04  0.13058086349E+04  0.25500000920E-02 0. -1.
    10030    2    1    2    0    0  0.00000000000E+00  0.00000000000E+00  0.10430564447E+04  0.36546737145E+04  0.35026665860E+04 0.  0.
        1    1    3    3  502    0 -0.53575850575E+03  0.14927116319E+04 -0.25364179921E+03  0.16061006677E+04  0.50400001928E-02 0. -1.
       -1    1    3    3    0  502  0.53575850575E+03 -0.14927116319E+04  0.12966982439E+04  0.20485730468E+04  0.50400001928E-02 0.  1.
</event>
<event>
 5   0  0.1121462E-08  0.3496445E+04  0.7818609E-02  0.8114633E-01
       -1   -1    0    0    0  501  0.00000000000E+00  0.00000000000E+00  0.18606373105E+04  0.18606373105E+04  0.50400001928E-02 0. -1.
        1   -1    0    0  501    0  0.00000000000E+00  0.00000000000E+00 -0.16425993846E+04  0.16425993846E+04  0.50400001928E-02 0.  1.
    10030    2    1    2    0    0  0.00000000000E+00  0.00000000000E+00  0.21803792588E+03  0.35032366951E+04  0.34964448808E+04 0.  0.
        1    1    3    3  502    0  0.12272536491E+04  0.10520599201E+04  0.77612014887E+03  0.17931380539E+04  0.50400001928E-02 0. -1.
       -1    1    3    3    0  502 -0.12272536491E+04 -0.10520599201E+04 -0.55808222299E+03  0.17100986412E+04  0.50400001928E-02 0.  1.
</event>
<event>
 5   0  0.3553585E-08  0.3496574E+04  0.7818609E-02  0.8114602E-01
       -2   -1    0    0    0  501  0.00000000000E+00  0.00000000000E+00  0.13749095346E+04  0.13749095346E+04  0.25500000920E-02 0.  1.
        2   -1    0    0  501    0  0.00000000000E+00  0.00000000000E+00 -0.22230612194E+04  0.22230612194E+04  0.25500000920E-02 0. -1.
    10030    2    1    2    0    0  0.00000000000E+00  0.00000000000E+00 -0.84815168481E+03  0.35979707540E+04  0.34965743616E+04 0.  0.
        2    1    3    3  502    0 -0.10689573875E+04 -0.67123320515E+02 -0.18459319812E+04  0.21341603304E+04  0.25500000920E-02 0. -1.
       -2    1    3    3    0  502  0.10689573875E+04  0.67123320515E+02  0.99778029643E+03  0.14638104236E+04  0.25500000920E-02 0.  1.
</event>
<event>
 5   0  0.3467834E-08  0.3499470E+04  0.7818609E-02  0.8113916E-01
        2   -1    0    0  501    0  0.00000000000E+00  0.00000000000E+00  0.23746081248E+04  0.23746081248E+04  0.25500000920E-02 0.  1.
       -2   -1    0    0    0  501  0.00000000000E+00  0.00000000000E+00 -0.12892960223E+04  0.12892960223E+04  0.25500000920E-02 0. -1.
    10030    2    1    2    0    0  0.00000000000E+00  0.00000000000E+00  0.10853121025E+04  0.36639041471E+04  0.34994701369E+04 0.  0.
        3    1    3    3  502    0  0.93847880898E+03 -0.66805163062E+03 -0.83624670213E+03  0.14234971068E+04  0.10100000352E+00 0. -1.
       -3    1    3    3    0  502 -0.93847880898E+03  0.66805163062E+03  0.19215588047E+04  0.22404070403E+04  0.10100000352E+00 0.  1.
</event>
<event>
 5   0  0.1121462E-08  0.3500643E+04  0.7818609E-02  0.8113638E-01
       -1   -1    0    0    0  501  0.00000000000E+00  0.00000000000E+00  0.16343448174E+04  0.16343448174E+04  0.50400001928E-02 0.  1.
        1   -1    0    0  501    0  0.00000000000E+00  0.00000000000E+00 -0.18745276171E+04  0.18745276171E+04  0.50400001928E-02 0. -1.
    10030    2    1    2    0    0  0.00000000000E+00  0.00000000000E+00 -0.24018279965E+03  0.35088724345E+04  0.35006425102E+04 0.  0.
        1    1    3    3  502    0 -0.15963139893E+04  0.40956645710E+03 -0.71110584096E+03  0.17948912369E+04  0.50400001928E-02 0. -1.
       -1    1    3    3    0  502  0.15963139893E+04 -0.40956645710E+03  0.47092304131E+03  0.17139811977E+04  0.50400001928E-02 0.  1.
</event>
<event>
 5   0  0.3700096E-08  0.3501456E+04  0.7818609E-02  0.8113445E-01
       -2   -1    0    0    0  501  0.00000000000E+00  0.00000000000E+00  0.18778943606E+04  0.18778943607E+04  0.25500000920E-02 0. -1.
        2   -1    0    0  501    0  0.00000000000E+00  0.00000000000E+00 -0.16321725944E+04  0.16321725944E+04  0.25500000920E-02 0.  1.
    10030    2    1    2    0    0  0.00000000000E+00  0.00000000000E+00  0.24572176625E+03  0.35100669551E+04  0.35014555320E+04 0.  0.
        4    1    3    3  502    0  0.14713173643E+04  0.19201063794E+03 -0.80861929828E+03  0.16898253324E+04  0.12699999809E+01 0.  1.
       -4    1    3    3    0  502 -0.14713173643E+04 -0.19201063794E+03  0.10543410645E+04  0.18202416227E+04  0.12699999809E+01 0. -1.
</event>
<event>
 5   0  0.1121462E-08  0.3500729E+04  0.7818609E-02  0.8113617E-01
        3   -1    0    0  501    0  0.00000000000E+00  0.00000000000E+00  0.21347369895E+04  0.21347369919E+04  0.10100000352E+00 0.  1.
       -3   -1    0    0    0  501  0.00000000000E+00  0.00000000000E+00 -0.14352005884E+04  0.14352005919E+04  0.10100000352E+00 0. -1.
    10030    2    1    2    0    0  0.00000000000E+00  0.00000000000E+00  0.69953640108E+03  0.35699375838E+04  0.35007289492E+04 0.  0.
        3    1    3    3  502    0 -0.11052888834E+04 -0.11761223847E+04 -0.34100701949E+03  0.16496100076E+04  0.10100000352E+00 0. -1.
       -3    1    3    3    0  502  0.11052888834E+04  0.11761223847E+04  0.10405434206E+04  0.19203275762E+04  0.10100000352E+00 0.  1.
</event>
<event>
 5   0  0.3554451E-08  0.3500203E+04  0.7818609E-02  0.8113742E-01
        2   -1    0    0  501    0  0.00000000000E+00  0.00000000000E+00  0.26341703928E+04  0.26341703928E+04  0.25500000920E-02 0. -1.
       -2   -1    0    0    0  501  0.00000000000E+00  0.00000000000E+00 -0.11627397280E+04  0.11627397280E+04  0.25500000920E-02 0.  1.
    10030    2    1    2    0    0  0.00000000000E+00  0.00000000000E+00  0.14714306648E+04  0.37969101208E+04  0.35002026033E+04 0.  0.
        5    1    3    3  502    0 -0.16481681290E+04  0.72640013375E+02  0.10217168092E+03  0.16529355388E+04  0.46999998093E+01 0.  1.
       -5    1    3    3    0  502  0.16481681290E+04 -0.72640013375E+02  0.13692589839E+04  0.21439745820E+04  0.46999998093E+01 0. -1.
</event>
<event>
 5   0  0.3700096E-08  0.3499448E+04  0.7818609E-02  0.8113921E-01
       -2   -1    0    0    0  501  0.00000000000E+00  0.00000000000E+00  0.12767467093E+04  0.12767467093E+04  0.25500000920E-02 0.  1.
        2   -1    0    0  501    0  0.00000000000E+00  0.00000000000E+00 -0.23979180906E+04  0.23979180906E+04  0.25500000920E-02 0. -1.
    10030    2    1    2    0    0  0.00000000000E+00  0.00000000000E+00 -0.11211713814E+04  0.36746647999E+04  0.34994479743E+04 0.  0.
        4    1    3    3  502    0  0.13360101519E+04 -0.48908456028E+03 -0.16301144788E+04  0.21636546998E+04  0.12699999809E+01 0. -1.
       -4    1    3    3    0  502 -0.13360101519E+04  0.48908456028E+03  0.50894309743E+03  0.15110101001E+04  0.12699999809E+01 0.  1.
</event>
<event>
 5   0  0.3467834E-08  0.3499458E+04  0.7818609E-02  0.8113918E-01
       -2   -1    0    0    0  501  0.00000000000E+00  0.00000000000E+00  0.13404841991E+04  0.13404841991E+04  0.25500000920E-02 0. -1.
        2   -1    0    0  501    0  0.00000000000E+00  0.00000000000E+00 -0.22839146029E+04  0.22839146029E+04  0.25500000920E-02 0.  1.
    10030    2    1    2    0    0  0.00000000000E+00  0.00000000000E+00 -0.94343040372E+03  0.36243988020E+04  0.34994579222E+04 0.  0.
        3    1    3    3  502    0  0.38576245583E+03 -0.16985710873E+04 -0.29966684547E+03  0.17674152425E+04  0.10100000352E+00 0.  1.
       -3    1    3    3    0  502 -0.38576245583E+03  0.16985710873E+04 -0.64376355825E+03  0.18569835595E+04  0.10100000352E+00 0. -1.
</event>
<event>
 5   0  0.3467834E-08  0.3489112E+04  0.7818609E-02  0.8116375E-01
        2   -1    0    0  501    0  0.00000000000E+00  0.00000000000E+00  0.26681187887E+04  0.26681187887E+04  0.25500000920E-02 0. -1.
       -2   -1    0    0    0  501  0.00000000000E+00  0.00000000000E+00 -0.11406821376E+04  0.11406821376E+04  0.25500000920E-02 0.  1.
    10030    2    1    2    0    0  0.00000000000E+00  0.00000000000E+00  0.15274366511E+04  0.38088009264E+04  0.34891118889E+04 0.  0.
        3    1    3    3  502    0 -0.62221584121E+03  0.14827489733E+04  0.15023042180E+04  0.22005942480E+04  0.10100000352E+00 0. -1.
       -3    1    3    3    0  502  0.62221584121E+03 -0.14827489733E+04  0.25132433104E+02  0.16082066783E+04  0.10100000352E+00 0.  1.
</event>
<event>
 5   0  0.3700096E-08  0.3498666E+04  0.7818609E-02  0.8114106E-01
       -2   -1    0    0    0  501  0.00000000000E+00  0.00000000000E+00  0.29679682439E+04  0.29679682439E+04  0.25500000920E-02 0.  1.
        2   -1    0    0  501    0  0.00000000000E+00  0.00000000000E+00 -0.10310644881E+04  0.10310644881E+04  0.25500000920E-02 0. -1.
    10030    2    1    2    0    0  0.00000000000E+00  0.00000000000E+00  0.19369037558E+04  0.39990327320E+04  0.34986664077E+04 0.  0.
        4    1    3    3  502    0 -0.21078952309E+03 -0.17081658066E+04  0.13260943527E+04  0.21727380171E+04  0.12699999809E+01 0.  1.
       -4    1    3    3    0  502  0.21078952309E+03  0.17081658066E+04  0.61080940308E+03  0.18262947149E+04  0.12699999809E+01 0. -1.
</event>
<event>
 5   0  0.3467834E-08  0.3500118E+04  0.7818609E-02  0.8113762E-01
       -2   -1    0    0    0  501  0.00000000000E+00  0.00000000000E+00  0.13807014091E+04  0.13807014091E+04  0.25500000920E-02 0. -1.
        2   -1    0    0  501    0  0.00000000000E+00  0.00000000000E+00 -0.22182256413E+04  0.22182256413E+04  0.25500000920E-02 0.  1.
    10030    2    1    2    0    0  0.00000000000E+00  0.00000000000E+00 -0.83752423219E+03  0.35989270504E+04  0.35001184372E+04 0.  0.
        3    1    3    3  502    0 -0.14374138733E+04  0.94151976246E+03 -0.77598611600E+02  0.17200696675E+04  0.10100000352E+00 0.  1.
       -3    1    3    3    0  502  0.14374138733E+04 -0.94151976246E+03 -0.75992562059E+03  0.18788573829E+04  0.10100000352E+00 0. -1.
</event>
<event>
 5   0  0.1129219E-08  0.3496154E+04  0.7818609E-02  0.8114702E-01
       -1   -1    0    0    0  501  0.00000000000E+00  0.00000000000E+00  0.18380034466E+04  0.18380034466E+04  0.50400001928E-02 0.  1.
        1   -1    0    0  501    0  0.00000000000E+00  0.00000000000E+00 -0.16625501487E+04  0.16625501488E+04  0.50400001928E-02 0. -1.
    10030    2    1    2    0    0  0.00000000000E+00  0.00000000000E+00  0.17545329787E+03  0.35005535954E+04  0.34961538316E+04 0.  0.
        5    1    3    3  502    0 -0.48114655886E+02 -0.10247306973E+04 -0.13294565648E+04  0.16792453275E+04  0.46999998093E+01 0. -1.
       -5    1    3    3    0  502  0.48114655886E+02  0.10247306973E+04  0.15049098626E+04  0.18213082679E+04  0.46999998093E+01 0.  1.
</event>
<event>
 5   0  0.3628017E-08  0.3500254E+04  0.7818609E-02  0.8113730E-01
        2   -1    0    0  501    0  0.00000000000E+00  0.00000000000E+00  0.15103974922E+04  0.15103974922E+04  0.25500000920E-02 0. -1.
       -2   -1    0    0    0  501  0.00000000000E+00  0.00000000000E+00 -0.20279060308E+04  0.20279060308E+04  0.25500000920E-02 0.  1.
    10030    2    1    2    0    0  0.00000000000E+00  0.00000000000E+00 -0.51750853858E+03  0.35383035230E+04  0.35002538098E+04 0.  0.
        1    1    3    3  502    0  0.16488501702E+04  0.52340114083E+03 -0.52675614018E+03  0.18083494322E+04  0.50400001928E-02 0. -1.
       -1    1    3    3    0  502 -0.16488501702E+04 -0.52340114083E+03  0.92476015956E+01  0.17299540907E+04  0.50400001928E-02 0.  1.
</event>
<event>
 5   0  0.1140808E-08  0.3493980E+04  0.7818609E-02  0.8115218E-01
       -1   -1    0    0    0  501  0.00000000000E+00  0.00000000000E+00  0.13290082031E+04  0.13290082031E+04  0.50400001928E-02 0. -1.
        1   -1    0    0  501    0  0.00000000000E+00  0.00000000000E+00 -0.22964302801E+04  0.22964302801E+04  0.50400001928E-02 0.  1.
    10030    2    1    2    0    0  0.00000000000E+00  0.00000000000E+00 -0.96742207699E+03  0.36254384832E+04  0.34939803549E+04 0.  0.
        3    1    3    3  502    0  0.15050288313E+03  0.57645103545E+03  0.12203407503E+04  0.13580053281E+04  0.10100000352E+00 0. -1.
       -3    1    3    3    0  502 -0.15050288313E+03 -0.57645103545E+03 -0.21877628273E+04  0.22674331551E+04  0.10100000352E+00 0.  1.
</event>
<event>
 5   0  0.3700096E-08  0.3503246E+04  0.7818609E-02  0.8113021E-01
        2   -1    0    0  501    0  0.00000000000E+00  0.00000000000E+00  0.15455169684E+04  0.15455169684E+04  0.25500000920E-02 0. -1.
       -2   -1    0    0    0  501  0.00000000000E+00  0.00000000000E+00 -0.19852151006E+04  0.19852151006E+04  0.25500000920E-02 0.  1.
    10030    2    1    2    0    0  0.00000000000E+00  0.00000000000E+00 -0.43969813216E+03  0.35307320689E+04  0.35032462796E+04 0.  0.
        4    1    3    3  502    0 -0.21616512315E+01 -0.14682844223E+03 -0.19790001805E+04  0.19844411283E+04  0.12699999809E+01 0.  1.
       -4    1    3    3    0  502  0.21616512315E+01  0.14682844223E+03  0.15393020484E+04  0.15462909407E+04  0.12699999809E+01 0. -1.
</event>
<event>
 5   0  0.3628017E-08  0.3505172E+04  0.7818609E-02  0.8112565E-01
        2   -1    0    0  501    0  0.00000000000E+00  0.00000000000E+00  0.25479601342E+04  0.25479601342E+04  0.25500000920E-02 0.  1.
       -2   -1    0    0    0  501  0.00000000000E+00  0.00000000000E+00 -0.12054970819E+04  0.12054970819E+04  0.25500000920E-02 0. -1.
    10030    2    1    2    0    0  0.00000000000E+00  0.00000000000E+00  0.13424630523E+04  0.37534572161E+04  0.35051724674E+04 0.  0.
        1    1    3    3  502    0  0.30626324382E+00 -0.17108463475E+04  0.10783782425E+04  0.20223488702E+04  0.50400001928E-02 0.  1.
       -1    1    3    3    0  502 -0.30626324382E+00  0.17108463475E+04  0.26408480982E+03  0.17311083460E+04  0.50400001928E-02 0. -1.
</event>
<event>
 5   0  0.3700096E-08  0.3499734E+04  0.7818609E-02  0.8113853E-01
        2   -1    0    0  501    0  0.00000000000E+00  0.00000000000E+00  0.14045338628E+04  0.14045338628E+04  0.25500000920E-02 0.  1.
       -2   -1    0    0    0  501  0.00000000000E+00  0.00000000000E+00 -0.21801071260E+04  0.21801071260E+04  0.25500000920E-02 0. -1.
    10030    2    1    2    0    0  0.00000000000E+00  0.00000000000E+00 -0.77557326324E+03  0.35846409888E+04  0.34997338659E+04 0.  0.
        4    1    3    3  502    0 -0.87464120139E+03  0.32152160313E+03  0.11292470910E+04  0.14640949347E+04  0.12699999809E+01 0.  1.
       -4    1    3    3    0  502  0.87464120139E+03 -0.32152160313E+03 -0.19048203543E+04  0.21205460541E+04  0.12699999809E+01 0. -1.
</event>
<event>
 5   0  0.3628017E-08  0.3498110E+04  0.7818609E-02  0.8114238E-01
       -2   -1    0    0    0  501  0.00000000000E+00  0.00000000000E+00  0.14734391568E+04  0.14734391568E+04  0.25500000920E-02 0. -1.
        2   -1    0    0  501    0  0.00000000000E+00  0.00000000000E+00 -0.20762260179E+04  0.20762260179E+04  0.25500000920E-02 0.  1.
    10030    2    1    2    0    0  0.00000000000E+00  0.00000000000E+00 -0.60278686113E+03  0.35496651747E+04  0.34981096113E+04 0.  0.
        1    1    3    3  502    0 -0.37033248126E+03 -0.15288897103E+04  0.47442865970E+03  0.16430862565E+04  0.50400001928E-02 0. -1.
       -1    1    3    3    0  502  0.37033248126E+03  0.15288897103E+04 -0.10772155208E+04  0.19065789182E+04  0.50400001928E-02 0.  1.
</event>
<event>
 5   0  0.1121462E-08  0.3501747E+04  0.7818609E-02  0.8113376E-01
        1   -1    0    0  501    0  0.00000000000E+00  0.00000000000E+00  0.22588548028E+04  0.22588548028E+04  0.50400001928E-02 0. -1.
       -1   -1    0    0    0  501  0.00000000000E+00  0.00000000000E+00 -0.13571296588E+04  0.13571296588E+04  0.50400001928E-02 0.  1.
    10030    2    1    2    0    0  0.00000000000E+00  0.00000000000E+00  0.90172514407E+03  0.36159844616E+04  0.35017474768E+04 0.  0.
        4    1    3    3  502    0  0.12707171171E+04  0.40259122160E+03  0.16231308305E+04  0.21003230678E+04  0.12699999809E+01 0. -1.
       -4    1    3    3    0  502 -0.12707171171E+04 -0.40259122160E+03 -0.72140568642E+03  0.15156613938E+04  0.12699999809E+01 0.  1.
</event>
<event>
 5   0  0.1129219E-08  0.3499838E+04  0.7818609E-02  0.8113828E-01
       -1   -1    0    0    0  501  0.00000000000E+00  0.00000000000E+00  0.26605424440E+04  0.26605424440E+04  0.50400001928E-02 0.  1.
        1   -1    0    0  501    0  0.00000000000E+00  0.00000000000E+00 -0.11509744135E+04  0.11509744135E+04  0.50400001928E-02 0. -1.
    10030    2    1    2    0    0  0.00000000000E+00  0.00000000000E+00  0.15095680305E+04  0.38115168575E+04  0.34998378699E+04 0.  0.
        5    1    3    3  502    0  0.16908822567E+04 -0.34260385681E+03  0.43590465341E+03  0.17794648537E+04  0.46999998093E+01 0. -1.
       -5    1    3    3    0  502 -0.16908822567E+04  0.34260385681E+03  0.10736633771E+04  0.20320520038E+04  0.46999998093E+01 0.  1.
</event>
<event>
 5   0  0.3700096E-08  0.3500809E+04  0.7818609E-02  0.8113598E-01
       -2   -1    0    0    0  501  0.00000000000E+00  0.00000000000E+00  0.33060592322E+04  0.33060592322E+04  0.25500000920E-02 0.  1.
        2   -1    0    0  501    0  0.00000000000E+00  0.00000000000E+00 -0.92675765266E+03  0.92675765266E+03  0.25500000920E-02 0. -1.
    10030    2    1    2    0    0  0.00000000000E+00  0.00000000000E+00  0.23793015795E+04  0.42328168848E+04  0.35008088743E+04 0.  0.
        4    1    3    3  502    0 -0.33438066533E+03  0.15086189761E+02 -0.88770143304E+03  0.94871147858E+03  0.12699999809E+01 0. -1.
       -4    1    3    3    0  502  0.33438066533E+03 -0.15086189761E+02  0.32670030126E+04  0.32841054063E+04  0.12699999809E+01 0.  1.
</event>
<event>
 5   0  0.3628017E-08  0.3500517E+04  0.7818609E-02  0.8113667E-01
        2   -1    0    0  501    0  0.00000000000E+00  0.00000000000E+00  0.18837420414E+04  0.18837420414E+04  0.25500000920E-02 0.  1.
       -2   -1    0    0    0  501  0.00000000000E+00  0.00000000000E+00 -0.16262336514E+04  0.16262336514E+04  0.25500000920E-02 0. -1.
    10030    2    1    2    0    0  0.00000000000E+00  0.00000000000E+00  0.25750839005E+03  0.35099756928E+04  0.35005169322E+04 0.  0.
        1    1    3    3  502    0  0.18729764286E+03  0.17212374344E+04  0.38570037185E+03  0.17738386312E+04  0.50400001928E-02 0.  1.
       -1    1    3    3    0  502 -0.18729764286E+03 -0.17212374344E+04 -0.12819198180E+03  0.17361370616E+04  0.50400001928E-02 0. -1.
</event>
<event>
 5   0  0.3553585E-08  0.3501352E+04  0.7818609E-02  0.8113470E-01
       -2   -1    0    0    0  501  0.00000000000E+00  0.00000000000E+00  0.14188270168E+04  0.14188270168E+04  0.25500000920E-02 0. -1.
        2   -1    0    0  501    0  0.00000000000E+00  0.00000000000E+00 -0.21601404457E+04  0.21601404457E+04  0.25500000920E-02 0.  1.
    10030    2    1    2    0    0  0.00000000000E+00  0.00000000000E+00 -0.74131342893E+03  0.35789674626E+04  0.35013515245E+04 0.  0.
        2    1    3    3  502    0 -0.82678753889E+03 -0.23060125006E+03 -0.19302949792E+04  0.21125324323E+04  0.25500000920E-02 0.  1.
       -2    1    3    3    0  502  0.82678753889E+03  0.23060125006E+03  0.11889815503E+04  0.14664350302E+04  0.25500000920E-02 0. -1.
</event>
<event>
 5   0  0.3554451E-08  0.3500484E+04  0.7818609E-02  0.8113675E-01
       -2   -1    0    0    0  501  0.00000000000E+00  0.00000000000E+00  0.24350762056E+04  0.24350762056E+04  0.25500000920E-02 0. -1.
        2   -1    0    0  501    0  0.00000000000E+00  0.00000000000E+00 -0.12580088881E+04  0.12580088881E+04  0.25500000920E-02 0.  1.
    10030    2    1    2    0    0  0.00000000000E+00  0.00000000000E+00  0.11770673176E+04  0.36930850937E+04  0.35004842578E+04 0.  0.
        5    1    3    3  502    0  0.10849860061E+04  0.78091800303E+03 -0.60335916772E+03  0.14666601297E+04  0.46999998093E+01 0. -1.
       -5    1    3    3    0  502 -0.10849860061E+04 -0.78091800303E+03  0.17804264853E+04  0.22264249640E+04  0.46999998093E+01 0.  1.
</event>
<event>
 5   0  0.3553585E-08  0.3505337E+04  0.7818609E-02  0.8112526E-01
        2   -1    0    0  501    0  0.00000000000E+00  0.00000000000E+00  0.14548149529E+04  0.14548149529E+04  0.25500000920E-02 0. -1.
       -2   -1    0    0    0  501  0.00000000000E+00  0.00000000000E+00 -0.21115038396E+04  0.21115038396E+04  0.25500000920E-02 0.  1.
    10030    2    1    2    0    0  0.00000000000E+00  0.00000000000E+00 -0.65668888665E+03  0.35663187925E+04  0.35053372785E+04 0.  0.
        2    1    3    3  502    0  0.12628967696E+03 -0.79354823538E+03 -0.19130617932E+04  0.20749634476E+04  0.25500000920E-02 0.  1.
       -2    1    3    3    0  502 -0.12628967696E+03  0.79354823538E+03  0.12563729065E+04  0.14913553449E+04  0.25500000920E-02 0. -1.
</event>
<event>
 5   0  0.1140808E-08  0.3500067E+04  0.7818609E-02  0.8113774E-01
       -1   -1    0    0    0  501  0.00000000000E+00  0.00000000000E+00  0.10384178437E+04  0.10384178437E+04  0.50400001928E-02 0.  1.
        1   -1    0    0  501    0  0.00000000000E+00  0.00000000000E+00 -0.29493104390E+04  0.29493104390E+04  0.50400001928E-02 0. -1.
    10030    2    1    2    0    0  0.00000000000E+00  0.00000000000E+00 -0.19108925953E+04  0.39877282827E+04  0.35000666201E+04 0.  0.
        3    1    3    3  502    0  0.17424261295E+04 -0.28407264311E+02 -0.77258204838E+03  0.19062368219E+04  0.10100000352E+00 0.  1.
       -3    1    3    3    0  502 -0.17424261295E+04  0.28407264311E+02 -0.11383105470E+04  0.20814914607E+04  0.10100000352E+00 0. -1.
</event>
<event>
 5   0  0.3628017E-08  0.3499867E+04  0.7818609E-02  0.8113821E-01
        2   -1    0    0  501    0  0.00000000000E+00  0.00000000000E+00  0.27241020818E+04  0.27241020818E+04  0.25500000920E-02 0. -1.
       -2   -1    0    0    0  501  0.00000000000E+00  0.00000000000E+00 -0.11241381599E+04  0.11241381599E+04  0.25500000920E-02 0.  1.
    10030    2    1    2    0    0  0.00000000000E+00  0.00000000000E+00  0.15999639219E+04  0.38482402417E+04  0.34998669127E+04 0.  0.
        1    1    3    3  502    0 -0.25958955492E+03  0.73089733731E+03 -0.92481224730E+03  0.12070109144E+04  0.50400001928E-02 0.  1.
       -1    1    3    3    0  502  0.25958955492E+03 -0.73089733731E+03  0.25247761692E+04  0.26412293273E+04  0.50400001928E-02 0. -1.
</event>
<event>
 5   0  0.1121462E-08  0.3500556E+04  0.7818609E-02  0.8113658E-01
        1   -1    0    0  501    0  0.00000000000E+00  0.00000000000E+00  0.18865995555E+04  0.18865995555E+04  0.50400001928E-02 0.  1.
       -1   -1    0    0    0  501  0.00000000000E+00  0.00000000000E+00 -0.16238066231E+04  0.16238066231E+04  0.50400001928E-02 0. -1.
    10030    2    1    2    0    0  0.00000000000E+00  0.00000000000E+00  0.26279293245E+03  0.35104061786E+04  0.35005558720E+04 0.  0.
        4    1    3    3  502    0 -0.16905392807E+03  0.18557684116E+03  0.18684523413E+04  0.18852410348E+04  0.12699999809E+01 0.  1.
       -4    1    3    3    0  502  0.16905392807E+03 -0.18557684116E+03 -0.16056594088E+04  0.16251651438E+04  0.12699999809E+01 0. -1.
</event>
<event>
 5   0  0.1121462E-08  0.3498449E+04  0.7818609E-02  0.8114158E-01
       -1   -1    0    0    0  501  0.00000000000E+00  0.00000000000E+00  0.15361460779E+04  0.15361460779E+04  0.50400001928E-02 0.  1.
        1   -1    0    0  501    0  0.00000000000E+00  0.00000000000E+00 -0.19918590533E+04  0.19918590534E+04  0.50400001928E-02 0. -1.
    10030    2    1    2    0    0  0.00000000000E+00  0.00000000000E+00 -0.45571297547E+03  0.35280051312E+04  0.34984490692E+04 0.  0.
        4    1    3    3  502    0 -0.12557618465E+04 -0.88984951033E+03  0.61043943962E+03  0.16557197494E+04  0.12699999809E+01 0.  1.
       -4    1    3    3    0  502  0.12557618465E+04  0.88984951033E+03 -0.10661524151E+04  0.18722853819E+04  0.12699999809E+01 0. -1.
</event>
<event>
 5   0  0.3467834E-08  0.3495722E+04  0.7818609E-02  0.8114805E-01
        2   -1    0    0  501    0  0.00000000000E+00  0.00000000000E+00  0.21040550179E+04  0.21040550179E+04  0.25500000920E-02 0.  1.
       -2   -1    0    0    0  501  0.00000000000E+00  0.00000000000E+00 -0.14519664851E+04  0.14519664851E+04  0.25500000920E-02 0. -1.
    10030    2    1    2    0    0  0.00000000000E+00  0.00000000000E+00  0.65208853282E+03  0.35560215031E+04  0.34957215958E+04 0.  0.
        3    1    3    3  502    0 -0.75576591836E+03 -0.39479183621E+03  0.18781334186E+04  0.20626264484E+04  0.10100000352E+00 0.  1.
       -3    1    3    3    0  502  0.75576591836E+03  0.39479183621E+03 -0.12260448858E+04  0.14933950547E+04  0.10100000352E+00 0. -1.
</event>
<event>
 5   0  0.3554451E-08  0.3499826E+04  0.7818609E-02  0.8113831E-01
        2   -1    0    0  501    0  0.00000000000E+00  0.00000000000E+00  0.10096122180E+04  0.10096122180E+04  0.25500000920E-02 0. -1.
       -2   -1    0    0    0  501  0.00000000000E+00  0.00000000000E+00 -0.30330411379E+04  0.30330411379E+04  0.25500000920E-02 0.  1.
    10030    2    1    2    0    0  0.00000000000E+00  0.00000000000E+00 -0.20234289199E+04  0.40426533559E+04  0.34998259331E+04 0.  0.
        5    1    3    3  502    0  0.14677520961E+03 -0.10328087875E+04 -0.26345952916E+04  0.28336110168E+04  0.46999998093E+01 0.  1.
       -5    1    3    3    0  502 -0.14677520961E+03  0.10328087875E+04  0.61116637177E+03  0.12090423391E+04  0.46999998093E+01 0. -1.
</event>
<event>
 5   0  0.3554451E-08  0.3499145E+04  0.7818609E-02  0.8113993E-01
       -2   -1    0    0    0  501  0.00000000000E+00  0.00000000000E+00  0.14984252847E+04  0.14984252847E+04  0.25500000920E-02 0. -1.
        2   -1    0    0  501    0  0.00000000000E+00  0.00000000000E+00 -0.20428133103E+04  0.20428133103E+04  0.25500000920E-02 0.  1.
    10030    2    1    2    0    0  0.00000000000E+00  0.00000000000E+00 -0.54438802560E+03  0.35412385951E+04  0.34991445333E+04 0.  0.
        5    1    3    3  502    0 -0.67320986521E+03 -0.33879089186E+03 -0.18701087274E+04  0.20162637559E+04  0.46999998093E+01 0.  1.
       -5    1    3    3    0  502  0.67320986521E+03  0.33879089186E+03  0.13257207018E+04  0.15249748392E+04  0.46999998093E+01 0. -1.
</event>
<event>
 5   0  0.3628017E-08  0.3499990E+04  0.7818609E-02  0.8113792E-01
       -2   -1    0    0    0  501  0.00000000000E+00  0.00000000000E+00  0.17116096179E+04  0.17116096179E+04  0.25500000920E-02 0. -1.
        2   -1    0    0  501    0  0.00000000000E+00  0.00000000000E+00 -0.17892416585E+04  0.17892416585E+04  0.25500000920E-02 0.  1.
    10030    2    1    2    0    0  0.00000000000E+00  0.00000000000E+00 -0.77632040601E+02  0.35008512763E+04  0.34999904179E+04 0.  0.
        1    1    3    3  502    0 -0.14217844222E+04  0.82242253690E+03 -0.64281341394E+03  0.17638193948E+04  0.50400001928E-02 0.  1.
       -1    1    3    3    0  502  0.14217844222E+04 -0.82242253690E+03  0.56518137334E+03  0.17370318815E+04  0.50400001928E-02 0. -1.
</event>
<event>
 5   0  0.1121462E-08  0.3499361E+04  0.7818609E-02  0.8113941E-01
        1   -1    0    0  501    0  0.00000000000E+00  0.00000000000E+00  0.15640353735E+04  0.15640353735E+04  0.50400001928E-02 0.  1.
       -1   -1    0    0    0  501  0.00000000000E+00  0.00000000000E+00 -0.19573614552E+04  0.19573614552E+04  0.50400001928E-02 0. -1.
    10030    2    1    2    0    0  0.00000000000E+00  0.00000000000E+00 -0.39332608173E+03  0.35213968287E+04  0.34993614015E+04 0.  0.
        1    1    3    3  502    0  0.21081818973E+03 -0.13856264739E+04 -0.12506252414E+04  0.18784218187E+04  0.50400001928E-02 0.  1.
       -1    1    3    3    0  502 -0.21081818973E+03  0.13856264739E+04  0.85729915970E+03  0.16429750100E+04  0.50400001928E-02 0. -1.
</event>
<event>
 5   0  0.1121462E-08  0.3500294E+04  0.7818609E-02  0.8113720E-01
       -3   -1    0    0    0  501  0.00000000000E+00  0.00000000000E+00  0.13006561695E+04  0.13006561735E+04  0.10100000352E+00 0. -1.
        3   -1    0    0  501    0  0.00000000000E+00  0.00000000000E+00 -0.23549764702E+04  0.23549764724E+04  0.10100000352E+00 0.  1.
    10030    2    1    2    0    0  0.00000000000E+00  0.00000000000E+00 -0.10543203007E+04  0.36556326459E+04  0.35002940941E+04 0.  0.
        3    1    3    3  502    0 -0.56520000456E+01 -0.80050775256E+03  0.10982401229E+04  0.13590349461E+04  0.10100000352E+00 0. -1.
       -3    1    3    3    0  502  0.56520000456E+01  0.80050775256E+03 -0.21525604236E+04  0.22965976997E+04  0.10100000352E+00 0.  1.
</event>
<event>
 5   0  0.3554451E-08  0.3501283E+04  0.7818609E-02  0.8113486E-01
       -2   -1    0    0    0  501  0.00000000000E+00  0.00000000000E+00  0.14638145098E+04  0.14638145099E+04  0.25500000920E-02 0. -1.
        2   -1    0    0  501    0  0.00000000000E+00  0.00000000000E+00 -0.20936704541E+04  0.20936704541E+04  0.25500000920E-02 0.  1.
    10030    2    1    2    0    0  0.00000000000E+00  0.00000000000E+00 -0.62985594420E+03  0.35574849639E+04  0.35012827304E+04 0.  0.
        5    1    3    3  502    0  0.39651154072E+02 -0.93021703820E+03  0.11913829815E+04  0.15120487594E+04  0.46999998093E+01 0. -1.
       -5    1    3    3    0  502 -0.39651154072E+02  0.93021703820E+03 -0.18212389257E+04  0.20454362045E+04  0.46999998093E+01 0.  1.
</event>
<event>
 5   0  0.3553585E-08  0.3500972E+04  0.7818609E-02  0.8113560E-01
        2   -1    0    0  501    0  0.00000000000E+00  0.00000000000E+00  0.24474140473E+04  0.24474140473E+04  0.25500000920E-02 0.  1.
       -2   -1    0    0    0  501  0.00000000000E+00  0.00000000000E+00 -0.12520158790E+04  0.12520158790E+04  0.25500000920E-02 0. -1.
    10030    2    1    2    0    0  0.00000000000E+00  0.00000000000E+00  0.11953981684E+04  0.36994299263E+04  0.35009720077E+04 0.  0.
        2    1    3    3  502    0  0.87303284032E+03 -0.15144927358E+04  0.69412230850E+03  0.18808722355E+04  0.25500000920E-02 0.  1.
       -2    1    3    3    0  502 -0.87303284032E+03  0.15144927358E+04  0.50127585987E+03  0.18185576908E+04  0.25500000920E-02 0. -1.
</event>
<event>
 5   0  0.3467834E-08  0.3501861E+04  0.7818609E-02  0.8113349E-01
       -2   -1    0    0    0  501  0.00000000000E+00  0.00000000000E+00  0.13622152365E+04  0.13622152365E+04  0.25500000920E-02 0.  1.
        2   -1    0    0  501    0  0.00000000000E+00  0.00000000000E+00 -0.22505681443E+04  0.22505681443E+04  0.25500000920E-02 0. -1.
    10030    2    1    2    0    0  0.00000000000E+00  0.00000000000E+00 -0.88835290779E+03  0.36127833807E+04  0.35018613433E+04 0.  0.
        3    1    3    3  502    0  0.57045117919E+03 -0.66377798516E+03 -0.20087017042E+04  0.21910952303E+04  0.10100000352E+00 0. -1.
       -3    1    3    3    0  502 -0.57045117919E+03  0.66377798516E+03  0.11203487964E+04  0.14216881505E+04  0.10100000352E+00 0.  1.
</event>
<event>
 5   0  0.1121462E-08  0.3499869E+04  0.7818609E-02  0.8113821E-01
       -1   -1    0    0    0  501  0.00000000000E+00  0.00000000000E+00  0.21003299244E+04  0.21003299244E+04  0.50400001928E-02 0. -1.
        1   -1    0    0  501    0  0.00000000000E+00  0.00000000000E+00 -0.14579950284E+04  0.14579950284E+04  0.50400001928E-02 0.  1.
    10030    2    1    2    0    0  0.00000000000E+00  0.00000000000E+00  0.64233489599E+03  0.35583249528E+04  0.34998689049E+04 0.  0.
        1    1    3    3  502    0  0.16660670279E+04  0.44673417821E+03  0.62091333933E+03  0.18332714317E+04  0.50400001928E-02 0. -1.
       -1    1    3    3    0  502 -0.16660670279E+04 -0.44673417821E+03  0.21421556658E+02  0.17250535211E+04  0.50400001928E-02 0.  1.
</event>
<event>
 5   0  0.3467834E-08  0.3503596E+04  0.7818609E-02  0.8112938E-01
       -2   -1    0    0    0  501  0.00000000000E+00  0.00000000000E+00  0.21100876835E+04  0.21100876835E+04  0.25500000920E-02 0. -1.
        2   -1    0    0  501    0  0.00000000000E+00  0.00000000000E+00 -0.14543455318E+04  0.14543455318E+04  0.25500000920E-02 0.  1.
    10030    2    1    2    0    0  0.00000000000E+00  0.00000000000E+00  0.65574215174E+03  0.35644332153E+04  0.35035962063E+04 0.  0.
        3    1    3    3  502    0 -0.82483334319E+03 -0.93486876739E+03 -0.92413469738E+03  0.15518874332E+04  0.10100000352E+00 0.  1.
       -3    1    3    3    0  502  0.82483334319E+03  0.93486876739E+03  0.15798768491E+04  0.20125457821E+04  0.10100000352E+00 0. -1.
</event>
<event>
 5   0  0.3554451E-08  0.3500074E+04  0.7818609E-02  0.8113772E-01
        2   -1    0    0  501    0  0.00000000000E+00  0.00000000000E+00  0.14384384812E+04  0.14384384812E+04  0.25500000920E-02 0.  1.
       -2   -1    0    0    0  501  0.00000000000E+00  0.00000000000E+00 -0.21291344320E+04  0.21291344320E+04  0.25500000920E-02 0. -1.
    10030    2    1    2    0    0  0.00000000000E+00  0.00000000000E+00 -0.69069595088E+03  0.35675729132E+04  0.35000736556E+04 0.  0.
        5    1    3    3  502    0  0.65482125882E+03  0.11392458489E+04  0.83276871704E+03  0.15556984963E+04  0.46999998093E+01 0.  1.
       -5    1    3    3    0  502 -0.65482125882E+03 -0.11392458489E+04 -0.15234646679E+04  0.20118744169E+04  0.46999998093E+01 0. -1.
</event>
<event>
 5   0  0.1121462E-08  0.3499355E+04  0.7818609E-02  0.8113943E-01
        1   -1    0    0  501    0  0.00000000000E+00  0.00000000000E+00  0.28449276009E+04  0.28449276009E+04  0.50400001928E-02 0. -1.
       -1   -1    0    0    0  501  0.00000000000E+00  0.00000000000E+00 -0.10760808745E+04  0.10760808745E+04  0.50400001928E-02 0.  1.
    10030    2    1    2    0    0  0.00000000000E+00  0.00000000000E+00  0.17688467264E+04  0.39210084754E+04  0.34993554725E+04 0.  0.
        1    1    3    3  502    0  0.60659636898E+03 -0.13909829230E+04  0.18603345142E+04  0.24007576204E+04  0.50400001928E-02 0. -1.
       -1    1    3    3    0  502 -0.60659636898E+03  0.13909829230E+04 -0.91487787784E+02  0.15202508550E+04  0.50400001928E-02 0.  1.
</event>
<event>
 5   0  0.1121462E-08  0.3498111E+04  0.7818609E-02  0.8114238E-01
       -1   -1    0    0    0  501  0.00000000000E+00  0.00000000000E+00  0.15096811426E+04  0.15096811426E+04  0.50400001928E-02 0.  1.
        1   -1    0    0  501    0  0.00000000000E+00  0.00000000000E+00 -0.20263847038E+04  0.20263847038E+04  0.50400001928E-02 0. -1.
    10030    2    1    2    0    0  0.00000000000E+00  0.00000000000E+00 -0.51670356114E+03  0.35360658464E+04  0.34981107901E+04 0.  0.
        2    1    3    3  502    0 -0.54712069034E+03  0.16601807211E+04 -0.31945345784E+03  0.17769613356E+04  0.25500000920E-02 0.  1.
       -2    1    3    3    0  502  0.54712069034E+03 -0.16601807211E+04 -0.19725010330E+03  0.17591045108E+04  0.25500000920E-02 0. -1.
</event>
<event>
 5   0  0.3700096E-08  0.3504462E+04  0.7818609E-02  0.8112733E-01
        2   -1    0    0  501    0  0.00000000000E+00  0.00000000000E+00  0.26221479542E+04  0.26221479542E+04  0.25500000920E-02 0. -1.
       -2   -1    0    0    0  501  0.00000000000E+00  0.00000000000E+00 -0.11709156108E+04  0.11709156108E+04  0.25500000920E-02 0.  1.
    10030    2    1    2    0    0  0.00000000000E+00  0.00000000000E+00  0.14512323434E+04  0.37930635650E+04  0.35044622831E+04 0.  0.
        4    1    3    3  502    0 -0.13346133483E+04 -0.10513051439E+04  0.26149378959E+03  0.17189577976E+04  0.12699999809E+01 0.  1.
       -4    1    3    3    0  502  0.13346133483E+04  0.10513051439E+04  0.11897385538E+04  0.20741057674E+04  0.12699999809E+01 0. -1.
</event>
<event>
 5   0  0.3700096E-08  0.3497929E+04  0.7818609E-02  0.8114281E-01
       -2   -1    0    0    0  501  0.00000000000E+00  0.00000000000E+00  0.13837700069E+04  0.13837700069E+04  0.25500000920E-02 0.  1.
        2   -1    0    0  501    0  0.00000000000E+00  0.00000000000E+00 -0.22105389182E+04  0.22105389182E+04  0.25500000920E-02 0. -1.
    10030    2    1    2    0    0  0.00000000000E+00  0.00000000000E+00 -0.82676891129E+03  0.35943089251E+04  0.34979293612E+04 0.  0.
        4    1    3    3  502    0 -0.80327025198E+03  0.17864530160E+03 -0.19991887534E+04  0.21619238021E+04  0.12699999809E+01 0. -1.
       -4    1    3    3    0  502  0.80327025198E+03 -0.17864530160E+03  0.11724198421E+04  0.14323851230E+04  0.12699999809E+01 0.  1.
</event>
<event>
 5   0  0.3553585E-08  0.3499424E+04  0.7818609E-02  0.8113926E-01
        2   -1    0    0  501    0  0.00000000000E+00  0.00000000000E+00  0.21191295734E+04  0.21191295734E+04  0.25500000920E-02 0. -1.
       -2   -1    0    0    0  501  0.00000000000E+00  0.00000000000E+00 -0.14446931183E+04  0.14446931183E+04  0.25500000920E-02 0.  1.
    10030    2    1    2    0    0  0.00000000000E+00  0.00000000000E+00  0.67443645511E+03  0.35638226916E+04  0.34994239019E+04 0.  0.
        2    1    3    3  502    0 -0.13312933361E+04  0.44380575706E+03 -0.72709122667E+03  0.15804958553E+04  0.25500000920E-02 0.  1.
       -2    1    3    3    0  502  0.13312933361E+04 -0.44380575706E+03  0.14015276818E+04  0.19833268363E+04  0.25500000920E-02 0. -1.
</event>
<event>
 5   0  0.3628017E-08  0.3499966E+04  0.7818609E-02  0.8113798E-01
       -2   -1    0    0    0  501  0.00000000000E+00  0.00000000000E+00  0.10989974138E+04  0.10989974138E+04  0.25500000920E-02 0.  1.
        2   -1    0    0  501    0  0.00000000000E+00  0.00000000000E+00 -0.27865763967E+04  0.27865763967E+04  0.25500000920E-02 0. -1.
    10030    2    1    2    0    0  0.00000000000E+00  0.00000000000E+00 -0.16875789829E+04  0.38855738105E+04  0.34999658589E+04 0.  0.
        1    1    3    3  502    0  0.50187825456E+03  0.13095685909E+04 -0.20058135051E+04  0.24474761477E+04  0.50400001928E-02 0. -1.
       -1    1    3    3    0  502 -0.50187825456E+03 -0.13095685909E+04  0.31823452217E+03  0.14380976628E+04  0.50400001928E-02 0.  1.
</event>
<event>
 5   0  0.3700096E-08  0.3500970E+04  0.7818609E-02  0.8113560E-01
       -2   -1    0    0    0  501  0.00000000000E+00  0.00000000000E+00  0.19694651787E+04  0.19694651787E+04  0.25500000920E-02 0.  1.
        2   -1    0    0  501    0  0.00000000000E+00  0.00000000000E+00 -0.15558525767E+04  0.15558525767E+04  0.25500000920E-02 0. -1.
    10030    2    1    2    0    0  0.00000000000E+00  0.00000000000E+00  0.41361260203E+03  0.35253177553E+04  0.35009698501E+04 0.  0.
        4    1    3    3  502    0  0.15501938735E+04  0.81304579975E+03  0.21402146537E+03  0.17635054064E+04  0.12699999809E+01 0. -1.
       -4    1    3    3    0  502 -0.15501938735E+04 -0.81304579975E+03  0.19959113666E+03  0.17618123489E+04  0.12699999809E+01 0.  1.
</event>
<event>
 5   0  0.3554451E-08  0.3492726E+04  0.7818609E-02  0.8115516E-01
        2   -1    0    0  501    0  0.00000000000E+00  0.00000000000E+00  0.18436582656E+04  0.18436582656E+04  0.25500000920E-02 0. -1.
       -2   -1    0    0    0  501  0.00000000000E+00  0.00000000000E+00 -0.16542022224E+04  0.16542022224E+04  0.25500000920E-02 0.  1.
    10030    2    1    2    0    0  0.00000000000E+00  0.00000000000E+00  0.18945604316E+03  0.34978604881E+04  0.34927259271E+04 0.  0.
        5    1    3    3  502    0  0.82539908761E+03  0.15067359442E+04 -0.21914083342E+03  0.17319300373E+04  0.46999998093E+01 0.  1.
       -5    1    3    3    0  502 -0.82539908761E+03 -0.15067359442E+04  0.40859687658E+03  0.17659304507E+04  0.46999998093E+01 0. -1.
</event>
<event>
 5   0  0.1140808E-08  0.3502851E+04  0.7818609E-02  0.8113115E-01
        1   -1    0    0  501    0  0.00000000000E+00  0.00000000000E+00  0.13924004689E+04  0.13924004689E+04  0.50400001928E-02 0.  1.
       -1   -1    0    0    0  501  0.00000000000E+00  0.00000000000E+00 -0.22030231414E+04  0.22030231414E+04  0.50400001928E-02 0. -1.
    10030    2    1    2    0    0  0.00000000000E+00  0.00000000000E+00 -0.81062267252E+03  0.35954236103E+04  0.35028505278E+04 0.  0.
        3    1    3    3  502    0 -0.53770785756E+03  0.11906872906E+04  0.79197382664E+03  0.15277724034E+04  0.10100000352E+00 0.  1.
       -3    1    3    3    0  502  0.53770785756E+03 -0.11906872906E+04 -0.16025964992E+04  0.20676512069E+04  0.10100000352E+00 0. -1.
</event>
<event>
 5   0  0.1140808E-08  0.3501880E+04  0.7818609E-02  0.8113345E-01
       -1   -1    0    0    0  501  0.00000000000E+00  0.00000000000E+00  0.15668735632E+04  0.15668735632E+04  0.50400001928E-02 0. -1.
        1   -1    0    0  501    0  0.00000000000E+00  0.00000000000E+00 -0.19566292130E+04  0.19566292130E+04  0.50400001928E-02 0.  1.
    10030    2    1    2    0    0  0.00000000000E+00  0.00000000000E+00 -0.38975564982E+03  0.35235027762E+04  0.35018798305E+04 0.  0.
        3    1    3    3  502    0 -0.11704259374E+04  0.85856494150E+02  0.11125772879E+04  0.16171259828E+04  0.10100000352E+00 0. -1.
       -3    1    3    3    0  502  0.11704259374E+04 -0.85856494150E+02 -0.15023329378E+04  0.19063767934E+04  0.10100000352E+00 0.  1.
</event>
<event>
 5   0  0.1121462E-08  0.3483850E+04  0.7818609E-02  0.8117628E-01
       -1   -1    0    0    0  501  0.00000000000E+00  0.00000000000E+00  0.15868797634E+04  0.15868797634E+04  0.50400001928E-02 0.  1.
        1   -1    0    0  501    0  0.00000000000E+00  0.00000000000E+00 -0.19121187149E+04  0.19121187149E+04  0.50400001928E-02 0. -1.
    10030    2    1    2    0    0  0.00000000000E+00  0.00000000000E+00 -0.32523895147E+03  0.34989984783E+04  0.34838498784E+04 0.  0.
        4    1    3    3  502    0  0.18305857279E+03 -0.32351129847E+03  0.15465826058E+04  0.15906254653E+04  0.12699999809E+01 0.  1.
       -4    1    3    3    0  502 -0.18305857279E+03  0.32351129847E+03 -0.18718215573E+04  0.19083730130E+04  0.12699999809E+01 0. -1.
</event>
<event>
 5   0  0.1121462E-08  0.3497182E+04  0.7818609E-02  0.8114458E-01
        1   -1    0    0  501    0  0.00000000000E+00  0.00000000000E+00  0.24941507690E+04  0.24941507690E+04  0.50400001928E-02 0.  1.
       -1   -1    0    0    0  501  0.00000000000E+00  0.00000000000E+00 -0.12258961182E+04  0.12258961182E+04  0.50400001928E-02 0. -1.
    10030    2    1    2    0    0  0.00000000000E+00  0.00000000000E+00  0.12682546508E+04  0.37200468872E+04  0.34971815772E+04 0.  0.
        1    1    3    3  502    0  0.83908775268E+03  0.61730309010E+03 -0.85980854317E+03  0.13507042951E+04  0.50400001928E-02 0. -1.
       -1    1    3    3    0  502 -0.83908775268E+03 -0.61730309010E+03  0.21280631939E+04  0.23693425922E+04  0.50400001928E-02 0.  1.
</event>
<event>
 5   0  0.3628017E-08  0.3501136E+04  0.7818609E-02  0.8113521E-01
        2   -1    0    0  501    0  0.00000000000E+00  0.00000000000E+00  0.17572864428E+04  0.17572864428E+04  0.25500000920E-02 0. -1.
       -2   -1    0    0    0  501  0.00000000000E+00  0.00000000000E+00 -0.17438756691E+04  0.17438756691E+04  0.25500000920E-02 0.  1.
    10030    2    1    2    0    0  0.00000000000E+00  0.00000000000E+00  0.13410773681E+02  0.35011621119E+04  0.35011364277E+04 0.  0.
        1    1    3    3  502    0 -0.67606319817E+03 -0.19443829269E+03  0.16097210060E+04  0.17567212114E+04  0.50400001928E-02 0. -1.
       -1    1    3    3    0  502  0.67606319817E+03  0.19443829269E+03 -0.15963102323E+04  0.17444409005E+04  0.50400001928E-02 0.  1.
</event>
<event>
 5   0  0.3700096E-08  0.3499613E+04  0.7818609E-02  0.8113882E-01
        2   -1    0    0  501    0  0.00000000000E+00  0.00000000000E+00  0.17852091214E+04  0.17852091214E+04  0.25500000920E-02 0. -1.
       -2   -1    0    0    0  501  0.00000000000E+00  0.00000000000E+00 -0.17151062255E+04  0.17151062255E+04  0.25500000920E-02 0.  1.
    10030    2    1    2    0    0  0.00000000000E+00  0.00000000000E+00  0.70102895875E+02  0.35003153469E+04  0.34996132803E+04 0.  0.
        4    1    3    3  502    0  0.17414873144E+04  0.46640298700E+02 -0.12889690574E+03  0.17468741823E+04  0.12699999809E+01 0. -1.
       -4    1    3    3    0  502 -0.17414873144E+04 -0.46640298700E+02  0.19899980161E+03  0.17534411646E+04  0.12699999809E+01 0.  1.
</event>
<event>
 5   0  0.3553585E-08  0.3500097E+04  0.7818609E-02  0.8113767E-01
       -2   -1    0    0    0  501  0.00000000000E+00  0.00000000000E+00  0.19156475723E+04  0.19156475723E+04  0.25500000920E-02 0.  1.
        2   -1    0    0  501    0  0.00000000000E+00  0.00000000000E+00 -0.15987650815E+04  0.15987650815E+04  0.25500000920E-02 0. -1.
    10030    2    1    2    0    0  0.00000000000E+00  0.00000000000E+00  0.31688249084E+03  0.35144126538E+04  0.35000973970E+04 0.  0.
        2    1    3    3  502    0 -0.84301900185E+03 -0.12618778523E+04 -0.71670463310E+03  0.16782974357E+04  0.25500000920E-02 0. -1.
       -2    1    3    3    0  502  0.84301900185E+03  0.12618778523E+04  0.10335871239E+04  0.18361152181E+04  0.25500000920E-02 0.  1.
</event>
<event>
 5   0  0.1121462E-08  0.3499879E+04  0.7818609E-02  0.8113819E-01
        3   -1    0    0  501    0  0.00000000000E+00  0.00000000000E+00  0.22763125801E+04  0.22763125823E+04  0.10100000352E+00 0.  1.
       -3   -1    0    0    0  501  0.00000000000E+00  0.00000000000E+00 -0.13452844470E+04  0.13452844508E+04  0.10100000352E+00 0. -1.
    10030    2    1    2    0    0  0.00000000000E+00  0.00000000000E+00  0.93102813306E+03  0.36215970331E+04  0.34998788102E+04 0.  0.
        2    1    3    3  502    0  0.15447917193E+04  0.41650069667E+02  0.13151490584E+04  0.20292198575E+04  0.25500000920E-02 0.  1.
       -2    1    3    3    0  502 -0.15447917193E+04 -0.41650069667E+02 -0.38412092534E+03  0.15923771756E+04  0.25500000920E-02 0. -1.
</event>
<event>
 5   0  0.1140808E-08  0.3505417E+04  0.7818609E-02  0.8112507E-01
       -1   -1    0    0    0  501  0.00000000000E+00  0.00000000000E+00  0.16554893525E+04  0.16554893525E+04  0.50400001928E-02 0. -1.
        1   -1    0    0  501    0  0.00000000000E+00  0.00000000000E+00 -0.18556363999E+04  0.18556363999E+04  0.50400001928E-02 0.  1.
    10030    2    1    2    0    0  0.00000000000E+00  0.00000000000E+00 -0.20014704741E+03  0.35111257524E+04  0.35054165528E+04 0.  0.
        3    1    3    3  502    0 -0.23701482191E+03  0.13752985547E+04  0.96201385103E+03  0.16950199999E+04  0.10100000352E+00 0. -1.
       -3    1    3    3    0  502  0.23701482191E+03 -0.13752985547E+04 -0.11621608984E+04  0.18161057525E+04  0.10100000352E+00 0.  1.
</event>
<event>
 5   0  0.3628017E-08  0.3500389E+04  0.7818609E-02  0.8113698E-01
       -2   -1    0    0    0  501  0.00000000000E+00  0.00000000000E+00  0.14744602365E+04  0.14744602365E+04  0.25500000920E-02 0. -1.
        2   -1    0    0  501    0  0.00000000000E+00  0.00000000000E+00 -0.20774928003E+04  0.20774928003E+04  0.25500000920E-02 0.  1.
    10030    2    1    2    0    0  0.00000000000E+00  0.00000000000E+00 -0.60303256377E+03  0.35519530368E+04  0.35003888503E+04 0.  0.
        1    1    3    3  502    0  0.16375804449E+04  0.77365185597E+02 -0.92334475645E+03  0.18815474016E+04  0.50400001928E-02 0.  1.
       -1    1    3    3    0  502 -0.16375804449E+04 -0.77365185597E+02  0.32031219268E+03  0.16704056352E+04  0.50400001928E-02 0. -1.
</event>
<event>
 5   0  0.1121462E-08  0.3500737E+04  0.7818609E-02  0.8113615E-01
        1   -1    0    0  501    0  0.00000000000E+00  0.00000000000E+00  0.18089211400E+04  0.18089211400E+04  0.50400001928E-02 0.  1.
       -1   -1    0    0    0  501  0.00000000000E+00  0.00000000000E+00 -0.16937114832E+04  0.16937114832E+04  0.50400001928E-02 0. -1.
    10030    2    1    2    0    0  0.00000000000E+00  0.00000000000E+00  0.11520965677E+03  0.35026326233E+04  0.35007373550E+04 0.  0.
        4    1    3    3  502    0  0.98763022948E+03 -0.36664609321E+03  0.14561978133E+04  0.17973192572E+04  0.12699999809E+01 0. -1.
       -4    1    3    3    0  502 -0.98763022948E+03  0.36664609321E+03 -0.13409881565E+04  0.17053133661E+04  0.12699999809E+01 0.  1.
</event>
<event>
 5   0  0.1140808E-08  0.3499794E+04  0.7818609E-02  0.8113839E-01
        1   -1    0    0  501    0  0.00000000000E+00  0.00000000000E+00  0.19395284870E+04  0.19395284870E+04  0.50400001928E-02 0. -1.
       -1   -1    0    0    0  501  0.00000000000E+00  0.00000000000E+00 -0.15788064302E+04  0.15788064302E+04  0.50400001928E-02 0.  1.
    10030    2    1    2    0    0  0.00000000000E+00  0.00000000000E+00  0.36072205684E+03  0.35183349172E+04  0.34997943064E+04 0.  0.
        3    1    3    3  502    0  0.17101213274E+04  0.31644199780E+03 -0.14286878334E+02  0.17392109181E+04  0.10100000352E+00 0.  1.
       -3    1    3    3    0  502 -0.17101213274E+04 -0.31644199780E+03  0.37500893517E+03  0.17791239991E+04  0.10100000352E+00 0. -1.
</event>
<event>
 5   0  0.1121462E-08  0.3501223E+04  0.7818609E-02  0.8113500E-01
       -1   -1    0    0    0  501  0.00000000000E+00  0.00000000000E+00  0.15184844306E+04  0.15184844306E+04  0.50400001928E-02 0.  1.
        1   -1    0    0  501    0  0.00000000000E+00  0.00000000000E+00 -0.20182228617E+04  0.20182228617E+04  0.50400001928E-02 0. -1.
    10030    2    1    2    0    0  0.00000000000E+00  0.00000000000E+00 -0.49973843103E+03  0.35367072923E+04  0.35012226396E+04 0.  0.
        1    1    3    3  502    0  0.19228229858E+03 -0.17322588450E+04 -0.41568773173E+03  0.17917838818E+04  0.50400001928E-02 0.  1.
       -1    1    3    3    0  502 -0.19228229858E+03  0.17322588450E+04 -0.84050699301E+02  0.17449234105E+04  0.50400001928E-02 0. -1.
</event>
<event>
 5   0  0.1121462E-08  0.3500207E+04  0.7818609E-02  0.8113741E-01
       -3   -1    0    0    0  501  0.00000000000E+00  0.00000000000E+00  0.20894672209E+04  0.20894672234E+04  0.10100000352E+00 0.  1.
        3   -1    0    0  501    0  0.00000000000E+00  0.00000000000E+00 -0.14658576006E+04  0.14658576041E+04  0.10100000352E+00 0. -1.
    10030    2    1    2    0    0  0.00000000000E+00  0.00000000000E+00  0.62360962029E+03  0.35553248275E+04  0.35002065182E+04 0.  0.
        2    1    3    3  502    0 -0.45198865634E+03 -0.51250404392E+03 -0.13247486788E+04  0.14906083331E+04  0.25500000920E-02 0. -1.
       -2    1    3    3    0  502  0.45198865634E+03  0.51250404392E+03  0.19483582991E+04  0.20647164944E+04  0.25500000920E-02 0.  1.
</event>
<event>
 5   0  0.1140808E-08  0.3500287E+04  0.7818609E-02  0.8113722E-01
        1   -1    0    0  501    0  0.00000000000E+00  0.00000000000E+00  0.15265426299E+04  0.15265426299E+04  0.50400001928E-02 0.  1.
       -1   -1    0    0    0  501  0.00000000000E+00  0.00000000000E+00 -0.20064966910E+04  0.20064966910E+04  0.50400001928E-02 0. -1.
    10030    2    1    2    0    0  0.00000000000E+00  0.00000000000E+00 -0.47995406111E+03  0.35330393209E+04  0.35002872657E+04 0.  0.
        3    1    3    3  502    0  0.10780056426E+04 -0.11946166544E+04  0.45479322195E+03  0.16721369565E+04  0.10100000352E+00 0. -1.
       -3    1    3    3    0  502 -0.10780056426E+04  0.11946166544E+04 -0.93474728306E+03  0.18609023644E+04  0.10100000352E+00 0.  1.
</event>
<event>
 5   0  0.3700096E-08  0.3500477E+04  0.7818609E-02  0.8113677E-01
        2   -1    0    0  501    0  0.00000000000E+00  0.00000000000E+00  0.14770989875E+04  0.14770989875E+04  0.25500000920E-02 0.  1.
       -2   -1    0    0    0  501  0.00000000000E+00  0.00000000000E+00 -0.20738854200E+04  0.20738854200E+04  0.25500000920E-02 0. -1.
    10030    2    1    2    0    0  0.00000000000E+00  0.00000000000E+00 -0.59678643251E+03  0.35509844075E+04  0.35004765698E+04 0.  0.
        4    1    3    3  502    0 -0.58772368557E+01  0.77590785509E+03  0.12930852596E+04  0.15080247488E+04  0.12699999809E+01 0.  1.
       -4    1    3    3    0  502  0.58772368557E+01 -0.77590785509E+03 -0.18898716921E+04  0.20429596587E+04  0.12699999809E+01 0. -1.
</event>
<event>
 5   0  0.3628017E-08  0.3494777E+04  0.7818609E-02  0.8115029E-01
       -2   -1    0    0    0  501  0.00000000000E+00  0.00000000000E+00  0.15305272612E+04  0.15305272612E+04  0.25500000920E-02 0. -1.
        2   -1    0    0  501    0  0.00000000000E+00  0.00000000000E+00 -0.19949774882E+04  0.19949774882E+04  0.25500000920E-02 0.  1.
    10030    2    1    2    0    0  0.00000000000E+00  0.00000000000E+00 -0.46445022703E+03  0.35255047494E+04  0.34947774929E+04 0.  0.
        1    1    3    3  502    0  0.32762065195E+03  0.10684193448E+04 -0.15873573934E+04  0.19412775902E+04  0.50400001928E-02 0.  1.
       -1    1    3    3    0  502 -0.32762065195E+03 -0.10684193448E+04  0.11229071663E+04  0.15842271592E+04  0.50400001928E-02 0. -1.
</event>
<event>
 5   0  0.1121462E-08  0.3498822E+04  0.7818609E-02  0.8114069E-01
       -1   -1    0    0    0  501  0.00000000000E+00  0.00000000000E+00  0.14198086587E+04  0.14198086587E+04  0.50400001928E-02 0.  1.
        1   -1    0    0  501    0  0.00000000000E+00  0.00000000000E+00 -0.21555289939E+04  0.21555289939E+04  0.50400001928E-02 0. -1.
    10030    2    1    2    0    0  0.00000000000E+00  0.00000000000E+00 -0.73572033520E+03  0.35753376526E+04  0.34988219330E+04 0.  0.
        4    1    3    3  502    0  0.49901745911E+03  0.72577516274E+02 -0.20796512354E+04  0.21399151372E+04  0.12699999809E+01 0. -1.
       -4    1    3    3    0  502 -0.49901745911E+03 -0.72577516274E+02  0.13439309002E+04  0.14354225154E+04  0.12699999809E+01 0.  1.
</event>
<event>
 5   0  0.3554451E-08  0.3501231E+04  0.7818609E-02  0.8113498E-01
        2   -1    0    0  501    0  0.00000000000E+00  0.00000000000E+00  0.23770508661E+04  0.23770508661E+04  0.25500000920E-02 0. -1.
       -2   -1    0    0    0  501  0.00000000000E+00  0.00000000000E+00 -0.12892677006E+04  0.12892677007E+04  0.25500000920E-02 0.  1.
    10030    2    1    2    0    0  0.00000000000E+00  0.00000000000E+00  0.10877831654E+04  0.36663185667E+04  0.35012311574E+04 0.  0.
        5    1    3    3  502    0 -0.95737846269E+01  0.91096372910E+02  0.23745331802E+04  0.23763038780E+04  0.46999998093E+01 0. -1.
       -5    1    3    3    0  502  0.95737846269E+01 -0.91096372910E+02 -0.12867500148E+04  0.12900146887E+04  0.46999998093E+01 0.  1.
</event>
<event>
 5   0  0.1121462E-08  0.3500617E+04  0.7818609E-02  0.8113644E-01
        1   -1    0    0  501    0  0.00000000000E+00  0.00000000000E+00  0.13492237661E+04  0.13492237661E+04  0.50400001928E-02 0.  1.
       -1   -1    0    0    0  501  0.00000000000E+00  0.00000000000E+00 -0.22706233654E+04  0.22706233654E+04  0.50400001928E-02 0. -1.
    10030    2    1    2    0    0  0.00000000000E+00  0.00000000000E+00 -0.92139959926E+03  0.36198471315E+04  0.35006165219E+04 0.  0.
        4    1    3    3  502    0 -0.49732596301E+02 -0.76707106415E+03  0.11653428689E+04  0.13960289982E+04  0.12699999809E+01 0.  1.
       -4    1    3    3    0  502  0.49732596301E+02  0.76707106415E+03 -0.20867424682E+04  0.22238181333E+04  0.12699999809E+01 0. -1.
</event>
<event>
 5   0  0.1121462E-08  0.3499525E+04  0.7818609E-02  0.8113903E-01
       -1   -1    0    0    0  501  0.00000000000E+00  0.00000000000E+00  0.14515850836E+04  0.14515850836E+04  0.50400001928E-02 0. -1.
        1   -1    0    0  501    0  0.00000000000E+00  0.00000000000E+00 -0.21091896226E+04  0.21091896226E+04  0.50400001928E-02 0.  1.
    10030    2    1    2    0    0  0.00000000000E+00  0.00000000000E+00 -0.65760453894E+03  0.35607747062E+04  0.34995246504E+04 0.  0.
        1    1    3    3  502    0 -0.49783545161E+03  0.14790989096E+03  0.13713558491E+04  0.14664018337E+04  0.50400001928E-02 0. -1.
       -1    1    3    3    0  502  0.49783545161E+03 -0.14790989096E+03 -0.20289603881E+04  0.20943728725E+04  0.50400001928E-02 0.  1.
</event>
<event>
 5   0  0.1140808E-08  0.3500284E+04  0.7818609E-02  0.8113723E-01
        1   -1    0    0  501    0  0.00000000000E+00  0.00000000000E+00  0.12772312571E+04  0.12772312571E+04  0.50400001928E-02 0. -1.
       -1   -1    0    0    0  501  0.00000000000E+00  0.00000000000E+00 -0.23981535177E+04  0.23981535177E+04  0.50400001928E-02 0.  1.
    10030    2    1    2    0    0  0.00000000000E+00  0.00000000000E+00 -0.11209222607E+04  0.36753847748E+04  0.35002837782E+04 0.  0.
        3    1    3    3  502    0  0.13661398003E+04  0.16060477863E+03  0.57573400783E+03  0.14911745394E+04  0.10100000352E+00 0. -1.
       -3    1    3    3    0  502 -0.13661398003E+04 -0.16060477863E+03 -0.16966562685E+04  0.21842102354E+04  0.10100000352E+00 0.  1.
</event>
<event>
 5   0  0.1140808E-08  0.3499851E+04  0.7818609E-02  0.8113825E-01
       -1   -1    0    0    0  501  0.00000000000E+00  0.00000000000E+00  0.13708929747E+04  0.13708929747E+04  0.50400001928E-02 0. -1.
        1   -1    0    0  501    0  0.00000000000E+00  0.00000000000E+00 -0.22337547370E+04  0.22337547370E+04  0.50400001928E-02 0.  1.
    10030    2    1    2    0    0  0.00000000000E+00  0.00000000000E+00 -0.86286176225E+03  0.36046477117E+04  0.34998506690E+04 0.  0.
        3    1    3    3  502    0 -0.13368844751E+04  0.46378626608E+02  0.73054764615E+03  0.15241754986E+04  0.10100000352E+00 0. -1.
       -3    1    3    3    0  502  0.13368844751E+04 -0.46378626608E+02 -0.15934094084E+04  0.20804722132E+04  0.10100000352E+00 0.  1.
</event>
<event>
 5   0  0.3554451E-08  0.3501546E+04  0.7818609E-02  0.8113424E-01
       -2   -1    0    0    0  501  0.00000000000E+00  0.00000000000E+00  0.16250008157E+04  0.16250008157E+04  0.25500000920E-02 0.  1.
        2   -1    0    0  501    0  0.00000000000E+00  0.00000000000E+00 -0.18862802186E+04  0.18862802186E+04  0.25500000920E-02 0. -1.
    10030    2    1    2    0    0  0.00000000000E+00  0.00000000000E+00 -0.26127940286E+03  0.35112810343E+04  0.35015464549E+04 0.  0.
        5    1    3    3  502    0 -0.87185580000E+03 -0.10178898920E+04  0.99896988690E+03  0.16715846652E+04  0.46999998093E+01 0.  1.
       -5    1    3    3    0  502  0.87185580000E+03  0.10178898920E+04 -0.12602492898E+04  0.18396963691E+04  0.46999998093E+01 0. -1.
</event>
<event>
 5   0  0.3628017E-08  0.3500453E+04  0.7818609E-02  0.8113683E-01
        2   -1    0    0  501    0  0.00000000000E+00  0.00000000000E+00  0.14633586915E+04  0.14633586915E+04  0.25500000920E-02 0. -1.
       -2   -1    0    0    0  501  0.00000000000E+00  0.00000000000E+00 -0.20933295980E+04  0.20933295980E+04  0.25500000920E-02 0.  1.
    10030    2    1    2    0    0  0.00000000000E+00  0.00000000000E+00 -0.62997090647E+03  0.35566882895E+04  0.35004525772E+04 0.  0.
        1    1    3    3  502    0 -0.30695233634E+03  0.16215240454E+04  0.27724385370E+03  0.16734467787E+04  0.50400001928E-02 0. -1.
       -1    1    3    3    0  502  0.30695233634E+03 -0.16215240454E+04 -0.90721476017E+03  0.18832415108E+04  0.50400001928E-02 0.  1.
</event>
<event>
 5   0  0.1121462E-08  0.3499760E+04  0.7818609E-02  0.8113847E-01
       -1   -1    0    0    0  501  0.00000000000E+00  0.00000000000E+00  0.18835404256E+04  0.18835404256E+04  0.50400001928E-02 0. -1.
        1   -1    0    0  501    0  0.00000000000E+00  0.00000000000E+00 -0.16257047322E+04  0.16257047323E+04  0.50400001928E-02 0.  1.
    10030    2    1    2    0    0  0.00000000000E+00  0.00000000000E+00  0.25783569330E+03  0.35092451578E+04  0.34997603251E+04 0.  0.
        4    1    3    3  502    0  0.85188947423E+03 -0.13349627664E+04 -0.61757120099E+03  0.16997755926E+04  0.12699999809E+01 0.  1.
       -4    1    3    3    0  502 -0.85188947423E+03  0.13349627664E+04  0.87540689429E+03  0.18094695652E+04  0.12699999809E+01 0. -1.
</event>
<event>
 5   0  0.1140808E-08  0.3497719E+04  0.7818609E-02  0.8114331E-01
       -1   -1    0    0    0  501  0.00000000000E+00  0.00000000000E+00  0.13090003217E+04  0.13090003217E+04  0.50400001928E-02 0.  1.
        1   -1    0    0  501    0  0.00000000000E+00  0.00000000000E+00 -0.23365234291E+04  0.23365234291E+04  0.50400001928E-02 0. -1.
    10030    2    1    2    0    0  0.00000000000E+00  0.00000000000E+00 -0.10275231073E+04  0.36455237508E+04  0.34977192114E+04 0.  0.
        3    1    3    3  502    0 -0.14884042593E+04  0.47713694322E+03 -0.13314541766E+04  0.20532357722E+04  0.10100000352E+00 0. -1.
       -3    1    3    3    0  502  0.14884042593E+04 -0.47713694322E+03  0.30393106928E+03  0.15922879786E+04  0.10100000352E+00 0.  1.
</event>
<event>
 5   0  0.3554451E-08  0.3499988E+04  0.7818609E-02  0.8113793E-01
       -2   -1    0    0    0  501  0.00000000000E+00  0.00000000000E+00  0.17883057255E+04  0.17883057255E+04  0.25500000920E-02 0. -1.
        2   -1    0    0  501    0  0.00000000000E+00  0.00000000000E+00 -0.17125029510E+04  0.17125029510E+04  0.25500000920E-02 0.  1.
    10030    2    1    2    0    0  0.00000000000E+00  0.00000000000E+00  0.75802774505E+02  0.35008086765E+04  0.34999879041E+04 0.  0.
        5    1    3    3  502    0  0.15670924854E+04  0.43980898142E+03 -0.60509144732E+03  0.17364816577E+04  0.46999998093E+01 0.  1.
       -5    1    3    3    0  502 -0.15670924854E+04 -0.43980898142E+03  0.68089422183E+03  0.17643270188E+04  0.46999998093E+01 0. -1.
</event>
<event>
 5   0  0.1129219E-08  0.3498284E+04  0.7818609E-02  0.8114197E-01
       -1   -1    0    0    0  501  0.00000000000E+00  0.00000000000E+00  0.14210232363E+04  0.14210232363E+04  0.50400001928E-02 0.  1.
        1   -1    0    0  501    0  0.00000000000E+00  0.00000000000E+00 -0.21530243389E+04  0.21530243389E+04  0.50400001928E-02 0. -1.
    10030    2    1    2    0    0  0.00000000000E+00  0.00000000000E+00 -0.73200110258E+03  0.35740475752E+04  0.34982839302E+04 0.  0.
        5    1    3    3  502    0  0.89832929885E+03 -0.14822740842E+04 -0.12565354405E+03  0.17377982889E+04  0.46999998093E+01 0.  1.
       -5    1    3    3    0  502 -0.89832929885E+03  0.14822740842E+04 -0.60634755852E+03  0.18362492863E+04  0.46999998093E+01 0. -1.
</event>
<event>
 5   0  0.1140808E-08  0.3510433E+04  0.7818609E-02  0.8111322E-01
        1   -1    0    0  501    0  0.00000000000E+00  0.00000000000E+00  0.12643947992E+04  0.12643947992E+04  0.50400001928E-02 0. -1.
       -1   -1    0    0    0  501  0.00000000000E+00  0.00000000000E+00 -0.24365688298E+04  0.24365688298E+04  0.50400001928E-02 0.  1.
    10030    2    1    2    0    0  0.00000000000E+00  0.00000000000E+00 -0.11721740306E+04  0.37009636290E+04  0.35104329968E+04 0.  0.
        3    1    3    3  502    0 -0.99879351792E+03 -0.12435309544E+04  0.18636479157E+03  0.16058298701E+04  0.10100000352E+00 0. -1.
       -3    1    3    3    0  502  0.99879351792E+03  0.12435309544E+04 -0.13585388222E+04  0.20951337589E+04  0.10100000352E+00 0.  1.
</event>
<event>
 5   0  0.3700096E-08  0.3501363E+04  0.7818609E-02  0.8113467E-01
       -2   -1    0    0    0  501  0.00000000000E+00  0.00000000000E+00  0.14389085205E+04  0.14389085205E+04  0.25500000920E-02 0.  1.
        2   -1    0    0  501    0  0.00000000000E+00  0.00000000000E+00 -0.21300068062E+04  0.21300068062E+04  0.25500000920E-02 0. -1.
    10030    2    1    2    0    0  0.00000000000E+00  0.00000000000E+00 -0.69109828565E+03  0.35689153267E+04  0.35013625589E+04 0.  0.
        4    1    3    3  502    0 -0.39355472032E+03 -0.40626344362E+03 -0.20343024938E+04  0.21114742605E+04  0.12699999809E+01 0. -1.
       -4    1    3    3    0  502  0.39355472032E+03  0.40626344362E+03  0.13432042082E+04  0.14574410662E+04  0.12699999809E+01 0.  1.
</event>
<event>
 5   0  0.3553585E-08  0.3499231E+04  0.7818609E-02  0.8113972E-01
        2   -1    0    0  501    0  0.00000000000E+00  0.00000000000E+00  0.14603212472E+04  0.14603212472E+04  0.25500000920E-02 0.  1.
       -2   -1    0    0    0  501  0.00000000000E+00  0.00000000000E+00 -0.20962202146E+04  0.20962202146E+04  0.25500000920E-02 0. -1.
    10030    2    1    2    0    0  0.00000000000E+00  0.00000000000E+00 -0.63589896743E+03  0.35565414617E+04  0.34992312973E+04 0.  0.
        2    1    3    3  502    0 -0.13744037269E+04 -0.40289947417E+02 -0.14175868141E+04  0.19748825940E+04  0.25500000920E-02 0. -1.
       -2    1    3    3    0  502  0.13744037269E+04  0.40289947417E+02  0.78168784670E+03  0.15816588678E+04  0.25500000920E-02 0.  1.
</event>
<event>
 5   0  0.1121462E-08  0.3498897E+04  0.7818609E-02  0.8114051E-01
       -1   -1    0    0    0  501  0.00000000000E+00  0.00000000000E+00  0.13311924818E+04  0.13311924818E+04  0.50400001928E-02 0. -1.
        1   -1    0    0  501    0  0.00000000000E+00  0.00000000000E+00 -0.22991197022E+04  0.22991197022E+04  0.50400001928E-02 0.  1.
    10030    2    1    2    0    0  0.00000000000E+00  0.00000000000E+00 -0.96792722046E+03  0.36303121840E+04  0.34988974620E+04 0.  0.
        2    1    3    3  502    0  0.11781464799E+04 -0.72994242158E+03  0.62371290204E+03  0.15198232960E+04  0.25500000920E-02 0. -1.
       -2    1    3    3    0  502 -0.11781464799E+04  0.72994242158E+03 -0.15916401225E+04  0.21104888880E+04  0.25500000920E-02 0.  1.
</event>
<event>
 5   0  0.3553585E-08  0.3500834E+04  0.7818609E-02  0.8113592E-01
       -2   -1    0    0    0  501  0.00000000000E+00  0.00000000000E+00  0.11775436524E+04  0.11775436524E+04  0.25500000920E-02 0. -1.
        2   -1    0    0  501    0  0.00000000000E+00  0.00000000000E+00 -0.26019919815E+04  0.26019919815E+04  0.25500000920E-02 0.  1.
    10030    2    1    2    0    0  0.00000000000E+00  0.00000000000E+00 -0.14244483291E+04  0.37795356339E+04  0.35008336958E+04 0.  0.
        2    1    3    3  502    0 -0.11116458192E+04 -0.12819118717E+04 -0.11764623931E+04  0.20647320012E+04  0.25500000920E-02 0. -1.
       -2    1    3    3    0  502  0.11116458192E+04  0.12819118717E+04 -0.24798593596E+03  0.17148036327E+04  0.25500000920E-02 0.  1.
</event>
<event>
 5   0  0.1121462E-08  0.3499906E+04  0.7818609E-02  0.8113812E-01
       -1   -1    0    0    0  501  0.00000000000E+00  0.00000000000E+00  0.16361317948E+04  0.16361317948E+04  0.50400001928E-02 0. -1.
        1   -1    0    0  501    0  0.00000000000E+00  0.00000000000E+00 -0.18716924670E+04  0.18716924670E+04  0.50400001928E-02 0.  1.
    10030    2    1    2    0    0  0.00000000000E+00  0.00000000000E+00 -0.23556067216E+03  0.35078242618E+04  0.34999060303E+04 0.  0.
        2    1    3    3  502    0  0.57321008139E+03  0.11548792615E+04  0.10681208653E+04  0.16742753922E+04  0.25500000920E-02 0. -1.
       -2    1    3    3    0  502 -0.57321008139E+03 -0.11548792615E+04 -0.13036815375E+04  0.18335488696E+04  0.25500000920E-02 0.  1.
</event>
<event>
 5   0  0.1121462E-08  0.3500933E+04  0.7818609E-02  0.8113569E-01
       -1   -1    0    0    0  501  0.00000000000E+00  0.00000000000E+00  0.20909989210E+04  0.20909989210E+04  0.50400001928E-02 0. -1.
        1   -1    0    0  501    0  0.00000000000E+00  0.00000000000E+00 -0.14653916417E+04  0.14653916417E+04  0.50400001928E-02 0.  1.
    10030    2    1    2    0    0  0.00000000000E+00  0.00000000000E+00  0.62560727936E+03  0.35563905627E+04  0.35009326424E+04 0.  0.
        1    1    3    3  502    0 -0.89754096174E+03  0.11936203501E+04  0.12404076881E+04  0.19413707917E+04  0.50400001928E-02 0. -1.
       -1    1    3    3    0  502  0.89754096174E+03 -0.11936203501E+04 -0.61480040875E+03  0.16150197710E+04  0.50400001928E-02 0.  1.
</event>
<event>
 5   0  0.3553585E-08  0.3509546E+04  0.7818609E-02  0.8111531E-01
        2   -1    0    0  501    0  0.00000000000E+00  0.00000000000E+00  0.23708627892E+04  0.23708627892E+04  0.25500000920E-02 0.  1.
       -2   -1    0    0    0  501  0.00000000000E+00  0.00000000000E+00 -0.12987798107E+04  0.12987798107E+04  0.25500000920E-02 0. -1.
    10030    2    1    2    0    0  0.00000000000E+00  0.00000000000E+00  0.10720829785E+04  0.36696425999E+04  0.35095462525E+04 0.  0.
        2    1    3    3  502    0  0.23187645223E+03 -0.16929177538E+04  0.11845966325E+03  0.17128251231E+04  0.25500000920E-02 0. -1.
       -2    1    3    3    0  502 -0.23187645223E+03  0.16929177538E+04  0.95362331523E+03  0.19568174768E+04  0.25500000920E-02 0.  1.
</event>
<event>
 5   0  0.3700096E-08  0.3500302E+04  0.7818609E-02  0.8113718E-01
        2   -1    0    0  501    0  0.00000000000E+00  0.00000000000E+00  0.28676457033E+04  0.28676457033E+04  0.25500000920E-02 0. -1.
       -2   -1    0    0    0  501  0.00000000000E+00  0.00000000000E+00 -0.10681333293E+04  0.10681333293E+04  0.25500000920E-02 0.  1.
    10030    2    1    2    0    0  0.00000000000E+00  0.00000000000E+00  0.17995123740E+04  0.39357790326E+04  0.35003016740E+04 0.  0.
        4    1    3    3  502    0 -0.55940099478E+03  0.16307406330E+04  0.12385416420E+04  0.21227886133E+04  0.12699999809E+01 0. -1.
       -4    1    3    3    0  502  0.55940099478E+03 -0.16307406330E+04  0.56097073206E+03  0.18129904192E+04  0.12699999809E+01 0.  1.
</event>
<event>
 5   0  0.3628017E-08  0.3499186E+04  0.7818609E-02  0.8113983E-01
       -2   -1    0    0    0  501  0.00000000000E+00  0.00000000000E+00  0.21978175961E+04  0.21978175961E+04  0.25500000920E-02 0. -1.
        2   -1    0    0  501    0  0.00000000000E+00  0.00000000000E+00 -0.13927797038E+04  0.13927797038E+04  0.25500000920E-02 0.  1.
    10030    2    1    2    0    0  0.00000000000E+00  0.00000000000E+00  0.80503789231E+03  0.35905973000E+04  0.34991860428E+04 0.  0.
        1    1    3    3  502    0  0.14349218457E+04 -0.33828976848E+03 -0.56423709097E+03  0.15785449521E+04  0.50400001928E-02 0.  1.
       -1    1    3    3    0  502 -0.14349218457E+04  0.33828976848E+03  0.13692749833E+04  0.20120523479E+04  0.50400001928E-02 0. -1.
</event>
<event>
 5   0  0.3628017E-08  0.3500961E+04  0.7818609E-02  0.8113562E-01
       -2   -1    0    0    0  501  0.00000000000E+00  0.00000000000E+00  0.16009355063E+04  0.16009355063E+04  0.25500000920E-02 0. -1.
        2   -1    0    0  501    0  0.00000000000E+00  0.00000000000E+00 -0.19139944917E+04  0.19139944917E+04  0.25500000920E-02 0.  1.
    10030    2    1    2    0    0  0.00000000000E+00  0.00000000000E+00 -0.31305898541E+03  0.35149299979E+04  0.35009608627E+04 0.  0.
        1    1    3    3  502    0 -0.32160875312E+03 -0.16900678430E+04  0.16790107030E+03  0.17285694298E+04  0.50400001928E-02 0.  1.
       -1    1    3    3    0  502  0.32160875312E+03  0.16900678430E+04 -0.48096005571E+03  0.17863605681E+04  0.50400001928E-02 0. -1.
</event>
<event>
 5   0  0.1121462E-08  0.3499233E+04  0.7818609E-02  0.8113972E-01
        1   -1    0    0  501    0  0.00000000000E+00  0.00000000000E+00  0.16136424131E+04  0.16136424131E+04  0.50400001928E-02 0.  1.
       -1   -1    0    0    0  501  0.00000000000E+00  0.00000000000E+00 -0.18970481786E+04  0.18970481786E+04  0.50400001928E-02 0. -1.
    10030    2    1    2    0    0  0.00000000000E+00  0.00000000000E+00 -0.28340576548E+03  0.35106905917E+04  0.34992327163E+04 0.  0.
        2    1    3    3  502    0 -0.12308594880E+04 -0.35900538859E+03 -0.13360872319E+04  0.18517637645E+04  0.25500000920E-02 0. -1.
       -2    1    3    3    0  502  0.12308594880E+04  0.35900538859E+03  0.10526814664E+04  0.16589268272E+04  0.25500000920E-02 0.  1.
</event>
<event>
 5   0  0.1121462E-08  0.3505846E+04  0.7818609E-02  0.8112406E-01
       -1   -1    0    0    0  501  0.00000000000E+00  0.00000000000E+00  0.13323589373E+04  0.13323589373E+04  0.50400001928E-02 0.  1.
        1   -1    0    0  501    0  0.00000000000E+00  0.00000000000E+00 -0.23062395402E+04  0.23062395402E+04  0.50400001928E-02 0. -1.
    10030    2    1    2    0    0  0.00000000000E+00  0.00000000000E+00 -0.97388060292E+03  0.36385984775E+04  0.35058458967E+04 0.  0.
        2    1    3    3  502    0 -0.17383504245E+03  0.16022042277E+04 -0.12025877887E+04  0.20108442005E+04  0.25500000920E-02 0. -1.
       -2    1    3    3    0  502  0.17383504245E+03 -0.16022042277E+04  0.22870718578E+03  0.16277542769E+04  0.25500000920E-02 0.  1.
</event>
<event>
 5   0  0.3628017E-08  0.3497756E+04  0.7818609E-02  0.8114322E-01
       -2   -1    0    0    0  501  0.00000000000E+00  0.00000000000E+00  0.15447236620E+04  0.15447236620E+04  0.25500000920E-02 0.  1.
        2   -1    0    0  501    0  0.00000000000E+00  0.00000000000E+00 -0.19800134546E+04  0.19800134546E+04  0.25500000920E-02 0. -1.
    10030    2    1    2    0    0  0.00000000000E+00  0.00000000000E+00 -0.43528979252E+03  0.35247371166E+04  0.34977556429E+04 0.  0.
        1    1    3    3  502    0  0.15109325374E+04  0.34251251130E+03 -0.10352864260E+04  0.18633437516E+04  0.50400001928E-02 0. -1.
       -1    1    3    3    0  502 -0.15109325374E+04 -0.34251251130E+03  0.59999663346E+03  0.16613933650E+04  0.50400001928E-02 0.  1.
</event>
<event>
 5   0  0.3554451E-08  0.3501514E+04  0.7818609E-02  0.8113431E-01
       -2   -1    0    0    0  501  0.00000000000E+00  0.00000000000E+00  0.14723372499E+04  0.14723372499E+04  0.25500000920E-02 0. -1.
        2   -1    0    0  501    0  0.00000000000E+00  0.00000000000E+00 -0.20818256977E+04  0.20818256977E+04  0.25500000920E-02 0.  1.
    10030    2    1    2    0    0  0.00000000000E+00  0.00000000000E+00 -0.60948844774E+03  0.35541629476E+04  0.35015136856E+04 0.  0.
        5    1    3    3  502    0  0.13465928341E+04 -0.86459556690E+03 -0.10255554570E+04  0.19006903590E+04  0.46999998093E+01 0.  1.
       -5    1    3    3    0  502 -0.13465928341E+04  0.86459556690E+03  0.41606700929E+03  0.16534725886E+04  0.46999998093E+01 0. -1.
</event>
<event>
 5   0  0.3700096E-08  0.3498128E+04  0.7818609E-02  0.8114234E-01
       -2   -1    0    0    0  501  0.00000000000E+00  0.00000000000E+00  0.11762280431E+04  0.11762280431E+04  0.25500000920E-02 0. -1.
        2   -1    0    0  501    0  0.00000000000E+00  0.00000000000E+00 -0.26008779722E+04  0.26008779722E+04  0.25500000920E-02 0.  1.
    10030    2    1    2    0    0  0.00000000000E+00  0.00000000000E+00 -0.14246499292E+04  0.37771060153E+04  0.34981284182E+04 0.  0.
        4    1    3    3  502    0 -0.14775038828E+04 -0.63438861290E+03 -0.14555176224E+04  0.21688706273E+04  0.12699999809E+01 0.  1.
       -4    1    3    3    0  502  0.14775038828E+04  0.63438861290E+03  0.30867693259E+02  0.16082353880E+04  0.12699999809E+01 0. -1.
</event>
<event>
 5   0  0.1121462E-08  0.3498953E+04  0.7818609E-02  0.8114038E-01
       -1   -1    0    0    0  501  0.00000000000E+00  0.00000000000E+00  0.13486117555E+04  0.13486117556E+04  0.50400001928E-02 0.  1.
        1   -1    0    0  501    0  0.00000000000E+00  0.00000000000E+00 -0.22694952997E+04  0.22694952997E+04  0.50400001928E-02 0. -1.
    10030    2    1    2    0    0  0.00000000000E+00  0.00000000000E+00 -0.92088354417E+03  0.36181070553E+04  0.34989530093E+04 0.  0.
        1    1    3    3  502    0 -0.64826515596E+03 -0.91720820554E+03  0.92655969814E+03  0.14560327877E+04  0.50400001928E-02 0.  1.
       -1    1    3    3    0  502  0.64826515596E+03  0.91720820554E+03 -0.18474432423E+04  0.21620742675E+04  0.50400001928E-02 0. -1.
</event>
<event>
 5   0  0.3467834E-08  0.3498964E+04  0.7818609E-02  0.8114035E-01
       -2   -1    0    0    0  501  0.00000000000E+00  0.00000000000E+00  0.17769187968E+04  0.17769187968E+04  0.25500000920E-02 0.  1.
        2   -1    0    0  501    0  0.00000000000E+00  0.00000000000E+00 -0.17224692687E+04  0.17224692687E+04  0.25500000920E-02 0. -1.
    10030    2    1    2    0    0  0.00000000000E+00  0.00000000000E+00  0.54449528100E+02  0.34993880656E+04  0.34989644300E+04 0.  0.
        3    1    3    3  502    0 -0.73391639134E+03 -0.10668390149E+04 -0.11493143938E+04  0.17313874030E+04  0.10100000352E+00 0. -1.
       -3    1    3    3    0  502  0.73391639134E+03  0.10668390149E+04  0.12037639219E+04  0.17680006626E+04  0.10100000352E+00 0.  1.
</event>
<event>
 5   0  0.3628017E-08  0.3500306E+04  0.7818609E-02  0.8113717E-01
        2   -1    0    0  501    0  0.00000000000E+00  0.00000000000E+00  0.16044563386E+04  0.16044563386E+04  0.25500000920E-02 0. -1.
       -2   -1    0    0    0  501  0.00000000000E+00  0.00000000000E+00 -0.19090803939E+04  0.19090803939E+04  0.25500000920E-02 0.  1.
    10030    2    1    2    0    0  0.00000000000E+00  0.00000000000E+00 -0.30462405534E+03  0.35135367324E+04  0.35003063516E+04 0.  0.
        1    1    3    3  502    0  0.89574768752E+03 -0.14672488456E+04 -0.48196321641E+03  0.17853491638E+04  0.50400001928E-02 0.  1.
       -1    1    3    3    0  502 -0.89574768752E+03  0.14672488456E+04  0.17733916108E+03  0.17281875687E+04  0.50400001928E-02 0. -1.
</event>
<event>
 5   0  0.1121462E-08  0.3500252E+04  0.7818609E-02  0.8113730E-01
        1   -1    0    0  501    0  0.00000000000E+00  0.00000000000E+00  0.22836062094E+04  0.22836062094E+04  0.50400001928E-02 0.  1.
       -1   -1    0    0    0  501  0.00000000000E+00  0.00000000000E+00 -0.13412737698E+04  0.13412737698E+04  0.50400001928E-02 0. -1.
    10030    2    1    2    0    0  0.00000000000E+00  0.00000000000E+00  0.94233243957E+03  0.36248799792E+04  0.35002520533E+04 0.  0.
        4    1    3    3  502    0 -0.52279995127E+03  0.11751374744E+04 -0.75796767665E+03  0.14929114121E+04  0.12699999809E+01 0. -1.
       -4    1    3    3    0  502  0.52279995127E+03 -0.11751374744E+04  0.17003001162E+04  0.21319685670E+04  0.12699999809E+01 0.  1.
</event>
<event>
 5   0  0.3467834E-08  0.3499656E+04  0.7818609E-02  0.8113871E-01
       -2   -1    0    0    0  501  0.00000000000E+00  0.00000000000E+00  0.17734453409E+04  0.17734453409E+04  0.25500000920E-02 0.  1.
        2   -1    0    0  501    0  0.00000000000E+00  0.00000000000E+00 -0.17265250719E+04  0.17265250720E+04  0.25500000920E-02 0. -1.
    10030    2    1    2    0    0  0.00000000000E+00  0.00000000000E+00  0.46920268995E+02  0.34999704129E+04  0.34996558944E+04 0.  0.
        3    1    3    3  502    0 -0.95191101252E+03 -0.25844239902E+03  0.14689172522E+04  0.17693628665E+04  0.10100000352E+00 0.  1.
       -3    1    3    3    0  502  0.95191101252E+03  0.25844239902E+03 -0.14219969832E+04  0.17306075464E+04  0.10100000352E+00 0. -1.
</event>
<event>
 5   0  0.3628017E-08  0.3504943E+04  0.7818609E-02  0.8112620E-01
        2   -1    0    0  501    0  0.00000000000E+00  0.00000000000E+00  0.13875222495E+04  0.13875222495E+04  0.25500000920E-02 0. -1.
       -2   -1    0    0    0  501  0.00000000000E+00  0.00000000000E+00 -0.22134099210E+04  0.22134099210E+04  0.25500000920E-02 0.  1.
    10030    2    1    2    0    0  0.00000000000E+00  0.00000000000E+00 -0.82588767151E+03  0.36009321705E+04  0.35049425174E+04 0.  0.
        1    1    3    3  502    0 -0.92548631866E+03  0.25824259986E+03 -0.19186674102E+04  0.21458095902E+04  0.50400001928E-02 0.  1.
       -1    1    3    3    0  502  0.92548631866E+03 -0.25824259986E+03  0.10927797387E+04  0.14551225803E+04  0.50400001928E-02 0. -1.
</event>
<event>
 5   0  0.1121462E-08  0.3499224E+04  0.7818609E-02  0.8113974E-01
       -1   -1    0    0    0  501  0.00000000000E+00  0.00000000000E+00  0.13863169519E+04  0.13863169519E+04  0.50400001928E-02 0. -1.
        1   -1    0    0  501    0  0.00000000000E+00  0.00000000000E+00 -0.22081111590E+04  0.22081111590E+04  0.50400001928E-02 0.  1.
    10030    2    1    2    0    0  0.00000000000E+00  0.00000000000E+00 -0.82179420712E+03  0.35944281109E+04  0.34992238747E+04 0.  0.
        2    1    3    3  502    0 -0.54980479002E+03 -0.16089253813E+04  0.12899950762E+02  0.17003213222E+04  0.25500000920E-02 0.  1.
       -2    1    3    3    0  502  0.54980479002E+03  0.16089253813E+04 -0.83469415788E+03  0.18941067887E+04  0.25500000920E-02 0. -1.
</event>
<event>
 5   0  0.3554451E-08  0.3502323E+04  0.7818609E-02  0.8113240E-01
        2   -1    0    0  501    0  0.00000000000E+00  0.00000000000E+00  0.14720105955E+04  0.14720105955E+04  0.25500000920E-02 0.  1.
       -2   -1    0    0    0  501  0.00000000000E+00  0.00000000000E+00 -0.20832498792E+04  0.20832498792E+04  0.25500000920E-02 0. -1.
    10030    2    1    2    0    0  0.00000000000E+00  0.00000000000E+00 -0.61123928368E+03  0.35552604747E+04  0.35023225981E+04 0.  0.
        5    1    3    3  502    0 -0.86057997737E+03  0.10935612804E+04 -0.13847350181E+04  0.19631574904E+04  0.46999998093E+01 0. -1.
       -5    1    3    3    0  502  0.86057997737E+03 -0.10935612804E+04  0.77349573443E+03  0.15921029843E+04  0.46999998093E+01 0.  1.
</event>
<event>
 5   0  0.1121462E-08  0.3499036E+04  0.7818609E-02  0.8114018E-01
        1   -1    0    0  501    0  0.00000000000E+00  0.00000000000E+00  0.16410341995E+04  0.16410341995E+04  0.50400001928E-02 0.  1.
       -1   -1    0    0    0  501  0.00000000000E+00  0.00000000000E+00 -0.18651730811E+04  0.18651730812E+04  0.50400001928E-02 0. -1.
    10030    2    1    2    0    0  0.00000000000E+00  0.00000000000E+00 -0.22413888161E+03  0.35062072807E+04  0.34990357610E+04 0.  0.
        1    1    3    3  502    0  0.41303462455E+03  0.16979700896E+04 -0.19657964202E+03  0.17585060654E+04  0.50400001928E-02 0.  1.
       -1    1    3    3    0  502 -0.41303462455E+03 -0.16979700896E+04 -0.27559239586E+02  0.17477012153E+04  0.50400001928E-02 0. -1.
</event>
<event>
 5   0  0.3628017E-08  0.3500446E+04  0.7818609E-02  0.8113684E-01
        2   -1    0    0  501    0  0.00000000000E+00  0.00000000000E+00  0.11768333781E+04  0.11768333781E+04  0.25500000920E-02 0.  1.
       -2   -1    0    0    0  501  0.00000000000E+00  0.00000000000E+00 -0.26029856338E+04  0.26029856338E+04  0.25500000920E-02 0. -1.
    10030    2    1    2    0    0  0.00000000000E+00  0.00000000000E+00 -0.14261522557E+04  0.37798190119E+04  0.35004459010E+04 0.  0.
        1    1    3    3  502    0 -0.49876026339E+03 -0.10230273992E+04  0.72267973933E+03  0.13481887351E+04  0.50400001928E-02 0.  1.
       -1    1    3    3    0  502  0.49876026339E+03  0.10230273992E+04 -0.21488319950E+04  0.24316302768E+04  0.50400001928E-02 0. -1.
</event>
<event>
 5   0  0.3553585E-08  0.3497539E+04  0.7818609E-02  0.8114373E-01
        2   -1    0    0  501    0  0.00000000000E+00  0.00000000000E+00  0.25735696118E+04  0.25735696118E+04  0.25500000920E-02 0. -1.
       -2   -1    0    0    0  501  0.00000000000E+00  0.00000000000E+00 -0.11883085241E+04  0.11883085241E+04  0.25500000920E-02 0.  1.
    10030    2    1    2    0    0  0.00000000000E+00  0.00000000000E+00  0.13852610877E+04  0.37618781358E+04  0.34975389673E+04 0.  0.
        2    1    3    3  502    0  0.61158512832E+03 -0.12107902524E+03  0.24499753317E+04  0.25280576785E+04  0.25500000920E-02 0. -1.
       -2    1    3    3    0  502 -0.61158512832E+03  0.12107902524E+03 -0.10647142441E+04  0.12338204574E+04  0.25500000920E-02 0.  1.
</event>
<event>
 5   0  0.1121462E-08  0.3500098E+04  0.7818609E-02  0.8113767E-01
       -3   -1    0    0    0  501  0.00000000000E+00  0.00000000000E+00  0.15750967230E+04  0.15750967262E+04  0.10100000352E+00 0.  1.
        3   -1    0    0  501    0  0.00000000000E+00  0.00000000000E+00 -0.19444333640E+04  0.19444333667E+04  0.10100000352E+00 0. -1.
    10030    2    1    2    0    0  0.00000000000E+00  0.00000000000E+00 -0.36933664106E+03  0.35195300929E+04  0.35000975015E+04 0.  0.
        4    1    3    3  502    0  0.86051267812E+03 -0.53460425372E+03 -0.16196108598E+04  0.19103467558E+04  0.12699999809E+01 0. -1.
       -4    1    3    3    0  502 -0.86051267812E+03  0.53460425372E+03  0.12502742188E+04  0.16091833371E+04  0.12699999809E+01 0.  1.
</event>
<event>
 5   0  0.1140808E-08  0.3509138E+04  0.7818609E-02  0.8111628E-01
        1   -1    0    0  501    0  0.00000000000E+00  0.00000000000E+00  0.11810014795E+04  0.11810014795E+04  0.50400001928E-02 0.  1.
       -1   -1    0    0    0  501  0.00000000000E+00  0.00000000000E+00 -0.26066963613E+04  0.26066963613E+04  0.50400001928E-02 0. -1.
    10030    2    1    2    0    0  0.00000000000E+00  0.00000000000E+00 -0.14256948817E+04  0.37876978408E+04  0.35091379336E+04 0.  0.
        3    1    3    3  502    0  0.23494941775E+03 -0.17247697084E+04 -0.47518622662E+03  0.18043928996E+04  0.10100000352E+00 0.  1.
       -3    1    3    3    0  502 -0.23494941775E+03  0.17247697084E+04 -0.95050865512E+03  0.19833049412E+04  0.10100000352E+00 0. -1.
</event>
<event>
 5   0  0.3467834E-08  0.3500103E+04  0.7818609E-02  0.8113766E-01
       -2   -1    0    0    0  501  0.00000000000E+00  0.00000000000E+00  0.17560008521E+04  0.17560008521E+04  0.25500000920E-02 0. -1.
        2   -1    0    0  501    0  0.00000000000E+00  0.00000000000E+00 -0.17441223612E+04  0.17441223612E+04  0.25500000920E-02 0.  1.
    10030    2    1    2    0    0  0.00000000000E+00  0.00000000000E+00  0.11878490876E+02  0.35001232134E+04  0.35001030571E+04 0.  0.
        3    1    3    3  502    0  0.48646737932E+03  0.16684354606E+04 -0.19986025118E+03  0.17493631777E+04  0.10100000352E+00 0.  1.
       -3    1    3    3    0  502 -0.48646737932E+03 -0.16684354606E+04  0.21173874205E+03  0.17507600357E+04  0.10100000352E+00 0. -1.
</event>
<event>
 5   0  0.3554451E-08  0.3497923E+04  0.7818609E-02  0.8114282E-01
       -2   -1    0    0    0  501  0.00000000000E+00  0.00000000000E+00  0.15290676280E+04  0.15290676280E+04  0.25500000920E-02 0.  1.
        2   -1    0    0  501    0  0.00000000000E+00  0.00000000000E+00 -0.20004786653E+04  0.20004786653E+04  0.25500000920E-02 0. -1.
    10030    2    1    2    0    0  0.00000000000E+00  0.00000000000E+00 -0.47141103725E+03  0.35295462933E+04  0.34979234798E+04 0.  0.
        5    1    3    3  502    0  0.24290880448E+03  0.17319308455E+04 -0.21956286842E+03  0.17626171122E+04  0.46999998093E+01 0. -1.
       -5    1    3    3    0  502 -0.24290880448E+03 -0.17319308455E+04 -0.25184816883E+03  0.17669291811E+04  0.46999998093E+01 0.  1.
</event>
<event>
 5   0  0.1121462E-08  0.3499988E+04  0.7818609E-02  0.8113793E-01
        3   -1    0    0  501    0  0.00000000000E+00  0.00000000000E+00  0.12480260680E+04  0.12480260721E+04  0.10100000352E+00 0. -1.
       -3   -1    0    0    0  501  0.00000000000E+00  0.00000000000E+00 -0.24538580232E+04  0.24538580253E+04  0.10100000352E+00 0.  1.
    10030    2    1    2    0    0  0.00000000000E+00  0.00000000000E+00 -0.12058319552E+04  0.37018840974E+04  0.34999878809E+04 0.  0.
        4    1    3    3  502    0  0.27928885970E+03  0.13973661851E+04  0.47147664000E+03  0.15009751355E+04  0.12699999809E+01 0. -1.
       -4    1    3    3    0  502 -0.27928885970E+03 -0.13973661851E+04 -0.16773085952E+04  0.22009089619E+04  0.12699999809E+01 0.  1.
</event>
<event>
 5   0  0.3628017E-08  0.3499683E+04  0.7818609E-02  0.8113865E-01
       -2   -1    0    0    0  501  0.00000000000E+00  0.00000000000E+00  0.13482354882E+04  0.13482354882E+04  0.25500000920E-02 0. -1.
        2   -1    0    0  501    0  0.00000000000E+00  0.00000000000E+00 -0.22710763654E+04  0.22710763654E+04  0.25500000920E-02 0.  1.
    10030    2    1    2    0    0  0.00000000000E+00  0.00000000000E+00 -0.92284087720E+03  0.36193118537E+04  0.34996832727E+04 0.  0.
        1    1    3    3  502    0  0.40976286519E+03 -0.95128629222E+03  0.99714183363E+03  0.14377562561E+04  0.50400001928E-02 0. -1.
       -1    1    3    3    0  502 -0.40976286519E+03  0.95128629222E+03 -0.19199827108E+04  0.21815555976E+04  0.50400001928E-02 0.  1.
</event>
<event>
 5   0  0.1121462E-08  0.3499601E+04  0.7818609E-02  0.8113885E-01
       -1   -1    0    0    0  501  0.00000000000E+00  0.00000000000E+00  0.16497392033E+04  0.16497392033E+04  0.50400001928E-02 0.  1.
        1   -1    0    0  501    0  0.00000000000E+00  0.00000000000E+00 -0.18559308024E+04  0.18559308024E+04  0.50400001928E-02 0. -1.
    10030    2    1    2    0    0  0.00000000000E+00  0.00000000000E+00 -0.20619159906E+03  0.35056700057E+04  0.34996010078E+04 0.  0.
        1    1    3    3  502    0  0.11309651719E+04  0.15444081125E+03 -0.14316187971E+04  0.18309742119E+04  0.50400001928E-02 0. -1.
       -1    1    3    3    0  502 -0.11309651719E+04 -0.15444081125E+03  0.12254271981E+04  0.16746957939E+04  0.50400001928E-02 0.  1.
</event>
<event>
 5   0  0.3467834E-08  0.3499767E+04  0.7818609E-02  0.8113845E-01
        2   -1    0    0  501    0  0.00000000000E+00  0.00000000000E+00  0.23295820258E+04  0.23295820258E+04  0.25500000920E-02 0. -1.
       -2   -1    0    0    0  501  0.00000000000E+00  0.00000000000E+00 -0.13144385435E+04  0.13144385436E+04  0.25500000920E-02 0.  1.
    10030    2    1    2    0    0  0.00000000000E+00  0.00000000000E+00  0.10151434822E+04  0.36440205693E+04  0.34997670808E+04 0.  0.
        3    1    3    3  502    0  0.12343235464E+04  0.95531196635E+03 -0.31618691395E+03  0.15925293545E+04  0.10100000352E+00 0.  1.
       -3    1    3    3    0  502 -0.12343235464E+04 -0.95531196635E+03  0.13313303962E+04  0.20514912148E+04  0.10100000352E+00 0. -1.
</event>
<event>
 5   0  0.3700096E-08  0.3500101E+04  0.7818609E-02  0.8113766E-01
        2   -1    0    0  501    0  0.00000000000E+00  0.00000000000E+00  0.25827178968E+04  0.25827178968E+04  0.25500000920E-02 0. -1.
       -2   -1    0    0    0  501  0.00000000000E+00  0.00000000000E+00 -0.11858350312E+04  0.11858350312E+04  0.25500000920E-02 0.  1.
    10030    2    1    2    0    0  0.00000000000E+00  0.00000000000E+00  0.13968828656E+04  0.37685529281E+04  0.35001013459E+04 0.  0.
        4    1    3    3  502    0  0.14320190617E+04  0.93618302810E+03  0.10948630786E+04  0.20312173761E+04  0.12699999809E+01 0. -1.
       -4    1    3    3    0  502 -0.14320190617E+04 -0.93618302810E+03  0.30201978701E+03  0.17373355519E+04  0.12699999809E+01 0.  1.
</event>
<event>
 5   0  0.3553585E-08  0.3506427E+04  0.7818609E-02  0.8112269E-01
       -2   -1    0    0    0  501  0.00000000000E+00  0.00000000000E+00  0.16950798529E+04  0.16950798529E+04  0.25500000920E-02 0. -1.
        2   -1    0    0  501    0  0.00000000000E+00  0.00000000000E+00 -0.18133405008E+04  0.18133405008E+04  0.25500000920E-02 0.  1.
    10030    2    1    2    0    0  0.00000000000E+00  0.00000000000E+00 -0.11826064787E+03  0.35084203537E+04  0.35064266423E+04 0.  0.
        2    1    3    3  502    0  0.12137249412E+04  0.48421448468E+03 -0.12286255401E+04  0.17936311265E+04  0.25500000920E-02 0.  1.
       -2    1    3    3    0  502 -0.12137249412E+04 -0.48421448468E+03  0.11103648922E+04  0.17147892273E+04  0.25500000920E-02 0. -1.
</event>
<event>
 5   0  0.3553585E-08  0.3499935E+04  0.7818609E-02  0.8113805E-01
       -2   -1    0    0    0  501  0.00000000000E+00  0.00000000000E+00  0.13008129747E+04  0.13008129747E+04  0.25500000920E-02 0.  1.
        2   -1    0    0  501    0  0.00000000000E+00  0.00000000000E+00 -0.23542096221E+04  0.23542096221E+04  0.25500000920E-02 0. -1.
    10030    2    1    2    0    0  0.00000000000E+00  0.00000000000E+00 -0.10533966474E+04  0.36550225968E+04  0.34999350974E+04 0.  0.
        2    1    3    3  502    0  0.26709594490E+03 -0.44001165404E+02  0.12788163800E+04  0.13071525084E+04  0.25500000920E-02 0.  1.
       -2    1    3    3    0  502 -0.26709594490E+03  0.44001165404E+02 -0.23322130274E+04  0.23478700883E+04  0.25500000920E-02 0. -1.
</event>
<event>
 5   0  0.3628017E-08  0.3502380E+04  0.7818609E-02  0.8113226E-01
       -2   -1    0    0    0  501  0.00000000000E+00  0.00000000000E+00  0.10024107828E+04  0.10024107828E+04  0.25500000920E-02 0.  1.
        2   -1    0    0  501    0  0.00000000000E+00  0.00000000000E+00 -0.30592916006E+04  0.30592916006E+04  0.25500000920E-02 0. -1.
    10030    2    1    2    0    0  0.00000000000E+00  0.00000000000E+00 -0.20568808178E+04  0.40617023834E+04  0.35023802696E+04 0.  0.
        1    1    3    3  502    0 -0.34824319124E+03 -0.66376459811E+03  0.80696583715E+03  0.11013857745E+04  0.50400001928E-02 0.  1.
       -1    1    3    3    0  502  0.34824319124E+03  0.66376459811E+03 -0.28638466549E+04  0.29603166089E+04  0.50400001928E-02 0. -1.
</event>
<event>
 5   0  0.1121462E-08  0.3500588E+04  0.7818609E-02  0.8113651E-01
       -3   -1    0    0    0  501  0.00000000000E+00  0.00000000000E+00  0.12538872447E+04  0.12538872487E+04  0.10100000352E+00 0.  1.
        3   -1    0    0  501    0  0.00000000000E+00  0.00000000000E+00 -0.24432258864E+04  0.24432258885E+04  0.10100000352E+00 0. -1.
    10030    2    1    2    0    0  0.00000000000E+00  0.00000000000E+00 -0.11893386417E+04  0.36971131373E+04  0.35005883998E+04 0.  0.
        4    1    3    3  502    0  0.94849522297E+03  0.10216198729E+04  0.52313343571E+03  0.14889662713E+04  0.12699999809E+01 0.  1.
       -4    1    3    3    0  502 -0.94849522297E+03 -0.10216198729E+04 -0.17124720774E+04  0.22081468659E+04  0.12699999809E+01 0. -1.
</event>
<event>
 5   0  0.1121462E-08  0.3495363E+04  0.7818609E-02  0.8114890E-01
       -1   -1    0    0    0  501  0.00000000000E+00  0.00000000000E+00  0.29017236021E+04  0.29017236021E+04  0.50400001928E-02 0. -1.
        1   -1    0    0  501    0  0.00000000000E+00  0.00000000000E+00 -0.10526123737E+04  0.10526123737E+04  0.50400001928E-02 0.  1.
    10030    2    1    2    0    0  0.00000000000E+00  0.00000000000E+00  0.18491112284E+04  0.39543359758E+04  0.34953627386E+04 0.  0.
        1    1    3    3  502    0  0.10750530415E+04 -0.29547981346E+01  0.24834004938E+04  0.27061089751E+04  0.50400001928E-02 0. -1.
       -1    1    3    3    0  502 -0.10750530415E+04  0.29547981346E+01 -0.63428926537E+03  0.12482270006E+04  0.50400001928E-02 0.  1.
</event>
<event>
 5   0  0.3628017E-08  0.3500541E+04  0.7818609E-02  0.8113662E-01
       -2   -1    0    0    0  501  0.00000000000E+00  0.00000000000E+00  0.20236267323E+04  0.20236267323E+04  0.25500000920E-02 0. -1.
        2   -1    0    0  501    0  0.00000000000E+00  0.00000000000E+00 -0.15138402887E+04  0.15138402887E+04  0.25500000920E-02 0.  1.
    10030    2    1    2    0    0  0.00000000000E+00  0.00000000000E+00  0.50978644354E+03  0.35374670210E+04  0.35005414876E+04 0.  0.
        1    1    3    3  502    0  0.35570319658E+02 -0.17463169504E+04  0.36814473039E+03  0.17850542517E+04  0.50400001928E-02 0.  1.
       -1    1    3    3    0  502 -0.35570319658E+02  0.17463169504E+04  0.14164171316E+03  0.17524127693E+04  0.50400001928E-02 0. -1.
</event>
<event>
 5   0  0.1121462E-08  0.3497647E+04  0.7818609E-02  0.8114348E-01
       -1   -1    0    0    0  501  0.00000000000E+00  0.00000000000E+00  0.10145792505E+04  0.10145792505E+04  0.50400001928E-02 0.  1.
        1   -1    0    0  501    0  0.00000000000E+00  0.00000000000E+00 -0.30144353179E+04  0.30144353179E+04  0.50400001928E-02 0. -1.
    10030    2    1    2    0    0  0.00000000000E+00  0.00000000000E+00 -0.19998560674E+04  0.40290145684E+04  0.34976469379E+04 0.  0.
        2    1    3    3  502    0 -0.37167913158E+03  0.85618538100E+03  0.70366400976E+03  0.11689062504E+04  0.25500000920E-02 0.  1.
       -2    1    3    3    0  502  0.37167913158E+03 -0.85618538100E+03 -0.27035200771E+04  0.28601083180E+04  0.25500000920E-02 0. -1.
</event>
<event>
 5   0  0.1140808E-08  0.3500362E+04  0.7818609E-02  0.8113704E-01
        1   -1    0    0  501    0  0.00000000000E+00  0.00000000000E+00  0.23248884734E+04  0.23248884734E+04  0.50400001928E-02 0. -1.
       -1   -1    0    0    0  501  0.00000000000E+00  0.00000000000E+00 -0.13175400128E+04  0.13175400128E+04  0.50400001928E-02 0.  1.
    10030    2    1    2    0    0  0.00000000000E+00  0.00000000000E+00  0.10073484606E+04  0.36424284862E+04  0.35003620322E+04 0.  0.
        3    1    3    3  502    0 -0.10267562742E+04 -0.11893959602E+04  0.13058321596E+04  0.20430586962E+04  0.10100000352E+00 0. -1.
       -3    1    3    3    0  502  0.10267562742E+04  0.11893959602E+04 -0.29848369896E+03  0.15993697901E+04  0.10100000352E+00 0.  1.
</event>
<event>
 5   0  0.1121462E-08  0.3499386E+04  0.7818609E-02  0.8113936E-01
       -1   -1    0    0    0  501  0.00000000000E+00  0.00000000000E+00  0.12062616418E+04  0.12062616418E+04  0.50400001928E-02 0.  1.
        1   -1    0    0  501    0  0.00000000000E+00  0.00000000000E+00 -0.25379446864E+04  0.25379446864E+04  0.50400001928E-02 0. -1.
    10030    2    1    2    0    0  0.00000000000E+00  0.00000000000E+00 -0.13316830446E+04  0.37442063283E+04  0.34993858457E+04 0.  0.
        4    1    3    3  502    0 -0.24180057255E+03 -0.17269068721E+04 -0.51171940922E+03  0.18172873268E+04  0.12699999809E+01 0. -1.
       -4    1    3    3    0  502  0.24180057255E+03  0.17269068721E+04 -0.81996363543E+03  0.19269190014E+04  0.12699999809E+01 0.  1.
</event>
<event>
 5   0  0.3628017E-08  0.3502627E+04  0.7818609E-02  0.8113168E-01
       -2   -1    0    0    0  501  0.00000000000E+00  0.00000000000E+00  0.17872118038E+04  0.17872118038E+04  0.25500000920E-02 0.  1.
        2   -1    0    0  501    0  0.00000000000E+00  0.00000000000E+00 -0.17161365664E+04  0.17161365664E+04  0.25500000920E-02 0. -1.
    10030    2    1    2    0    0  0.00000000000E+00  0.00000000000E+00  0.71075237387E+02  0.35033483703E+04  0.35026273159E+04 0.  0.
        1    1    3    3  502    0 -0.10913636410E+04 -0.13569251959E+04  0.22206714750E+03  0.17554584592E+04  0.50400001928E-02 0.  1.
       -1    1    3    3    0  502  0.10913636410E+04  0.13569251959E+04 -0.15099191012E+03  0.17478899110E+04  0.50400001928E-02 0. -1.
</event>
<event>
 5   0  0.1121462E-08  0.3499570E+04  0.7818609E-02  0.8113892E-01
        1   -1    0    0  501    0  0.00000000000E+00  0.00000000000E+00  0.24452358721E+04  0.24452358721E+04  0.50400001928E-02 0. -1.
       -1   -1    0    0    0  501  0.00000000000E+00  0.00000000000E+00 -0.12521275461E+04  0.12521275461E+04  0.50400001928E-02 0.  1.
    10030    2    1    2    0    0  0.00000000000E+00  0.00000000000E+00  0.11931083259E+04  0.36973634182E+04  0.34995697977E+04 0.  0.
        2    1    3    3  502    0 -0.31209893926E+03  0.17174502935E+04  0.72467618478E+03  0.18900256165E+04  0.25500000920E-02 0. -1.
       -2    1    3    3    0  502  0.31209893926E+03 -0.17174502935E+04  0.46843214114E+03  0.18073378017E+04  0.25500000920E-02 0.  1.
</event>
<event>
 5   0  0.1129219E-08  0.3500126E+04  0.7818609E-02  0.8113760E-01
       -1   -1    0    0    0  501  0.00000000000E+00  0.00000000000E+00  0.16363757955E+04  0.16363757955E+04  0.50400001928E-02 0. -1.
        1   -1    0    0  501    0  0.00000000000E+00  0.00000000000E+00 -0.18716488821E+04  0.18716488821E+04  0.50400001928E-02 0.  1.
    10030    2    1    2    0    0  0.00000000000E+00  0.00000000000E+00 -0.23527308656E+03  0.35080246776E+04  0.35001262425E+04 0.  0.
        5    1    3    3  502    0 -0.59650380481E+03 -0.83153602853E+03 -0.15404985329E+04  0.18494395843E+04  0.46999998093E+01 0.  1.
       -5    1    3    3    0  502  0.59650380481E+03  0.83153602853E+03  0.13052254464E+04  0.16585850933E+04  0.46999998093E+01 0. -1.
</event>
<event>
 5   0  0.1129219E-08  0.3497955E+04  0.7818609E-02  0.8114275E-01
       -1   -1    0    0    0  501  0.00000000000E+00  0.00000000000E+00  0.17417382305E+04  0.17417382305E+04  0.50400001928E-02 0.  1.
        1   -1    0    0  501    0  0.00000000000E+00  0.00000000000E+00 -0.17562470402E+04  0.17562470402E+04  0.50400001928E-02 0. -1.
    10030    2    1    2    0    0  0.00000000000E+00  0.00000000000E+00 -0.14508809662E+02  0.34979852708E+04  0.34979551811E+04 0.  0.
        5    1    3    3  502    0 -0.64369462314E+03  0.15272989644E+04 -0.56575328047E+03  0.17513091557E+04  0.46999998093E+01 0. -1.
       -5    1    3    3    0  502  0.64369462314E+03 -0.15272989644E+04  0.55124447081E+03  0.17466761151E+04  0.46999998093E+01 0.  1.
</event>
<event>
 5   0  0.3628017E-08  0.3496382E+04  0.7818609E-02  0.8114648E-01
       -2   -1    0    0    0  501  0.00000000000E+00  0.00000000000E+00  0.22987028581E+04  0.22987028581E+04  0.25500000920E-02 0.  1.
        2   -1    0    0  501    0  0.00000000000E+00  0.00000000000E+00 -0.13295201225E+04  0.13295201225E+04  0.25500000920E-02 0. -1.
    10030    2    1    2    0    0  0.00000000000E+00  0.00000000000E+00  0.96918273558E+03  0.36282229805E+04  0.34963819616E+04 0.  0.
        1    1    3    3  502    0 -0.39844695611E+02 -0.58033779267E+03 -0.12261455157E+04  0.13571338840E+04  0.50400001928E-02 0. -1.
       -1    1    3    3    0  502  0.39844695611E+02  0.58033779267E+03  0.21953282513E+04  0.22710890965E+04  0.50400001928E-02 0.  1.
</event>
<event>
 5   0  0.1129219E-08  0.3498817E+04  0.7818609E-02  0.8114070E-01
       -1   -1    0    0    0  501  0.00000000000E+00  0.00000000000E+00  0.12924048576E+04  0.12924048577E+04  0.50400001928E-02 0.  1.
        1   -1    0    0  501    0  0.00000000000E+00  0.00000000000E+00 -0.23680112732E+04  0.23680112732E+04  0.50400001928E-02 0. -1.
    10030    2    1    2    0    0  0.00000000000E+00  0.00000000000E+00 -0.10756064156E+04  0.36604161309E+04  0.34988165271E+04 0.  0.
        5    1    3    3  502    0 -0.11049182589E+04  0.60803149674E+03 -0.18061772755E+04  0.22029174066E+04  0.46999998093E+01 0. -1.
       -5    1    3    3    0  502  0.11049182589E+04 -0.60803149674E+03  0.73057085990E+03  0.14574987243E+04  0.46999998093E+01 0.  1.
</event>
<event>
 5   0  0.3553585E-08  0.3501529E+04  0.7818609E-02  0.8113428E-01
        2   -1    0    0  501    0  0.00000000000E+00  0.00000000000E+00  0.15929881506E+04  0.15929881506E+04  0.25500000920E-02 0. -1.
       -2   -1    0    0    0  501  0.00000000000E+00  0.00000000000E+00 -0.19241680543E+04  0.19241680543E+04  0.25500000920E-02 0.  1.
    10030    2    1    2    0    0  0.00000000000E+00  0.00000000000E+00 -0.33117990366E+03  0.35171562049E+04  0.35015293289E+04 0.  0.
        2    1    3    3  502    0  0.37694786514E+03  0.81060929517E+03 -0.16776318338E+04  0.19009538901E+04  0.25500000920E-02 0.  1.
       -2    1    3    3    0  502 -0.37694786514E+03 -0.81060929517E+03  0.13464519301E+04  0.16162023149E+04  0.25500000920E-02 0. -1.
</event>
<event>
 5   0  0.1121462E-08  0.3501159E+04  0.7818609E-02  0.8113515E-01
        1   -1    0    0  501    0  0.00000000000E+00  0.00000000000E+00  0.18152134464E+04  0.18152134464E+04  0.50400001928E-02 0. -1.
       -1   -1    0    0    0  501  0.00000000000E+00  0.00000000000E+00 -0.16882468357E+04  0.16882468357E+04  0.50400001928E-02 0.  1.
    10030    2    1    2    0    0  0.00000000000E+00  0.00000000000E+00  0.12696661073E+03  0.35034602821E+04  0.35011588693E+04 0.  0.
        2    1    3    3  502    0  0.17090647456E+04 -0.12169384656E+03 -0.29566299547E+03  0.17387145550E+04  0.25500000920E-02 0. -1.
       -2    1    3    3    0  502 -0.17090647456E+04  0.12169384656E+03  0.42262960620E+03  0.17647457270E+04  0.25500000920E-02 0.  1.
</event>
<event>
 5   0  0.3554451E-08  0.3498335E+04  0.7818609E-02  0.8114185E-01
        2   -1    0    0  501    0  0.00000000000E+00  0.00000000000E+00  0.12480343167E+04  0.12480343167E+04  0.25500000920E-02 0.  1.
       -2   -1    0    0    0  501  0.00000000000E+00  0.00000000000E+00 -0.24515253325E+04  0.24515253325E+04  0.25500000920E-02 0. -1.
    10030    2    1    2    0    0  0.00000000000E+00  0.00000000000E+00 -0.12034910158E+04  0.36995596492E+04  0.34983354574E+04 0.  0.
        5    1    3    3  502    0 -0.79702068195E+03 -0.12525838557E+04 -0.15797984931E+04  0.21679468748E+04  0.46999998093E+01 0. -1.
       -5    1    3    3    0  502  0.79702068195E+03  0.12525838557E+04  0.37630747733E+03  0.15316127743E+04  0.46999998093E+01 0.  1.
</event>
<event>
 5   0  0.3700096E-08  0.3501436E+04  0.7818609E-02  0.8113450E-01
        2   -1    0    0  501    0  0.00000000000E+00  0.00000000000E+00  0.24371448978E+04  0.24371448978E+04  0.25500000920E-02 0. -1.
       -2   -1    0    0    0  501  0.00000000000E+00  0.00000000000E+00 -0.12576247478E+04  0.12576247478E+04  0.25500000920E-02 0.  1.
    10030    2    1    2    0    0  0.00000000000E+00  0.00000000000E+00  0.11795201500E+04  0.36947696455E+04  0.35014361267E+04 0.  0.
        4    1    3    3  502    0  0.93774350939E+03  0.14517078938E+04  0.29468924395E+03  0.17531862599E+04  0.12699999809E+01 0. -1.
       -4    1    3    3    0  502 -0.93774350939E+03 -0.14517078938E+04  0.88483090607E+03  0.19415833857E+04  0.12699999809E+01 0.  1.
</event>
<event>
 5   0  0.3700096E-08  0.3494998E+04  0.7818609E-02  0.8114976E-01
       -2   -1    0    0    0  501  0.00000000000E+00  0.00000000000E+00  0.19908673403E+04  0.19908673403E+04  0.25500000920E-02 0.  1.
        2   -1    0    0  501    0  0.00000000000E+00  0.00000000000E+00 -0.15338804953E+04  0.15338804953E+04  0.25500000920E-02 0. -1.
    10030    2    1    2    0    0  0.00000000000E+00  0.00000000000E+00  0.45698684498E+03  0.35247478356E+04  0.34949979010E+04 0.  0.
        4    1    3    3  502    0 -0.15798160308E+04  0.50646248312E+03  0.78219141838E+03  0.18341613795E+04  0.12699999809E+01 0.  1.
       -4    1    3    3    0  502  0.15798160308E+04 -0.50646248312E+03 -0.32520457341E+03  0.16905864561E+04  0.12699999809E+01 0. -1.
</event>
<event>
 5   0  0.1121462E-08  0.3500729E+04  0.7818609E-02  0.8113617E-01
       -3   -1    0    0    0  501  0.00000000000E+00  0.00000000000E+00  0.18257048089E+04  0.18257048117E+04  0.10100000352E+00 0.  1.
        3   -1    0    0  501    0  0.00000000000E+00  0.00000000000E+00 -0.16781332350E+04  0.16781332380E+04  0.10100000352E+00 0. -1.
    10030    2    1    2    0    0  0.00000000000E+00  0.00000000000E+00  0.14757157393E+03  0.35038380497E+04  0.35007290254E+04 0.  0.
        4    1    3    3  502    0  0.15717080669E+04 -0.68823269424E+03  0.42027790584E+03  0.17665122756E+04  0.12699999809E+01 0.  1.
       -4    1    3    3    0  502 -0.15717080669E+04  0.68823269424E+03 -0.27270633192E+03  0.17373257741E+04  0.12699999809E+01 0. -1.
</event>
<event>
 5   0  0.1121462E-08  0.3501739E+04  0.7818609E-02  0.8113378E-01
       -3   -1    0    0    0  501  0.00000000000E+00  0.00000000000E+00  0.11740710026E+04  0.11740710070E+04  0.10100000352E+00 0.  1.
        3   -1    0    0  501    0  0.00000000000E+00  0.00000000000E+00 -0.26110373028E+04  0.26110373047E+04  0.10100000352E+00 0. -1.
    10030    2    1    2    0    0  0.00000000000E+00  0.00000000000E+00 -0.14369663001E+04  0.37851083117E+04  0.35017385373E+04 0.  0.
        5    1    3    3  502    0  0.32038490738E+03  0.15533796662E+04 -0.15200338871E+04  0.21968522900E+04  0.46999998093E+01 0. -1.
       -5    1    3    3    0  502 -0.32038490738E+03 -0.15533796662E+04  0.83067586963E+02  0.15882560217E+04  0.46999998093E+01 0.  1.
</event>
<event>
 5   0  0.1129219E-08  0.3500085E+04  0.7818609E-02  0.8113770E-01
        1   -1    0    0  501    0  0.00000000000E+00  0.00000000000E+00  0.26875004757E+04  0.26875004757E+04  0.50400001928E-02 0. -1.
       -1   -1    0    0    0  501  0.00000000000E+00  0.00000000000E+00 -0.11395900165E+04  0.11395900165E+04  0.50400001928E-02 0.  1.
    10030    2    1    2    0    0  0.00000000000E+00  0.00000000000E+00  0.15479104592E+04  0.38270904923E+04  0.35000849770E+04 0.  0.
        5    1    3    3  502    0  0.13567732859E+04 -0.14346725320E+03  0.19723492016E+04  0.23982493751E+04  0.46999998093E+01 0. -1.
       -5    1    3    3    0  502 -0.13567732859E+04  0.14346725320E+03 -0.42443874239E+03  0.14288411172E+04  0.46999998093E+01 0.  1.
</event>
<event>
 5   0  0.3628017E-08  0.3499666E+04  0.7818609E-02  0.8113869E-01
       -2   -1    0    0    0  501  0.00000000000E+00  0.00000000000E+00  0.17340375249E+04  0.17340375249E+04  0.25500000920E-02 0. -1.
        2   -1    0    0  501    0  0.00000000000E+00  0.00000000000E+00 -0.17657722263E+04  0.17657722263E+04  0.25500000920E-02 0.  1.
    10030    2    1    2    0    0  0.00000000000E+00  0.00000000000E+00 -0.31734701398E+02  0.34998097512E+04  0.34996658703E+04 0.  0.
        1    1    3    3  502    0  0.15907961583E+04  0.14233711763E+03  0.69902078629E+03  0.17434225914E+04  0.50400001928E-02 0. -1.
       -1    1    3    3    0  502 -0.15907961583E+04 -0.14233711763E+03 -0.73075548768E+03  0.17563871598E+04  0.50400001928E-02 0.  1.
</event>
<event>
 5   0  0.3554451E-08  0.3500971E+04  0.7818609E-02  0.8113560E-01
        2   -1    0    0  501    0  0.00000000000E+00  0.00000000000E+00  0.25311414614E+04  0.25311414614E+04  0.25500000920E-02 0.  1.
       -2   -1    0    0    0  501  0.00000000000E+00  0.00000000000E+00 -0.12105997578E+04  0.12105997578E+04  0.25500000920E-02 0. -1.
    10030    2    1    2    0    0  0.00000000000E+00  0.00000000000E+00  0.13205417037E+04  0.37417412192E+04  0.35009708597E+04 0.  0.
        5    1    3    3  502    0  0.15465885249E+04 -0.81818818311E+03  0.71691762503E+03  0.18908624856E+04  0.46999998093E+01 0. -1.
       -5    1    3    3    0  502 -0.15465885249E+04  0.81818818311E+03  0.60362407863E+03  0.18508787336E+04  0.46999998093E+01 0.  1.
</event>
<event>
 5   0  0.1129219E-08  0.3501799E+04  0.7818609E-02  0.8113364E-01
       -1   -1    0    0    0  501  0.00000000000E+00  0.00000000000E+00  0.19590202574E+04  0.19590202574E+04  0.50400001928E-02 0. -1.
        1   -1    0    0  501    0  0.00000000000E+00  0.00000000000E+00 -0.15648890484E+04  0.15648890484E+04  0.50400001928E-02 0.  1.
    10030    2    1    2    0    0  0.00000000000E+00  0.00000000000E+00  0.39413120901E+03  0.35239093058E+04  0.35017991641E+04 0.  0.
        5    1    3    3  502    0 -0.87237067122E+03 -0.13184741786E+04 -0.56016307235E+03  0.16772625034E+04  0.46999998093E+01 0.  1.
       -5    1    3    3    0  502  0.87237067122E+03  0.13184741786E+04  0.95429428137E+03  0.18466468025E+04  0.46999998093E+01 0. -1.
</event>
<event>
 5   0  0.3700096E-08  0.3507392E+04  0.7818609E-02  0.8112040E-01
       -2   -1    0    0    0  501  0.00000000000E+00  0.00000000000E+00  0.30257596827E+04  0.30257596827E+04  0.25500000920E-02 0. -1.
        2   -1    0    0  501    0  0.00000000000E+00  0.00000000000E+00 -0.10164222999E+04  0.10164222999E+04  0.25500000920E-02 0.  1.
    10030    2    1    2    0    0  0.00000000000E+00  0.00000000000E+00  0.20093373829E+04  0.40421819826E+04  0.35073919744E+04 0.  0.
        4    1    3    3  502    0 -0.31761159062E+02 -0.32157622316E+03 -0.98181465172E+03  0.10336254940E+04  0.12699999809E+01 0.  1.
       -4    1    3    3    0  502  0.31761159062E+02  0.32157622316E+03  0.29911520346E+04  0.30085564887E+04  0.12699999809E+01 0. -1.
</event>
<event>
 5   0  0.3628017E-08  0.3503564E+04  0.7818609E-02  0.8112946E-01
        2   -1    0    0  501    0  0.00000000000E+00  0.00000000000E+00  0.23355753677E+04  0.23355753677E+04  0.25500000920E-02 0.  1.
       -2   -1    0    0    0  501  0.00000000000E+00  0.00000000000E+00 -0.13139116551E+04  0.13139116551E+04  0.25500000920E-02 0. -1.
    10030    2    1    2    0    0  0.00000000000E+00  0.00000000000E+00  0.10216637126E+04  0.36494870228E+04  0.35035637269E+04 0.  0.
        1    1    3    3  502    0  0.17294331106E+04  0.27875556285E+03  0.50061788800E+03  0.18218841395E+04  0.50400001928E-02 0. -1.
       -1    1    3    3    0  502 -0.17294331106E+04 -0.27875556285E+03  0.52104582460E+03  0.18276028834E+04  0.50400001928E-02 0.  1.
</event>
<event>
 5   0  0.1140808E-08  0.3500940E+04  0.7818609E-02  0.8113567E-01
       -1   -1    0    0    0  501  0.00000000000E+00  0.00000000000E+00  0.26097995968E+04  0.26097995968E+04  0.50400001928E-02 0. -1.
        1   -1    0    0  501    0  0.00000000000E+00  0.00000000000E+00 -0.11740922409E+04  0.11740922409E+04  0.50400001928E-02 0.  1.
    10030    2    1    2    0    0  0.00000000000E+00  0.00000000000E+00  0.14357073559E+04  0.37838918377E+04  0.35009401348E+04 0.  0.
        3    1    3    3  502    0 -0.15207068815E+04 -0.85390135615E+03  0.55591607585E+03  0.18305025646E+04  0.10100000352E+00 0.  1.
       -3    1    3    3    0  502  0.15207068815E+04  0.85390135615E+03  0.87979128000E+03  0.19533892731E+04  0.10100000352E+00 0. -1.
</event>
<event>
 5   0  0.3467834E-08  0.3515446E+04  0.7818609E-02  0.8110139E-01
        2   -1    0    0  501    0  0.00000000000E+00  0.00000000000E+00  0.18771964008E+04  0.18771964008E+04  0.25500000920E-02 0. -1.
       -2   -1    0    0    0  501  0.00000000000E+00  0.00000000000E+00 -0.16458533871E+04  0.16458533871E+04  0.25500000920E-02 0.  1.
    10030    2    1    2    0    0  0.00000000000E+00  0.00000000000E+00  0.23134301372E+03  0.35230497879E+04  0.35154459486E+04 0.  0.
        3    1    3    3  502    0 -0.81640965100E+03 -0.15495290135E+04  0.26440127985E+03  0.17712913168E+04  0.10100000352E+00 0.  1.
       -3    1    3    3    0  502  0.81640965100E+03  0.15495290135E+04 -0.33058266131E+02  0.17517584711E+04  0.10100000352E+00 0. -1.
</event>
<event>
 5   0  0.1140808E-08  0.3500482E+04  0.7818609E-02  0.8113676E-01
       -1   -1    0    0    0  501  0.00000000000E+00  0.00000000000E+00  0.13190979226E+04  0.13190979226E+04  0.50400001928E-02 0.  1.
        1   -1    0    0  501    0  0.00000000000E+00  0.00000000000E+00 -0.23223023484E+04  0.23223023484E+04  0.50400001928E-02 0. -1.
    10030    2    1    2    0    0  0.00000000000E+00  0.00000000000E+00 -0.10032044258E+04  0.36414002710E+04  0.35004823687E+04 0.  0.
        3    1    3    3  502    0 -0.16547236332E+02  0.17340095430E+04 -0.25481506687E+03  0.17527103682E+04  0.10100000352E+00 0.  1.
       -3    1    3    3    0  502  0.16547236332E+02 -0.17340095430E+04 -0.74838935894E+03  0.18886899028E+04  0.10100000352E+00 0. -1.
</event>
<event>
 5   0  0.1129219E-08  0.3504405E+04  0.7818609E-02  0.8112747E-01
       -1   -1    0    0    0  501  0.00000000000E+00  0.00000000000E+00  0.16208122342E+04  0.16208122342E+04  0.50400001928E-02 0.  1.
        1   -1    0    0  501    0  0.00000000000E+00  0.00000000000E+00 -0.18942443611E+04  0.18942443611E+04  0.50400001928E-02 0. -1.
    10030    2    1    2    0    0  0.00000000000E+00  0.00000000000E+00 -0.27343212690E+03  0.35150565953E+04  0.35044054760E+04 0.  0.
        5    1    3    3  502    0  0.22445044085E+03  0.80432903632E+03  0.14083777950E+04  0.16373372599E+04  0.46999998093E+01 0.  1.
       -5    1    3    3    0  502 -0.22445044085E+03 -0.80432903632E+03 -0.16818099219E+04  0.18777193354E+04  0.46999998093E+01 0. -1.
</event>
<event>
 5   0  0.1121462E-08  0.3492113E+04  0.7818609E-02  0.8115662E-01
        1   -1    0    0  501    0  0.00000000000E+00  0.00000000000E+00  0.13328853402E+04  0.13328853402E+04  0.50400001928E-02 0.  1.
       -1   -1    0    0    0  501  0.00000000000E+00  0.00000000000E+00 -0.22873031958E+04  0.22873031958E+04  0.50400001928E-02 0. -1.
    10030    2    1    2    0    0  0.00000000000E+00  0.00000000000E+00 -0.95441785560E+03  0.36201885360E+04  0.34921127693E+04 0.  0.
        1    1    3    3  502    0  0.23388278919E+03 -0.88809842060E+03  0.10622782358E+04  0.14042275506E+04  0.50400001928E-02 0.  1.
       -1    1    3    3    0  502 -0.23388278919E+03  0.88809842060E+03 -0.20166960914E+04  0.22159609854E+04  0.50400001928E-02 0. -1.
</event>
<event>
 5   0  0.1121462E-08  0.3501152E+04  0.7818609E-02  0.8113517E-01
       -1   -1    0    0    0  501  0.00000000000E+00  0.00000000000E+00  0.15774915659E+04  0.15774915659E+04  0.50400001928E-02 0.  1.
        1   -1    0    0  501    0  0.00000000000E+00  0.00000000000E+00 -0.19426518525E+04  0.19426518525E+04  0.50400001928E-02 0. -1.
    10030    2    1    2    0    0  0.00000000000E+00  0.00000000000E+00 -0.36516028660E+03  0.35201434184E+04  0.35011523319E+04 0.  0.
        1    1    3    3  502    0 -0.88329054570E+03 -0.95660224606E+03 -0.13590669390E+04  0.18821139684E+04  0.50400001928E-02 0. -1.
       -1    1    3    3    0  502  0.88329054570E+03  0.95660224606E+03  0.99390665243E+03  0.16380294500E+04  0.50400001928E-02 0.  1.
</event>
<event>
 5   0  0.3467834E-08  0.3501435E+04  0.7818609E-02  0.8113450E-01
       -2   -1    0    0    0  501  0.00000000000E+00  0.00000000000E+00  0.12907581175E+04  0.12907581175E+04  0.25500000920E-02 0.  1.
        2   -1    0    0  501    0  0.00000000000E+00  0.00000000000E+00 -0.23745822548E+04  0.23745822548E+04  0.25500000920E-02 0. -1.
    10030    2    1    2    0    0  0.00000000000E+00  0.00000000000E+00 -0.10838241372E+04  0.36653403723E+04  0.35014347466E+04 0.  0.
        3    1    3    3  502    0 -0.11114942423E+04  0.20167222592E+03 -0.19420272160E+04  0.22466777373E+04  0.10100000352E+00 0. -1.
       -3    1    3    3    0  502  0.11114942423E+04 -0.20167222592E+03  0.85820307876E+03  0.14186626350E+04  0.10100000352E+00 0.  1.
</event>
<event>
 5   0  0.1121462E-08  0.3498295E+04  0.7818609E-02  0.8114194E-01
        1   -1    0    0  501    0  0.00000000000E+00  0.00000000000E+00  0.12451793531E+04  0.12451793531E+04  0.50400001928E-02 0.  1.
       -1   -1    0    0    0  501  0.00000000000E+00  0.00000000000E+00 -0.24570891625E+04  0.24570891625E+04  0.50400001928E-02 0. -1.
    10030    2    1    2    0    0  0.00000000000E+00  0.00000000000E+00 -0.12119098094E+04  0.37022685156E+04  0.34982948383E+04 0.  0.
        1    1    3    3  502    0  0.74091558754E+02 -0.52835627654E+03 -0.23688747770E+04  0.24282128455E+04  0.50400001928E-02 0. -1.
       -1    1    3    3    0  502 -0.74091558754E+02  0.52835627654E+03  0.11569649677E+04  0.12740556701E+04  0.50400001928E-02 0.  1.
</event>
<event>
 5   0  0.1121462E-08  0.3501358E+04  0.7818609E-02  0.8113468E-01
        1   -1    0    0  501    0  0.00000000000E+00  0.00000000000E+00  0.17991453753E+04  0.17991453753E+04  0.50400001928E-02 0.  1.
       -1   -1    0    0    0  501  0.00000000000E+00  0.00000000000E+00 -0.17035179714E+04  0.17035179714E+04  0.50400001928E-02 0. -1.
    10030    2    1    2    0    0  0.00000000000E+00  0.00000000000E+00  0.95627403889E+02  0.35026633467E+04  0.35013577252E+04 0.  0.
        2    1    3    3  502    0  0.39055122019E+03  0.43767247099E+03  0.16979102207E+04  0.17963815199E+04  0.25500000920E-02 0.  1.
       -2    1    3    3    0  502 -0.39055122019E+03 -0.43767247099E+03 -0.16022828168E+04  0.17062818268E+04  0.25500000920E-02 0. -1.
</event>
<event>
 5   0  0.1129219E-08  0.3506720E+04  0.7818609E-02  0.8112199E-01
        1   -1    0    0  501    0  0.00000000000E+00  0.00000000000E+00  0.18244295369E+04  0.18244295369E+04  0.50400001928E-02 0. -1.
       -1   -1    0    0    0  501  0.00000000000E+00  0.00000000000E+00 -0.16850590852E+04  0.16850590853E+04  0.50400001928E-02 0.  1.
    10030    2    1    2    0    0  0.00000000000E+00  0.00000000000E+00  0.13937045167E+03  0.35094886222E+04  0.35067201580E+04 0.  0.
        5    1    3    3  502    0  0.89365937430E+03  0.14388460200E+04 -0.38382209089E+03  0.17367344167E+04  0.46999998093E+01 0.  1.
       -5    1    3    3    0  502 -0.89365937430E+03 -0.14388460200E+04  0.52319254255E+03  0.17727542055E+04  0.46999998093E+01 0. -1.
</event>
<event>
 5   0  0.3628017E-08  0.3500197E+04  0.7818609E-02  0.8113743E-01
       -2   -1    0    0    0  501  0.00000000000E+00  0.00000000000E+00  0.10159788843E+04  0.10159788843E+04  0.25500000920E-02 0. -1.
        2   -1    0    0  501    0  0.00000000000E+00  0.00000000000E+00 -0.30146743789E+04  0.30146743789E+04  0.25500000920E-02 0.  1.
    10030    2    1    2    0    0  0.00000000000E+00  0.00000000000E+00 -0.19986954946E+04  0.40306532631E+04  0.35001974298E+04 0.  0.
        1    1    3    3  502    0 -0.14397473108E+04  0.76494524855E+03 -0.26665769801E+03  0.16520048063E+04  0.50400001928E-02 0. -1.
       -1    1    3    3    0  502  0.14397473108E+04 -0.76494524855E+03 -0.17320377966E+04  0.23786484568E+04  0.50400001928E-02 0.  1.
</event>
<event>
 5   0  0.3467834E-08  0.3500319E+04  0.7818609E-02  0.8113714E-01
        2   -1    0    0  501    0  0.00000000000E+00  0.00000000000E+00  0.31026161894E+04  0.31026161894E+04  0.25500000920E-02 0. -1.
       -2   -1    0    0    0  501  0.00000000000E+00  0.00000000000E+00 -0.98725039518E+03  0.98725039518E+03  0.25500000920E-02 0.  1.
    10030    2    1    2    0    0  0.00000000000E+00  0.00000000000E+00  0.21153657942E+04  0.40898665846E+04  0.35003194477E+04 0.  0.
        3    1    3    3  502    0 -0.92096735727E+03 -0.11193135644E+04 -0.88337782320E+02  0.14521870756E+04  0.10100000352E+00 0.  1.
       -3    1    3    3    0  502  0.92096735727E+03  0.11193135644E+04  0.22037035765E+04  0.26376795090E+04  0.10100000352E+00 0. -1.
</event>
<event>
 5   0  0.1121462E-08  0.3497417E+04  0.7818609E-02  0.8114402E-01
       -1   -1    0    0    0  501  0.00000000000E+00  0.00000000000E+00  0.17706118318E+04  0.17706118319E+04  0.50400001928E-02 0.  1.
        1   -1    0    0  501    0  0.00000000000E+00  0.00000000000E+00 -0.17270757904E+04  0.17270757904E+04  0.50400001928E-02 0. -1.
    10030    2    1    2    0    0  0.00000000000E+00  0.00000000000E+00  0.43536041436E+02  0.34976876223E+04  0.34974166632E+04 0.  0.
        1    1    3    3  502    0  0.14094045133E+04 -0.28121266374E+03 -0.97454165673E+03  0.17364426524E+04  0.50400001928E-02 0. -1.
       -1    1    3    3    0  502 -0.14094045133E+04  0.28121266374E+03  0.10180776982E+04  0.17612449699E+04  0.50400001928E-02 0.  1.
</event>
<event>
 5   0  0.1121462E-08  0.3498471E+04  0.7818609E-02  0.8114152E-01
        1   -1    0    0  501    0  0.00000000000E+00  0.00000000000E+00  0.15724060750E+04  0.15724060750E+04  0.50400001928E-02 0. -1.
       -1   -1    0    0    0  501  0.00000000000E+00  0.00000000000E+00 -0.19459504680E+04  0.19459504680E+04  0.50400001928E-02 0.  1.
    10030    2    1    2    0    0  0.00000000000E+00  0.00000000000E+00 -0.37354439296E+03  0.35183565430E+04  0.34984707159E+04 0.  0.
        2    1    3    3  502    0  0.15283431485E+04  0.70272409275E+02  0.66601792464E+03  0.16686374283E+04  0.25500000920E-02 0. -1.
       -2    1    3    3    0  502 -0.15283431485E+04 -0.70272409275E+02 -0.10395623176E+04  0.18497191147E+04  0.25500000920E-02 0.  1.
</event>
<event>
 5   0  0.1121462E-08  0.3498602E+04  0.7818609E-02  0.8114121E-01
       -1   -1    0    0    0  501  0.00000000000E+00  0.00000000000E+00  0.20268906218E+04  0.20268906218E+04  0.50400001928E-02 0. -1.
        1   -1    0    0  501    0  0.00000000000E+00  0.00000000000E+00 -0.15097283038E+04  0.15097283038E+04  0.50400001928E-02 0.  1.
    10030    2    1    2    0    0  0.00000000000E+00  0.00000000000E+00  0.51716231801E+03  0.35366189256E+04  0.34986020868E+04 0.  0.
        4    1    3    3  502    0  0.26601818215E+03 -0.58244581012E+03 -0.13870035239E+04  0.15276744362E+04  0.12699999809E+01 0.  1.
       -4    1    3    3    0  502 -0.26601818215E+03  0.58244581012E+03  0.19041658419E+04  0.20089444893E+04  0.12699999809E+01 0. -1.
</event>
<event>
 5   0  0.1140808E-08  0.3500172E+04  0.7818609E-02  0.8113749E-01
       -1   -1    0    0    0  501  0.00000000000E+00  0.00000000000E+00  0.13888201556E+04  0.13888201556E+04  0.50400001928E-02 0.  1.
        1   -1    0    0  501    0  0.00000000000E+00  0.00000000000E+00 -0.22053252788E+04  0.22053252789E+04  0.50400001928E-02 0. -1.
    10030    2    1    2    0    0  0.00000000000E+00  0.00000000000E+00 -0.81650512323E+03  0.35941454345E+04  0.35001715369E+04 0.  0.
        3    1    3    3  502    0  0.46303748186E+03 -0.37986223279E+03  0.12803124458E+04  0.14134705496E+04  0.10100000352E+00 0.  1.
       -3    1    3    3    0  502 -0.46303748186E+03  0.37986223279E+03 -0.20968175690E+04  0.21806748849E+04  0.10100000352E+00 0. -1.
</event>
<event>
 5   0  0.1121462E-08  0.3501357E+04  0.7818609E-02  0.8113468E-01
       -1   -1    0    0    0  501  0.00000000000E+00  0.00000000000E+00  0.14190341703E+04  0.14190341703E+04  0.50400001928E-02 0.  1.
        1   -1    0    0  501    0  0.00000000000E+00  0.00000000000E+00 -0.21598321191E+04  0.21598321191E+04  0.50400001928E-02 0. -1.
    10030    2    1    2    0    0  0.00000000000E+00  0.00000000000E+00 -0.74079794878E+03  0.35788662894E+04  0.35013572106E+04 0.  0.
        1    1    3    3  502    0 -0.10853492104E+04  0.30773326287E+02  0.10332988992E+04  0.14988784211E+04  0.50400001928E-02 0.  1.
       -1    1    3    3    0  502  0.10853492104E+04 -0.30773326287E+02 -0.17740968480E+04  0.20799878683E+04  0.50400001928E-02 0. -1.
</event>
<event>
 5   0  0.3700096E-08  0.3503766E+04  0.7818609E-02  0.8112898E-01
        2   -1    0    0  501    0  0.00000000000E+00  0.00000000000E+00  0.11104123866E+04  0.11104123866E+04  0.25500000920E-02 0.  1.
       -2   -1    0    0    0  501  0.00000000000E+00  0.00000000000E+00 -0.27639228244E+04  0.27639228244E+04  0.25500000920E-02 0. -1.
    10030    2    1    2    0    0  0.00000000000E+00  0.00000000000E+00 -0.16535104378E+04  0.38743352110E+04  0.35037660537E+04 0.  0.
        4    1    3    3  502    0 -0.94613248253E+02  0.30159027771E+03  0.10786206503E+04  0.11239806415E+04  0.12699999809E+01 0.  1.
       -4    1    3    3    0  502  0.94613248253E+02 -0.30159027771E+03 -0.27321310881E+04  0.27503545695E+04  0.12699999809E+01 0. -1.
</event>
<event>
 5   0  0.3700096E-08  0.3500053E+04  0.7818609E-02  0.8113777E-01
       -2   -1    0    0    0  501  0.00000000000E+00  0.00000000000E+00  0.14808782415E+04  0.14808782415E+04  0.25500000920E-02 0. -1.
        2   -1    0    0  501    0  0.00000000000E+00  0.00000000000E+00 -0.20680926734E+04  0.20680926734E+04  0.25500000920E-02 0.  1.
    10030    2    1    2    0    0  0.00000000000E+00  0.00000000000E+00 -0.58721443197E+03  0.35489709149E+04  0.35000533947E+04 0.  0.
        4    1    3    3  502    0 -0.95819602575E+03  0.13318372960E+04  0.32372164489E+03  0.16723419277E+04  0.12699999809E+01 0. -1.
       -4    1    3    3    0  502  0.95819602575E+03 -0.13318372960E+04 -0.91093607685E+03  0.18766289873E+04  0.12699999809E+01 0.  1.
</event>
<event>
 5   0  0.1140808E-08  0.3498800E+04  0.7818609E-02  0.8114074E-01
       -1   -1    0    0    0  501  0.00000000000E+00  0.00000000000E+00  0.14513127256E+04  0.14513127256E+04  0.50400001928E-02 0. -1.
        1   -1    0    0  501    0  0.00000000000E+00  0.00000000000E+00 -0.21087113933E+04  0.21087113933E+04  0.50400001928E-02 0.  1.
    10030    2    1    2    0    0  0.00000000000E+00  0.00000000000E+00 -0.65739866772E+03  0.35600241188E+04  0.34987996111E+04 0.  0.
        3    1    3    3  502    0  0.52790002677E+03  0.16334649314E+04 -0.67151268067E+03  0.18433164163E+04  0.10100000352E+00 0.  1.
       -3    1    3    3    0  502 -0.52790002677E+03 -0.16334649314E+04  0.14114012957E+02  0.17167077025E+04  0.10100000352E+00 0. -1.
</event>
<event>
 5   0  0.1121462E-08  0.3501222E+04  0.7818609E-02  0.8113500E-01
        1   -1    0    0  501    0  0.00000000000E+00  0.00000000000E+00  0.21193227825E+04  0.21193227826E+04  0.50400001928E-02 0.  1.
       -1   -1    0    0    0  501  0.00000000000E+00  0.00000000000E+00 -0.14460467006E+04  0.14460467006E+04  0.50400001928E-02 0. -1.
    10030    2    1    2    0    0  0.00000000000E+00  0.00000000000E+00  0.67327608197E+03  0.35653694831E+04  0.35012224820E+04 0.  0.
        4    1    3    3  502    0 -0.95454590293E+03 -0.13160431014E+04  0.99777156102E+03  0.19075316580E+04  0.12699999809E+01 0. -1.
       -4    1    3    3    0  502  0.95454590293E+03  0.13160431014E+04 -0.32449547905E+03  0.16578378251E+04  0.12699999809E+01 0.  1.
</event>
<event>
 5   0  0.3700096E-08  0.3505470E+04  0.7818609E-02  0.8112495E-01
       -2   -1    0    0    0  501  0.00000000000E+00  0.00000000000E+00  0.13462063464E+04  0.13462063464E+04  0.25500000920E-02 0. -1.
        2   -1    0    0  501    0  0.00000000000E+00  0.00000000000E+00 -0.22820271356E+04  0.22820271356E+04  0.25500000920E-02 0.  1.
    10030    2    1    2    0    0  0.00000000000E+00  0.00000000000E+00 -0.93582078915E+03  0.36282334820E+04  0.35054696761E+04 0.  0.
        4    1    3    3  502    0 -0.13232854890E+04 -0.99689480364E+03  0.12413051975E+03  0.16614131737E+04  0.12699999809E+01 0. -1.
       -4    1    3    3    0  502  0.13232854890E+04  0.99689480364E+03 -0.10599513089E+04  0.19668203083E+04  0.12699999809E+01 0.  1.
</event>
<event>
 5   0  0.3700096E-08  0.3512848E+04  0.7818609E-02  0.8110752E-01
       -2   -1    0    0    0  501  0.00000000000E+00  0.00000000000E+00  0.19869105991E+04  0.19869105991E+04  0.25500000920E-02 0. -1.
        2   -1    0    0  501    0  0.00000000000E+00  0.00000000000E+00 -0.15526746086E+04  0.15526746086E+04  0.25500000920E-02 0.  1.
    10030    2    1    2    0    0  0.00000000000E+00  0.00000000000E+00  0.43423599053E+03  0.35395852078E+04  0.35128482102E+04 0.  0.
        4    1    3    3  502    0  0.15170162758E+04  0.65426346009E+03  0.81799987733E+03  0.18435087384E+04  0.12699999809E+01 0. -1.
       -4    1    3    3    0  502 -0.15170162758E+04 -0.65426346009E+03 -0.38376388681E+03  0.16960764694E+04  0.12699999809E+01 0.  1.
</event>
<event>
 5   0  0.3554451E-08  0.3500291E+04  0.7818609E-02  0.8113721E-01
        2   -1    0    0  501    0  0.00000000000E+00  0.00000000000E+00  0.33254368855E+04  0.33254368855E+04  0.25500000920E-02 0. -1.
       -2   -1    0    0    0  501  0.00000000000E+00  0.00000000000E+00 -0.92108497689E+03  0.92108497690E+03  0.25500000920E-02 0.  1.
    10030    2    1    2    0    0  0.00000000000E+00  0.00000000000E+00  0.24043519086E+04  0.42465218624E+04  0.35002913918E+04 0.  0.
        5    1    3    3  502    0 -0.19128141504E+03 -0.78140939126E+03 -0.68346729875E+03  0.10556224964E+04  0.46999998093E+01 0.  1.
       -5    1    3    3    0  502  0.19128141504E+03  0.78140939126E+03  0.30878192074E+04  0.31908993660E+04  0.46999998093E+01 0. -1.
</event>
<event>
 5   0  0.3628017E-08  0.3497868E+04  0.7818609E-02  0.8114295E-01
       -2   -1    0    0    0  501  0.00000000000E+00  0.00000000000E+00  0.23762567245E+04  0.23762567245E+04  0.25500000920E-02 0. -1.
        2   -1    0    0  501    0  0.00000000000E+00  0.00000000000E+00 -0.12872222915E+04  0.12872222915E+04  0.25500000920E-02 0.  1.
    10030    2    1    2    0    0  0.00000000000E+00  0.00000000000E+00  0.10890344330E+04  0.36634790160E+04  0.34978682800E+04 0.  0.
        1    1    3    3  502    0 -0.11143611104E+04  0.59354746953E+03  0.18120533525E+04  0.22085372162E+04  0.50400001928E-02 0. -1.
       -1    1    3    3    0  502  0.11143611104E+04 -0.59354746953E+03 -0.72301891953E+03  0.14549417998E+04  0.50400001928E-02 0.  1.
</event>
<event>
 5   0  0.1121462E-08  0.3500928E+04  0.7818609E-02  0.8113570E-01
        3   -1    0    0  501    0  0.00000000000E+00  0.00000000000E+00  0.13611969111E+04  0.13611969148E+04  0.10100000352E+00 0. -1.
       -3   -1    0    0    0  501  0.00000000000E+00  0.00000000000E+00 -0.22510517492E+04  0.22510517515E+04  0.10100000352E+00 0.  1.
    10030    2    1    2    0    0  0.00000000000E+00  0.00000000000E+00 -0.88985483813E+03  0.36122486663E+04  0.35009282760E+04 0.  0.
        4    1    3    3  502    0  0.27111875547E+02 -0.11616402871E+04  0.90589196831E+03  0.14733584362E+04  0.12699999809E+01 0. -1.
       -4    1    3    3    0  502 -0.27111875547E+02  0.11616402871E+04 -0.17957468064E+04  0.21388902300E+04  0.12699999809E+01 0.  1.
</event>
<event>
 5   0  0.3554451E-08  0.3499818E+04  0.7818609E-02  0.8113833E-01
       -2   -1    0    0    0  501  0.00000000000E+00  0.00000000000E+00  0.26883606394E+04  0.26883606394E+04  0.25500000920E-02 0.  1.
        2   -1    0    0  501    0  0.00000000000E+00  0.00000000000E+00 -0.11390513358E+04  0.11390513358E+04  0.25500000920E-02 0. -1.
    10030    2    1    2    0    0  0.00000000000E+00  0.00000000000E+00  0.15493093036E+04  0.38274119752E+04  0.34998175824E+04 0.  0.
        5    1    3    3  502    0  0.10523353813E+04 -0.24928379923E+03  0.22791469495E+04  0.25227138313E+04  0.46999998093E+01 0.  1.
       -5    1    3    3    0  502 -0.10523353813E+04  0.24928379923E+03 -0.72983764588E+03  0.13046981439E+04  0.46999998093E+01 0. -1.
</event>
<event>
 5   0  0.1121462E-08  0.3494123E+04  0.7818609E-02  0.8115184E-01
       -1   -1    0    0    0  501  0.00000000000E+00  0.00000000000E+00  0.18889155398E+04  0.18889155398E+04  0.50400001928E-02 0. -1.
        1   -1    0    0  501    0  0.00000000000E+00  0.00000000000E+00 -0.16158604870E+04  0.16158604870E+04  0.50400001928E-02 0.  1.
    10030    2    1    2    0    0  0.00000000000E+00  0.00000000000E+00  0.27305505280E+03  0.35047760269E+04  0.34941230569E+04 0.  0.
        2    1    3    3  502    0 -0.52695988902E+03 -0.58837393352E+03  0.16995960455E+04  0.18741657686E+04  0.25500000920E-02 0. -1.
       -2    1    3    3    0  502  0.52695988902E+03  0.58837393352E+03 -0.14265409927E+04  0.16306102582E+04  0.25500000920E-02 0.  1.
</event>
<event>
 5   0  0.3554451E-08  0.3500811E+04  0.7818609E-02  0.8113598E-01
       -2   -1    0    0    0  501  0.00000000000E+00  0.00000000000E+00  0.27392499444E+04  0.27392499444E+04  0.25500000920E-02 0.  1.
        2   -1    0    0  501    0  0.00000000000E+00  0.00000000000E+00 -0.11185248791E+04  0.11185248791E+04  0.25500000920E-02 0. -1.
    10030    2    1    2    0    0  0.00000000000E+00  0.00000000000E+00  0.16207250652E+04  0.38577748235E+04  0.35008108848E+04 0.  0.
        5    1    3    3  502    0 -0.47590098824E+02 -0.15174959711E+04 -0.14957470763E+03  0.15255993979E+04  0.46999998093E+01 0. -1.
       -5    1    3    3    0  502  0.47590098824E+02  0.15174959711E+04  0.17702997729E+04  0.23321754256E+04  0.46999998093E+01 0.  1.
</event>
<event>
 5   0  0.1140808E-08  0.3499231E+04  0.7818609E-02  0.8113972E-01
        1   -1    0    0  501    0  0.00000000000E+00  0.00000000000E+00  0.19996999331E+04  0.19996999331E+04  0.50400001928E-02 0.  1.
       -1   -1    0    0    0  501  0.00000000000E+00  0.00000000000E+00 -0.15308066536E+04  0.15308066536E+04  0.50400001928E-02 0. -1.
    10030    2    1    2    0    0  0.00000000000E+00  0.00000000000E+00  0.46889327951E+03  0.35305065867E+04  0.34992307514E+04 0.  0.
        3    1    3    3  502    0  0.15010132327E+04 -0.82059075043E+03  0.60480251573E+03  0.18144409601E+04  0.10100000352E+00 0. -1.
       -3    1    3    3    0  502 -0.15010132327E+04  0.82059075043E+03 -0.13590923622E+03  0.17160656267E+04  0.10100000352E+00 0.  1.
</event>
<event>
 5   0  0.1121462E-08  0.3498727E+04  0.7818609E-02  0.8114092E-01
        1   -1    0    0  501    0  0.00000000000E+00  0.00000000000E+00  0.18453750869E+04  0.18453750869E+04  0.50400001928E-02 0. -1.
       -1   -1    0    0    0  501  0.00000000000E+00  0.00000000000E+00 -0.16583473916E+04  0.16583473916E+04  0.50400001928E-02 0.  1.
    10030    2    1    2    0    0  0.00000000000E+00  0.00000000000E+00  0.18702769530E+03  0.35037224785E+04  0.34987271754E+04 0.  0.
        4    1    3    3  502    0 -0.19256310122E+03  0.11426571108E+04  0.14059289569E+04  0.18219175792E+04  0.12699999809E+01 0. -1.
       -4    1    3    3    0  502  0.19256310122E+03 -0.11426571108E+04 -0.12189012616E+04  0.16818048993E+04  0.12699999809E+01 0.  1.
</event>
<event>
 5   0  0.1140808E-08  0.3489589E+04  0.7818609E-02  0.8116262E-01
       -1   -1    0    0    0  501  0.00000000000E+00  0.00000000000E+00  0.12039292696E+04  0.12039292696E+04  0.50400001928E-02 0. -1.
        1   -1    0    0  501    0  0.00000000000E+00  0.00000000000E+00 -0.25286434305E+04  0.25286434305E+04  0.50400001928E-02 0.  1.
    10030    2    1    2    0    0  0.00000000000E+00  0.00000000000E+00 -0.13247141609E+04  0.37325727001E+04  0.34895889949E+04 0.  0.
        3    1    3    3  502    0 -0.14508404101E+04  0.15702449757E+03  0.36064491133E+03  0.15032163353E+04  0.10100000352E+00 0. -1.
       -3    1    3    3    0  502  0.14508404101E+04 -0.15702449757E+03 -0.16853590722E+04  0.22293563647E+04  0.10100000352E+00 0.  1.
</event>
<event>
 5   0  0.1140808E-08  0.3503511E+04  0.7818609E-02  0.8112958E-01
        1   -1    0    0  501    0  0.00000000000E+00  0.00000000000E+00  0.24389486267E+04  0.24389486267E+04  0.50400001928E-02 0.  1.
       -1   -1    0    0    0  501  0.00000000000E+00  0.00000000000E+00 -0.12581845037E+04  0.12581845037E+04  0.50400001928E-02 0. -1.
    10030    2    1    2    0    0  0.00000000000E+00  0.00000000000E+00  0.11807641230E+04  0.36971331305E+04  0.35035110204E+04 0.  0.
        3    1    3    3  502    0  0.80171403507E+03  0.10475061416E+04 -0.62598343928E+03  0.14600923900E+04  0.10100000352E+00 0. -1.
       -3    1    3    3    0  502 -0.80171403507E+03 -0.10475061416E+04  0.18067475623E+04  0.22370407405E+04  0.10100000352E+00 0.  1.
</event>
<event>
 5   0  0.3553585E-08  0.3497334E+04  0.7818609E-02  0.8114422E-01
       -2   -1    0    0    0  501  0.00000000000E+00  0.00000000000E+00  0.13143604405E+04  0.13143604405E+04  0.25500000920E-02 0. -1.
        2   -1    0    0  501    0  0.00000000000E+00  0.00000000000E+00 -0.23264822947E+04  0.23264822947E+04  0.25500000920E-02 0.  1.
    10030    2    1    2    0    0  0.00000000000E+00  0.00000000000E+00 -0.10121218542E+04  0.36408427352E+04  0.34973340096E+04 0.  0.
        2    1    3    3  502    0  0.27895024208E+03 -0.35028832801E+03 -0.22657840325E+04  0.23096087184E+04  0.25500000920E-02 0.  1.
       -2    1    3    3    0  502 -0.27895024208E+03  0.35028832801E+03  0.12536621783E+04  0.13312340168E+04  0.25500000920E-02 0. -1.
</event>
<event>
 5   0  0.1129219E-08  0.3505799E+04  0.7818609E-02  0.8112417E-01
       -1   -1    0    0    0  501  0.00000000000E+00  0.00000000000E+00  0.18586173460E+04  0.18586173460E+04  0.50400001928E-02 0.  1.
        1   -1    0    0  501    0  0.00000000000E+00  0.00000000000E+00 -0.16531946930E+04  0.16531946930E+04  0.50400001928E-02 0. -1.
    10030    2    1    2    0    0  0.00000000000E+00  0.00000000000E+00  0.20542265307E+03  0.35118120390E+04  0.35057988150E+04 0.  0.
        5    1    3    3  502    0 -0.70928677042E+03 -0.29401924875E+02 -0.15027485219E+04  0.16619950078E+04  0.46999998093E+01 0. -1.
       -5    1    3    3    0  502  0.70928677042E+03  0.29401924875E+02  0.17081711750E+04  0.18498170312E+04  0.46999998093E+01 0.  1.
</event>
<event>
 5   0  0.1121462E-08  0.3505613E+04  0.7818609E-02  0.8112461E-01
        1   -1    0    0  501    0  0.00000000000E+00  0.00000000000E+00  0.18865286636E+04  0.18865286636E+04  0.50400001928E-02 0.  1.
       -1   -1    0    0    0  501  0.00000000000E+00  0.00000000000E+00 -0.16285627595E+04  0.16285627595E+04  0.50400001928E-02 0. -1.
    10030    2    1    2    0    0  0.00000000000E+00  0.00000000000E+00  0.25796590414E+03  0.35150914231E+04  0.35056128287E+04 0.  0.
        2    1    3    3  502    0 -0.11236174307E+03 -0.15807467396E+04  0.87997057836E+03  0.18126592715E+04  0.25500000920E-02 0.  1.
       -2    1    3    3    0  502  0.11236174307E+03  0.15807467396E+04 -0.62200467421E+03  0.17024321516E+04  0.25500000920E-02 0. -1.
</event>
<event>
 5   0  0.1140808E-08  0.3508955E+04  0.7818609E-02  0.8111671E-01
       -1   -1    0    0    0  501  0.00000000000E+00  0.00000000000E+00  0.17337466661E+04  0.17337466661E+04  0.50400001928E-02 0. -1.
        1   -1    0    0  501    0  0.00000000000E+00  0.00000000000E+00 -0.17754567019E+04  0.17754567019E+04  0.50400001928E-02 0.  1.
    10030    2    1    2    0    0  0.00000000000E+00  0.00000000000E+00 -0.41710035844E+02  0.35092033680E+04  0.35089554786E+04 0.  0.
        3    1    3    3  502    0 -0.45855696938E+02 -0.32244801850E+02  0.17328508135E+04  0.17337573141E+04  0.10100000352E+00 0. -1.
       -3    1    3    3    0  502  0.45855696938E+02  0.32244801850E+02 -0.17745608493E+04  0.17754460539E+04  0.10100000352E+00 0.  1.
</event>
<event>
 5   0  0.3628017E-08  0.3499153E+04  0.7818609E-02  0.8113991E-01
        2   -1    0    0  501    0  0.00000000000E+00  0.00000000000E+00  0.17045089599E+04  0.17045089599E+04  0.25500000920E-02 0. -1.
       -2   -1    0    0    0  501  0.00000000000E+00  0.00000000000E+00 -0.17958357774E+04  0.17958357774E+04  0.25500000920E-02 0.  1.
    10030    2    1    2    0    0  0.00000000000E+00  0.00000000000E+00 -0.91326817444E+02  0.35003447373E+04  0.34991531393E+04 0.  0.
        1    1    3    3  502    0  0.70988338283E+03  0.15975623956E+04  0.24204117089E+02  0.17483494686E+04  0.50400001928E-02 0.  1.
       -1    1    3    3    0  502 -0.70988338283E+03 -0.15975623956E+04 -0.11553093453E+03  0.17519952688E+04  0.50400001928E-02 0. -1.
</event>
<event>
 5   0  0.3553585E-08  0.3501072E+04  0.7818609E-02  0.8113536E-01
        2   -1    0    0  501    0  0.00000000000E+00  0.00000000000E+00  0.28118605294E+04  0.28118605294E+04  0.25500000920E-02 0. -1.
       -2   -1    0    0    0  501  0.00000000000E+00  0.00000000000E+00 -0.10898037303E+04  0.10898037303E+04  0.25500000920E-02 0.  1.
    10030    2    1    2    0    0  0.00000000000E+00  0.00000000000E+00  0.17220567992E+04  0.39016642597E+04  0.35010718895E+04 0.  0.
        2    1    3    3  502    0 -0.24263321300E+03 -0.16759944876E+04  0.13550919839E+04  0.21688943458E+04  0.25500000920E-02 0. -1.
       -2    1    3    3    0  502  0.24263321300E+03  0.16759944876E+04  0.36696481531E+03  0.17327699138E+04  0.25500000920E-02 0.  1.
</event>
<event>
 5   0  0.1140808E-08  0.3496091E+04  0.7818609E-02  0.8114717E-01
       -1   -1    0    0    0  501  0.00000000000E+00  0.00000000000E+00  0.14454418582E+04  0.14454418582E+04  0.50400001928E-02 0. -1.
        1   -1    0    0  501    0  0.00000000000E+00  0.00000000000E+00 -0.21139991437E+04  0.21139991437E+04  0.50400001928E-02 0.  1.
    10030    2    1    2    0    0  0.00000000000E+00  0.00000000000E+00 -0.66855728545E+03  0.35594410019E+04  0.34960908744E+04 0.  0.
        3    1    3    3  502    0  0.62129269859E+03 -0.83424179239E+03 -0.17646194549E+04  0.20483763855E+04  0.10100000352E+00 0.  1.
       -3    1    3    3    0  502 -0.62129269859E+03  0.83424179239E+03  0.10960621695E+04  0.15110646165E+04  0.10100000352E+00 0. -1.
</event>
<event>
 5   0  0.3628017E-08  0.3499292E+04  0.7818609E-02  0.8113958E-01
        2   -1    0    0  501    0  0.00000000000E+00  0.00000000000E+00  0.18873188843E+04  0.18873188843E+04  0.25500000920E-02 0.  1.
       -2   -1    0    0    0  501  0.00000000000E+00  0.00000000000E+00 -0.16220162337E+04  0.16220162337E+04  0.25500000920E-02 0. -1.
    10030    2    1    2    0    0  0.00000000000E+00  0.00000000000E+00  0.26530265057E+03  0.35093351180E+04  0.34992924247E+04 0.  0.
        1    1    3    3  502    0  0.17459816883E+04 -0.96962132987E+02  0.74104356056E+02  0.17502414596E+04  0.50400001928E-02 0. -1.
       -1    1    3    3    0  502 -0.17459816883E+04  0.96962132987E+02  0.19119829451E+03  0.17590936584E+04  0.50400001928E-02 0.  1.
</event>
<event>
 5   0  0.1121462E-08  0.3496348E+04  0.7818609E-02  0.8114656E-01
        1   -1    0    0  501    0  0.00000000000E+00  0.00000000000E+00  0.20874356879E+04  0.20874356879E+04  0.50400001928E-02 0. -1.
       -1   -1    0    0    0  501  0.00000000000E+00  0.00000000000E+00 -0.14640507617E+04  0.14640507617E+04  0.50400001928E-02 0.  1.
    10030    2    1    2    0    0  0.00000000000E+00  0.00000000000E+00  0.62338492623E+03  0.35514864496E+04  0.34963476995E+04 0.  0.
        1    1    3    3  502    0 -0.47085475067E+03 -0.15790171127E+04  0.90495156339E+03  0.18798767435E+04  0.50400001928E-02 0. -1.
       -1    1    3    3    0  502  0.47085475067E+03  0.15790171127E+04 -0.28156663715E+03  0.16716097062E+04  0.50400001928E-02 0.  1.
</event>
<event>
 5   0  0.1140808E-08  0.3500235E+04  0.7818609E-02  0.8113734E-01
       -1   -1    0    0    0  501  0.00000000000E+00  0.00000000000E+00  0.24164241941E+04  0.24164241942E+04  0.50400001928E-02 0.  1.
        1   -1    0    0  501    0  0.00000000000E+00  0.00000000000E+00 -0.12675385272E+04  0.12675385272E+04  0.50400001928E-02 0. -1.
    10030    2    1    2    0    0  0.00000000000E+00  0.00000000000E+00  0.11488856669E+04  0.36839627214E+04  0.35002347146E+04 0.  0.
        3    1    3    3  502    0  0.44621486847E+03  0.56721495336E+03  0.22525196308E+04  0.23653086922E+04  0.10100000352E+00 0.  1.
       -3    1    3    3    0  502 -0.44621486847E+03 -0.56721495336E+03 -0.11036339639E+04  0.13186540292E+04  0.10100000352E+00 0. -1.
</event>
<event>
 5   0  0.3700096E-08  0.3500823E+04  0.7818609E-02  0.8113595E-01
        2   -1    0    0  501    0  0.00000000000E+00  0.00000000000E+00  0.19322657222E+04  0.19322657222E+04  0.25500000920E-02 0.  1.
       -2   -1    0    0    0  501  0.00000000000E+00  0.00000000000E+00 -0.15856720024E+04  0.15856720024E+04  0.25500000920E-02 0. -1.
    10030    2    1    2    0    0  0.00000000000E+00  0.00000000000E+00  0.34659371986E+03  0.35179377246E+04  0.35008225644E+04 0.  0.
        4    1    3    3  502    0 -0.15831508312E+03  0.19102260202E+03 -0.15679134097E+04  0.15874216117E+04  0.12699999809E+01 0. -1.
       -4    1    3    3    0  502  0.15831508312E+03 -0.19102260202E+03  0.19145071296E+04  0.19305161129E+04  0.12699999809E+01 0.  1.
</event>
<event>
 5   0  0.1121462E-08  0.3499164E+04  0.7818609E-02  0.8113988E-01
        1   -1    0    0  501    0  0.00000000000E+00  0.00000000000E+00  0.19466552255E+04  0.19466552256E+04  0.50400001928E-02 0.  1.
       -1   -1    0    0    0  501  0.00000000000E+00  0.00000000000E+00 -0.15724599280E+04  0.15724599280E+04  0.50400001928E-02 0. -1.
    10030    2    1    2    0    0  0.00000000000E+00  0.00000000000E+00  0.37419529756E+03  0.35191151536E+04  0.34991640921E+04 0.  0.
        2    1    3    3  502    0  0.60076207623E+03 -0.58389472296E+03  0.17318204473E+04  0.19238113684E+04  0.25500000920E-02 0.  1.
       -2    1    3    3    0  502 -0.60076207623E+03  0.58389472296E+03 -0.13576251497E+04  0.15953037851E+04  0.25500000920E-02 0. -1.
</event>
<event>
 5   0  0.3628017E-08  0.3498542E+04  0.7818609E-02  0.8114136E-01
       -2   -1    0    0    0  501  0.00000000000E+00  0.00000000000E+00  0.11878806962E+04  0.11878806962E+04  0.25500000920E-02 0.  1.
        2   -1    0    0  501    0  0.00000000000E+00  0.00000000000E+00 -0.25759733871E+04  0.25759733871E+04  0.25500000920E-02 0. -1.
    10030    2    1    2    0    0  0.00000000000E+00  0.00000000000E+00 -0.13880926910E+04  0.37638540833E+04  0.34985420166E+04 0.  0.
        1    1    3    3  502    0 -0.26972148869E+03 -0.11528944437E+04 -0.20793416802E+04  0.23928178165E+04  0.50400001928E-02 0. -1.
       -1    1    3    3    0  502  0.26972148869E+03  0.11528944437E+04  0.69124898925E+03  0.13710362668E+04  0.50400001928E-02 0.  1.
</event>
<event>
 5   0  0.3554451E-08  0.3500785E+04  0.7818609E-02  0.8113604E-01
        2   -1    0    0  501    0  0.00000000000E+00  0.00000000000E+00  0.16979030666E+04  0.16979030666E+04  0.25500000920E-02 0.  1.
       -2   -1    0    0    0  501  0.00000000000E+00  0.00000000000E+00 -0.18045043628E+04  0.18045043628E+04  0.25500000920E-02 0. -1.
    10030    2    1    2    0    0  0.00000000000E+00  0.00000000000E+00 -0.10660129627E+03  0.35024074294E+04  0.35007847642E+04 0.  0.
        5    1    3    3  502    0  0.11999265410E+04 -0.11875444420E+04  0.40926189781E+03  0.17371248938E+04  0.46999998093E+01 0.  1.
       -5    1    3    3    0  502 -0.11999265410E+04  0.11875444420E+04 -0.51586319407E+03  0.17652825356E+04  0.46999998093E+01 0. -1.
</event>
<event>
 5   0  0.3700096E-08  0.3499830E+04  0.7818609E-02  0.8113830E-01
       -2   -1    0    0    0  501  0.00000000000E+00  0.00000000000E+00  0.27835722716E+04  0.27835722716E+04  0.25500000920E-02 0. -1.
        2   -1    0    0  501    0  0.00000000000E+00  0.00000000000E+00 -0.11000981563E+04  0.11000981563E+04  0.25500000920E-02 0.  1.
    10030    2    1    2    0    0  0.00000000000E+00  0.00000000000E+00  0.16834741153E+04  0.38836704279E+04  0.34998301238E+04 0.  0.
        4    1    3    3  502    0 -0.14563022337E+04  0.75858706280E+03  0.17047089263E+03  0.16508580998E+04  0.12699999809E+01 0.  1.
       -4    1    3    3    0  502  0.14563022337E+04 -0.75858706280E+03  0.15130032227E+04  0.22328123281E+04  0.12699999809E+01 0. -1.
</event>
<event>
 5   0  0.1140808E-08  0.3502882E+04  0.7818609E-02  0.8113107E-01
       -1   -1    0    0    0  501  0.00000000000E+00  0.00000000000E+00  0.30545139450E+04  0.30545139450E+04  0.50400001928E-02 0.  1.
        1   -1    0    0  501    0  0.00000000000E+00  0.00000000000E+00 -0.10042664054E+04  0.10042664054E+04  0.50400001928E-02 0. -1.
    10030    2    1    2    0    0  0.00000000000E+00  0.00000000000E+00  0.20502475396E+04  0.40587803504E+04  0.35028820932E+04 0.  0.
        3    1    3    3  502    0  0.13802757529E+04  0.40249745611E+03 -0.13379397123E+03  0.14439758285E+04  0.10100000352E+00 0. -1.
       -3    1    3    3    0  502 -0.13802757529E+04 -0.40249745611E+03  0.21840415109E+04  0.26148045219E+04  0.10100000352E+00 0.  1.
</event>
<event>
 5   0  0.1140808E-08  0.3499358E+04  0.7818609E-02  0.8113942E-01
        1   -1    0    0  501    0  0.00000000000E+00  0.00000000000E+00  0.23162405177E+04  0.23162405177E+04  0.50400001928E-02 0. -1.
       -1   -1    0    0    0  501  0.00000000000E+00  0.00000000000E+00 -0.13217007388E+04  0.13217007388E+04  0.50400001928E-02 0.  1.
    10030    2    1    2    0    0  0.00000000000E+00  0.00000000000E+00  0.99453977888E+03  0.36379412564E+04  0.34993581145E+04 0.  0.
        3    1    3    3  502    0 -0.23405651075E+03 -0.12359904946E+04  0.17615400973E+04  0.21645966085E+04  0.10100000352E+00 0. -1.
       -3    1    3    3    0  502  0.23405651075E+03  0.12359904946E+04 -0.76700031845E+03  0.14733446479E+04  0.10100000352E+00 0.  1.
</event>
<event>
 5   0  0.3467834E-08  0.3501040E+04  0.7818609E-02  0.8113544E-01
       -2   -1    0    0    0  501  0.00000000000E+00  0.00000000000E+00  0.16444038022E+04  0.16444038022E+04  0.25500000920E-02 0.  1.
        2   -1    0    0  501    0  0.00000000000E+00  0.00000000000E+00 -0.18634836101E+04  0.18634836101E+04  0.25500000920E-02 0. -1.
    10030    2    1    2    0    0  0.00000000000E+00  0.00000000000E+00 -0.21907980791E+03  0.35078874123E+04  0.35010395792E+04 0.  0.
        3    1    3    3  502    0 -0.68163319483E+03 -0.34954304931E+03 -0.16866310880E+04  0.18524385531E+04  0.10100000352E+00 0. -1.
       -3    1    3    3    0  502  0.68163319483E+03  0.34954304931E+03  0.14675512801E+04  0.16554488592E+04  0.10100000352E+00 0.  1.
</event>
<event>
 5   0  0.3700096E-08  0.3498931E+04  0.7818609E-02  0.8114043E-01
        2   -1    0    0  501    0  0.00000000000E+00  0.00000000000E+00  0.26794549705E+04  0.26794549705E+04  0.25500000920E-02 0.  1.
       -2   -1    0    0    0  501  0.00000000000E+00  0.00000000000E+00 -0.11422583111E+04  0.11422583111E+04  0.25500000920E-02 0. -1.
    10030    2    1    2    0    0  0.00000000000E+00  0.00000000000E+00  0.15371966594E+04  0.38217132816E+04  0.34989310993E+04 0.  0.
        4    1    3    3  502    0  0.15620981030E+04  0.67407189500E+03  0.12137557971E+04  0.20899110390E+04  0.12699999809E+01 0.  1.
       -4    1    3    3    0  502 -0.15620981030E+04 -0.67407189500E+03  0.32344086231E+03  0.17318022426E+04  0.12699999809E+01 0. -1.
</event>
<event>
 5   0  0.1121462E-08  0.3499327E+04  0.7818609E-02  0.8113949E-01
        1   -1    0    0  501    0  0.00000000000E+00  0.00000000000E+00  0.10086510348E+04  0.10086510348E+04  0.50400001928E-02 0. -1.
       -1   -1    0    0    0  501  0.00000000000E+00  0.00000000000E+00 -0.30350658591E+04  0.30350658591E+04  0.50400001928E-02 0.  1.
    10030    2    1    2    0    0  0.00000000000E+00  0.00000000000E+00 -0.20264148243E+04  0.40437168939E+04  0.34993269749E+04 0.  0.
        4    1    3    3  502    0 -0.26887272589E+03  0.94790347140E+03 -0.26839981107E+04  0.28591364090E+04  0.12699999809E+01 0.  1.
       -4    1    3    3    0  502  0.26887272589E+03 -0.94790347140E+03  0.65758328638E+03  0.11845804849E+04  0.12699999809E+01 0. -1.
</event>
<event>
 5   0  0.1121462E-08  0.3500639E+04  0.7818609E-02  0.8113638E-01
       -1   -1    0    0    0  501  0.00000000000E+00  0.00000000000E+00  0.10536172051E+04  0.10536172051E+04  0.50400001928E-02 0. -1.
        1   -1    0    0  501    0  0.00000000000E+00  0.00000000000E+00 -0.29077152879E+04  0.29077152879E+04  0.50400001928E-02 0.  1.
    10030    2    1    2    0    0  0.00000000000E+00  0.00000000000E+00 -0.18540980828E+04  0.39613324930E+04  0.35006392872E+04 0.  0.
        1    1    3    3  502    0 -0.11084857956E+04  0.12751241801E+04 -0.40979843382E+03  0.17385675685E+04  0.50400001928E-02 0.  1.
       -1    1    3    3    0  502  0.11084857956E+04 -0.12751241801E+04 -0.14442996490E+04  0.22227649245E+04  0.50400001928E-02 0. -1.
</event>
<event>
 5   0  0.1121462E-08  0.3500500E+04  0.7818609E-02  0.8113671E-01
       -1   -1    0    0    0  501  0.00000000000E+00  0.00000000000E+00  0.11577147193E+04  0.11577147194E+04  0.50400001928E-02 0.  1.
        1   -1    0    0  501    0  0.00000000000E+00  0.00000000000E+00 -0.26460533213E+04  0.26460533213E+04  0.50400001928E-02 0. -1.
    10030    2    1    2    0    0  0.00000000000E+00  0.00000000000E+00 -0.14883386019E+04  0.38037680406E+04  0.35004998947E+04 0.  0.
        2    1    3    3  502    0  0.87438618569E+03 -0.15069125969E+04 -0.56221670353E+03  0.18306895964E+04  0.25500000920E-02 0.  1.
       -2    1    3    3    0  502 -0.87438618569E+03  0.15069125969E+04 -0.92612189838E+03  0.19730784443E+04  0.25500000920E-02 0. -1.
</event>
<event>
 5   0  0.3700096E-08  0.3501568E+04  0.7818609E-02  0.8113418E-01
       -2   -1    0    0    0  501  0.00000000000E+00  0.00000000000E+00  0.11099811815E+04  0.11099811815E+04  0.25500000920E-02 0.  1.
        2   -1    0    0  501    0  0.00000000000E+00  0.00000000000E+00 -0.27615281623E+04  0.27615281623E+04  0.25500000920E-02 0. -1.
    10030    2    1    2    0    0  0.00000000000E+00  0.00000000000E+00 -0.16515469808E+04  0.38715093438E+04  0.35015678160E+04 0.  0.
        4    1    3    3  502    0 -0.64170141692E+03  0.14613126007E+04 -0.16215555762E+04  0.22752273128E+04  0.12699999809E+01 0. -1.
       -4    1    3    3    0  502  0.64170141692E+03 -0.14613126007E+04 -0.29991404535E+02  0.15962820310E+04  0.12699999809E+01 0.  1.
</event>
<event>
 5   0  0.3700096E-08  0.3499980E+04  0.7818609E-02  0.8113795E-01
       -2   -1    0    0    0  501  0.00000000000E+00  0.00000000000E+00  0.16939856208E+04  0.16939856208E+04  0.25500000920E-02 0. -1.
        2   -1    0    0  501    0  0.00000000000E+00  0.00000000000E+00 -0.18078455067E+04  0.18078455067E+04  0.25500000920E-02 0.  1.
    10030    2    1    2    0    0  0.00000000000E+00  0.00000000000E+00 -0.11385988589E+03  0.35018311275E+04  0.34999795960E+04 0.  0.
        4    1    3    3  502    0  0.16625620221E+04 -0.50579982762E+03  0.14937500788E+03  0.17442076852E+04  0.12699999809E+01 0. -1.
       -4    1    3    3    0  502 -0.16625620221E+04  0.50579982762E+03 -0.26323489377E+03  0.17576234424E+04  0.12699999809E+01 0.  1.
</event>
<event>
 5   0  0.3554451E-08  0.3499386E+04  0.7818609E-02  0.8113936E-01
       -2   -1    0    0    0  501  0.00000000000E+00  0.00000000000E+00  0.13984510992E+04  0.13984510992E+04  0.25500000920E-02 0.  1.
        2   -1    0    0  501    0  0.00000000000E+00  0.00000000000E+00 -0.21891540521E+04  0.21891540521E+04  0.25500000920E-02 0. -1.
    10030    2    1    2    0    0  0.00000000000E+00  0.00000000000E+00 -0.79070295290E+03  0.35876051513E+04  0.34993855977E+04 0.  0.
        5    1    3    3  502    0 -0.11673213118E+04 -0.92373526328E+03 -0.13380302256E+04  0.20015675997E+04  0.46999998093E+01 0. -1.
       -5    1    3    3    0  502  0.11673213118E+04  0.92373526328E+03  0.54732727271E+03  0.15860375516E+04  0.46999998093E+01 0.  1.
</event>
<event>
 5   0  0.1140808E-08  0.3487240E+04  0.7818609E-02  0.8116821E-01
        1   -1    0    0  501    0  0.00000000000E+00  0.00000000000E+00  0.14746199990E+04  0.14746199990E+04  0.50400001928E-02 0.  1.
       -1   -1    0    0    0  501  0.00000000000E+00  0.00000000000E+00 -0.20616911741E+04  0.20616911741E+04  0.50400001928E-02 0. -1.
    10030    2    1    2    0    0  0.00000000000E+00  0.00000000000E+00 -0.58707117516E+03  0.35363111731E+04  0.34872401908E+04 0.  0.
        3    1    3    3  502    0  0.10373300403E+04 -0.12994307183E+03 -0.17086186902E+04  0.20030767966E+04  0.10100000352E+00 0. -1.
       -3    1    3    3    0  502 -0.10373300403E+04  0.12994307183E+03  0.11215475151E+04  0.15332343765E+04  0.10100000352E+00 0.  1.
</event>
<event>
 5   0  0.1121462E-08  0.3497263E+04  0.7818609E-02  0.8114439E-01
       -1   -1    0    0    0  501  0.00000000000E+00  0.00000000000E+00  0.14424253579E+04  0.14424253579E+04  0.50400001928E-02 0.  1.
        1   -1    0    0  501    0  0.00000000000E+00  0.00000000000E+00 -0.21198413982E+04  0.21198413982E+04  0.50400001928E-02 0. -1.
    10030    2    1    2    0    0  0.00000000000E+00  0.00000000000E+00 -0.67741604023E+03  0.35622667561E+04  0.34972634945E+04 0.  0.
        2    1    3    3  502    0 -0.11479149653E+04 -0.10077870039E+03  0.10009749583E+04  0.15263734736E+04  0.25500000920E-02 0.  1.
       -2    1    3    3    0  502  0.11479149653E+04  0.10077870039E+03 -0.16783909985E+04  0.20358932825E+04  0.25500000920E-02 0. -1.
</event>
<event>
 5   0  0.3628017E-08  0.3500018E+04  0.7818609E-02  0.8113786E-01
        2   -1    0    0  501    0  0.00000000000E+00  0.00000000000E+00  0.22800187925E+04  0.22800187925E+04  0.25500000920E-02 0.  1.
       -2   -1    0    0    0  501  0.00000000000E+00  0.00000000000E+00 -0.13432045625E+04  0.13432045625E+04  0.25500000920E-02 0. -1.
    10030    2    1    2    0    0  0.00000000000E+00  0.00000000000E+00  0.93681422999E+03  0.36232233550E+04  0.35000180826E+04 0.  0.
        1    1    3    3  502    0  0.10650321782E+04  0.13168050566E+04  0.12139800747E+02  0.16936400068E+04  0.50400001928E-02 0. -1.
       -1    1    3    3    0  502 -0.10650321782E+04 -0.13168050566E+04  0.92467442925E+03  0.19295833482E+04  0.50400001928E-02 0.  1.
</event>
<event>
 5   0  0.1121462E-08  0.3500033E+04  0.7818609E-02  0.8113782E-01
       -1   -1    0    0    0  501  0.00000000000E+00  0.00000000000E+00  0.12582825413E+04  0.12582825413E+04  0.50400001928E-02 0. -1.
        1   -1    0    0  501    0  0.00000000000E+00  0.00000000000E+00 -0.24339184586E+04  0.24339184586E+04  0.50400001928E-02 0.  1.
    10030    2    1    2    0    0  0.00000000000E+00  0.00000000000E+00 -0.11756359173E+04  0.36922009999E+04  0.35000326304E+04 0.  0.
        4    1    3    3  502    0 -0.84167625603E+03  0.14463359699E+04 -0.47598747593E+02  0.16740889795E+04  0.12699999809E+01 0.  1.
       -4    1    3    3    0  502  0.84167625603E+03 -0.14463359699E+04 -0.11280371697E+04  0.20181120204E+04  0.12699999809E+01 0. -1.
</event>
<event>
 5   0  0.3628017E-08  0.3500976E+04  0.7818609E-02  0.8113559E-01
       -2   -1    0    0    0  501  0.00000000000E+00  0.00000000000E+00  0.13348227317E+04  0.13348227317E+04  0.25500000920E-02 0.  1.
        2   -1    0    0  501    0  0.00000000000E+00  0.00000000000E+00 -0.22955918915E+04  0.22955918915E+04  0.25500000920E-02 0. -1.
    10030    2    1    2    0    0  0.00000000000E+00  0.00000000000E+00 -0.96076915985E+03  0.36304146232E+04  0.35009760008E+04 0.  0.
        1    1    3    3  502    0  0.15018076054E+04  0.63343169885E+03 -0.11423810069E+04  0.19904010063E+04  0.50400001928E-02 0. -1.
       -1    1    3    3    0  502 -0.15018076054E+04 -0.63343169885E+03  0.18161184701E+03  0.16400136170E+04  0.50400001928E-02 0.  1.
</event>
<event>
 5   0  0.3553585E-08  0.3500664E+04  0.7818609E-02  0.8113633E-01
       -2   -1    0    0    0  501  0.00000000000E+00  0.00000000000E+00  0.16142414990E+04  0.16142414990E+04  0.25500000920E-02 0. -1.
        2   -1    0    0  501    0  0.00000000000E+00  0.00000000000E+00 -0.18978953823E+04  0.18978953823E+04  0.25500000920E-02 0.  1.
    10030    2    1    2    0    0  0.00000000000E+00  0.00000000000E+00 -0.28365388325E+03  0.35121368813E+04  0.35006636438E+04 0.  0.
        2    1    3    3  502    0 -0.39146804073E+03  0.13384624217E+04 -0.12030899194E+04  0.18417801811E+04  0.25500000920E-02 0.  1.
       -2    1    3    3    0  502  0.39146804073E+03 -0.13384624217E+04  0.91943603613E+03  0.16703567002E+04  0.25500000920E-02 0. -1.
</event>
<event>
 5   0  0.1121462E-08  0.3505412E+04  0.7818609E-02  0.8112509E-01
        1   -1    0    0  501    0  0.00000000000E+00  0.00000000000E+00  0.25231727700E+04  0.25231727700E+04  0.50400001928E-02 0. -1.
       -1   -1    0    0    0  501  0.00000000000E+00  0.00000000000E+00 -0.12175060532E+04  0.12175060532E+04  0.50400001928E-02 0.  1.
    10030    2    1    2    0    0  0.00000000000E+00  0.00000000000E+00  0.13056667168E+04  0.37406788231E+04  0.35054118849E+04 0.  0.
        1    1    3    3  502    0 -0.15892971197E+04 -0.34513381622E+03 -0.44471967450E+02  0.16269481988E+04  0.50400001928E-02 0.  1.
       -1    1    3    3    0  502  0.15892971197E+04  0.34513381622E+03  0.13501386842E+04  0.21137306243E+04  0.50400001928E-02 0. -1.
</event>
<event>
 5   0  0.3700096E-08  0.3500613E+04  0.7818609E-02  0.8113645E-01
        2   -1    0    0  501    0  0.00000000000E+00  0.00000000000E+00  0.12854209087E+04  0.12854209088E+04  0.25500000920E-02 0. -1.
       -2   -1    0    0    0  501  0.00000000000E+00  0.00000000000E+00 -0.23833233274E+04  0.23833233274E+04  0.25500000920E-02 0.  1.
    10030    2    1    2    0    0  0.00000000000E+00  0.00000000000E+00 -0.10979024186E+04  0.36687442361E+04  0.35006134533E+04 0.  0.
        4    1    3    3  502    0  0.82899266685E+03 -0.78679665270E+03  0.84034713401E+03  0.14186129609E+04  0.12699999809E+01 0. -1.
       -4    1    3    3    0  502 -0.82899266685E+03  0.78679665270E+03 -0.19382495526E+04  0.22501312752E+04  0.12699999809E+01 0.  1.
</event>
<event>
 5   0  0.1140808E-08  0.3500396E+04  0.7818609E-02  0.8113696E-01
       -1   -1    0    0    0  501  0.00000000000E+00  0.00000000000E+00  0.20387316721E+04  0.20387316721E+04  0.50400001928E-02 0. -1.
        1   -1    0    0  501    0  0.00000000000E+00  0.00000000000E+00 -0.15024996887E+04  0.15024996888E+04  0.50400001928E-02 0.  1.
    10030    2    1    2    0    0  0.00000000000E+00  0.00000000000E+00  0.53623198336E+03  0.35412313609E+04  0.35003963792E+04 0.  0.
        3    1    3    3  502    0 -0.37389369688E+03  0.15113035197E+03 -0.14548541996E+04  0.15097144207E+04  0.10100000352E+00 0.  1.
       -3    1    3    3    0  502  0.37389369688E+03 -0.15113035197E+03  0.19910861830E+04  0.20315169401E+04  0.10100000352E+00 0. -1.
</event>
<event>
 5   0  0.3554451E-08  0.3500713E+04  0.7818609E-02  0.8113621E-01
       -2   -1    0    0    0  501  0.00000000000E+00  0.00000000000E+00  0.16259422791E+04  0.16259422791E+04  0.25500000920E-02 0. -1.
        2   -1    0    0  501    0  0.00000000000E+00  0.00000000000E+00 -0.18842910517E+04  0.18842910517E+04  0.25500000920E-02 0.  1.
    10030    2    1    2    0    0  0.00000000000E+00  0.00000000000E+00 -0.25834877263E+03  0.35102333309E+04  0.35007133486E+04 0.  0.
        5    1    3    3  502    0  0.74355451893E+03 -0.63160992453E+03  0.13280229542E+04  0.16478687679E+04  0.46999998093E+01 0. -1.
       -5    1    3    3    0  502 -0.74355451893E+03  0.63160992453E+03 -0.15863717269E+04  0.18623645629E+04  0.46999998093E+01 0.  1.
</event>
<event>
 5   0  0.3554451E-08  0.3499267E+04  0.7818609E-02  0.8113964E-01
        2   -1    0    0  501    0  0.00000000000E+00  0.00000000000E+00  0.18920482324E+04  0.18920482324E+04  0.25500000920E-02 0. -1.
       -2   -1    0    0    0  501  0.00000000000E+00  0.00000000000E+00 -0.16179380214E+04  0.16179380214E+04  0.25500000920E-02 0.  1.
    10030    2    1    2    0    0  0.00000000000E+00  0.00000000000E+00  0.27411021104E+03  0.35099862538E+04  0.34992666509E+04 0.  0.
        5    1    3    3  502    0  0.15641846142E+04 -0.42277823244E+03 -0.52510330051E+03  0.17032822747E+04  0.46999998093E+01 0.  1.
       -5    1    3    3    0  502 -0.15641846142E+04  0.42277823244E+03  0.79921351155E+03  0.18067039791E+04  0.46999998093E+01 0. -1.
</event>
<event>
 5   0  0.3628017E-08  0.3500493E+04  0.7818609E-02  0.8113673E-01
        2   -1    0    0  501    0  0.00000000000E+00  0.00000000000E+00  0.19709926125E+04  0.19709926125E+04  0.25500000920E-02 0. -1.
       -2   -1    0    0    0  501  0.00000000000E+00  0.00000000000E+00 -0.15542236995E+04  0.15542236995E+04  0.25500000920E-02 0.  1.
    10030    2    1    2    0    0  0.00000000000E+00  0.00000000000E+00  0.41676891294E+03  0.35252163120E+04  0.35004933537E+04 0.  0.
        1    1    3    3  502    0  0.12579461918E+04  0.10719438242E+04 -0.37176691954E+03  0.16940197243E+04  0.50400001928E-02 0. -1.
       -1    1    3    3    0  502 -0.12579461918E+04 -0.10719438242E+04  0.78853583248E+03  0.18311965877E+04  0.50400001928E-02 0.  1.
</event>
<event>
 5   0  0.1121462E-08  0.3500708E+04  0.7818609E-02  0.8113622E-01
        1   -1    0    0  501    0  0.00000000000E+00  0.00000000000E+00  0.25006071898E+04  0.25006071898E+04  0.50400001928E-02 0.  1.
       -1   -1    0    0    0  501  0.00000000000E+00  0.00000000000E+00 -0.12251981873E+04  0.12251981874E+04  0.50400001928E-02 0. -1.
    10030    2    1    2    0    0  0.00000000000E+00  0.00000000000E+00  0.12754090024E+04  0.37258053771E+04  0.35007081548E+04 0.  0.
        4    1    3    3  502    0  0.14975547522E+04  0.59412347276E+03 -0.90455048809E+02  0.16136408106E+04  0.12699999809E+01 0. -1.
       -4    1    3    3    0  502 -0.14975547522E+04 -0.59412347276E+03  0.13658640512E+04  0.21121645665E+04  0.12699999809E+01 0.  1.
</event>
<event>
 5   0  0.1140808E-08  0.3501424E+04  0.7818609E-02  0.8113453E-01
       -1   -1    0    0    0  501  0.00000000000E+00  0.00000000000E+00  0.25825065306E+04  0.25825065306E+04  0.50400001928E-02 0.  1.
        1   -1    0    0  501    0  0.00000000000E+00  0.00000000000E+00 -0.11868282932E+04  0.11868282932E+04  0.50400001928E-02 0. -1.
    10030    2    1    2    0    0  0.00000000000E+00  0.00000000000E+00  0.13956782374E+04  0.37693348239E+04  0.35014236065E+04 0.  0.
        3    1    3    3  502    0  0.17143986858E+04 -0.18462586974E+03  0.10239045335E+04  0.20054002268E+04  0.10100000352E+00 0. -1.
       -3    1    3    3    0  502 -0.17143986858E+04  0.18462586974E+03  0.37177370389E+03  0.17639345971E+04  0.10100000352E+00 0.  1.
</event>
<event>
 5   0  0.1140808E-08  0.3501213E+04  0.7818609E-02  0.8113502E-01
       -1   -1    0    0    0  501  0.00000000000E+00  0.00000000000E+00  0.14004633944E+04  0.14004633945E+04  0.50400001928E-02 0.  1.
        1   -1    0    0  501    0  0.00000000000E+00  0.00000000000E+00 -0.21882924934E+04  0.21882924934E+04  0.50400001928E-02 0. -1.
    10030    2    1    2    0    0  0.00000000000E+00  0.00000000000E+00 -0.78782909899E+03  0.35887558879E+04  0.35012132374E+04 0.  0.
        3    1    3    3  502    0 -0.14618437530E+04 -0.95382021477E+03 -0.25691883947E+03  0.17643036758E+04  0.10100000352E+00 0.  1.
       -3    1    3    3    0  502  0.14618437530E+04  0.95382021477E+03 -0.53091025952E+03  0.18244522121E+04  0.10100000352E+00 0. -1.
</event>
<event>
 5   0  0.3700096E-08  0.3500226E+04  0.7818609E-02  0.8113736E-01
        2   -1    0    0  501    0  0.00000000000E+00  0.00000000000E+00  0.20597249776E+04  0.20597249776E+04  0.25500000920E-02 0.  1.
       -2   -1    0    0    0  501  0.00000000000E+00  0.00000000000E+00 -0.14870410926E+04  0.14870410926E+04  0.25500000920E-02 0. -1.
    10030    2    1    2    0    0  0.00000000000E+00  0.00000000000E+00  0.57268388503E+03  0.35467660703E+04  0.35002260963E+04 0.  0.
        4    1    3    3  502    0  0.17120562025E+04  0.20987488370E+03  0.58643876765E+03  0.18218386176E+04  0.12699999809E+01 0. -1.
       -4    1    3    3    0  502 -0.17120562025E+04 -0.20987488370E+03 -0.13754882613E+02  0.17249274527E+04  0.12699999809E+01 0.  1.
</event>
<event>
 5   0  0.1129219E-08  0.3498767E+04  0.7818609E-02  0.8114082E-01
       -1   -1    0    0    0  501  0.00000000000E+00  0.00000000000E+00  0.17456610793E+04  0.17456610793E+04  0.50400001928E-02 0.  1.
        1   -1    0    0  501    0  0.00000000000E+00  0.00000000000E+00 -0.17531134154E+04  0.17531134154E+04  0.50400001928E-02 0. -1.
    10030    2    1    2    0    0  0.00000000000E+00  0.00000000000E+00 -0.74523360805E+01  0.34987744947E+04  0.34987665580E+04 0.  0.
        5    1    3    3  502    0  0.88960176122E+03  0.11189279872E+04 -0.10121572496E+04  0.17515351901E+04  0.46999998093E+01 0. -1.
       -5    1    3    3    0  502 -0.88960176122E+03 -0.11189279872E+04  0.10047049136E+04  0.17472393046E+04  0.46999998093E+01 0.  1.
</event>
<event>
 5   0  0.1121462E-08  0.3499091E+04  0.7818609E-02  0.8114006E-01
       -1   -1    0    0    0  501  0.00000000000E+00  0.00000000000E+00  0.12490027790E+04  0.12490027790E+04  0.50400001928E-02 0.  1.
        1   -1    0    0  501    0  0.00000000000E+00  0.00000000000E+00 -0.24506820198E+04  0.24506820198E+04  0.50400001928E-02 0. -1.
    10030    2    1    2    0    0  0.00000000000E+00  0.00000000000E+00 -0.12016792408E+04  0.36996847988E+04  0.34990905408E+04 0.  0.
        1    1    3    3  502    0  0.83861708218E+03  0.11981069517E+04  0.41450854104E+03  0.15200513837E+04  0.50400001928E-02 0.  1.
       -1    1    3    3    0  502 -0.83861708218E+03 -0.11981069517E+04 -0.16161877819E+04  0.21796334152E+04  0.50400001928E-02 0. -1.
</event>
<event>
 5   0  0.1121462E-08  0.3498232E+04  0.7818609E-02  0.8114209E-01
       -1   -1    0    0    0  501  0.00000000000E+00  0.00000000000E+00  0.16365893691E+04  0.16365893691E+04  0.50400001928E-02 0. -1.
        1   -1    0    0  501    0  0.00000000000E+00  0.00000000000E+00 -0.18693793720E+04  0.18693793720E+04  0.50400001928E-02 0.  1.
    10030    2    1    2    0    0  0.00000000000E+00  0.00000000000E+00 -0.23279000283E+03  0.35059687411E+04  0.34982317860E+04 0.  0.
        2    1    3    3  502    0  0.15799411469E+04  0.72349191737E+03  0.83424555950E+02  0.17397167122E+04  0.25500000920E-02 0. -1.
       -2    1    3    3    0  502 -0.15799411469E+04 -0.72349191737E+03 -0.31621455878E+03  0.17662520289E+04  0.25500000920E-02 0.  1.
</event>
<event>
 5   0  0.3467834E-08  0.3503185E+04  0.7818609E-02  0.8113036E-01
       -2   -1    0    0    0  501  0.00000000000E+00  0.00000000000E+00  0.27909250716E+04  0.27909250716E+04  0.25500000920E-02 0.  1.
        2   -1    0    0  501    0  0.00000000000E+00  0.00000000000E+00 -0.10993041788E+04  0.10993041788E+04  0.25500000920E-02 0. -1.
    10030    2    1    2    0    0  0.00000000000E+00  0.00000000000E+00  0.16916208928E+04  0.38902292505E+04  0.35031846049E+04 0.  0.
        3    1    3    3  502    0 -0.28490111335E+03  0.13459203433E+04  0.20497536694E+04  0.24686353174E+04  0.10100000352E+00 0.  1.
       -3    1    3    3    0  502  0.28490111335E+03 -0.13459203433E+04 -0.35813277654E+03  0.14215939331E+04  0.10100000352E+00 0. -1.
</event>
<event>
 5   0  0.3700096E-08  0.3506829E+04  0.7818609E-02  0.8112173E-01
       -2   -1    0    0    0  501  0.00000000000E+00  0.00000000000E+00  0.17573385385E+04  0.17573385385E+04  0.25500000920E-02 0. -1.
        2   -1    0    0  501    0  0.00000000000E+00  0.00000000000E+00 -0.17494993694E+04  0.17494993694E+04  0.25500000920E-02 0.  1.
    10030    2    1    2    0    0  0.00000000000E+00  0.00000000000E+00  0.78391691736E+01  0.35068379079E+04  0.35068291461E+04 0.  0.
        4    1    3    3  502    0  0.13230574938E+04 -0.10173561928E+04 -0.53363761346E+03  0.17522173011E+04  0.12699999809E+01 0.  1.
       -4    1    3    3    0  502 -0.13230574938E+04  0.10173561928E+04  0.54147678263E+03  0.17546206068E+04  0.12699999809E+01 0. -1.
</event>
<event>
 5   0  0.3467834E-08  0.3498154E+04  0.7818609E-02  0.8114228E-01
        2   -1    0    0  501    0  0.00000000000E+00  0.00000000000E+00  0.22005275571E+04  0.22005275571E+04  0.25500000920E-02 0. -1.
       -2   -1    0    0    0  501  0.00000000000E+00  0.00000000000E+00 -0.13902436898E+04  0.13902436898E+04  0.25500000920E-02 0.  1.
    10030    2    1    2    0    0  0.00000000000E+00  0.00000000000E+00  0.81028386731E+03  0.35907712470E+04  0.34981535419E+04 0.  0.
        3    1    3    3  502    0  0.10391967271E+04  0.54808150493E+03 -0.92490596906E+03  0.14952505594E+04  0.10100000352E+00 0.  1.
       -3    1    3    3    0  502 -0.10391967271E+04 -0.54808150493E+03  0.17351898364E+04  0.20955206876E+04  0.10100000352E+00 0. -1.
</event>
<event>
 5   0  0.3467834E-08  0.3498133E+04  0.7818609E-02  0.8114233E-01
        2   -1    0    0  501    0  0.00000000000E+00  0.00000000000E+00  0.22701935671E+04  0.22701935671E+04  0.25500000920E-02 0. -1.
       -2   -1    0    0    0  501  0.00000000000E+00  0.00000000000E+00 -0.13475647445E+04  0.13475647445E+04  0.25500000920E-02 0.  1.
    10030    2    1    2    0    0  0.00000000000E+00  0.00000000000E+00  0.92262882260E+03  0.36177583116E+04  0.34981325385E+04 0.  0.
        3    1    3    3  502    0 -0.14398170557E+04 -0.99211889813E+03  0.41671494366E+03  0.17975050532E+04  0.10100000352E+00 0.  1.
       -3    1    3    3    0  502  0.14398170557E+04  0.99211889813E+03  0.50591387894E+03  0.18202532584E+04  0.10100000352E+00 0. -1.
</event>
<event>
 5   0  0.1129219E-08  0.3499506E+04  0.7818609E-02  0.8113907E-01
       -1   -1    0    0    0  501  0.00000000000E+00  0.00000000000E+00  0.19887080599E+04  0.19887080599E+04  0.50400001928E-02 0. -1.
        1   -1    0    0  501    0  0.00000000000E+00  0.00000000000E+00 -0.15395101220E+04  0.15395101220E+04  0.50400001928E-02 0.  1.
    10030    2    1    2    0    0  0.00000000000E+00  0.00000000000E+00  0.44919793794E+03  0.35282181819E+04  0.34995063583E+04 0.  0.
        5    1    3    3  502    0 -0.87098175099E+03  0.59125304594E+03  0.16337157495E+04  0.19435119282E+04  0.46999998093E+01 0. -1.
       -5    1    3    3    0  502  0.87098175099E+03 -0.59125304594E+03 -0.11845178115E+04  0.15847062538E+04  0.46999998093E+01 0.  1.
</event>
<event>
 5   0  0.1121462E-08  0.3500390E+04  0.7818609E-02  0.8113698E-01
        1   -1    0    0  501    0  0.00000000000E+00  0.00000000000E+00  0.23655601905E+04  0.23655601906E+04  0.50400001928E-02 0. -1.
       -1   -1    0    0    0  501  0.00000000000E+00  0.00000000000E+00 -0.12949077241E+04  0.12949077241E+04  0.50400001928E-02 0.  1.
    10030    2    1    2    0    0  0.00000000000E+00  0.00000000000E+00  0.10706524664E+04  0.36604679147E+04  0.35003897855E+04 0.  0.
        4    1    3    3  502    0  0.15517945309E+03 -0.14401484752E+04  0.15626329131E+04  0.21307115073E+04  0.12699999809E+01 0. -1.
       -4    1    3    3    0  502 -0.15517945309E+03  0.14401484752E+04 -0.49198044666E+03  0.15297564074E+04  0.12699999809E+01 0.  1.
</event>
<event>
 5   0  0.1129219E-08  0.3501079E+04  0.7818609E-02  0.8113534E-01
        1   -1    0    0  501    0  0.00000000000E+00  0.00000000000E+00  0.15825920050E+04  0.15825920050E+04  0.50400001928E-02 0.  1.
       -1   -1    0    0    0  501  0.00000000000E+00  0.00000000000E+00 -0.19363102499E+04  0.19363102499E+04  0.50400001928E-02 0. -1.
    10030    2    1    2    0    0  0.00000000000E+00  0.00000000000E+00 -0.35371824489E+03  0.35189022549E+04  0.35010793312E+04 0.  0.
        5    1    3    3  502    0 -0.75559102227E+03 -0.92525497823E+03 -0.14629638679E+04  0.18887297150E+04  0.46999998093E+01 0. -1.
       -5    1    3    3    0  502  0.75559102227E+03  0.92525497823E+03  0.11092456230E+04  0.16301725399E+04  0.46999998093E+01 0.  1.
</event>
<event>
 5   0  0.1140808E-08  0.3500837E+04  0.7818609E-02  0.8113592E-01
       -1   -1    0    0    0  501  0.00000000000E+00  0.00000000000E+00  0.16812829290E+04  0.16812829290E+04  0.50400001928E-02 0. -1.
        1   -1    0    0  501    0  0.00000000000E+00  0.00000000000E+00 -0.18223973790E+04  0.18223973790E+04  0.50400001928E-02 0.  1.
    10030    2    1    2    0    0  0.00000000000E+00  0.00000000000E+00 -0.14111444997E+03  0.35036803080E+04  0.35008373873E+04 0.  0.
        3    1    3    3  502    0  0.11402645397E+04 -0.12945138464E+04 -0.36743977752E+03  0.17637974145E+04  0.10100000352E+00 0.  1.
       -3    1    3    3    0  502 -0.11402645397E+04  0.12945138464E+04  0.22632532755E+03  0.17398828935E+04  0.10100000352E+00 0. -1.
</event>
<event>
 5   0  0.3700096E-08  0.3497565E+04  0.7818609E-02  0.8114367E-01
        2   -1    0    0  501    0  0.00000000000E+00  0.00000000000E+00  0.24344074944E+04  0.24344074944E+04  0.25500000920E-02 0. -1.
       -2   -1    0    0    0  501  0.00000000000E+00  0.00000000000E+00 -0.12562568147E+04  0.12562568147E+04  0.25500000920E-02 0.  1.
    10030    2    1    2    0    0  0.00000000000E+00  0.00000000000E+00  0.11781506797E+04  0.36906643090E+04  0.34975654415E+04 0.  0.
        4    1    3    3  502    0 -0.43661617527E+03 -0.14985232066E+04 -0.24315917850E+03  0.15796624589E+04  0.12699999809E+01 0.  1.
       -4    1    3    3    0  502  0.43661617527E+03  0.14985232066E+04  0.14213098582E+04  0.21110018501E+04  0.12699999809E+01 0. -1.
</event>
<event>
 5   0  0.3628017E-08  0.3501422E+04  0.7818609E-02  0.8113453E-01
       -2   -1    0    0    0  501  0.00000000000E+00  0.00000000000E+00  0.18888163838E+04  0.18888163838E+04  0.25500000920E-02 0. -1.
        2   -1    0    0  501    0  0.00000000000E+00  0.00000000000E+00 -0.16227033389E+04  0.16227033389E+04  0.25500000920E-02 0.  1.
    10030    2    1    2    0    0  0.00000000000E+00  0.00000000000E+00  0.26611304490E+03  0.35115197227E+04  0.35014217984E+04 0.  0.
        1    1    3    3  502    0  0.17132550436E+04  0.22236903427E+03  0.41724244443E+03  0.17772962863E+04  0.50400001928E-02 0.  1.
       -1    1    3    3    0  502 -0.17132550436E+04 -0.22236903427E+03 -0.15112939953E+03  0.17342234364E+04  0.50400001928E-02 0. -1.
</event>
<event>
 5   0  0.3553585E-08  0.3499649E+04  0.7818609E-02  0.8113873E-01
        2   -1    0    0  501    0  0.00000000000E+00  0.00000000000E+00  0.21693281661E+04  0.21693281661E+04  0.25500000920E-02 0. -1.
       -2   -1    0    0    0  501  0.00000000000E+00  0.00000000000E+00 -0.14114443163E+04  0.14114443163E+04  0.25500000920E-02 0.  1.
    10030    2    1    2    0    0  0.00000000000E+00  0.00000000000E+00  0.75788384976E+03  0.35807724824E+04  0.34996490740E+04 0.  0.
        2    1    3    3  502    0  0.48460359129E+03 -0.11854307607E+04  0.15989743114E+04  0.20486106457E+04  0.25500000920E-02 0. -1.
       -2    1    3    3    0  502 -0.48460359129E+03  0.11854307607E+04 -0.84109046166E+03  0.15321618367E+04  0.25500000920E-02 0.  1.
</event>
<event>
 5   0  0.1140808E-08  0.3499808E+04  0.7818609E-02  0.8113836E-01
       -1   -1    0    0    0  501  0.00000000000E+00  0.00000000000E+00  0.16854973088E+04  0.16854973088E+04  0.50400001928E-02 0.  1.
        1   -1    0    0  501    0  0.00000000000E+00  0.00000000000E+00 -0.18167715573E+04  0.18167715573E+04  0.50400001928E-02 0. -1.
    10030    2    1    2    0    0  0.00000000000E+00  0.00000000000E+00 -0.13127424854E+03  0.35022688661E+04  0.34998077493E+04 0.  0.
        3    1    3    3  502    0  0.10125293332E+04 -0.13925796816E+04 -0.37837847742E+03  0.17628568015E+04  0.10100000352E+00 0. -1.
       -3    1    3    3    0  502 -0.10125293332E+04  0.13925796816E+04  0.24710422888E+03  0.17394120646E+04  0.10100000352E+00 0.  1.
</event>
<event>
 5   0  0.3467834E-08  0.3498052E+04  0.7818609E-02  0.8114252E-01
       -2   -1    0    0    0  501  0.00000000000E+00  0.00000000000E+00  0.11787583554E+04  0.11787583554E+04  0.25500000920E-02 0. -1.
        2   -1    0    0  501    0  0.00000000000E+00  0.00000000000E+00 -0.25951815657E+04  0.25951815657E+04  0.25500000920E-02 0.  1.
    10030    2    1    2    0    0  0.00000000000E+00  0.00000000000E+00 -0.14164232103E+04  0.37739399211E+04  0.34980520033E+04 0.  0.
        3    1    3    3  502    0 -0.54787771286E+02  0.11931838966E+04 -0.20866340539E+04  0.24043151200E+04  0.10100000352E+00 0.  1.
       -3    1    3    3    0  502  0.54787771286E+02 -0.11931838966E+04  0.67021084353E+03  0.13696248012E+04  0.10100000352E+00 0. -1.
</event>
<event>
 5   0  0.3554451E-08  0.3474129E+04  0.7818609E-02  0.8119948E-01
       -2   -1    0    0    0  501  0.00000000000E+00  0.00000000000E+00  0.19257710602E+04  0.19257710602E+04  0.25500000920E-02 0.  1.
        2   -1    0    0  501    0  0.00000000000E+00  0.00000000000E+00 -0.15668496358E+04  0.15668496358E+04  0.25500000920E-02 0. -1.
    10030    2    1    2    0    0  0.00000000000E+00  0.00000000000E+00  0.35892142446E+03  0.34926206960E+04  0.34741293495E+04 0.  0.
        5    1    3    3  502    0  0.64991541983E+03  0.28464265191E+03  0.17734471776E+04  0.19101173979E+04  0.46999998093E+01 0.  1.
       -5    1    3    3    0  502 -0.64991541983E+03 -0.28464265191E+03 -0.14145257531E+04  0.15825032981E+04  0.46999998093E+01 0. -1.
</event>
<event>
 5   0  0.3628017E-08  0.3498817E+04  0.7818609E-02  0.8114070E-01
       -2   -1    0    0    0  501  0.00000000000E+00  0.00000000000E+00  0.15070036713E+04  0.15070036713E+04  0.25500000920E-02 0.  1.
        2   -1    0    0  501    0  0.00000000000E+00  0.00000000000E+00 -0.20308041010E+04  0.20308041010E+04  0.25500000920E-02 0. -1.
    10030    2    1    2    0    0  0.00000000000E+00  0.00000000000E+00 -0.52380042970E+03  0.35378077723E+04  0.34988165061E+04 0.  0.
        1    1    3    3  502    0 -0.64266025520E+03  0.12685610942E+04 -0.12921612073E+04  0.19214421769E+04  0.50400001928E-02 0. -1.
       -1    1    3    3    0  502  0.64266025520E+03 -0.12685610942E+04  0.76836077759E+03  0.16163655954E+04  0.50400001928E-02 0.  1.
</event>
<event>
 5   0  0.1140808E-08  0.3500620E+04  0.7818609E-02  0.8113643E-01
       -1   -1    0    0    0  501  0.00000000000E+00  0.00000000000E+00  0.18932095973E+04  0.18932095973E+04  0.50400001928E-02 0. -1.
        1   -1    0    0  501    0  0.00000000000E+00  0.00000000000E+00 -0.16181968818E+04  0.16181968818E+04  0.50400001928E-02 0.  1.
    10030    2    1    2    0    0  0.00000000000E+00  0.00000000000E+00  0.27501271551E+03  0.35114064792E+04  0.35006204405E+04 0.  0.
        3    1    3    3  502    0 -0.36758023500E+03 -0.81057554083E+03  0.16492791247E+04  0.18741050072E+04  0.10100000352E+00 0. -1.
       -3    1    3    3    0  502  0.36758023500E+03  0.81057554083E+03 -0.13742664092E+04  0.16373014720E+04  0.10100000352E+00 0.  1.
</event>
<event>
 5   0  0.1121462E-08  0.3500058E+04  0.7818609E-02  0.8113776E-01
       -1   -1    0    0    0  501  0.00000000000E+00  0.00000000000E+00  0.18334179824E+04  0.18334179824E+04  0.50400001928E-02 0.  1.
        1   -1    0    0  501    0  0.00000000000E+00  0.00000000000E+00 -0.16704327343E+04  0.16704327343E+04  0.50400001928E-02 0. -1.
    10030    2    1    2    0    0  0.00000000000E+00  0.00000000000E+00  0.16298524805E+03  0.35038507167E+04  0.35000579501E+04 0.  0.
        4    1    3    3  502    0 -0.10788707590E+04  0.78981429973E+03  0.12118003009E+04  0.18045027916E+04  0.12699999809E+01 0.  1.
       -4    1    3    3    0  502  0.10788707590E+04 -0.78981429973E+03 -0.10488150528E+04  0.16993479251E+04  0.12699999809E+01 0. -1.
</event>
<event>
 5   0  0.1140808E-08  0.3499992E+04  0.7818609E-02  0.8113792E-01
        1   -1    0    0  501    0  0.00000000000E+00  0.00000000000E+00  0.20568084611E+04  0.20568084611E+04  0.50400001928E-02 0. -1.
       -1   -1    0    0    0  501  0.00000000000E+00  0.00000000000E+00 -0.14889502333E+04  0.14889502334E+04  0.50400001928E-02 0.  1.
    10030    2    1    2    0    0  0.00000000000E+00  0.00000000000E+00  0.56785822775E+03  0.35457586945E+04  0.34999916789E+04 0.  0.
        3    1    3    3  502    0 -0.50780592261E+03 -0.79753684683E+03  0.17757862645E+04  0.20118023622E+04  0.10100000352E+00 0. -1.
       -3    1    3    3    0  502  0.50780592261E+03  0.79753684683E+03 -0.12079280368E+04  0.15339563323E+04  0.10100000352E+00 0.  1.
</event>
<event>
 5   0  0.3628017E-08  0.3499481E+04  0.7818609E-02  0.8113913E-01
       -2   -1    0    0    0  501  0.00000000000E+00  0.00000000000E+00  0.11065705334E+04  0.11065705334E+04  0.25500000920E-02 0.  1.
        2   -1    0    0  501    0  0.00000000000E+00  0.00000000000E+00 -0.27667384986E+04  0.27667384986E+04  0.25500000920E-02 0. -1.
    10030    2    1    2    0    0  0.00000000000E+00  0.00000000000E+00 -0.16601679652E+04  0.38733090320E+04  0.34994807022E+04 0.  0.
        1    1    3    3  502    0  0.10929397168E+04  0.28063173659E+03  0.65005041070E+03  0.13022430390E+04  0.50400001928E-02 0.  1.
       -1    1    3    3    0  502 -0.10929397168E+04 -0.28063173659E+03 -0.23102183759E+04  0.25710659930E+04  0.50400001928E-02 0. -1.
</event>
<event>
 5   0  0.3554451E-08  0.3501751E+04  0.7818609E-02  0.8113375E-01
       -2   -1    0    0    0  501  0.00000000000E+00  0.00000000000E+00  0.14365635801E+04  0.14365635801E+04  0.25500000920E-02 0.  1.
        2   -1    0    0  501    0  0.00000000000E+00  0.00000000000E+00 -0.21339573316E+04  0.21339573316E+04  0.25500000920E-02 0. -1.
    10030    2    1    2    0    0  0.00000000000E+00  0.00000000000E+00 -0.69739375151E+03  0.35705209117E+04  0.35017512100E+04 0.  0.
        5    1    3    3  502    0 -0.80542422395E+03 -0.11456334139E+04  0.72282605449E+03  0.15759707151E+04  0.46999998093E+01 0.  1.
       -5    1    3    3    0  502  0.80542422395E+03  0.11456334139E+04 -0.14202198060E+04  0.19945501967E+04  0.46999998093E+01 0. -1.
</event>
<event>
 5   0  0.3553585E-08  0.3482847E+04  0.7818609E-02  0.8117867E-01
       -2   -1    0    0    0  501  0.00000000000E+00  0.00000000000E+00  0.14036436209E+04  0.14036436209E+04  0.25500000920E-02 0.  1.
        2   -1    0    0  501    0  0.00000000000E+00  0.00000000000E+00 -0.21604889332E+04  0.21604889332E+04  0.25500000920E-02 0. -1.
    10030    2    1    2    0    0  0.00000000000E+00  0.00000000000E+00 -0.75684531238E+03  0.35641325541E+04  0.34828474035E+04 0.  0.
        2    1    3    3  502    0 -0.12325780898E+04 -0.36738303582E+03 -0.15798490857E+04  0.20371897741E+04  0.25500000920E-02 0. -1.
       -2    1    3    3    0  502  0.12325780898E+04  0.36738303582E+03  0.82300377329E+03  0.15269427799E+04  0.25500000920E-02 0.  1.
</event>
<event>
 5   0  0.3467834E-08  0.3502236E+04  0.7818609E-02  0.8113260E-01
        2   -1    0    0  501    0  0.00000000000E+00  0.00000000000E+00  0.21240086053E+04  0.21240086053E+04  0.25500000920E-02 0.  1.
       -2   -1    0    0    0  501  0.00000000000E+00  0.00000000000E+00 -0.14436919746E+04  0.14436919746E+04  0.25500000920E-02 0. -1.
    10030    2    1    2    0    0  0.00000000000E+00  0.00000000000E+00  0.68031663073E+03  0.35677005800E+04  0.35022359587E+04 0.  0.
        3    1    3    3  502    0 -0.12421013515E+04 -0.66119449458E+02  0.15957669012E+04  0.20232794078E+04  0.10100000352E+00 0.  1.
       -3    1    3    3    0  502  0.12421013515E+04  0.66119449458E+02 -0.91545027050E+03  0.15444211721E+04  0.10100000352E+00 0. -1.
</event>
<event>
 5   0  0.3553585E-08  0.3504241E+04  0.7818609E-02  0.8112786E-01
        2   -1    0    0  501    0  0.00000000000E+00  0.00000000000E+00  0.16707267239E+04  0.16707267239E+04  0.25500000920E-02 0. -1.
       -2   -1    0    0    0  501  0.00000000000E+00  0.00000000000E+00 -0.18374798029E+04  0.18374798029E+04  0.25500000920E-02 0.  1.
    10030    2    1    2    0    0  0.00000000000E+00  0.00000000000E+00 -0.16675307901E+03  0.35082065268E+04  0.35042412082E+04 0.  0.
        2    1    3    3  502    0  0.10669693483E+04 -0.53126895944E+03  0.12023104156E+04  0.16929916222E+04  0.25500000920E-02 0. -1.
       -2    1    3    3    0  502 -0.10669693483E+04  0.53126895944E+03 -0.13690634946E+04  0.18152149046E+04  0.25500000920E-02 0.  1.
</event>
<event>
 5   0  0.3467834E-08  0.3498219E+04  0.7818609E-02  0.8114212E-01
        2   -1    0    0  501    0  0.00000000000E+00  0.00000000000E+00  0.16447950265E+04  0.16447950265E+04  0.25500000920E-02 0. -1.
       -2   -1    0    0    0  501  0.00000000000E+00  0.00000000000E+00 -0.18600401389E+04  0.18600401389E+04  0.25500000920E-02 0.  1.
    10030    2    1    2    0    0  0.00000000000E+00  0.00000000000E+00 -0.21524511248E+03  0.35048351654E+04  0.34982194154E+04 0.  0.
        3    1    3    3  502    0  0.33746925753E+03  0.13389325053E+03 -0.18218732489E+04  0.18576961666E+04  0.10100000352E+00 0.  1.
       -3    1    3    3    0  502 -0.33746925753E+03 -0.13389325053E+03  0.16066281364E+04  0.16471389988E+04  0.10100000352E+00 0. -1.
</event>
<event>
 5   0  0.3467834E-08  0.3500105E+04  0.7818609E-02  0.8113765E-01
        2   -1    0    0  501    0  0.00000000000E+00  0.00000000000E+00  0.16217901297E+04  0.16217901297E+04  0.25500000920E-02 0.  1.
       -2   -1    0    0    0  501  0.00000000000E+00  0.00000000000E+00 -0.18884582095E+04  0.18884582095E+04  0.25500000920E-02 0. -1.
    10030    2    1    2    0    0  0.00000000000E+00  0.00000000000E+00 -0.26666807975E+03  0.35102483392E+04  0.35001045038E+04 0.  0.
        3    1    3    3  502    0 -0.14450061610E+03  0.12975418681E+04  0.10354565414E+04  0.16663329760E+04  0.10100000352E+00 0.  1.
       -3    1    3    3    0  502  0.14450061610E+03 -0.12975418681E+04 -0.13021246212E+04  0.18439153632E+04  0.10100000352E+00 0. -1.
</event>
<event>
 5   0  0.3700096E-08  0.3499329E+04  0.7818609E-02  0.8113949E-01
       -2   -1    0    0    0  501  0.00000000000E+00  0.00000000000E+00  0.27792194071E+04  0.27792194071E+04  0.25500000920E-02 0.  1.
        2   -1    0    0  501    0  0.00000000000E+00  0.00000000000E+00 -0.11015056464E+04  0.11015056464E+04  0.25500000920E-02 0. -1.
    10030    2    1    2    0    0  0.00000000000E+00  0.00000000000E+00  0.16777137608E+04  0.38807250535E+04  0.34993290040E+04 0.  0.
        4    1    3    3  502    0  0.28778218717E+03  0.10352356235E+04  0.23702259041E+04  0.26024034723E+04  0.12699999809E+01 0.  1.
       -4    1    3    3    0  502 -0.28778218717E+03 -0.10352356235E+04 -0.69251214338E+03  0.12783215812E+04  0.12699999809E+01 0. -1.
</event>
<event>
 5   0  0.1129219E-08  0.3500741E+04  0.7818609E-02  0.8113614E-01
       -1   -1    0    0    0  501  0.00000000000E+00  0.00000000000E+00  0.11698126305E+04  0.11698126305E+04  0.50400001928E-02 0. -1.
        1   -1    0    0  501    0  0.00000000000E+00  0.00000000000E+00 -0.26190493632E+04  0.26190493633E+04  0.50400001928E-02 0.  1.
    10030    2    1    2    0    0  0.00000000000E+00  0.00000000000E+00 -0.14492367327E+04  0.37888619938E+04  0.35007410787E+04 0.  0.
        5    1    3    3  502    0 -0.31746222791E+03  0.23874028012E+03 -0.25696179956E+04  0.26001419040E+04  0.46999998093E+01 0.  1.
       -5    1    3    3    0  502  0.31746222791E+03 -0.23874028012E+03  0.11203812629E+04  0.11887200898E+04  0.46999998093E+01 0. -1.
</event>
<event>
 5   0  0.1121462E-08  0.3501872E+04  0.7818609E-02  0.8113347E-01
       -1   -1    0    0    0  501  0.00000000000E+00  0.00000000000E+00  0.21533102292E+04  0.21533102292E+04  0.50400001928E-02 0.  1.
        1   -1    0    0  501    0  0.00000000000E+00  0.00000000000E+00 -0.14237504229E+04  0.14237504229E+04  0.50400001928E-02 0. -1.
    10030    2    1    2    0    0  0.00000000000E+00  0.00000000000E+00  0.72955980628E+03  0.35770606522E+04  0.35018716993E+04 0.  0.
        4    1    3    3  502    0  0.44681690965E+03  0.87050816414E+03 -0.11184104931E+04  0.14860260626E+04  0.12699999809E+01 0. -1.
       -4    1    3    3    0  502 -0.44681690965E+03 -0.87050816414E+03  0.18479702994E+04  0.20910345896E+04  0.12699999809E+01 0.  1.
</event>
<event>
 5   0  0.1121462E-08  0.3500890E+04  0.7818609E-02  0.8113579E-01
       -1   -1    0    0    0  501  0.00000000000E+00  0.00000000000E+00  0.14444954617E+04  0.14444954617E+04  0.50400001928E-02 0. -1.
        1   -1    0    0  501    0  0.00000000000E+00  0.00000000000E+00 -0.21211957216E+04  0.21211957216E+04  0.50400001928E-02 0.  1.
    10030    2    1    2    0    0  0.00000000000E+00  0.00000000000E+00 -0.67670025982E+03  0.35656911833E+04  0.35008899402E+04 0.  0.
        2    1    3    3  502    0  0.47005765526E+03  0.16937431225E+03 -0.20470248521E+04  0.21071195035E+04  0.25500000920E-02 0.  1.
       -2    1    3    3    0  502 -0.47005765526E+03 -0.16937431225E+03  0.13703245923E+04  0.14585716798E+04  0.25500000920E-02 0. -1.
</event>
<event>
 5   0  0.1140808E-08  0.3500357E+04  0.7818609E-02  0.8113705E-01
       -1   -1    0    0    0  501  0.00000000000E+00  0.00000000000E+00  0.12711065062E+04  0.12711065062E+04  0.50400001928E-02 0.  1.
        1   -1    0    0  501    0  0.00000000000E+00  0.00000000000E+00 -0.24098101789E+04  0.24098101789E+04  0.50400001928E-02 0. -1.
    10030    2    1    2    0    0  0.00000000000E+00  0.00000000000E+00 -0.11387036727E+04  0.36809166851E+04  0.35003573515E+04 0.  0.
        3    1    3    3  502    0 -0.46537174307E+03 -0.52532680504E+03 -0.22553600892E+04  0.23620305361E+04  0.10100000352E+00 0. -1.
       -3    1    3    3    0  502  0.46537174307E+03  0.52532680504E+03  0.11166564165E+04  0.13188861490E+04  0.10100000352E+00 0.  1.
</event>
<event>
 5   0  0.3628017E-08  0.3500615E+04  0.7818609E-02  0.8113644E-01
        2   -1    0    0  501    0  0.00000000000E+00  0.00000000000E+00  0.13656579761E+04  0.13656579761E+04  0.25500000920E-02 0. -1.
       -2   -1    0    0    0  501  0.00000000000E+00  0.00000000000E+00 -0.22432973815E+04  0.22432973815E+04  0.25500000920E-02 0.  1.
    10030    2    1    2    0    0  0.00000000000E+00  0.00000000000E+00 -0.87763940540E+03  0.36089553576E+04  0.35006153527E+04 0.  0.
        1    1    3    3  502    0 -0.73070726700E+03  0.14560425368E+04 -0.10986140633E+04  0.19649289654E+04  0.50400001928E-02 0.  1.
       -1    1    3    3    0  502  0.73070726700E+03 -0.14560425368E+04  0.22097465786E+03  0.16440263923E+04  0.50400001928E-02 0. -1.
</event>
<event>
 5   0  0.1140808E-08  0.3501099E+04  0.7818609E-02  0.8113530E-01
       -1   -1    0    0    0  501  0.00000000000E+00  0.00000000000E+00  0.16675212359E+04  0.16675212359E+04  0.50400001928E-02 0. -1.
        1   -1    0    0  501    0  0.00000000000E+00  0.00000000000E+00 -0.18377119722E+04  0.18377119722E+04  0.50400001928E-02 0.  1.
    10030    2    1    2    0    0  0.00000000000E+00  0.00000000000E+00 -0.17019073629E+03  0.35052332081E+04  0.35010991069E+04 0.  0.
        3    1    3    3  502    0 -0.54532218859E+03  0.15845483934E+04  0.42171757099E+03  0.17280091494E+04  0.10100000352E+00 0. -1.
       -3    1    3    3    0  502  0.54532218859E+03 -0.15845483934E+04 -0.59190830728E+03  0.17772240587E+04  0.10100000352E+00 0.  1.
</event>
<event>
 5   0  0.3467834E-08  0.3501277E+04  0.7818609E-02  0.8113487E-01
        2   -1    0    0  501    0  0.00000000000E+00  0.00000000000E+00  0.14181375450E+04  0.14181375450E+04  0.25500000920E-02 0. -1.
       -2   -1    0    0    0  501  0.00000000000E+00  0.00000000000E+00 -0.21610987102E+04  0.21610987102E+04  0.25500000920E-02 0.  1.
    10030    2    1    2    0    0  0.00000000000E+00  0.00000000000E+00 -0.74296116516E+03  0.35792362552E+04  0.35012770353E+04 0.  0.
        3    1    3    3  502    0  0.11262109895E+03  0.13624160428E+04 -0.14893900730E+04  0.20216685647E+04  0.10100000352E+00 0.  1.
       -3    1    3    3    0  502 -0.11262109895E+03 -0.13624160428E+04  0.74642890789E+03  0.15575676905E+04  0.10100000352E+00 0. -1.
</event>
<event>
 5   0  0.1121462E-08  0.3499825E+04  0.7818609E-02  0.8113831E-01
       -1   -1    0    0    0  501  0.00000000000E+00  0.00000000000E+00  0.16514301725E+04  0.16514301725E+04  0.50400001928E-02 0. -1.
        1   -1    0    0  501    0  0.00000000000E+00  0.00000000000E+00 -0.18542679532E+04  0.18542679532E+04  0.50400001928E-02 0.  1.
    10030    2    1    2    0    0  0.00000000000E+00  0.00000000000E+00 -0.20283778069E+03  0.35056981257E+04  0.34998251647E+04 0.  0.
        1    1    3    3  502    0 -0.66723811419E+03 -0.11907163947E+04 -0.11983281015E+04  0.18163156313E+04  0.50400001928E-02 0.  1.
       -1    1    3    3    0  502  0.66723811419E+03  0.11907163947E+04  0.99549032082E+03  0.16893824944E+04  0.50400001928E-02 0. -1.
</event>
<event>
 5   0  0.3700096E-08  0.3501020E+04  0.7818609E-02  0.8113548E-01
       -2   -1    0    0    0  501  0.00000000000E+00  0.00000000000E+00  0.16284463987E+04  0.16284463987E+04  0.25500000920E-02 0. -1.
        2   -1    0    0  501    0  0.00000000000E+00  0.00000000000E+00 -0.18817229121E+04  0.18817229121E+04  0.25500000920E-02 0.  1.
    10030    2    1    2    0    0  0.00000000000E+00  0.00000000000E+00 -0.25327651342E+03  0.35101693108E+04  0.35010197940E+04 0.  0.
        4    1    3    3  502    0 -0.14246091522E+04 -0.63623689625E+03 -0.92242195756E+03  0.18125044843E+04  0.12699999809E+01 0.  1.
       -4    1    3    3    0  502  0.14246091522E+04  0.63623689625E+03  0.66914544414E+03  0.16976648265E+04  0.12699999809E+01 0. -1.
</event>
<event>
 5   0  0.3700096E-08  0.3501093E+04  0.7818609E-02  0.8113531E-01
       -2   -1    0    0    0  501  0.00000000000E+00  0.00000000000E+00  0.26369791471E+04  0.26369791471E+04  0.25500000920E-02 0.  1.
        2   -1    0    0  501    0  0.00000000000E+00  0.00000000000E+00 -0.11620923537E+04  0.11620923537E+04  0.25500000920E-02 0. -1.
    10030    2    1    2    0    0  0.00000000000E+00  0.00000000000E+00  0.14748867934E+04  0.37990715008E+04  0.35010931457E+04 0.  0.
        4    1    3    3  502    0  0.13698066821E+04  0.10226218794E+04  0.11467555479E+04  0.20584401264E+04  0.12699999809E+01 0.  1.
       -4    1    3    3    0  502 -0.13698066821E+04 -0.10226218794E+04  0.32813124550E+03  0.17406313744E+04  0.12699999809E+01 0. -1.
</event>
<event>
 5   0  0.1129219E-08  0.3497365E+04  0.7818609E-02  0.8114415E-01
        1   -1    0    0  501    0  0.00000000000E+00  0.00000000000E+00  0.17309595380E+04  0.17309595380E+04  0.50400001928E-02 0.  1.
       -1   -1    0    0    0  501  0.00000000000E+00  0.00000000000E+00 -0.17665870248E+04  0.17665870248E+04  0.50400001928E-02 0. -1.
    10030    2    1    2    0    0  0.00000000000E+00  0.00000000000E+00 -0.35627486792E+02  0.34975465629E+04  0.34973650999E+04 0.  0.
        5    1    3    3  502    0  0.88233857915E+03 -0.94581016504E+03 -0.11946459485E+04  0.17607609914E+04  0.46999998093E+01 0. -1.
       -5    1    3    3    0  502 -0.88233857915E+03  0.94581016504E+03  0.11590184617E+04  0.17367855715E+04  0.46999998093E+01 0.  1.
</event>
<event>
 5   0  0.1140808E-08  0.3500142E+04  0.7818609E-02  0.8113756E-01
        1   -1    0    0  501    0  0.00000000000E+00  0.00000000000E+00  0.18181209399E+04  0.18181209399E+04  0.50400001928E-02 0. -1.
       -1   -1    0    0    0  501  0.00000000000E+00  0.00000000000E+00 -0.16845681183E+04  0.16845681183E+04  0.50400001928E-02 0.  1.
    10030    2    1    2    0    0  0.00000000000E+00  0.00000000000E+00  0.13355282167E+03  0.35026890582E+04  0.35001420374E+04 0.  0.
        3    1    3    3  502    0 -0.12478313940E+04  0.11595885986E+04 -0.33478813534E+03  0.17360334132E+04  0.10100000352E+00 0.  1.
       -3    1    3    3    0  502  0.12478313940E+04 -0.11595885986E+04  0.46834095702E+03  0.17666556450E+04  0.10100000352E+00 0. -1.
</event>
<event>
 5   0  0.1121462E-08  0.3498966E+04  0.7818609E-02  0.8114035E-01
        1   -1    0    0  501    0  0.00000000000E+00  0.00000000000E+00  0.18313272065E+04  0.18313272065E+04  0.50400001928E-02 0. -1.
       -1   -1    0    0    0  501  0.00000000000E+00  0.00000000000E+00 -0.16712961307E+04  0.16712961307E+04  0.50400001928E-02 0.  1.
    10030    2    1    2    0    0  0.00000000000E+00  0.00000000000E+00  0.16003107584E+03  0.35026233372E+04  0.34989656039E+04 0.  0.
        2    1    3    3  502    0 -0.40433482029E+03  0.10370589287E+04 -0.12711036069E+04  0.16895804947E+04  0.25500000920E-02 0.  1.
       -2    1    3    3    0  502  0.40433482029E+03 -0.10370589287E+04  0.14311346828E+04  0.18130428425E+04  0.25500000920E-02 0. -1.
</event>
<event>
 5   0  0.3700096E-08  0.3499841E+04  0.7818609E-02  0.8113828E-01
       -2   -1    0    0    0  501  0.00000000000E+00  0.00000000000E+00  0.22546542051E+04  0.22546542051E+04  0.25500000920E-02 0. -1.
        2   -1    0    0  501    0  0.00000000000E+00  0.00000000000E+00 -0.13581778259E+04  0.13581778259E+04  0.25500000920E-02 0.  1.
    10030    2    1    2    0    0  0.00000000000E+00  0.00000000000E+00  0.89647637917E+03  0.36128320310E+04  0.34998407658E+04 0.  0.
        4    1    3    3  502    0  0.41801086818E+03  0.10868703571E+04  0.17966246629E+04  0.21410002455E+04  0.12699999809E+01 0. -1.
       -4    1    3    3    0  502 -0.41801086818E+03 -0.10868703571E+04 -0.90014828376E+03  0.14718317855E+04  0.12699999809E+01 0.  1.
</event>
<event>
 5   0  0.1140808E-08  0.3499170E+04  0.7818609E-02  0.8113987E-01
        1   -1    0    0  501    0  0.00000000000E+00  0.00000000000E+00  0.18060917061E+04  0.18060917061E+04  0.50400001928E-02 0. -1.
       -1   -1    0    0    0  501  0.00000000000E+00  0.00000000000E+00 -0.16948459620E+04  0.16948459620E+04  0.50400001928E-02 0.  1.
    10030    2    1    2    0    0  0.00000000000E+00  0.00000000000E+00  0.11124574413E+03  0.35009376681E+04  0.34991697501E+04 0.  0.
        3    1    3    3  502    0 -0.15172251953E+04 -0.75470318018E+03  0.49115653726E+03  0.17643083454E+04  0.10100000352E+00 0.  1.
       -3    1    3    3    0  502  0.15172251953E+04  0.75470318018E+03 -0.37991079313E+03  0.17366293227E+04  0.10100000352E+00 0. -1.
</event>
<event>
 5   0  0.3553585E-08  0.3499501E+04  0.7818609E-02  0.8113908E-01
        2   -1    0    0  501    0  0.00000000000E+00  0.00000000000E+00  0.14247780012E+04  0.14247780012E+04  0.25500000920E-02 0. -1.
       -2   -1    0    0    0  501  0.00000000000E+00  0.00000000000E+00 -0.21488450563E+04  0.21488450563E+04  0.25500000920E-02 0.  1.
    10030    2    1    2    0    0  0.00000000000E+00  0.00000000000E+00 -0.72406705516E+03  0.35736230575E+04  0.34995012011E+04 0.  0.
        2    1    3    3  502    0 -0.79166313322E+03 -0.14286397279E+04 -0.10029293084E+04  0.19166661645E+04  0.25500000920E-02 0.  1.
       -2    1    3    3    0  502  0.79166313322E+03  0.14286397279E+04  0.27886225319E+03  0.16569568929E+04  0.25500000920E-02 0. -1.
</event>
<event>
 5   0  0.3700096E-08  0.3498472E+04  0.7818609E-02  0.8114152E-01
       -2   -1    0    0    0  501  0.00000000000E+00  0.00000000000E+00  0.23949556737E+04  0.23949556737E+04  0.25500000920E-02 0.  1.
        2   -1    0    0  501    0  0.00000000000E+00  0.00000000000E+00 -0.12776132377E+04  0.12776132377E+04  0.25500000920E-02 0. -1.
    10030    2    1    2    0    0  0.00000000000E+00  0.00000000000E+00  0.11173424360E+04  0.36725689114E+04  0.34984722794E+04 0.  0.
        4    1    3    3  502    0  0.36365229598E+03 -0.13124465112E+04 -0.59371231908E+03  0.14856832663E+04  0.12699999809E+01 0.  1.
       -4    1    3    3    0  502 -0.36365229598E+03  0.13124465112E+04  0.17110547551E+04  0.21868856451E+04  0.12699999809E+01 0. -1.
</event>
<event>
 5   0  0.1129219E-08  0.3499998E+04  0.7818609E-02  0.8113790E-01
        1   -1    0    0  501    0  0.00000000000E+00  0.00000000000E+00  0.20339221955E+04  0.20339221955E+04  0.50400001928E-02 0.  1.
       -1   -1    0    0    0  501  0.00000000000E+00  0.00000000000E+00 -0.15057101512E+04  0.15057101512E+04  0.50400001928E-02 0. -1.
    10030    2    1    2    0    0  0.00000000000E+00  0.00000000000E+00  0.52821204428E+03  0.35396323467E+04  0.34999984551E+04 0.  0.
        5    1    3    3  502    0  0.17359371536E+04  0.22078784302E+03  0.24811131684E+03  0.17674293164E+04  0.46999998093E+01 0.  1.
       -5    1    3    3    0  502 -0.17359371536E+04 -0.22078784302E+03  0.28010072744E+03  0.17722030303E+04  0.46999998093E+01 0. -1.
</event>
<event>
 5   0  0.1121462E-08  0.3501252E+04  0.7818609E-02  0.8113493E-01
       -1   -1    0    0    0  501  0.00000000000E+00  0.00000000000E+00  0.12522815668E+04  0.12522815668E+04  0.50400001928E-02 0. -1.
        1   -1    0    0  501    0  0.00000000000E+00  0.00000000000E+00 -0.24472868441E+04  0.24472868441E+04  0.50400001928E-02 0.  1.
    10030    2    1    2    0    0  0.00000000000E+00  0.00000000000E+00 -0.11950052773E+04  0.36995684109E+04  0.35012524636E+04 0.  0.
        2    1    3    3  502    0 -0.17094241698E+04  0.30960850103E+03 -0.82585404203E+03  0.19235444666E+04  0.25500000920E-02 0.  1.
       -2    1    3    3    0  502  0.17094241698E+04 -0.30960850103E+03 -0.36915123528E+03  0.17760239443E+04  0.25500000920E-02 0. -1.
</event>
<event>
 5   0  0.3553585E-08  0.3500394E+04  0.7818609E-02  0.8113697E-01
        2   -1    0    0  501    0  0.00000000000E+00  0.00000000000E+00  0.30658047239E+04  0.30658047239E+04  0.25500000920E-02 0.  1.
       -2   -1    0    0    0  501  0.00000000000E+00  0.00000000000E+00 -0.99914711644E+03  0.99914711644E+03  0.25500000920E-02 0. -1.
    10030    2    1    2    0    0  0.00000000000E+00  0.00000000000E+00  0.20666576075E+04  0.40649518403E+04  0.35003942346E+04 0.  0.
        2    1    3    3  502    0  0.25223247021E+03 -0.12718595600E+04 -0.33183055680E+03  0.13384167803E+04  0.25500000920E-02 0. -1.
       -2    1    3    3    0  502 -0.25223247021E+03  0.12718595600E+04  0.23984881643E+04  0.27265350600E+04  0.25500000920E-02 0.  1.
</event>
<event>
 5   0  0.3467834E-08  0.3500698E+04  0.7818609E-02  0.8113625E-01
       -2   -1    0    0    0  501  0.00000000000E+00  0.00000000000E+00  0.26446999500E+04  0.26446999500E+04  0.25500000920E-02 0. -1.
        2   -1    0    0  501    0  0.00000000000E+00  0.00000000000E+00 -0.11584380849E+04  0.11584380849E+04  0.25500000920E-02 0.  1.
    10030    2    1    2    0    0  0.00000000000E+00  0.00000000000E+00  0.14862618651E+04  0.38031380349E+04  0.35006977277E+04 0.  0.
        3    1    3    3  502    0 -0.17970244376E+03  0.94272122210E+03 -0.84713096523E+03  0.12800965406E+04  0.10100000352E+00 0.  1.
       -3    1    3    3    0  502  0.17970244376E+03 -0.94272122210E+03  0.23333928303E+04  0.25230414943E+04  0.10100000352E+00 0. -1.
</event>
<event>
 5   0  0.3554451E-08  0.3490577E+04  0.7818609E-02  0.8116027E-01
        2   -1    0    0  501    0  0.00000000000E+00  0.00000000000E+00  0.21371855234E+04  0.21371855234E+04  0.25500000920E-02 0. -1.
       -2   -1    0    0    0  501  0.00000000000E+00  0.00000000000E+00 -0.14252535885E+04  0.14252535885E+04  0.25500000920E-02 0.  1.
    10030    2    1    2    0    0  0.00000000000E+00  0.00000000000E+00  0.71193193485E+03  0.35624391119E+04  0.34905766495E+04 0.  0.
        5    1    3    3  502    0 -0.76618269138E+03  0.35088058279E+03  0.19157817768E+04  0.20929393222E+04  0.46999998093E+01 0. -1.
       -5    1    3    3    0  502  0.76618269138E+03 -0.35088058279E+03 -0.12038498420E+04  0.14694997897E+04  0.46999998093E+01 0.  1.
</event>
<event>
 5   0  0.1121462E-08  0.3499724E+04  0.7818609E-02  0.8113855E-01
       -1   -1    0    0    0  501  0.00000000000E+00  0.00000000000E+00  0.15367610679E+04  0.15367610679E+04  0.50400001928E-02 0. -1.
        1   -1    0    0  501    0  0.00000000000E+00  0.00000000000E+00 -0.19925128708E+04  0.19925128708E+04  0.50400001928E-02 0.  1.
    10030    2    1    2    0    0  0.00000000000E+00  0.00000000000E+00 -0.45575180297E+03  0.35292739387E+04  0.34997235360E+04 0.  0.
        2    1    3    3  502    0  0.39020747342E+02 -0.63165077922E+03 -0.18730647384E+04  0.19770879696E+04  0.25500000920E-02 0.  1.
       -2    1    3    3    0  502 -0.39020747342E+02  0.63165077922E+03  0.14173129354E+04  0.15521859690E+04  0.25500000920E-02 0. -1.
</event>
<event>
 5   0  0.3553585E-08  0.3499019E+04  0.7818609E-02  0.8114022E-01
        2   -1    0    0  501    0  0.00000000000E+00  0.00000000000E+00  0.17541340037E+04  0.17541340037E+04  0.25500000920E-02 0.  1.
       -2   -1    0    0    0  501  0.00000000000E+00  0.00000000000E+00 -0.17448974970E+04  0.17448974970E+04  0.25500000920E-02 0. -1.
    10030    2    1    2    0    0  0.00000000000E+00  0.00000000000E+00  0.92365067693E+01  0.34990315007E+04  0.34990193097E+04 0.  0.
        2    1    3    3  502    0  0.74829587236E+03 -0.14489855066E+04  0.63808578830E+03  0.17511879351E+04  0.25500000920E-02 0.  1.
       -2    1    3    3    0  502 -0.74829587236E+03  0.14489855066E+04 -0.62884928153E+03  0.17478435656E+04  0.25500000920E-02 0. -1.
</event>
<event>
 5   0  0.1121462E-08  0.3500737E+04  0.7818609E-02  0.8113615E-01
       -1   -1    0    0    0  501  0.00000000000E+00  0.00000000000E+00  0.22135826927E+04  0.22135826927E+04  0.50400001928E-02 0. -1.
        1   -1    0    0  501    0  0.00000000000E+00  0.00000000000E+00 -0.13840865111E+04  0.13840865111E+04  0.50400001928E-02 0.  1.
    10030    2    1    2    0    0  0.00000000000E+00  0.00000000000E+00  0.82949618161E+03  0.35976692038E+04  0.35007370345E+04 0.  0.
        2    1    3    3  502    0  0.14669796666E+04 -0.78094559632E+03 -0.14990564300E+03  0.16686452794E+04  0.25500000920E-02 0.  1.
       -2    1    3    3    0  502 -0.14669796666E+04  0.78094559632E+03  0.97940182461E+03  0.19290239244E+04  0.25500000920E-02 0. -1.
</event>
<event>
 5   0  0.3554451E-08  0.3500236E+04  0.7818609E-02  0.8113734E-01
        2   -1    0    0  501    0  0.00000000000E+00  0.00000000000E+00  0.17909217258E+04  0.17909217258E+04  0.25500000920E-02 0.  1.
       -2   -1    0    0    0  501  0.00000000000E+00  0.00000000000E+00 -0.17102438602E+04  0.17102438602E+04  0.25500000920E-02 0. -1.
    10030    2    1    2    0    0  0.00000000000E+00  0.00000000000E+00  0.80677865636E+02  0.35011655860E+04  0.35002359267E+04 0.  0.
        5    1    3    3  502    0  0.12114832738E+04  0.54653912350E+03  0.11792782841E+04  0.17768275374E+04  0.46999998093E+01 0.  1.
       -5    1    3    3    0  502 -0.12114832738E+04 -0.54653912350E+03 -0.10986004185E+04  0.17243380486E+04  0.46999998093E+01 0. -1.
</event>
<event>
 5   0  0.1121462E-08  0.3500363E+04  0.7818609E-02  0.8113704E-01
       -1   -1    0    0    0  501  0.00000000000E+00  0.00000000000E+00  0.28665413438E+04  0.28665413438E+04  0.50400001928E-02 0. -1.
        1   -1    0    0  501    0  0.00000000000E+00  0.00000000000E+00 -0.10685825275E+04  0.10685825275E+04  0.50400001928E-02 0.  1.
    10030    2    1    2    0    0  0.00000000000E+00  0.00000000000E+00  0.17979588163E+04  0.39351238713E+04  0.35003634064E+04 0.  0.
        1    1    3    3  502    0 -0.47828001959E+02  0.89179773743E+03 -0.79314248809E+03  0.11944311318E+04  0.50400001928E-02 0.  1.
       -1    1    3    3    0  502  0.47828001959E+02 -0.89179773743E+03  0.25911013044E+04  0.27406927394E+04  0.50400001928E-02 0. -1.
</event>
<event>
 5   0  0.1121462E-08  0.3502951E+04  0.7818609E-02  0.8113091E-01
       -1   -1    0    0    0  501  0.00000000000E+00  0.00000000000E+00  0.15170210161E+04  0.15170210161E+04  0.50400001928E-02 0. -1.
        1   -1    0    0  501    0  0.00000000000E+00  0.00000000000E+00 -0.20221650422E+04  0.20221650422E+04  0.50400001928E-02 0.  1.
    10030    2    1    2    0    0  0.00000000000E+00  0.00000000000E+00 -0.50514402612E+03  0.35391860582E+04  0.35029512511E+04 0.  0.
        4    1    3    3  502    0  0.96320484420E+03 -0.14373767798E+04 -0.52713601442E+03  0.18087812387E+04  0.12699999809E+01 0.  1.
       -4    1    3    3    0  502 -0.96320484420E+03  0.14373767798E+04  0.21991988296E+02  0.17304048195E+04  0.12699999809E+01 0. -1.
</event>
<event>
 5   0  0.1121462E-08  0.3500998E+04  0.7818609E-02  0.8113554E-01
        1   -1    0    0  501    0  0.00000000000E+00  0.00000000000E+00  0.18290145178E+04  0.18290145178E+04  0.50400001928E-02 0. -1.
       -1   -1    0    0    0  501  0.00000000000E+00  0.00000000000E+00 -0.16753537768E+04  0.16753537768E+04  0.50400001928E-02 0.  1.
    10030    2    1    2    0    0  0.00000000000E+00  0.00000000000E+00  0.15366074097E+03  0.35043682946E+04  0.35009977893E+04 0.  0.
        1    1    3    3  502    0  0.14963083011E+04 -0.74790086025E+03 -0.43937160211E+03  0.17295495464E+04  0.50400001928E-02 0.  1.
       -1    1    3    3    0  502 -0.14963083011E+04  0.74790086025E+03  0.59303234308E+03  0.17748187482E+04  0.50400001928E-02 0. -1.
</event>
<event>
 5   0  0.3554451E-08  0.3501604E+04  0.7818609E-02  0.8113410E-01
       -2   -1    0    0    0  501  0.00000000000E+00  0.00000000000E+00  0.14289421711E+04  0.14289421711E+04  0.25500000920E-02 0. -1.
        2   -1    0    0  501    0  0.00000000000E+00  0.00000000000E+00 -0.21451586949E+04  0.21451586949E+04  0.25500000920E-02 0.  1.
    10030    2    1    2    0    0  0.00000000000E+00  0.00000000000E+00 -0.71621652376E+03  0.35741008660E+04  0.35016040455E+04 0.  0.
        5    1    3    3  502    0 -0.13202354919E+04  0.34430017852E+03 -0.14779656923E+04  0.20114594315E+04  0.46999998093E+01 0.  1.
       -5    1    3    3    0  502  0.13202354919E+04 -0.34430017852E+03  0.76174916857E+03  0.15626414345E+04  0.46999998093E+01 0. -1.
</event>
<event>
 5   0  0.1129219E-08  0.3500775E+04  0.7818609E-02  0.8113606E-01
       -1   -1    0    0    0  501  0.00000000000E+00  0.00000000000E+00  0.20090376983E+04  0.20090376983E+04  0.50400001928E-02 0.  1.
        1   -1    0    0  501    0  0.00000000000E+00  0.00000000000E+00 -0.15250371302E+04  0.15250371302E+04  0.50400001928E-02 0. -1.
    10030    2    1    2    0    0  0.00000000000E+00  0.00000000000E+00  0.48400056810E+03  0.35340748286E+04  0.35007753918E+04 0.  0.
        5    1    3    3  502    0  0.15240862788E+04 -0.56953135909E+03  0.89360884944E+03  0.18562768705E+04  0.46999998093E+01 0. -1.
       -5    1    3    3    0  502 -0.15240862788E+04  0.56953135909E+03 -0.40960828134E+03  0.16777979581E+04  0.46999998093E+01 0.  1.
</event>
<event>
 5   0  0.1140808E-08  0.3502054E+04  0.7818609E-02  0.8113303E-01
        1   -1    0    0  501    0  0.00000000000E+00  0.00000000000E+00  0.21320967679E+04  0.21320967679E+04  0.50400001928E-02 0. -1.
       -1   -1    0    0    0  501  0.00000000000E+00  0.00000000000E+00 -0.14380658829E+04  0.14380658829E+04  0.50400001928E-02 0.  1.
    10030    2    1    2    0    0  0.00000000000E+00  0.00000000000E+00  0.69403088499E+03  0.35701626508E+04  0.35020540378E+04 0.  0.
        3    1    3    3  502    0 -0.60535651218E+03 -0.15302184077E+04  0.95704316120E+03  0.19036692215E+04  0.10100000352E+00 0. -1.
       -3    1    3    3    0  502  0.60535651218E+03  0.15302184077E+04 -0.26301227621E+03  0.16664934293E+04  0.10100000352E+00 0.  1.
</event>
<event>
 5   0  0.3628017E-08  0.3500952E+04  0.7818609E-02  0.8113564E-01
        2   -1    0    0  501    0  0.00000000000E+00  0.00000000000E+00  0.20258220382E+04  0.20258220382E+04  0.25500000920E-02 0.  1.
       -2   -1    0    0    0  501  0.00000000000E+00  0.00000000000E+00 -0.15125540834E+04  0.15125540834E+04  0.25500000920E-02 0. -1.
    10030    2    1    2    0    0  0.00000000000E+00  0.00000000000E+00  0.51326795481E+03  0.35383761215E+04  0.35009515255E+04 0.  0.
        1    1    3    3  502    0 -0.32615492669E+03 -0.42724003086E+03 -0.14270837768E+04  0.15249521914E+04  0.50400001928E-02 0. -1.
       -1    1    3    3    0  502  0.32615492669E+03  0.42724003086E+03  0.19403517316E+04  0.20134239301E+04  0.50400001928E-02 0.  1.
</event>
<event>
 5   0  0.1140808E-08  0.3492099E+04  0.7818609E-02  0.8115665E-01
        1   -1    0    0  501    0  0.00000000000E+00  0.00000000000E+00  0.22646400005E+04  0.22646400005E+04  0.50400001928E-02 0. -1.
       -1   -1    0    0    0  501  0.00000000000E+00  0.00000000000E+00 -0.13462135880E+04  0.13462135880E+04  0.50400001928E-02 0.  1.
    10030    2    1    2    0    0  0.00000000000E+00  0.00000000000E+00  0.91842641251E+03  0.36108535885E+04  0.34920991627E+04 0.  0.
        3    1    3    3  502    0  0.60038037960E+03 -0.31874757044E+03 -0.12037807772E+04  0.13824416023E+04  0.10100000352E+00 0.  1.
       -3    1    3    3    0  502 -0.60038037960E+03  0.31874757044E+03  0.21222071898E+04  0.22284119862E+04  0.10100000352E+00 0. -1.
</event>
<event>
 5   0  0.3467834E-08  0.3499627E+04  0.7818609E-02  0.8113878E-01
        2   -1    0    0  501    0  0.00000000000E+00  0.00000000000E+00  0.16925486916E+04  0.16925486916E+04  0.25500000920E-02 0. -1.
       -2   -1    0    0    0  501  0.00000000000E+00  0.00000000000E+00 -0.18090156106E+04  0.18090156106E+04  0.25500000920E-02 0.  1.
    10030    2    1    2    0    0  0.00000000000E+00  0.00000000000E+00 -0.11646691906E+03  0.35015643022E+04  0.34996268400E+04 0.  0.
        3    1    3    3  502    0  0.13738529855E+04 -0.10797606432E+04 -0.15043610184E+03  0.17538489398E+04  0.10100000352E+00 0. -1.
       -3    1    3    3    0  502 -0.13738529855E+04  0.10797606432E+04  0.33969182787E+02  0.17477153624E+04  0.10100000352E+00 0.  1.
</event>
<event>
 5   0  0.1121462E-08  0.3499854E+04  0.7818609E-02  0.8113824E-01
       -1   -1    0    0    0  501  0.00000000000E+00  0.00000000000E+00  0.15333029176E+04  0.15333029176E+04  0.50400001928E-02 0.  1.
        1   -1    0    0  501    0  0.00000000000E+00  0.00000000000E+00 -0.19971559778E+04  0.19971559778E+04  0.50400001928E-02 0. -1.
    10030    2    1    2    0    0  0.00000000000E+00  0.00000000000E+00 -0.46385306019E+03  0.35304588955E+04  0.34998543328E+04 0.  0.
        1    1    3    3  502    0  0.11524282406E+03 -0.11721086980E+04 -0.15375106220E+04  0.19367649887E+04  0.50400001928E-02 0. -1.
       -1    1    3    3    0  502 -0.11524282406E+03  0.11721086980E+04  0.10736575618E+04  0.15936939068E+04  0.50400001928E-02 0.  1.
</event>
<event>
 5   0  0.1121462E-08  0.3499277E+04  0.7818609E-02  0.8113961E-01
        1   -1    0    0  501    0  0.00000000000E+00  0.00000000000E+00  0.12184373148E+04  0.12184373148E+04  0.50400001928E-02 0.  1.
       -1   -1    0    0    0  501  0.00000000000E+00  0.00000000000E+00 -0.25124273096E+04  0.25124273096E+04  0.50400001928E-02 0. -1.
    10030    2    1    2    0    0  0.00000000000E+00  0.00000000000E+00 -0.12939899948E+04  0.37308646244E+04  0.34992771737E+04 0.  0.
        1    1    3    3  502    0  0.69793898342E+03  0.13617380358E+04  0.25755548385E+03  0.15517036218E+04  0.50400001928E-02 0.  1.
       -1    1    3    3    0  502 -0.69793898342E+03 -0.13617380358E+04 -0.15515454787E+04  0.21791610026E+04  0.50400001928E-02 0. -1.
</event>
<event>
 5   0  0.3628017E-08  0.3511548E+04  0.7818609E-02  0.8111059E-01
        2   -1    0    0  501    0  0.00000000000E+00  0.00000000000E+00  0.11274565369E+04  0.11274565369E+04  0.25500000920E-02 0. -1.
       -2   -1    0    0    0  501  0.00000000000E+00  0.00000000000E+00 -0.27342456415E+04  0.27342456415E+04  0.25500000920E-02 0.  1.
    10030    2    1    2    0    0  0.00000000000E+00  0.00000000000E+00 -0.16067891046E+04  0.38617021784E+04  0.35115484460E+04 0.  0.
        1    1    3    3  502    0 -0.80473671552E+03 -0.14639413664E+04 -0.13976656908E+04  0.21781172807E+04  0.50400001928E-02 0. -1.
       -1    1    3    3    0  502  0.80473671552E+03  0.14639413664E+04 -0.20912341379E+03  0.16835848977E+04  0.50400001928E-02 0.  1.
</event>
<event>
 5   0  0.1140808E-08  0.3500612E+04  0.7818609E-02  0.8113645E-01
       -1   -1    0    0    0  501  0.00000000000E+00  0.00000000000E+00  0.21076507393E+04  0.21076507393E+04  0.50400001928E-02 0.  1.
        1   -1    0    0  501    0  0.00000000000E+00  0.00000000000E+00 -0.14535480776E+04  0.14535480776E+04  0.50400001928E-02 0. -1.
    10030    2    1    2    0    0  0.00000000000E+00  0.00000000000E+00  0.65410266162E+03  0.35611988169E+04  0.35006123352E+04 0.  0.
        3    1    3    3  502    0  0.57877355618E+03 -0.11985329686E+04  0.14834356882E+04  0.19929981329E+04  0.10100000352E+00 0.  1.
       -3    1    3    3    0  502 -0.57877355618E+03  0.11985329686E+04 -0.82933302660E+03  0.15682006841E+04  0.10100000352E+00 0. -1.
</event>
<event>
 5   0  0.1140808E-08  0.3505194E+04  0.7818609E-02  0.8112560E-01
       -1   -1    0    0    0  501  0.00000000000E+00  0.00000000000E+00  0.13524863463E+04  0.13524863463E+04  0.50400001928E-02 0. -1.
        1   -1    0    0  501    0  0.00000000000E+00  0.00000000000E+00 -0.22710735842E+04  0.22710735842E+04  0.50400001928E-02 0.  1.
    10030    2    1    2    0    0  0.00000000000E+00  0.00000000000E+00 -0.91858723793E+03  0.36235599305E+04  0.35051938685E+04 0.  0.
        3    1    3    3  502    0  0.14861954225E+04 -0.54540788465E+03 -0.12365814643E+04  0.20088256078E+04  0.10100000352E+00 0.  1.
       -3    1    3    3    0  502 -0.14861954225E+04  0.54540788465E+03  0.31799422640E+03  0.16147343226E+04  0.10100000352E+00 0. -1.
</event>
<event>
 5   0  0.3467834E-08  0.3500044E+04  0.7818609E-02  0.8113780E-01
        2   -1    0    0  501    0  0.00000000000E+00  0.00000000000E+00  0.22120579643E+04  0.22120579643E+04  0.25500000920E-02 0.  1.
       -2   -1    0    0    0  501  0.00000000000E+00  0.00000000000E+00 -0.13844922235E+04  0.13844922235E+04  0.25500000920E-02 0. -1.
    10030    2    1    2    0    0  0.00000000000E+00  0.00000000000E+00  0.82756574077E+03  0.35965501878E+04  0.35000440281E+04 0.  0.
        3    1    3    3  502    0  0.95830353731E+02  0.20517920602E+03  0.21969386047E+04  0.22085790016E+04  0.10100000352E+00 0.  1.
       -3    1    3    3    0  502 -0.95830353731E+02 -0.20517920602E+03 -0.13693728639E+04  0.13879711863E+04  0.10100000352E+00 0. -1.
</event>
<event>
 5   0  0.3554451E-08  0.3499219E+04  0.7818609E-02  0.8113975E-01
        2   -1    0    0  501    0  0.00000000000E+00  0.00000000000E+00  0.15638300611E+04  0.15638300611E+04  0.25500000920E-02 0.  1.
       -2   -1    0    0    0  501  0.00000000000E+00  0.00000000000E+00 -0.19574594602E+04  0.19574594602E+04  0.25500000920E-02 0. -1.
    10030    2    1    2    0    0  0.00000000000E+00  0.00000000000E+00 -0.39362939911E+03  0.35212895214E+04  0.34992193114E+04 0.  0.
        5    1    3    3  502    0 -0.15811041005E+04 -0.70563691862E+03  0.56363507456E+02  0.17323430874E+04  0.46999998093E+01 0. -1.
       -5    1    3    3    0  502  0.15811041005E+04  0.70563691862E+03 -0.44999290657E+03  0.17889464339E+04  0.46999998093E+01 0.  1.
</event>
<event>
 5   0  0.3553585E-08  0.3498100E+04  0.7818609E-02  0.8114240E-01
       -2   -1    0    0    0  501  0.00000000000E+00  0.00000000000E+00  0.11085894341E+04  0.11085894341E+04  0.25500000920E-02 0.  1.
        2   -1    0    0  501    0  0.00000000000E+00  0.00000000000E+00 -0.27595212935E+04  0.27595212935E+04  0.25500000920E-02 0. -1.
    10030    2    1    2    0    0  0.00000000000E+00  0.00000000000E+00 -0.16509318594E+04  0.38681107276E+04  0.34981001411E+04 0.  0.
        2    1    3    3  502    0  0.72846050214E+03  0.13467800009E+04  0.10935858476E+03  0.15350668957E+04  0.25500000920E-02 0.  1.
       -2    1    3    3    0  502 -0.72846050214E+03 -0.13467800009E+04 -0.17602904442E+04  0.23330438320E+04  0.25500000920E-02 0. -1.
</event>
<event>
 5   0  0.3553585E-08  0.3502243E+04  0.7818609E-02  0.8113259E-01
       -2   -1    0    0    0  501  0.00000000000E+00  0.00000000000E+00  0.16421949798E+04  0.16421949798E+04  0.25500000920E-02 0. -1.
        2   -1    0    0  501    0  0.00000000000E+00  0.00000000000E+00 -0.18672730473E+04  0.18672730473E+04  0.25500000920E-02 0.  1.
    10030    2    1    2    0    0  0.00000000000E+00  0.00000000000E+00 -0.22507806745E+03  0.35094680271E+04  0.35022429523E+04 0.  0.
        2    1    3    3  502    0  0.14196123557E+04 -0.67448851688E+03 -0.88626691478E+03  0.18043566843E+04  0.25500000920E-02 0.  1.
       -2    1    3    3    0  502 -0.14196123557E+04  0.67448851688E+03  0.66118884733E+03  0.17051113429E+04  0.25500000920E-02 0. -1.
</event>
<event>
 5   0  0.3467834E-08  0.3499857E+04  0.7818609E-02  0.8113824E-01
       -2   -1    0    0    0  501  0.00000000000E+00  0.00000000000E+00  0.12836400215E+04  0.12836400215E+04  0.25500000920E-02 0.  1.
        2   -1    0    0  501    0  0.00000000000E+00  0.00000000000E+00 -0.23855980247E+04  0.23855980247E+04  0.25500000920E-02 0. -1.
    10030    2    1    2    0    0  0.00000000000E+00  0.00000000000E+00 -0.11019580032E+04  0.36692380462E+04  0.34998566254E+04 0.  0.
        3    1    3    3  502    0  0.50644991963E+03 -0.95620777887E+03  0.89087109615E+03  0.14015977160E+04  0.10100000352E+00 0.  1.
       -3    1    3    3    0  502 -0.50644991963E+03  0.95620777887E+03 -0.19928290993E+04  0.22676403301E+04  0.10100000352E+00 0. -1.
</event>
<event>
 5   0  0.1121462E-08  0.3499628E+04  0.7818609E-02  0.8113878E-01
       -1   -1    0    0    0  501  0.00000000000E+00  0.00000000000E+00  0.14824677939E+04  0.14824677939E+04  0.50400001928E-02 0.  1.
        1   -1    0    0  501    0  0.00000000000E+00  0.00000000000E+00 -0.20653731067E+04  0.20653731067E+04  0.50400001928E-02 0. -1.
    10030    2    1    2    0    0  0.00000000000E+00  0.00000000000E+00 -0.58290531281E+03  0.35478409005E+04  0.34996280448E+04 0.  0.
        2    1    3    3  502    0 -0.10104746603E+04  0.68271829725E+03  0.98069992521E+03  0.15649075550E+04  0.25500000920E-02 0.  1.
       -2    1    3    3    0  502  0.10104746603E+04 -0.68271829725E+03 -0.15636052380E+04  0.19829333455E+04  0.25500000920E-02 0. -1.
</event>
<event>
 5   0  0.3628017E-08  0.3500364E+04  0.7818609E-02  0.8113704E-01
        2   -1    0    0  501    0  0.00000000000E+00  0.00000000000E+00  0.29769115400E+04  0.29769115400E+04  0.25500000920E-02 0. -1.
       -2   -1    0    0    0  501  0.00000000000E+00  0.00000000000E+00 -0.10289646672E+04  0.10289646672E+04  0.25500000920E-02 0.  1.
    10030    2    1    2    0    0  0.00000000000E+00  0.00000000000E+00  0.19479468727E+04  0.40058762072E+04  0.35003638623E+04 0.  0.
        1    1    3    3  502    0  0.30413353789E+03  0.13319662948E+04  0.22257927831E+04  0.26116632503E+04  0.50400001928E-02 0. -1.
       -1    1    3    3    0  502 -0.30413353789E+03 -0.13319662948E+04 -0.27784591040E+03  0.13942129569E+04  0.50400001928E-02 0.  1.
</event>
<event>
 5   0  0.1140808E-08  0.3498973E+04  0.7818609E-02  0.8114033E-01
        1   -1    0    0  501    0  0.00000000000E+00  0.00000000000E+00  0.16090648827E+04  0.16090648827E+04  0.50400001928E-02 0. -1.
       -1   -1    0    0    0  501  0.00000000000E+00  0.00000000000E+00 -0.19021624373E+04  0.19021624373E+04  0.50400001928E-02 0.  1.
    10030    2    1    2    0    0  0.00000000000E+00  0.00000000000E+00 -0.29309755461E+03  0.35112273201E+04  0.34989728660E+04 0.  0.
        3    1    3    3  502    0  0.11547730335E+04 -0.13123750337E+04 -0.76491804113E+02  0.17497656970E+04  0.10100000352E+00 0.  1.
       -3    1    3    3    0  502 -0.11547730335E+04  0.13123750337E+04 -0.21660575049E+03  0.17614616231E+04  0.10100000352E+00 0. -1.
</event>
<event>
 5   0  0.1140808E-08  0.3500598E+04  0.7818609E-02  0.8113648E-01
        1   -1    0    0  501    0  0.00000000000E+00  0.00000000000E+00  0.21161451653E+04  0.21161451653E+04  0.50400001928E-02 0.  1.
       -1   -1    0    0    0  501  0.00000000000E+00  0.00000000000E+00 -0.14477011474E+04  0.14477011474E+04  0.50400001928E-02 0. -1.
    10030    2    1    2    0    0  0.00000000000E+00  0.00000000000E+00  0.66844401785E+03  0.35638463127E+04  0.35005975398E+04 0.  0.
        3    1    3    3  502    0  0.90241411184E+03 -0.38352035706E+03 -0.11418384968E+04  0.15050695189E+04  0.10100000352E+00 0. -1.
       -3    1    3    3    0  502 -0.90241411184E+03  0.38352035706E+03  0.18102825147E+04  0.20587767938E+04  0.10100000352E+00 0.  1.
</event>
<event>
 5   0  0.1121462E-08  0.3499257E+04  0.7818609E-02  0.8113966E-01
        1   -1    0    0  501    0  0.00000000000E+00  0.00000000000E+00  0.18129394326E+04  0.18129394326E+04  0.50400001928E-02 0. -1.
       -1   -1    0    0    0  501  0.00000000000E+00  0.00000000000E+00 -0.16885289404E+04  0.16885289404E+04  0.50400001928E-02 0.  1.
    10030    2    1    2    0    0  0.00000000000E+00  0.00000000000E+00  0.12441049217E+03  0.35014683730E+04  0.34992574636E+04 0.  0.
        4    1    3    3  502    0 -0.11991181449E+04 -0.17570527615E+03 -0.12005121943E+04  0.17058686383E+04  0.12699999809E+01 0.  1.
       -4    1    3    3    0  502  0.11991181449E+04  0.17570527615E+03  0.13249226864E+04  0.17955997348E+04  0.12699999809E+01 0. -1.
</event>
<event>
 5   0  0.3700096E-08  0.3506642E+04  0.7818609E-02  0.8112218E-01
        2   -1    0    0  501    0  0.00000000000E+00  0.00000000000E+00  0.29988034631E+04  0.29988034631E+04  0.25500000920E-02 0.  1.
       -2   -1    0    0    0  501  0.00000000000E+00  0.00000000000E+00 -0.10251203444E+04  0.10251203444E+04  0.25500000920E-02 0. -1.
    10030    2    1    2    0    0  0.00000000000E+00  0.00000000000E+00  0.19736831187E+04  0.40239238075E+04  0.35066419486E+04 0.  0.
        4    1    3    3  502    0  0.82411387015E+03  0.12925846684E+04  0.10311097548E+02  0.15329862125E+04  0.12699999809E+01 0. -1.
       -4    1    3    3    0  502 -0.82411387015E+03 -0.12925846684E+04  0.19633720212E+04  0.24909375951E+04  0.12699999809E+01 0.  1.
</event>
<event>
 5   0  0.1140808E-08  0.3501455E+04  0.7818609E-02  0.8113445E-01
        1   -1    0    0  501    0  0.00000000000E+00  0.00000000000E+00  0.22349287696E+04  0.22349287696E+04  0.50400001928E-02 0.  1.
       -1   -1    0    0    0  501  0.00000000000E+00  0.00000000000E+00 -0.13714290017E+04  0.13714290017E+04  0.50400001928E-02 0. -1.
    10030    2    1    2    0    0  0.00000000000E+00  0.00000000000E+00  0.86349976797E+03  0.36063577713E+04  0.35014546299E+04 0.  0.
        3    1    3    3  502    0  0.41293655739E+02 -0.14628861708E+04 -0.55792580213E+03  0.15662127332E+04  0.10100000352E+00 0.  1.
       -3    1    3    3    0  502 -0.41293655739E+02  0.14628861708E+04  0.14214255701E+04  0.20401450381E+04  0.10100000352E+00 0. -1.
</event>
<event>
 5   0  0.3554451E-08  0.3503718E+04  0.7818609E-02  0.8112909E-01
       -2   -1    0    0    0  501  0.00000000000E+00  0.00000000000E+00  0.16158520927E+04  0.16158520927E+04  0.25500000920E-02 0.  1.
        2   -1    0    0  501    0  0.00000000000E+00  0.00000000000E+00 -0.18993138334E+04  0.18993138334E+04  0.25500000920E-02 0. -1.
    10030    2    1    2    0    0  0.00000000000E+00  0.00000000000E+00 -0.28346174072E+03  0.35151659261E+04  0.35037181579E+04 0.  0.
        5    1    3    3  502    0 -0.25544022720E+03 -0.17329704668E+04 -0.11816382062E+03  0.17556825245E+04  0.46999998093E+01 0.  1.
       -5    1    3    3    0  502  0.25544022720E+03  0.17329704668E+04 -0.16529792010E+03  0.17594834017E+04  0.46999998093E+01 0. -1.
</event>
<event>
 5   0  0.1140808E-08  0.3499332E+04  0.7818609E-02  0.8113948E-01
       -1   -1    0    0    0  501  0.00000000000E+00  0.00000000000E+00  0.24904241789E+04  0.24904241789E+04  0.50400001928E-02 0.  1.
        1   -1    0    0  501    0  0.00000000000E+00  0.00000000000E+00 -0.12292410729E+04  0.12292410729E+04  0.50400001928E-02 0. -1.
    10030    2    1    2    0    0  0.00000000000E+00  0.00000000000E+00  0.12611831061E+04  0.37196652518E+04  0.34993323304E+04 0.  0.
        3    1    3    3  502    0  0.13120449685E+04  0.11515855245E+04  0.75510119937E+03  0.19020486459E+04  0.10100000352E+00 0.  1.
       -3    1    3    3    0  502 -0.13120449685E+04 -0.11515855245E+04  0.50608190672E+03  0.18176166060E+04  0.10100000352E+00 0. -1.
</event>
<event>
 5   0  0.3628017E-08  0.3499003E+04  0.7818609E-02  0.8114026E-01
        2   -1    0    0  501    0  0.00000000000E+00  0.00000000000E+00  0.14911167489E+04  0.14911167489E+04  0.25500000920E-02 0. -1.
       -2   -1    0    0    0  501  0.00000000000E+00  0.00000000000E+00 -0.20526593582E+04  0.20526593582E+04  0.25500000920E-02 0.  1.
    10030    2    1    2    0    0  0.00000000000E+00  0.00000000000E+00 -0.56154260934E+03  0.35437761071E+04  0.34990025715E+04 0.  0.
        1    1    3    3  502    0 -0.56993512550E+03 -0.13636316856E+04  0.66739047944E+03  0.16216434483E+04  0.50400001928E-02 0. -1.
       -1    1    3    3    0  502  0.56993512550E+03  0.13636316856E+04 -0.12289330888E+04  0.19221326588E+04  0.50400001928E-02 0.  1.
</event>
<event>
 5   0  0.1140808E-08  0.3500095E+04  0.7818609E-02  0.8113767E-01
        1   -1    0    0  501    0  0.00000000000E+00  0.00000000000E+00  0.15079751592E+04  0.15079751592E+04  0.50400001928E-02 0.  1.
       -1   -1    0    0    0  501  0.00000000000E+00  0.00000000000E+00 -0.20309792049E+04  0.20309792049E+04  0.50400001928E-02 0. -1.
    10030    2    1    2    0    0  0.00000000000E+00  0.00000000000E+00 -0.52300404570E+03  0.35389543641E+04  0.35000949643E+04 0.  0.
        3    1    3    3  502    0 -0.16686975166E+04 -0.41742642499E+03 -0.58736881925E+03  0.18176353766E+04  0.10100000352E+00 0. -1.
       -3    1    3    3    0  502  0.16686975166E+04  0.41742642499E+03  0.64364773553E+02  0.17213189874E+04  0.10100000352E+00 0.  1.
</event>
<event>
 5   0  0.3554451E-08  0.3505346E+04  0.7818609E-02  0.8112524E-01
       -2   -1    0    0    0  501  0.00000000000E+00  0.00000000000E+00  0.13937393617E+04  0.13937393617E+04  0.25500000920E-02 0.  1.
        2   -1    0    0  501    0  0.00000000000E+00  0.00000000000E+00 -0.22040442428E+04  0.22040442428E+04  0.25500000920E-02 0. -1.
    10030    2    1    2    0    0  0.00000000000E+00  0.00000000000E+00 -0.81030488106E+03  0.35977836045E+04  0.35053463260E+04 0.  0.
        5    1    3    3  502    0  0.94138343695E+03  0.11953525209E+04  0.48771350886E+03  0.15977975408E+04  0.46999998093E+01 0.  1.
       -5    1    3    3    0  502 -0.94138343695E+03 -0.11953525209E+04 -0.12980183899E+04  0.19999860638E+04  0.46999998093E+01 0. -1.
</event>
<event>
 5   0  0.3467834E-08  0.3491540E+04  0.7818609E-02  0.8115798E-01
        2   -1    0    0  501    0  0.00000000000E+00  0.00000000000E+00  0.17794997769E+04  0.17794997769E+04  0.25500000920E-02 0.  1.
       -2   -1    0    0    0  501  0.00000000000E+00  0.00000000000E+00 -0.17126799583E+04  0.17126799583E+04  0.25500000920E-02 0. -1.
    10030    2    1    2    0    0  0.00000000000E+00  0.00000000000E+00  0.66819818607E+02  0.34921797351E+04  0.34915404071E+04 0.  0.
        3    1    3    3  502    0 -0.34130618262E+02 -0.87016555633E+02 -0.17101754300E+04  0.17127278802E+04  0.10100000352E+00 0. -1.
       -3    1    3    3    0  502  0.34130618262E+02  0.87016555633E+02  0.17769952486E+04  0.17794518549E+04  0.10100000352E+00 0.  1.
</event>
<event>
 5   0  0.3467834E-08  0.3502658E+04  0.7818609E-02  0.8113160E-01
        2   -1    0    0  501    0  0.00000000000E+00  0.00000000000E+00  0.24941651656E+04  0.24941651656E+04  0.25500000920E-02 0. -1.
       -2   -1    0    0    0  501  0.00000000000E+00  0.00000000000E+00 -0.12297316179E+04  0.12297316179E+04  0.25500000920E-02 0.  1.
    10030    2    1    2    0    0  0.00000000000E+00  0.00000000000E+00  0.12644335477E+04  0.37238967835E+04  0.35026582844E+04 0.  0.
        3    1    3    3  502    0 -0.10051511352E+04 -0.14288646531E+04  0.50126739927E+03  0.18174850803E+04  0.10100000352E+00 0. -1.
       -3    1    3    3    0  502  0.10051511352E+04  0.14288646531E+04  0.76316614844E+03  0.19064117031E+04  0.10100000352E+00 0.  1.
</event>
<event>
 5   0  0.1121462E-08  0.3502845E+04  0.7818609E-02  0.8113116E-01
       -1   -1    0    0    0  501  0.00000000000E+00  0.00000000000E+00  0.14644080387E+04  0.14644080388E+04  0.50400001928E-02 0.  1.
        1   -1    0    0  501    0  0.00000000000E+00  0.00000000000E+00 -0.20946901191E+04  0.20946901191E+04  0.50400001928E-02 0. -1.
    10030    2    1    2    0    0  0.00000000000E+00  0.00000000000E+00 -0.63028208033E+03  0.35590981578E+04  0.35028451574E+04 0.  0.
        1    1    3    3  502    0  0.12280336146E+04  0.12486311523E+04 -0.29655143292E+03  0.17762570381E+04  0.50400001928E-02 0. -1.
       -1    1    3    3    0  502 -0.12280336146E+04 -0.12486311523E+04 -0.33373064741E+03  0.17828411197E+04  0.50400001928E-02 0.  1.
</event>
<event>
 5   0  0.1121462E-08  0.3500022E+04  0.7818609E-02  0.8113785E-01
       -1   -1    0    0    0  501  0.00000000000E+00  0.00000000000E+00  0.14396907386E+04  0.14396907386E+04  0.50400001928E-02 0.  1.
        1   -1    0    0  501    0  0.00000000000E+00  0.00000000000E+00 -0.21272196408E+04  0.21272196408E+04  0.50400001928E-02 0. -1.
    10030    2    1    2    0    0  0.00000000000E+00  0.00000000000E+00 -0.68752890219E+03  0.35669103794E+04  0.35000219518E+04 0.  0.
        4    1    3    3  502    0  0.12194767319E+04  0.65669737183E+03 -0.14338614994E+04  0.19935735126E+04  0.12699999809E+01 0. -1.
       -4    1    3    3    0  502 -0.12194767319E+04 -0.65669737183E+03  0.74633259724E+03  0.15733368668E+04  0.12699999809E+01 0.  1.
</event>
<event>
 5   0  0.1121462E-08  0.3499758E+04  0.7818609E-02  0.8113847E-01
       -1   -1    0    0    0  501  0.00000000000E+00  0.00000000000E+00  0.12514677650E+04  0.12514677650E+04  0.50400001928E-02 0.  1.
        1   -1    0    0  501    0  0.00000000000E+00  0.00000000000E+00 -0.24467881227E+04  0.24467881227E+04  0.50400001928E-02 0. -1.
    10030    2    1    2    0    0  0.00000000000E+00  0.00000000000E+00 -0.11953203578E+04  0.36982558877E+04  0.34997579706E+04 0.  0.
        1    1    3    3  502    0  0.28044394756E+03 -0.10776557083E+04 -0.20240668502E+04  0.23101595718E+04  0.50400001928E-02 0. -1.
       -1    1    3    3    0  502 -0.28044394756E+03  0.10776557083E+04  0.82874649240E+03  0.13880963158E+04  0.50400001928E-02 0.  1.
</event>
<event>
 5   0  0.1121462E-08  0.3499882E+04  0.7818609E-02  0.8113818E-01
        3   -1    0    0  501    0  0.00000000000E+00  0.00000000000E+00  0.18609357970E+04  0.18609357998E+04  0.10100000352E+00 0. -1.
       -3   -1    0    0    0  501  0.00000000000E+00  0.00000000000E+00 -0.16455665642E+04  0.16455665673E+04  0.10100000352E+00 0.  1.
    10030    2    1    2    0    0  0.00000000000E+00  0.00000000000E+00  0.21536923281E+03  0.35065023671E+04  0.34998821329E+04 0.  0.
        5    1    3    3  502    0  0.21021458046E+03 -0.13327930014E+04  0.12241282560E+04  0.18218231065E+04  0.46999998093E+01 0. -1.
       -5    1    3    3    0  502 -0.21021458046E+03  0.13327930014E+04 -0.10087590231E+04  0.16846792606E+04  0.46999998093E+01 0.  1.
</event>
<event>
 5   0  0.1129219E-08  0.3493340E+04  0.7818609E-02  0.8115370E-01
       -1   -1    0    0    0  501  0.00000000000E+00  0.00000000000E+00  0.84692296946E+03  0.84692296948E+03  0.50400001928E-02 0. -1.
        1   -1    0    0  501    0  0.00000000000E+00  0.00000000000E+00 -0.36022837199E+04  0.36022837199E+04  0.50400001928E-02 0.  1.
    10030    2    1    2    0    0  0.00000000000E+00  0.00000000000E+00 -0.27553607504E+04  0.44492066893E+04  0.34933404214E+04 0.  0.
        5    1    3    3  502    0 -0.31929265830E+03 -0.10629590766E+04 -0.30954250507E+04  0.32883899000E+04  0.46999998093E+01 0.  1.
       -5    1    3    3    0  502  0.31929265830E+03  0.10629590766E+04  0.34006430028E+03  0.11608167893E+04  0.46999998093E+01 0. -1.
</event>
<event>
 5   0  0.1121462E-08  0.3499541E+04  0.7818609E-02  0.8113899E-01
        1   -1    0    0  501    0  0.00000000000E+00  0.00000000000E+00  0.22158924815E+04  0.22158924815E+04  0.50400001928E-02 0. -1.
       -1   -1    0    0    0  501  0.00000000000E+00  0.00000000000E+00 -0.13816988691E+04  0.13816988691E+04  0.50400001928E-02 0.  1.
    10030    2    1    2    0    0  0.00000000000E+00  0.00000000000E+00  0.83419361238E+03  0.35975913507E+04  0.34995406189E+04 0.  0.
        4    1    3    3  502    0 -0.16692434731E+04  0.10443563718E+03  0.94571605365E+03  0.19213695745E+04  0.12699999809E+01 0.  1.
       -4    1    3    3    0  502  0.16692434731E+04 -0.10443563718E+03 -0.11152244127E+03  0.16762217761E+04  0.12699999809E+01 0. -1.
</event>
<event>
 5   0  0.1121462E-08  0.3498627E+04  0.7818609E-02  0.8114115E-01
        1   -1    0    0  501    0  0.00000000000E+00  0.00000000000E+00  0.22030978994E+04  0.22030978994E+04  0.50400001928E-02 0.  1.
       -1   -1    0    0    0  501  0.00000000000E+00  0.00000000000E+00 -0.13889973460E+04  0.13889973460E+04  0.50400001928E-02 0. -1.
    10030    2    1    2    0    0  0.00000000000E+00  0.00000000000E+00  0.81410055340E+03  0.35920952453E+04  0.34986266649E+04 0.  0.
        2    1    3    3  502    0 -0.90058117857E+03 -0.10222654370E+04  0.15336452863E+04  0.20513753793E+04  0.25500000920E-02 0.  1.
       -2    1    3    3    0  502  0.90058117857E+03  0.10222654370E+04 -0.71954473287E+03  0.15407198660E+04  0.25500000920E-02 0. -1.
</event>
<event>
 5   0  0.3553585E-08  0.3513285E+04  0.7818609E-02  0.8110649E-01
        2   -1    0    0  501    0  0.00000000000E+00  0.00000000000E+00  0.21116590902E+04  0.21116590902E+04  0.25500000920E-02 0. -1.
       -2   -1    0    0    0  501  0.00000000000E+00  0.00000000000E+00 -0.14613123461E+04  0.14613123461E+04  0.25500000920E-02 0.  1.
    10030    2    1    2    0    0  0.00000000000E+00  0.00000000000E+00  0.65034674413E+03  0.35729714364E+04  0.35132853567E+04 0.  0.
        2    1    3    3  502    0 -0.64706409760E+03  0.14638924146E+04 -0.41108748727E+03  0.16524726534E+04  0.25500000920E-02 0.  1.
       -2    1    3    3    0  502  0.64706409760E+03 -0.14638924146E+04  0.10614342314E+04  0.19204987830E+04  0.25500000920E-02 0. -1.
</event>
<event>
 5   0  0.1129219E-08  0.3494870E+04  0.7818609E-02  0.8115007E-01
        1   -1    0    0  501    0  0.00000000000E+00  0.00000000000E+00  0.15290884329E+04  0.15290884329E+04  0.50400001928E-02 0.  1.
       -1   -1    0    0    0  501  0.00000000000E+00  0.00000000000E+00 -0.19969603235E+04  0.19969603235E+04  0.50400001928E-02 0. -1.
    10030    2    1    2    0    0  0.00000000000E+00  0.00000000000E+00 -0.46787189055E+03  0.35260487564E+04  0.34948699156E+04 0.  0.
        5    1    3    3  502    0  0.16606112521E+04 -0.24072230701E+03 -0.72606815746E+03  0.18283254686E+04  0.46999998093E+01 0.  1.
       -5    1    3    3    0  502 -0.16606112521E+04  0.24072230701E+03  0.25819626691E+03  0.16977232878E+04  0.46999998093E+01 0. -1.
</event>
<event>
 5   0  0.1140808E-08  0.3499024E+04  0.7818609E-02  0.8114021E-01
       -1   -1    0    0    0  501  0.00000000000E+00  0.00000000000E+00  0.27399911290E+04  0.27399911290E+04  0.50400001928E-02 0.  1.
        1   -1    0    0  501    0  0.00000000000E+00  0.00000000000E+00 -0.11170811629E+04  0.11170811629E+04  0.50400001928E-02 0. -1.
    10030    2    1    2    0    0  0.00000000000E+00  0.00000000000E+00  0.16229099661E+04  0.38570722919E+04  0.34990241364E+04 0.  0.
        3    1    3    3  502    0 -0.12266589325E+04  0.97583347730E+03 -0.45139245084E+02  0.15681137311E+04  0.10100000352E+00 0. -1.
       -3    1    3    3    0  502  0.12266589325E+04 -0.97583347730E+03  0.16680492112E+04  0.22889585608E+04  0.10100000352E+00 0.  1.
</event>
<event>
 5   0  0.3553585E-08  0.3502240E+04  0.7818609E-02  0.8113259E-01
       -2   -1    0    0    0  501  0.00000000000E+00  0.00000000000E+00  0.21333865911E+04  0.21333865911E+04  0.25500000920E-02 0.  1.
        2   -1    0    0  501    0  0.00000000000E+00  0.00000000000E+00 -0.14373490473E+04  0.14373490473E+04  0.25500000920E-02 0. -1.
    10030    2    1    2    0    0  0.00000000000E+00  0.00000000000E+00  0.69603754378E+03  0.35707356384E+04  0.35022399599E+04 0.  0.
        2    1    3    3  502    0 -0.36304102344E+03 -0.10409653016E+04 -0.10391094531E+04  0.15149772273E+04  0.25500000920E-02 0. -1.
       -2    1    3    3    0  502  0.36304102344E+03  0.10409653016E+04  0.17351469968E+04  0.20557584110E+04  0.25500000920E-02 0.  1.
</event>
<event>
 5   0  0.1121462E-08  0.3499458E+04  0.7818609E-02  0.8113918E-01
       -1   -1    0    0    0  501  0.00000000000E+00  0.00000000000E+00  0.18468943839E+04  0.18468943839E+04  0.50400001928E-02 0.  1.
        1   -1    0    0  501    0  0.00000000000E+00  0.00000000000E+00 -0.16576754049E+04  0.16576754049E+04  0.50400001928E-02 0. -1.
    10030    2    1    2    0    0  0.00000000000E+00  0.00000000000E+00  0.18921897899E+03  0.35045697888E+04  0.34994578984E+04 0.  0.
        2    1    3    3  502    0 -0.96226749798E+03  0.99829582599E+03 -0.97418803696E+03  0.16945783031E+04  0.25500000920E-02 0. -1.
       -2    1    3    3    0  502  0.96226749798E+03 -0.99829582599E+03  0.11634070160E+04  0.18099914858E+04  0.25500000920E-02 0.  1.
</event>
<event>
 5   0  0.1129219E-08  0.3499663E+04  0.7818609E-02  0.8113870E-01
        1   -1    0    0  501    0  0.00000000000E+00  0.00000000000E+00  0.10732320455E+04  0.10732320455E+04  0.50400001928E-02 0. -1.
       -1   -1    0    0    0  501  0.00000000000E+00  0.00000000000E+00 -0.28529803332E+04  0.28529803332E+04  0.50400001928E-02 0.  1.
    10030    2    1    2    0    0  0.00000000000E+00  0.00000000000E+00 -0.17797482877E+04  0.39262123787E+04  0.34996627945E+04 0.  0.
        5    1    3    3  502    0 -0.82766614668E+03 -0.10939110768E+04  0.32891387771E+03  0.14106307537E+04  0.46999998093E+01 0. -1.
       -5    1    3    3    0  502  0.82766614668E+03  0.10939110768E+04 -0.21086621654E+04  0.25155816250E+04  0.46999998093E+01 0.  1.
</event>
<event>
 5   0  0.3628017E-08  0.3504350E+04  0.7818609E-02  0.8112760E-01
        2   -1    0    0  501    0  0.00000000000E+00  0.00000000000E+00  0.26610108074E+04  0.26610108074E+04  0.25500000920E-02 0.  1.
       -2   -1    0    0    0  501  0.00000000000E+00  0.00000000000E+00 -0.11537408252E+04  0.11537408252E+04  0.25500000920E-02 0. -1.
    10030    2    1    2    0    0  0.00000000000E+00  0.00000000000E+00  0.15072699821E+04  0.38147516326E+04  0.35043497570E+04 0.  0.
        1    1    3    3  502    0  0.28631355085E+03  0.66936875223E+03  0.24885695729E+04  0.25928764905E+04  0.50400001928E-02 0.  1.
       -1    1    3    3    0  502 -0.28631355085E+03 -0.66936875223E+03 -0.98129959078E+03  0.12218751420E+04  0.50400001928E-02 0. -1.
</event>
<event>
 5   0  0.3553585E-08  0.3498548E+04  0.7818609E-02  0.8114134E-01
        2   -1    0    0  501    0  0.00000000000E+00  0.00000000000E+00  0.25106176359E+04  0.25106176359E+04  0.25500000920E-02 0.  1.
       -2   -1    0    0    0  501  0.00000000000E+00  0.00000000000E+00 -0.12188072930E+04  0.12188072930E+04  0.25500000920E-02 0. -1.
    10030    2    1    2    0    0  0.00000000000E+00  0.00000000000E+00  0.12918103429E+04  0.37294249289E+04  0.34985477471E+04 0.  0.
        2    1    3    3  502    0  0.77831605736E+03 -0.30659895981E+03 -0.99176580579E+03  0.12974506622E+04  0.25500000920E-02 0. -1.
       -2    1    3    3    0  502 -0.77831605736E+03  0.30659895981E+03  0.22835761486E+04  0.24319742667E+04  0.25500000920E-02 0.  1.
</event>
<event>
 5   0  0.3628017E-08  0.3500509E+04  0.7818609E-02  0.8113669E-01
        2   -1    0    0  501    0  0.00000000000E+00  0.00000000000E+00  0.15122756094E+04  0.15122756094E+04  0.25500000920E-02 0. -1.
       -2   -1    0    0    0  501  0.00000000000E+00  0.00000000000E+00 -0.20256828763E+04  0.20256828763E+04  0.25500000920E-02 0.  1.
    10030    2    1    2    0    0  0.00000000000E+00  0.00000000000E+00 -0.51340726693E+03  0.35379584856E+04  0.35005089950E+04 0.  0.
        1    1    3    3  502    0 -0.14799163745E+04 -0.31798835600E+03 -0.11448088558E+04  0.18978557338E+04  0.50400001928E-02 0.  1.
       -1    1    3    3    0  502  0.14799163745E+04  0.31798835600E+03  0.63140158891E+03  0.16401027518E+04  0.50400001928E-02 0. -1.
</event>
<event>
 5   0  0.3554451E-08  0.3502033E+04  0.7818609E-02  0.8113308E-01
        2   -1    0    0  501    0  0.00000000000E+00  0.00000000000E+00  0.22359524061E+04  0.22359524061E+04  0.25500000920E-02 0.  1.
       -2   -1    0    0    0  501  0.00000000000E+00  0.00000000000E+00 -0.13712539369E+04  0.13712539369E+04  0.25500000920E-02 0. -1.
    10030    2    1    2    0    0  0.00000000000E+00  0.00000000000E+00  0.86469846922E+03  0.36072063430E+04  0.35020328608E+04 0.  0.
        5    1    3    3  502    0 -0.34218162736E+03  0.66479199764E+03 -0.11985529605E+04  0.14126528078E+04  0.46999998093E+01 0. -1.
       -5    1    3    3    0  502  0.34218162736E+03 -0.66479199764E+03  0.20632514298E+04  0.21945535352E+04  0.46999998093E+01 0.  1.
</event>
<event>
 5   0  0.3700096E-08  0.3500365E+04  0.7818609E-02  0.8113703E-01
       -2   -1    0    0    0  501  0.00000000000E+00  0.00000000000E+00  0.13669038067E+04  0.13669038067E+04  0.25500000920E-02 0. -1.
        2   -1    0    0  501    0  0.00000000000E+00  0.00000000000E+00 -0.22409322912E+04  0.22409322912E+04  0.25500000920E-02 0.  1.
    10030    2    1    2    0    0  0.00000000000E+00  0.00000000000E+00 -0.87402848449E+03  0.36078360980E+04  0.35003650550E+04 0.  0.
        4    1    3    3  502    0  0.10564095746E+04  0.94702836753E+03 -0.14933078036E+04  0.20598140031E+04  0.12699999809E+01 0.  1.
       -4    1    3    3    0  502 -0.10564095746E+04 -0.94702836753E+03  0.61927931913E+03  0.15480220949E+04  0.12699999809E+01 0. -1.
</event>
<event>
 5   0  0.3628017E-08  0.3498629E+04  0.7818609E-02  0.8114115E-01
        2   -1    0    0  501    0  0.00000000000E+00  0.00000000000E+00  0.20162488317E+04  0.20162488317E+04  0.25500000920E-02 0. -1.
       -2   -1    0    0    0  501  0.00000000000E+00  0.00000000000E+00 -0.15177199267E+04  0.15177199267E+04  0.25500000920E-02 0.  1.
    10030    2    1    2    0    0  0.00000000000E+00  0.00000000000E+00  0.49852890491E+03  0.35339687584E+04  0.34986288909E+04 0.  0.
        1    1    3    3  502    0  0.81157333680E+02 -0.10640210069E+04  0.16494021906E+04  0.19644986135E+04  0.50400001928E-02 0. -1.
       -1    1    3    3    0  502 -0.81157333680E+02  0.10640210069E+04 -0.11508732857E+04  0.15694701449E+04  0.50400001928E-02 0.  1.
</event>
<event>
 5   0  0.1121462E-08  0.3491208E+04  0.7818609E-02  0.8115877E-01
        1   -1    0    0  501    0  0.00000000000E+00  0.00000000000E+00  0.19741763543E+04  0.19741763543E+04  0.50400001928E-02 0. -1.
       -1   -1    0    0    0  501  0.00000000000E+00  0.00000000000E+00 -0.15434961038E+04  0.15434961038E+04  0.50400001928E-02 0.  1.
    10030    2    1    2    0    0  0.00000000000E+00  0.00000000000E+00  0.43068025051E+03  0.35176724580E+04  0.34912081066E+04 0.  0.
        4    1    3    3  502    0  0.12698371505E+04  0.82298493499E+03  0.10921904823E+04  0.18661919126E+04  0.12699999809E+01 0.  1.
       -4    1    3    3    0  502 -0.12698371505E+04 -0.82298493499E+03 -0.66151023183E+03  0.16514805454E+04  0.12699999809E+01 0. -1.
</event>
<event>
 5   0  0.3553585E-08  0.3501225E+04  0.7818609E-02  0.8113500E-01
       -2   -1    0    0    0  501  0.00000000000E+00  0.00000000000E+00  0.14122300801E+04  0.14122300801E+04  0.25500000920E-02 0.  1.
        2   -1    0    0  501    0  0.00000000000E+00  0.00000000000E+00 -0.21700742948E+04  0.21700742948E+04  0.25500000920E-02 0. -1.
    10030    2    1    2    0    0  0.00000000000E+00  0.00000000000E+00 -0.75784421472E+03  0.35823043748E+04  0.35012250399E+04 0.  0.
        2    1    3    3  502    0  0.12166061448E+04  0.10604078824E+04 -0.10728980442E+04  0.19379642932E+04  0.25500000920E-02 0. -1.
       -2    1    3    3    0  502 -0.12166061448E+04 -0.10604078824E+04  0.31505382946E+03  0.16443400816E+04  0.25500000920E-02 0.  1.
</event>
<event>
 5   0  0.3467834E-08  0.3500145E+04  0.7818609E-02  0.8113756E-01
       -2   -1    0    0    0  501  0.00000000000E+00  0.00000000000E+00  0.24221708433E+04  0.24221708433E+04  0.25500000920E-02 0.  1.
        2   -1    0    0  501    0  0.00000000000E+00  0.00000000000E+00 -0.12644666309E+04  0.12644666309E+04  0.25500000920E-02 0. -1.
    10030    2    1    2    0    0  0.00000000000E+00  0.00000000000E+00  0.11577042124E+04  0.36866374743E+04  0.35001452575E+04 0.  0.
        3    1    3    3  502    0  0.51230618237E+03  0.51796187877E+03  0.22548645950E+04  0.23696321411E+04  0.10100000352E+00 0.  1.
       -3    1    3    3    0  502 -0.51230618237E+03 -0.51796187877E+03 -0.10971603826E+04  0.13170053332E+04  0.10100000352E+00 0. -1.
</event>
<event>
 5   0  0.1121462E-08  0.3499091E+04  0.7818609E-02  0.8114005E-01
        1   -1    0    0  501    0  0.00000000000E+00  0.00000000000E+00  0.27507625482E+04  0.27507625482E+04  0.50400001928E-02 0. -1.
       -1   -1    0    0    0  501  0.00000000000E+00  0.00000000000E+00 -0.11127494573E+04  0.11127494573E+04  0.50400001928E-02 0.  1.
    10030    2    1    2    0    0  0.00000000000E+00  0.00000000000E+00  0.16380130909E+04  0.38635120055E+04  0.34990910435E+04 0.  0.
        2    1    3    3  502    0 -0.68069382423E+03  0.14866723784E+04  0.15062180193E+04  0.22231130346E+04  0.25500000920E-02 0.  1.
       -2    1    3    3    0  502  0.68069382423E+03 -0.14866723784E+04  0.13179507168E+03  0.16403989710E+04  0.25500000920E-02 0. -1.
</event>
<event>
 5   0  0.3628017E-08  0.3502192E+04  0.7818609E-02  0.8113271E-01
       -2   -1    0    0    0  501  0.00000000000E+00  0.00000000000E+00  0.97841009855E+03  0.97841009855E+03  0.25500000920E-02 0. -1.
        2   -1    0    0  501    0  0.00000000000E+00  0.00000000000E+00 -0.31340000720E+04  0.31340000720E+04  0.25500000920E-02 0.  1.
    10030    2    1    2    0    0  0.00000000000E+00  0.00000000000E+00 -0.21555899735E+04  0.41124101705E+04  0.35021920674E+04 0.  0.
        1    1    3    3  502    0  0.91279127598E+03  0.24571916818E+03  0.65307119329E+03  0.11489420380E+04  0.50400001928E-02 0. -1.
       -1    1    3    3    0  502 -0.91279127598E+03 -0.24571916818E+03 -0.28086611667E+04  0.29634681326E+04  0.50400001928E-02 0.  1.
</event>
<event>
 5   0  0.1121462E-08  0.3500311E+04  0.7818609E-02  0.8113716E-01
        1   -1    0    0  501    0  0.00000000000E+00  0.00000000000E+00  0.23119385533E+04  0.23119385533E+04  0.50400001928E-02 0. -1.
       -1   -1    0    0    0  501  0.00000000000E+00  0.00000000000E+00 -0.13248816741E+04  0.13248816741E+04  0.50400001928E-02 0.  1.
    10030    2    1    2    0    0  0.00000000000E+00  0.00000000000E+00  0.98705687926E+03  0.36368202274E+04  0.35003114267E+04 0.  0.
        1    1    3    3  502    0  0.72591168922E+03  0.14705376263E+04 -0.14155102970E+03  0.16460453775E+04  0.50400001928E-02 0.  1.
       -1    1    3    3    0  502 -0.72591168922E+03 -0.14705376263E+04  0.11286079090E+04  0.19907748499E+04  0.50400001928E-02 0. -1.
</event>
<event>
 5   0  0.3553585E-08  0.3500856E+04  0.7818609E-02  0.8113587E-01
       -2   -1    0    0    0  501  0.00000000000E+00  0.00000000000E+00  0.97594423538E+03  0.97594423539E+03  0.25500000920E-02 0.  1.
        2   -1    0    0  501    0  0.00000000000E+00  0.00000000000E+00 -0.31395214456E+04  0.31395214456E+04  0.25500000920E-02 0. -1.
    10030    2    1    2    0    0  0.00000000000E+00  0.00000000000E+00 -0.21635772103E+04  0.41154656810E+04  0.35008558135E+04 0.  0.
        2    1    3    3  502    0 -0.10078913485E+04 -0.13179723788E+04 -0.42610254763E+03  0.17130264279E+04  0.25500000920E-02 0.  1.
       -2    1    3    3    0  502  0.10078913485E+04  0.13179723788E+04 -0.17374746626E+04  0.24024392531E+04  0.25500000920E-02 0. -1.
</event>
<event>
 5   0  0.1129219E-08  0.3499492E+04  0.7818609E-02  0.8113910E-01
       -1   -1    0    0    0  501  0.00000000000E+00  0.00000000000E+00  0.11662349958E+04  0.11662349958E+04  0.50400001928E-02 0. -1.
        1   -1    0    0  501    0  0.00000000000E+00  0.00000000000E+00 -0.26252090411E+04  0.26252090411E+04  0.50400001928E-02 0.  1.
    10030    2    1    2    0    0  0.00000000000E+00  0.00000000000E+00 -0.14589740453E+04  0.37914440369E+04  0.34994917659E+04 0.  0.
        5    1    3    3  502    0  0.77977185852E+03  0.13647024237E+04  0.10350684040E+03  0.15751801842E+04  0.46999998093E+01 0. -1.
       -5    1    3    3    0  502 -0.77977185852E+03 -0.13647024237E+04 -0.15624808857E+04  0.22162638527E+04  0.46999998093E+01 0.  1.
</event>
<event>
 5   0  0.3554451E-08  0.3500717E+04  0.7818609E-02  0.8113620E-01
        2   -1    0    0  501    0  0.00000000000E+00  0.00000000000E+00  0.23638412015E+04  0.23638412015E+04  0.25500000920E-02 0. -1.
       -2   -1    0    0    0  501  0.00000000000E+00  0.00000000000E+00 -0.12960913801E+04  0.12960913801E+04  0.25500000920E-02 0.  1.
    10030    2    1    2    0    0  0.00000000000E+00  0.00000000000E+00  0.10677498214E+04  0.36599325816E+04  0.35007166153E+04 0.  0.
        5    1    3    3  502    0 -0.74875325948E+03 -0.11603024494E+04 -0.59058781207E+03  0.15019152011E+04  0.46999998093E+01 0.  1.
       -5    1    3    3    0  502  0.74875325948E+03  0.11603024494E+04  0.16583376335E+04  0.21580173804E+04  0.46999998093E+01 0. -1.
</event>
<event>
 5   0  0.1121462E-08  0.3498377E+04  0.7818609E-02  0.8114175E-01
       -1   -1    0    0    0  501  0.00000000000E+00  0.00000000000E+00  0.23589287289E+04  0.23589287289E+04  0.50400001928E-02 0. -1.
        1   -1    0    0  501    0  0.00000000000E+00  0.00000000000E+00 -0.12970549874E+04  0.12970549874E+04  0.50400001928E-02 0.  1.
    10030    2    1    2    0    0  0.00000000000E+00  0.00000000000E+00  0.10618737415E+04  0.36559837163E+04  0.34983769224E+04 0.  0.
        4    1    3    3  502    0  0.16885946806E+04  0.35074060324E+02  0.10064943702E+04  0.19661166586E+04  0.12699999809E+01 0. -1.
       -4    1    3    3    0  502 -0.16885946806E+04 -0.35074060324E+02  0.55379371296E+02  0.16898670577E+04  0.12699999809E+01 0.  1.
</event>
<event>
 5   0  0.3700096E-08  0.3496691E+04  0.7818609E-02  0.8114575E-01
        2   -1    0    0  501    0  0.00000000000E+00  0.00000000000E+00  0.16008387161E+04  0.16008387161E+04  0.25500000920E-02 0.  1.
       -2   -1    0    0    0  501  0.00000000000E+00  0.00000000000E+00 -0.19094439811E+04  0.19094439811E+04  0.25500000920E-02 0. -1.
    10030    2    1    2    0    0  0.00000000000E+00  0.00000000000E+00 -0.30860526502E+03  0.35102826972E+04  0.34966909221E+04 0.  0.
        4    1    3    3  502    0  0.11728456865E+04  0.10871830912E+04 -0.86357291736E+03  0.18174965955E+04  0.12699999809E+01 0. -1.
       -4    1    3    3    0  502 -0.11728456865E+04 -0.10871830912E+04  0.55496765235E+03  0.16927861017E+04  0.12699999809E+01 0.  1.
</event>
<event>
 5   0  0.1121462E-08  0.3500160E+04  0.7818609E-02  0.8113752E-01
       -1   -1    0    0    0  501  0.00000000000E+00  0.00000000000E+00  0.15061232084E+04  0.15061232084E+04  0.50400001928E-02 0.  1.
        1   -1    0    0  501    0  0.00000000000E+00  0.00000000000E+00 -0.20335517453E+04  0.20335517453E+04  0.50400001928E-02 0. -1.
    10030    2    1    2    0    0  0.00000000000E+00  0.00000000000E+00 -0.52742853692E+03  0.35396749537E+04  0.35001596987E+04 0.  0.
        1    1    3    3  502    0  0.12573965282E+04  0.48871647654E+03  0.86372150180E+03  0.16018441423E+04  0.50400001928E-02 0.  1.
       -1    1    3    3    0  502 -0.12573965282E+04 -0.48871647654E+03 -0.13911500387E+04  0.19378308114E+04  0.50400001928E-02 0. -1.
</event>
<event>
 5   0  0.3628017E-08  0.3500902E+04  0.7818609E-02  0.8113576E-01
        2   -1    0    0  501    0  0.00000000000E+00  0.00000000000E+00  0.21436366683E+04  0.21436366683E+04  0.25500000920E-02 0.  1.
       -2   -1    0    0    0  501  0.00000000000E+00  0.00000000000E+00 -0.14293832318E+04  0.14293832318E+04  0.25500000920E-02 0. -1.
    10030    2    1    2    0    0  0.00000000000E+00  0.00000000000E+00  0.71425343652E+03  0.35730199000E+04  0.35009017745E+04 0.  0.
        1    1    3    3  502    0  0.49559279226E+03 -0.11588449657E+04  0.15968696930E+04  0.20343369157E+04  0.50400001928E-02 0.  1.
       -1    1    3    3    0  502 -0.49559279226E+03  0.11588449657E+04 -0.88261625645E+03  0.15386829844E+04  0.50400001928E-02 0. -1.
</event>
<event>
 5   0  0.1121462E-08  0.3500325E+04  0.7818609E-02  0.8113713E-01
       -1   -1    0    0    0  501  0.00000000000E+00  0.00000000000E+00  0.12631228508E+04  0.12631228508E+04  0.50400001928E-02 0.  1.
        1   -1    0    0  501    0  0.00000000000E+00  0.00000000000E+00 -0.24249971074E+04  0.24249971074E+04  0.50400001928E-02 0. -1.
    10030    2    1    2    0    0  0.00000000000E+00  0.00000000000E+00 -0.11618742567E+04  0.36881199582E+04  0.35003252760E+04 0.  0.
        4    1    3    3  502    0 -0.72616456882E+03  0.28563871613E+03 -0.22315618795E+04  0.23640589020E+04  0.12699999809E+01 0. -1.
       -4    1    3    3    0  502  0.72616456882E+03 -0.28563871613E+03  0.10696876229E+04  0.13240610562E+04  0.12699999809E+01 0.  1.
</event>
<event>
 5   0  0.3467834E-08  0.3497242E+04  0.7818609E-02  0.8114444E-01
       -2   -1    0    0    0  501  0.00000000000E+00  0.00000000000E+00  0.14739013857E+04  0.14739013857E+04  0.25500000920E-02 0. -1.
        2   -1    0    0  501    0  0.00000000000E+00  0.00000000000E+00 -0.20745452023E+04  0.20745452023E+04  0.25500000920E-02 0.  1.
    10030    2    1    2    0    0  0.00000000000E+00  0.00000000000E+00 -0.60064381658E+03  0.35484465880E+04  0.34972417980E+04 0.  0.
        3    1    3    3  502    0 -0.93668921198E+03  0.13748818514E+04  0.24606818327E+03  0.16817361107E+04  0.10100000352E+00 0. -1.
       -3    1    3    3    0  502  0.93668921198E+03 -0.13748818514E+04 -0.84671199985E+03  0.18667104773E+04  0.10100000352E+00 0.  1.
</event>
<event>
 5   0  0.1140808E-08  0.3498096E+04  0.7818609E-02  0.8114241E-01
       -1   -1    0    0    0  501  0.00000000000E+00  0.00000000000E+00  0.12061948540E+04  0.12061948541E+04  0.50400001928E-02 0.  1.
        1   -1    0    0  501    0  0.00000000000E+00  0.00000000000E+00 -0.25362145264E+04  0.25362145264E+04  0.50400001928E-02 0. -1.
    10030    2    1    2    0    0  0.00000000000E+00  0.00000000000E+00 -0.13300196723E+04  0.37424093804E+04  0.34980960024E+04 0.  0.
        3    1    3    3  502    0  0.13702427196E+04 -0.10853753139E+04 -0.60113913597E+03  0.18485056001E+04  0.10100000352E+00 0.  1.
       -3    1    3    3    0  502 -0.13702427196E+04  0.10853753139E+04 -0.72888053636E+03  0.18939037803E+04  0.10100000352E+00 0. -1.
</event>
<event>
 5   0  0.3628017E-08  0.3497409E+04  0.7818609E-02  0.8114404E-01
       -2   -1    0    0    0  501  0.00000000000E+00  0.00000000000E+00  0.23087971751E+04  0.23087971751E+04  0.25500000920E-02 0.  1.
        2   -1    0    0  501    0  0.00000000000E+00  0.00000000000E+00 -0.13244847443E+04  0.13244847443E+04  0.25500000920E-02 0. -1.
    10030    2    1    2    0    0  0.00000000000E+00  0.00000000000E+00  0.98431243077E+03  0.36332819195E+04  0.34974085470E+04 0.  0.
        1    1    3    3  502    0 -0.15849640251E+04  0.62164105256E+02  0.12569579918E+04  0.20238376244E+04  0.50400001928E-02 0.  1.
       -1    1    3    3    0  502  0.15849640251E+04 -0.62164105256E+02 -0.27264556100E+03  0.16094442950E+04  0.50400001928E-02 0. -1.
</event>
<event>
 5   0  0.1121462E-08  0.3500077E+04  0.7818609E-02  0.8113772E-01
        1   -1    0    0  501    0  0.00000000000E+00  0.00000000000E+00  0.16523448215E+04  0.16523448215E+04  0.50400001928E-02 0.  1.
       -1   -1    0    0    0  501  0.00000000000E+00  0.00000000000E+00 -0.18535078154E+04  0.18535078154E+04  0.50400001928E-02 0. -1.
    10030    2    1    2    0    0  0.00000000000E+00  0.00000000000E+00 -0.20116299384E+03  0.35058526369E+04  0.35000765937E+04 0.  0.
        4    1    3    3  502    0  0.49828910599E+03 -0.42539263807E+03 -0.17260291916E+04  0.18461931949E+04  0.12699999809E+01 0. -1.
       -4    1    3    3    0  502 -0.49828910599E+03  0.42539263807E+03  0.15248661977E+04  0.16596594420E+04  0.12699999809E+01 0.  1.
</event>
<event>
 5   0  0.3467834E-08  0.3500703E+04  0.7818609E-02  0.8113623E-01
        2   -1    0    0  501    0  0.00000000000E+00  0.00000000000E+00  0.19395335162E+04  0.19395335162E+04  0.25500000920E-02 0.  1.
       -2   -1    0    0    0  501  0.00000000000E+00  0.00000000000E+00 -0.15796220004E+04  0.15796220004E+04  0.25500000920E-02 0. -1.
    10030    2    1    2    0    0  0.00000000000E+00  0.00000000000E+00  0.35991151582E+03  0.35191555165E+04  0.35007026795E+04 0.  0.
        3    1    3    3  502    0  0.39628941646E+03 -0.11819565140E+04 -0.10552044191E+04  0.16332553012E+04  0.10100000352E+00 0. -1.
       -3    1    3    3    0  502 -0.39628941646E+03  0.11819565140E+04  0.14151159350E+04  0.18859002153E+04  0.10100000352E+00 0.  1.
</event>
<event>
 5   0  0.1121462E-08  0.3500807E+04  0.7818609E-02  0.8113599E-01
        1   -1    0    0  501    0  0.00000000000E+00  0.00000000000E+00  0.20615013505E+04  0.20615013505E+04  0.50400001928E-02 0. -1.
       -1   -1    0    0    0  501  0.00000000000E+00  0.00000000000E+00 -0.14862532807E+04  0.14862532807E+04  0.50400001928E-02 0.  1.
    10030    2    1    2    0    0  0.00000000000E+00  0.00000000000E+00  0.57524806984E+03  0.35477546312E+04  0.35008074185E+04 0.  0.
        4    1    3    3  502    0 -0.12386062940E+04 -0.11171281599E+04 -0.25033430972E+03  0.16866504548E+04  0.12699999809E+01 0.  1.
       -4    1    3    3    0  502  0.12386062940E+04  0.11171281599E+04  0.82558237956E+03  0.18611041764E+04  0.12699999809E+01 0. -1.
</event>
<event>
 5   0  0.1121462E-08  0.3500550E+04  0.7818609E-02  0.8113660E-01
       -3   -1    0    0    0  501  0.00000000000E+00  0.00000000000E+00  0.19510646352E+04  0.19510646378E+04  0.10100000352E+00 0.  1.
        3   -1    0    0  501    0  0.00000000000E+00  0.00000000000E+00 -0.15701490542E+04  0.15701490574E+04  0.10100000352E+00 0. -1.
    10030    2    1    2    0    0  0.00000000000E+00  0.00000000000E+00  0.38091558101E+03  0.35212136952E+04  0.35005498436E+04 0.  0.
        5    1    3    3  502    0 -0.15410035287E+04 -0.35791459814E+03 -0.56272480852E+03  0.16791295469E+04  0.46999998093E+01 0. -1.
       -5    1    3    3    0  502  0.15410035287E+04  0.35791459814E+03  0.94364038952E+03  0.18420841484E+04  0.46999998093E+01 0.  1.
</event>
<event>
 5   0  0.1121462E-08  0.3498520E+04  0.7818609E-02  0.8114141E-01
       -1   -1    0    0    0  501  0.00000000000E+00  0.00000000000E+00  0.13199833728E+04  0.13199833728E+04  0.50400001928E-02 0.  1.
        1   -1    0    0  501    0  0.00000000000E+00  0.00000000000E+00 -0.23181436049E+04  0.23181436049E+04  0.50400001928E-02 0. -1.
    10030    2    1    2    0    0  0.00000000000E+00  0.00000000000E+00 -0.99816023207E+03  0.36381269777E+04  0.34985202667E+04 0.  0.
        4    1    3    3  502    0 -0.16430469099E+04 -0.50652666455E+03 -0.16414530902E+03  0.17271704332E+04  0.12699999809E+01 0. -1.
       -4    1    3    3    0  502  0.16430469099E+04  0.50652666455E+03 -0.83401492305E+03  0.19109565445E+04  0.12699999809E+01 0.  1.
</event>
<event>
 5   0  0.1129219E-08  0.3504020E+04  0.7818609E-02  0.8112838E-01
        1   -1    0    0  501    0  0.00000000000E+00  0.00000000000E+00  0.10422483617E+04  0.10422483617E+04  0.50400001928E-02 0. -1.
       -1   -1    0    0    0  501  0.00000000000E+00  0.00000000000E+00 -0.29451127689E+04  0.29451127689E+04  0.50400001928E-02 0.  1.
    10030    2    1    2    0    0  0.00000000000E+00  0.00000000000E+00 -0.19028644073E+04  0.39873611306E+04  0.35040199534E+04 0.  0.
        5    1    3    3  502    0  0.78775692086E+03  0.18535277172E+03  0.81680946798E+03  0.11498332111E+04  0.46999998093E+01 0. -1.
       -5    1    3    3    0  502 -0.78775692086E+03 -0.18535277172E+03 -0.27196738753E+04  0.28375279195E+04  0.46999998093E+01 0.  1.
</event>
<event>
 5   0  0.3553585E-08  0.3501076E+04  0.7818609E-02  0.8113535E-01
        2   -1    0    0  501    0  0.00000000000E+00  0.00000000000E+00  0.17292480730E+04  0.17292480730E+04  0.25500000920E-02 0. -1.
       -2   -1    0    0    0  501  0.00000000000E+00  0.00000000000E+00 -0.17720896832E+04  0.17720896832E+04  0.25500000920E-02 0.  1.
    10030    2    1    2    0    0  0.00000000000E+00  0.00000000000E+00 -0.42841610151E+02  0.35013377562E+04  0.35010756461E+04 0.  0.
        2    1    3    3  502    0 -0.32606879510E+03 -0.48281369442E+03 -0.16722874784E+04  0.17708685250E+04  0.25500000920E-02 0.  1.
       -2    1    3    3    0  502  0.32606879510E+03  0.48281369442E+03  0.16294458682E+04  0.17304692312E+04  0.25500000920E-02 0. -1.
</event>
<event>
 5   0  0.3700096E-08  0.3498209E+04  0.7818609E-02  0.8114215E-01
       -2   -1    0    0    0  501  0.00000000000E+00  0.00000000000E+00  0.17187477637E+04  0.17187477637E+04  0.25500000920E-02 0.  1.
        2   -1    0    0  501    0  0.00000000000E+00  0.00000000000E+00 -0.17799972382E+04  0.17799972383E+04  0.25500000920E-02 0. -1.
    10030    2    1    2    0    0  0.00000000000E+00  0.00000000000E+00 -0.61249474576E+02  0.34987450019E+04  0.34982088403E+04 0.  0.
        4    1    3    3  502    0  0.10307383985E+04  0.10509472784E+04  0.91421727091E+03  0.17328319767E+04  0.12699999809E+01 0.  1.
       -4    1    3    3    0  502 -0.10307383985E+04 -0.10509472784E+04 -0.97546674549E+03  0.17659130252E+04  0.12699999809E+01 0. -1.
</event>
<event>
 5   0  0.3554451E-08  0.3499720E+04  0.7818609E-02  0.8113856E-01
       -2   -1    0    0    0  501  0.00000000000E+00  0.00000000000E+00  0.17190692882E+04  0.17190692882E+04  0.25500000920E-02 0. -1.
        2   -1    0    0  501    0  0.00000000000E+00  0.00000000000E+00 -0.17812022743E+04  0.17812022743E+04  0.25500000920E-02 0.  1.
    10030    2    1    2    0    0  0.00000000000E+00  0.00000000000E+00 -0.62132986142E+02  0.35002715625E+04  0.34997200607E+04 0.  0.
        5    1    3    3  502    0  0.11767447649E+04 -0.12903120899E+04 -0.14223482840E+03  0.17521091198E+04  0.46999998093E+01 0.  1.
       -5    1    3    3    0  502 -0.11767447649E+04  0.12903120899E+04  0.80101842261E+02  0.17481624428E+04  0.46999998093E+01 0. -1.
</event>
<event>
 5   0  0.1121462E-08  0.3500533E+04  0.7818609E-02  0.8113664E-01
       -1   -1    0    0    0  501  0.00000000000E+00  0.00000000000E+00  0.18145856833E+04  0.18145856833E+04  0.50400001928E-02 0. -1.
        1   -1    0    0  501    0  0.00000000000E+00  0.00000000000E+00 -0.16882273191E+04  0.16882273191E+04  0.50400001928E-02 0.  1.
    10030    2    1    2    0    0  0.00000000000E+00  0.00000000000E+00  0.12635836419E+03  0.35028130024E+04  0.35005331728E+04 0.  0.
        2    1    3    3  502    0 -0.64545567040E+03 -0.62288290215E+03  0.15671007968E+04  0.18056580627E+04  0.25500000920E-02 0. -1.
       -2    1    3    3    0  502  0.64545567040E+03  0.62288290215E+03 -0.14407424326E+04  0.16971549397E+04  0.25500000920E-02 0.  1.
</event>
<event>
 5   0  0.1121462E-08  0.3501325E+04  0.7818609E-02  0.8113476E-01
       -1   -1    0    0    0  501  0.00000000000E+00  0.00000000000E+00  0.18861057657E+04  0.18861057657E+04  0.50400001928E-02 0. -1.
        1   -1    0    0  501    0  0.00000000000E+00  0.00000000000E+00 -0.16249452153E+04  0.16249452153E+04  0.50400001928E-02 0.  1.
    10030    2    1    2    0    0  0.00000000000E+00  0.00000000000E+00  0.26116055045E+03  0.35110509810E+04  0.35013246291E+04 0.  0.
        4    1    3    3  502    0 -0.52976083190E+03  0.21959998439E+03 -0.15280841731E+04  0.16321499763E+04  0.12699999809E+01 0.  1.
       -4    1    3    3    0  502  0.52976083190E+03 -0.21959998439E+03  0.17892447235E+04  0.18789010047E+04  0.12699999809E+01 0. -1.
</event>
<event>
 5   0  0.1121462E-08  0.3494774E+04  0.7818609E-02  0.8115030E-01
       -1   -1    0    0    0  501  0.00000000000E+00  0.00000000000E+00  0.13476876414E+04  0.13476876414E+04  0.50400001928E-02 0. -1.
        1   -1    0    0  501    0  0.00000000000E+00  0.00000000000E+00 -0.22656300110E+04  0.22656300110E+04  0.50400001928E-02 0.  1.
    10030    2    1    2    0    0  0.00000000000E+00  0.00000000000E+00 -0.91794236963E+03  0.36133176524E+04  0.34947741362E+04 0.  0.
        1    1    3    3  502    0  0.11708860645E+04  0.40749996062E+03 -0.17321343385E+04  0.21300985330E+04  0.50400001928E-02 0. -1.
       -1    1    3    3    0  502 -0.11708860645E+04 -0.40749996062E+03  0.81419196885E+03  0.14832191194E+04  0.50400001928E-02 0.  1.
</event>
<event>
 5   0  0.3467834E-08  0.3505328E+04  0.7818609E-02  0.8112528E-01
        2   -1    0    0  501    0  0.00000000000E+00  0.00000000000E+00  0.14017201288E+04  0.14017201288E+04  0.25500000920E-02 0. -1.
       -2   -1    0    0    0  501  0.00000000000E+00  0.00000000000E+00 -0.21914724384E+04  0.21914724384E+04  0.25500000920E-02 0.  1.
    10030    2    1    2    0    0  0.00000000000E+00  0.00000000000E+00 -0.78975230963E+03  0.35931925672E+04  0.35053279610E+04 0.  0.
        3    1    3    3  502    0 -0.32677399652E+03 -0.34736949477E+03  0.13339286659E+04  0.14166200996E+04  0.10100000352E+00 0. -1.
       -3    1    3    3    0  502  0.32677399652E+03  0.34736949477E+03 -0.21236809755E+04  0.21765724676E+04  0.10100000352E+00 0.  1.
</event>
<event>
 5   0  0.3628017E-08  0.3501601E+04  0.7818609E-02  0.8113411E-01
       -2   -1    0    0    0  501  0.00000000000E+00  0.00000000000E+00  0.13296011474E+04  0.13296011474E+04  0.25500000920E-02 0. -1.
        2   -1    0    0  501    0  0.00000000000E+00  0.00000000000E+00 -0.23054300751E+04  0.23054300751E+04  0.25500000920E-02 0.  1.
    10030    2    1    2    0    0  0.00000000000E+00  0.00000000000E+00 -0.97582892768E+03  0.36350312226E+04  0.35016010471E+04 0.  0.
        1    1    3    3  502    0  0.11110231987E+04 -0.13383146996E+04 -0.69512949631E+03  0.18731427601E+04  0.50400001928E-02 0.  1.
       -1    1    3    3    0  502 -0.11110231987E+04  0.13383146996E+04 -0.28069943137E+03  0.17618884624E+04  0.50400001928E-02 0. -1.
</event>
<event>
 5   0  0.3554451E-08  0.3499829E+04  0.7818609E-02  0.8113830E-01
        2   -1    0    0  501    0  0.00000000000E+00  0.00000000000E+00  0.18116830353E+04  0.18116830353E+04  0.25500000920E-02 0. -1.
       -2   -1    0    0    0  501  0.00000000000E+00  0.00000000000E+00 -0.16902521119E+04  0.16902521119E+04  0.25500000920E-02 0.  1.
    10030    2    1    2    0    0  0.00000000000E+00  0.00000000000E+00  0.12143092337E+03  0.35019351472E+04  0.34998291824E+04 0.  0.
        5    1    3    3  502    0 -0.10997683124E+04 -0.94812226868E+03 -0.91647488044E+03  0.17170831296E+04  0.46999998093E+01 0.  1.
       -5    1    3    3    0  502  0.10997683124E+04  0.94812226868E+03  0.10379058038E+04  0.17848520177E+04  0.46999998093E+01 0. -1.
</event>
<event>
 5   0  0.1140808E-08  0.3501415E+04  0.7818609E-02  0.8113455E-01
        1   -1    0    0  501    0  0.00000000000E+00  0.00000000000E+00  0.16185777163E+04  0.16185777163E+04  0.50400001928E-02 0.  1.
       -1   -1    0    0    0  501  0.00000000000E+00  0.00000000000E+00 -0.18936234769E+04  0.18936234769E+04  0.50400001928E-02 0. -1.
    10030    2    1    2    0    0  0.00000000000E+00  0.00000000000E+00 -0.27504576057E+03  0.35122011932E+04  0.35014150070E+04 0.  0.
        3    1    3    3  502    0 -0.51980411129E+03  0.70905965578E+03  0.13810810174E+04  0.16371764402E+04  0.10100000352E+00 0.  1.
       -3    1    3    3    0  502  0.51980411129E+03 -0.70905965578E+03 -0.16561267780E+04  0.18750247530E+04  0.10100000352E+00 0. -1.
</event>
<event>
 5   0  0.3553585E-08  0.3500561E+04  0.7818609E-02  0.8113657E-01
       -2   -1    0    0    0  501  0.00000000000E+00  0.00000000000E+00  0.13931972406E+04  0.13931972406E+04  0.25500000920E-02 0.  1.
        2   -1    0    0  501    0  0.00000000000E+00  0.00000000000E+00 -0.21988865347E+04  0.21988865347E+04  0.25500000920E-02 0. -1.
    10030    2    1    2    0    0  0.00000000000E+00  0.00000000000E+00 -0.80568929410E+03  0.35920837754E+04  0.35005614708E+04 0.  0.
        2    1    3    3  502    0 -0.21737622528E+03 -0.10322567960E+04  0.10303373165E+04  0.14745851966E+04  0.25500000920E-02 0.  1.
       -2    1    3    3    0  502  0.21737622528E+03  0.10322567960E+04 -0.18360266106E+04  0.21174985788E+04  0.25500000920E-02 0. -1.
</event>
<event>
 5   0  0.1121462E-08  0.3500407E+04  0.7818609E-02  0.8113694E-01
        1   -1    0    0  501    0  0.00000000000E+00  0.00000000000E+00  0.18274663396E+04  0.18274663397E+04  0.50400001928E-02 0. -1.
       -1   -1    0    0    0  501  0.00000000000E+00  0.00000000000E+00 -0.16762067603E+04  0.16762067603E+04  0.50400001928E-02 0.  1.
    10030    2    1    2    0    0  0.00000000000E+00  0.00000000000E+00  0.15125957935E+03  0.35036731000E+04  0.35004065094E+04 0.  0.
        1    1    3    3  502    0 -0.13463810085E+04  0.10804992741E+04  0.36398009447E+03  0.17642851274E+04  0.50400001928E-02 0. -1.
       -1    1    3    3    0  502  0.13463810085E+04 -0.10804992741E+04 -0.21272051511E+03  0.17393879726E+04  0.50400001928E-02 0.  1.
</event>
<event>
 5   0  0.3467834E-08  0.3502123E+04  0.7818609E-02  0.8113287E-01
        2   -1    0    0  501    0  0.00000000000E+00  0.00000000000E+00  0.19192866441E+04  0.19192866441E+04  0.25500000920E-02 0. -1.
       -2   -1    0    0    0  501  0.00000000000E+00  0.00000000000E+00 -0.15975812941E+04  0.15975812941E+04  0.25500000920E-02 0.  1.
    10030    2    1    2    0    0  0.00000000000E+00  0.00000000000E+00  0.32170534996E+03  0.35168679382E+04  0.35021230364E+04 0.  0.
        3    1    3    3  502    0  0.86360277998E+02  0.11856332998E+04  0.14519687630E+04  0.18765387601E+04  0.10100000352E+00 0. -1.
       -3    1    3    3    0  502 -0.86360277998E+02 -0.11856332998E+04 -0.11302634130E+04  0.16403291780E+04  0.10100000352E+00 0.  1.
</event>
<event>
 5   0  0.3553585E-08  0.3499956E+04  0.7818609E-02  0.8113800E-01
       -2   -1    0    0    0  501  0.00000000000E+00  0.00000000000E+00  0.16428275570E+04  0.16428275570E+04  0.25500000920E-02 0.  1.
        2   -1    0    0  501    0  0.00000000000E+00  0.00000000000E+00 -0.18641171654E+04  0.18641171654E+04  0.25500000920E-02 0. -1.
    10030    2    1    2    0    0  0.00000000000E+00  0.00000000000E+00 -0.22128960842E+03  0.35069447224E+04  0.34999560276E+04 0.  0.
        2    1    3    3  502    0  0.34708265016E+03  0.93543015376E+03 -0.15511967161E+04  0.18443717604E+04  0.25500000920E-02 0. -1.
       -2    1    3    3    0  502 -0.34708265016E+03 -0.93543015376E+03  0.13299071077E+04  0.16625729619E+04  0.25500000920E-02 0.  1.
</event>
<event>
 5   0  0.1140808E-08  0.3497920E+04  0.7818609E-02  0.8114283E-01
        1   -1    0    0  501    0  0.00000000000E+00  0.00000000000E+00  0.25373230568E+04  0.25373230568E+04  0.50400001928E-02 0.  1.
       -1   -1    0    0    0  501  0.00000000000E+00  0.00000000000E+00 -0.12055467709E+04  0.12055467709E+04  0.50400001928E-02 0. -1.
    10030    2    1    2    0    0  0.00000000000E+00  0.00000000000E+00  0.13317762859E+04  0.37428698278E+04  0.34979203067E+04 0.  0.
        3    1    3    3  502    0  0.80253486434E+03  0.13223710977E+04 -0.20743634675E+03  0.15606913137E+04  0.10100000352E+00 0.  1.
       -3    1    3    3    0  502 -0.80253486434E+03 -0.13223710977E+04  0.15392126327E+04  0.21821785141E+04  0.10100000352E+00 0. -1.
</event>
<event>
 5   0  0.3554451E-08  0.3497438E+04  0.7818609E-02  0.8114397E-01
       -2   -1    0    0    0  501  0.00000000000E+00  0.00000000000E+00  0.13914974816E+04  0.13914974816E+04  0.25500000920E-02 0.  1.
        2   -1    0    0  501    0  0.00000000000E+00  0.00000000000E+00 -0.21976453029E+04  0.21976453029E+04  0.25500000920E-02 0. -1.
    10030    2    1    2    0    0  0.00000000000E+00  0.00000000000E+00 -0.80614782134E+03  0.35891427845E+04  0.34974378647E+04 0.  0.
        5    1    3    3  502    0 -0.44755853458E+03 -0.15961933820E+04  0.16816684303E+03  0.16662665248E+04  0.46999998093E+01 0.  1.
       -5    1    3    3    0  502  0.44755853458E+03  0.15961933820E+04 -0.97431466437E+03  0.19228762596E+04  0.46999998093E+01 0. -1.
</event>
<event>
 5   0  0.3553585E-08  0.3500382E+04  0.7818609E-02  0.8113700E-01
       -2   -1    0    0    0  501  0.00000000000E+00  0.00000000000E+00  0.10435718896E+04  0.10435718896E+04  0.25500000920E-02 0.  1.
        2   -1    0    0  501    0  0.00000000000E+00  0.00000000000E+00 -0.29352724062E+04  0.29352724062E+04  0.25500000920E-02 0. -1.
    10030    2    1    2    0    0  0.00000000000E+00  0.00000000000E+00 -0.18917005167E+04  0.39788442958E+04  0.35003815628E+04 0.  0.
        2    1    3    3  502    0  0.19274080109E+03 -0.11842593264E+04  0.50250200950E+03  0.13008179881E+04  0.25500000920E-02 0.  1.
       -2    1    3    3    0  502 -0.19274080109E+03  0.11842593264E+04 -0.23942025262E+04  0.26780263077E+04  0.25500000920E-02 0. -1.
</event>
<event>
 5   0  0.3554451E-08  0.3499837E+04  0.7818609E-02  0.8113829E-01
       -2   -1    0    0    0  501  0.00000000000E+00  0.00000000000E+00  0.11436200130E+04  0.11436200130E+04  0.25500000920E-02 0.  1.
        2   -1    0    0  501    0  0.00000000000E+00  0.00000000000E+00 -0.26776506382E+04  0.26776506382E+04  0.25500000920E-02 0. -1.
    10030    2    1    2    0    0  0.00000000000E+00  0.00000000000E+00 -0.15340306252E+04  0.38212706512E+04  0.34998370578E+04 0.  0.
        5    1    3    3  502    0 -0.14471377564E+03 -0.27171296471E+03  0.11138153002E+04  0.11555849709E+04  0.46999998093E+01 0.  1.
       -5    1    3    3    0  502  0.14471377564E+03  0.27171296471E+03 -0.26478459254E+04  0.26656856804E+04  0.46999998093E+01 0. -1.
</event>
<event>
 5   0  0.1121462E-08  0.3500176E+04  0.7818609E-02  0.8113748E-01
       -1   -1    0    0    0  501  0.00000000000E+00  0.00000000000E+00  0.12165419776E+04  0.12165419776E+04  0.50400001928E-02 0.  1.
        1   -1    0    0  501    0  0.00000000000E+00  0.00000000000E+00 -0.25176345415E+04  0.25176345415E+04  0.50400001928E-02 0. -1.
    10030    2    1    2    0    0  0.00000000000E+00  0.00000000000E+00 -0.13010925639E+04  0.37341765192E+04  0.35001760550E+04 0.  0.
        1    1    3    3  502    0 -0.77632715729E+03  0.81357705298E+03 -0.20811717724E+04  0.23655585857E+04  0.50400001928E-02 0. -1.
       -1    1    3    3    0  502  0.77632715729E+03 -0.81357705298E+03  0.78007920844E+03  0.13686179334E+04  0.50400001928E-02 0.  1.
</event>
<event>
 5   0  0.3700096E-08  0.3499653E+04  0.7818609E-02  0.8113872E-01
       -2   -1    0    0    0  501  0.00000000000E+00  0.00000000000E+00  0.10885521546E+04  0.10885521546E+04  0.25500000920E-02 0.  1.
        2   -1    0    0  501    0  0.00000000000E+00  0.00000000000E+00 -0.28128114183E+04  0.28128114183E+04  0.25500000920E-02 0. -1.
    10030    2    1    2    0    0  0.00000000000E+00  0.00000000000E+00 -0.17242592638E+04  0.39013635729E+04  0.34996525141E+04 0.  0.
        4    1    3    3  502    0  0.10564446159E+04  0.12704695454E+04 -0.22006494532E+03  0.16669128008E+04  0.12699999809E+01 0.  1.
       -4    1    3    3    0  502 -0.10564446159E+04 -0.12704695454E+04 -0.15041943184E+04  0.22344507721E+04  0.12699999809E+01 0. -1.
</event>
<event>
 5   0  0.3467834E-08  0.3501266E+04  0.7818609E-02  0.8113490E-01
        2   -1    0    0  501    0  0.00000000000E+00  0.00000000000E+00  0.23446552345E+04  0.23446552345E+04  0.25500000920E-02 0.  1.
       -2   -1    0    0    0  501  0.00000000000E+00  0.00000000000E+00 -0.13071069674E+04  0.13071069674E+04  0.25500000920E-02 0. -1.
    10030    2    1    2    0    0  0.00000000000E+00  0.00000000000E+00  0.10375482671E+04  0.36517622019E+04  0.35012655958E+04 0.  0.
        3    1    3    3  502    0  0.36461143033E+03  0.55216063923E+03 -0.11716612236E+04  0.13455901678E+04  0.10100000352E+00 0. -1.
       -3    1    3    3    0  502 -0.36461143033E+03 -0.55216063923E+03  0.22092094907E+04  0.23061720341E+04  0.10100000352E+00 0.  1.
</event>
<event>
 5   0  0.1121462E-08  0.3499645E+04  0.7818609E-02  0.8113874E-01
       -4   -1    0    0    0  501  0.00000000000E+00  0.00000000000E+00  0.16507935760E+04  0.16507940645E+04  0.12699999809E+01 0. -1.
        4   -1    0    0  501    0  0.00000000000E+00  0.00000000000E+00 -0.18547906608E+04  0.18547910956E+04  0.12699999809E+01 0.  1.
    10030    2    1    2    0    0  0.00000000000E+00  0.00000000000E+00 -0.20399708480E+03  0.35055851601E+04  0.34996446254E+04 0.  0.
        1    1    3    3  502    0  0.23866468696E+03  0.94324770186E+03 -0.15588403777E+04  0.18375691505E+04  0.50400001928E-02 0.  1.
       -1    1    3    3    0  502 -0.23866468696E+03 -0.94324770186E+03  0.13548432929E+04  0.16680160095E+04  0.50400001928E-02 0. -1.
</event>
<event>
 5   0  0.3467834E-08  0.3503164E+04  0.7818609E-02  0.8113040E-01
       -2   -1    0    0    0  501  0.00000000000E+00  0.00000000000E+00  0.17420167457E+04  0.17420167457E+04  0.25500000920E-02 0. -1.
        2   -1    0    0  501    0  0.00000000000E+00  0.00000000000E+00 -0.17612000391E+04  0.17612000391E+04  0.25500000920E-02 0.  1.
    10030    2    1    2    0    0  0.00000000000E+00  0.00000000000E+00 -0.19183293451E+02  0.35032167848E+04  0.35031642614E+04 0.  0.
        3    1    3    3  502    0 -0.11400716534E+04  0.81631838038E+01 -0.13393521365E+04  0.17588900387E+04  0.10100000352E+00 0.  1.
       -3    1    3    3    0  502  0.11400716534E+04 -0.81631838038E+01  0.13201688431E+04  0.17443267460E+04  0.10100000352E+00 0. -1.
</event>
<event>
 5   0  0.1140808E-08  0.3499136E+04  0.7818609E-02  0.8113995E-01
       -1   -1    0    0    0  501  0.00000000000E+00  0.00000000000E+00  0.16316869713E+04  0.16316869713E+04  0.50400001928E-02 0. -1.
        1   -1    0    0  501    0  0.00000000000E+00  0.00000000000E+00 -0.18759651343E+04  0.18759651343E+04  0.50400001928E-02 0.  1.
    10030    2    1    2    0    0  0.00000000000E+00  0.00000000000E+00 -0.24427816296E+03  0.35076521056E+04  0.34991358180E+04 0.  0.
        3    1    3    3  502    0  0.87472581645E+02  0.76408659295E+03 -0.16974306157E+04  0.18635317221E+04  0.10100000352E+00 0.  1.
       -3    1    3    3    0  502 -0.87472581645E+02 -0.76408659295E+03  0.14531524528E+04  0.16441203834E+04  0.10100000352E+00 0. -1.
</event>
<event>
 5   0  0.1140808E-08  0.3499117E+04  0.7818609E-02  0.8113999E-01
       -1   -1    0    0    0  501  0.00000000000E+00  0.00000000000E+00  0.23046074630E+04  0.23046074630E+04  0.50400001928E-02 0.  1.
        1   -1    0    0  501    0  0.00000000000E+00  0.00000000000E+00 -0.13281891347E+04  0.13281891347E+04  0.50400001928E-02 0. -1.
    10030    2    1    2    0    0  0.00000000000E+00  0.00000000000E+00  0.97641832830E+03  0.36327965978E+04  0.34991167984E+04 0.  0.
        3    1    3    3  502    0 -0.10709992591E+04  0.12494237517E+04  0.11049192661E+04  0.19821568352E+04  0.10100000352E+00 0. -1.
       -3    1    3    3    0  502  0.10709992591E+04 -0.12494237517E+04 -0.12850093782E+03  0.16506397626E+04  0.10100000352E+00 0.  1.
</event>
<event>
 5   0  0.3700096E-08  0.3501253E+04  0.7818609E-02  0.8113493E-01
       -2   -1    0    0    0  501  0.00000000000E+00  0.00000000000E+00  0.15026105208E+04  0.15026105208E+04  0.25500000920E-02 0. -1.
        2   -1    0    0  501    0  0.00000000000E+00  0.00000000000E+00 -0.20395794048E+04  0.20395794048E+04  0.25500000920E-02 0.  1.
    10030    2    1    2    0    0  0.00000000000E+00  0.00000000000E+00 -0.53696888396E+03  0.35421899256E+04  0.35012531880E+04 0.  0.
        4    1    3    3  502    0 -0.58298778190E+03  0.28153197615E+03 -0.19140185007E+04  0.20205453327E+04  0.12699999809E+01 0.  1.
       -4    1    3    3    0  502  0.58298778190E+03 -0.28153197615E+03  0.13770496167E+04  0.15216445930E+04  0.12699999809E+01 0. -1.
</event>
<event>
 5   0  0.1129219E-08  0.3498677E+04  0.7818609E-02  0.8114103E-01
        1   -1    0    0  501    0  0.00000000000E+00  0.00000000000E+00  0.28007097290E+04  0.28007097290E+04  0.50400001928E-02 0. -1.
       -1   -1    0    0    0  501  0.00000000000E+00  0.00000000000E+00 -0.10926464654E+04  0.10926464654E+04  0.50400001928E-02 0.  1.
    10030    2    1    2    0    0  0.00000000000E+00  0.00000000000E+00  0.17080632636E+04  0.38933561944E+04  0.34986772278E+04 0.  0.
        5    1    3    3  502    0  0.42371996849E+03  0.11894824111E+04  0.22012908724E+04  0.25377373018E+04  0.46999998093E+01 0. -1.
       -5    1    3    3    0  502 -0.42371996849E+03 -0.11894824111E+04 -0.49322760882E+03  0.13556188926E+04  0.46999998093E+01 0.  1.
</event>
<event>
 5   0  0.1129219E-08  0.3498877E+04  0.7818609E-02  0.8114056E-01
       -1   -1    0    0    0  501  0.00000000000E+00  0.00000000000E+00  0.11864655394E+04  0.11864655395E+04  0.50400001928E-02 0. -1.
        1   -1    0    0  501    0  0.00000000000E+00  0.00000000000E+00 -0.25795404080E+04  0.25795404080E+04  0.50400001928E-02 0.  1.
    10030    2    1    2    0    0  0.00000000000E+00  0.00000000000E+00 -0.13930748686E+04  0.37660059475E+04  0.34988774210E+04 0.  0.
        5    1    3    3  502    0  0.96022576293E+03  0.29406540928E+03 -0.22383854226E+04  0.24533445275E+04  0.46999998093E+01 0.  1.
       -5    1    3    3    0  502 -0.96022576293E+03 -0.29406540928E+03  0.84531055400E+03  0.13126614200E+04  0.46999998093E+01 0. -1.
</event>
<event>
 5   0  0.1140808E-08  0.3505556E+04  0.7818609E-02  0.8112474E-01
        1   -1    0    0  501    0  0.00000000000E+00  0.00000000000E+00  0.20641219303E+04  0.20641219303E+04  0.50400001928E-02 0. -1.
       -1   -1    0    0    0  501  0.00000000000E+00  0.00000000000E+00 -0.14883960291E+04  0.14883960291E+04  0.50400001928E-02 0.  1.
    10030    2    1    2    0    0  0.00000000000E+00  0.00000000000E+00  0.57572590125E+03  0.35525179594E+04  0.35055560955E+04 0.  0.
        3    1    3    3  502    0  0.79579316926E+03 -0.21626890216E+03 -0.12795215596E+04  0.15222465102E+04  0.10100000352E+00 0.  1.
       -3    1    3    3    0  502 -0.79579316926E+03  0.21626890216E+03  0.18552474608E+04  0.20302714492E+04  0.10100000352E+00 0. -1.
</event>
<event>
 5   0  0.3467834E-08  0.3497097E+04  0.7818609E-02  0.8114478E-01
        2   -1    0    0  501    0  0.00000000000E+00  0.00000000000E+00  0.27348239257E+04  0.27348239257E+04  0.25500000920E-02 0. -1.
       -2   -1    0    0    0  501  0.00000000000E+00  0.00000000000E+00 -0.11179592983E+04  0.11179592983E+04  0.25500000920E-02 0.  1.
    10030    2    1    2    0    0  0.00000000000E+00  0.00000000000E+00  0.16168646274E+04  0.38527832239E+04  0.34970969885E+04 0.  0.
        3    1    3    3  502    0  0.14078560067E+04 -0.60517014030E+03  0.17361814505E+04  0.23157321679E+04  0.10100000352E+00 0. -1.
       -3    1    3    3    0  502 -0.14078560067E+04  0.60517014030E+03 -0.11931682309E+03  0.15370510560E+04  0.10100000352E+00 0.  1.
</event>
<event>
 5   0  0.1121462E-08  0.3500158E+04  0.7818609E-02  0.8113753E-01
       -1   -1    0    0    0  501  0.00000000000E+00  0.00000000000E+00  0.20056227824E+04  0.20056227824E+04  0.50400001928E-02 0.  1.
        1   -1    0    0  501    0  0.00000000000E+00  0.00000000000E+00 -0.15270947720E+04  0.15270947721E+04  0.50400001928E-02 0. -1.
    10030    2    1    2    0    0  0.00000000000E+00  0.00000000000E+00  0.47852801036E+03  0.35327175545E+04  0.35001577483E+04 0.  0.
        2    1    3    3  502    0 -0.16145325684E+04 -0.54077948150E+03  0.64752426610E+03  0.18216601047E+04  0.25500000920E-02 0.  1.
       -2    1    3    3    0  502  0.16145325684E+04  0.54077948150E+03 -0.16899625574E+03  0.17110574498E+04  0.25500000920E-02 0. -1.
</event>
<event>
 5   0  0.1140808E-08  0.3492336E+04  0.7818609E-02  0.8115609E-01
        1   -1    0    0  501    0  0.00000000000E+00  0.00000000000E+00  0.21717123607E+04  0.21717123607E+04  0.50400001928E-02 0. -1.
       -1   -1    0    0    0  501  0.00000000000E+00  0.00000000000E+00 -0.14040084392E+04  0.14040084392E+04  0.50400001928E-02 0.  1.
    10030    2    1    2    0    0  0.00000000000E+00  0.00000000000E+00  0.76770392148E+03  0.35757207999E+04  0.34923358841E+04 0.  0.
        3    1    3    3  502    0  0.12473673872E+04 -0.69284761383E+03  0.14144330433E+04  0.20091251974E+04  0.10100000352E+00 0. -1.
       -3    1    3    3    0  502 -0.12473673872E+04  0.69284761383E+03 -0.64672912178E+03  0.15665956025E+04  0.10100000352E+00 0.  1.
</event>
<event>
 5   0  0.1121462E-08  0.3499309E+04  0.7818609E-02  0.8113954E-01
        1   -1    0    0  501    0  0.00000000000E+00  0.00000000000E+00  0.18891341776E+04  0.18891341776E+04  0.50400001928E-02 0. -1.
       -1   -1    0    0    0  501  0.00000000000E+00  0.00000000000E+00 -0.16204730296E+04  0.16204730296E+04  0.50400001928E-02 0.  1.
    10030    2    1    2    0    0  0.00000000000E+00  0.00000000000E+00  0.26866114796E+03  0.35096072072E+04  0.34993090655E+04 0.  0.
        2    1    3    3  502    0  0.32311557126E+03 -0.40773920483E+03 -0.15411053057E+04  0.16265486451E+04  0.25500000920E-02 0.  1.
       -2    1    3    3    0  502 -0.32311557126E+03  0.40773920483E+03  0.18097664536E+04  0.18830585621E+04  0.25500000920E-02 0. -1.
</event>
<event>
 5   0  0.1140808E-08  0.3500328E+04  0.7818609E-02  0.8113712E-01
        1   -1    0    0  501    0  0.00000000000E+00  0.00000000000E+00  0.10648474024E+04  0.10648474024E+04  0.50400001928E-02 0. -1.
       -1   -1    0    0    0  501  0.00000000000E+00  0.00000000000E+00 -0.28765373003E+04  0.28765373003E+04  0.50400001928E-02 0.  1.
    10030    2    1    2    0    0  0.00000000000E+00  0.00000000000E+00 -0.18116898979E+04  0.39413847027E+04  0.35003275687E+04 0.  0.
        3    1    3    3  502    0 -0.16468690540E+04 -0.57713682259E+03 -0.10561092682E+04  0.20397625816E+04  0.10100000352E+00 0. -1.
       -3    1    3    3    0  502  0.16468690540E+04  0.57713682259E+03 -0.75558062976E+03  0.19016221210E+04  0.10100000352E+00 0.  1.
</event>
<event>
 5   0  0.3554451E-08  0.3499848E+04  0.7818609E-02  0.8113826E-01
        2   -1    0    0  501    0  0.00000000000E+00  0.00000000000E+00  0.22511901971E+04  0.22511901971E+04  0.25500000920E-02 0. -1.
       -2   -1    0    0    0  501  0.00000000000E+00  0.00000000000E+00 -0.13602733786E+04  0.13602733786E+04  0.25500000920E-02 0.  1.
    10030    2    1    2    0    0  0.00000000000E+00  0.00000000000E+00  0.89091681849E+03  0.36114635757E+04  0.34998480511E+04 0.  0.
        5    1    3    3  502    0 -0.44533033516E+03 -0.18418070519E+03  0.21813595695E+04  0.22339635854E+04  0.46999998093E+01 0. -1.
       -5    1    3    3    0  502  0.44533033516E+03  0.18418070519E+03 -0.12904427510E+04  0.13774999903E+04  0.46999998093E+01 0.  1.
</event>
<event>
 5   0  0.3628017E-08  0.3499223E+04  0.7818609E-02  0.8113974E-01
       -2   -1    0    0    0  501  0.00000000000E+00  0.00000000000E+00  0.13414568034E+04  0.13414568034E+04  0.25500000920E-02 0.  1.
        2   -1    0    0  501    0  0.00000000000E+00  0.00000000000E+00 -0.22819522845E+04  0.22819522845E+04  0.25500000920E-02 0. -1.
    10030    2    1    2    0    0  0.00000000000E+00  0.00000000000E+00 -0.94049548104E+03  0.36234090879E+04  0.34992230092E+04 0.  0.
        1    1    3    3  502    0  0.14501343087E+04  0.97102423175E+03 -0.59859351419E+03  0.18450180940E+04  0.50400001928E-02 0. -1.
       -1    1    3    3    0  502 -0.14501343087E+04 -0.97102423175E+03 -0.34190196685E+03  0.17783909938E+04  0.50400001928E-02 0.  1.
</event>
<event>
 5   0  0.1121462E-08  0.3491915E+04  0.7818609E-02  0.8115709E-01
        1   -1    0    0  501    0  0.00000000000E+00  0.00000000000E+00  0.19183595426E+04  0.19183595426E+04  0.50400001928E-02 0. -1.
       -1   -1    0    0    0  501  0.00000000000E+00  0.00000000000E+00 -0.15890490876E+04  0.15890490877E+04  0.50400001928E-02 0.  1.
    10030    2    1    2    0    0  0.00000000000E+00  0.00000000000E+00  0.32931045495E+03  0.35074086303E+04  0.34919149365E+04 0.  0.
        1    1    3    3  502    0 -0.56744557427E+02  0.14440671734E+04 -0.81939451148E+03  0.16613119248E+04  0.50400001928E-02 0.  1.
       -1    1    3    3    0  502  0.56744557427E+02 -0.14440671734E+04  0.11487049664E+04  0.18460967055E+04  0.50400001928E-02 0. -1.
</event>
<event>
 5   0  0.3553585E-08  0.3497510E+04  0.7818609E-02  0.8114380E-01
        2   -1    0    0  501    0  0.00000000000E+00  0.00000000000E+00  0.10990740523E+04  0.10990740523E+04  0.25500000920E-02 0.  1.
       -2   -1    0    0    0  501  0.00000000000E+00  0.00000000000E+00 -0.27824723642E+04  0.27824723642E+04  0.25500000920E-02 0. -1.
    10030    2    1    2    0    0  0.00000000000E+00  0.00000000000E+00 -0.16833983119E+04  0.38815464165E+04  0.34975095006E+04 0.  0.
        2    1    3    3  502    0 -0.75068118730E+03 -0.14479893645E+04 -0.15417972544E+04  0.22444006367E+04  0.25500000920E-02 0. -1.
       -2    1    3    3    0  502  0.75068118730E+03  0.14479893645E+04 -0.14160105757E+03  0.16371457797E+04  0.25500000920E-02 0.  1.
</event>
<event>
 5   0  0.3554451E-08  0.3495954E+04  0.7818609E-02  0.8114749E-01
       -2   -1    0    0    0  501  0.00000000000E+00  0.00000000000E+00  0.15830176251E+04  0.15830176251E+04  0.25500000920E-02 0. -1.
        2   -1    0    0  501    0  0.00000000000E+00  0.00000000000E+00 -0.19301258904E+04  0.19301258904E+04  0.25500000920E-02 0.  1.
    10030    2    1    2    0    0  0.00000000000E+00  0.00000000000E+00 -0.34710826533E+03  0.35131435155E+04  0.34959538344E+04 0.  0.
        5    1    3    3  502    0 -0.10970128022E+04  0.10118650854E+04  0.74091658802E+03  0.16662195293E+04  0.46999998093E+01 0.  1.
       -5    1    3    3    0  502  0.10970128022E+04 -0.10118650854E+04 -0.10880248534E+04  0.18469239862E+04  0.46999998093E+01 0. -1.
</event>
<event>
 5   0  0.1121462E-08  0.3500176E+04  0.7818609E-02  0.8113748E-01
       -1   -1    0    0    0  501  0.00000000000E+00  0.00000000000E+00  0.21603926395E+04  0.21603926395E+04  0.50400001928E-02 0. -1.
        1   -1    0    0  501    0  0.00000000000E+00  0.00000000000E+00 -0.14177091535E+04  0.14177091535E+04  0.50400001928E-02 0.  1.
    10030    2    1    2    0    0  0.00000000000E+00  0.00000000000E+00  0.74268348603E+03  0.35781017931E+04  0.35001762357E+04 0.  0.
        2    1    3    3  502    0  0.14399911925E+04 -0.62794629855E+02  0.13860587842E+04  0.19996691609E+04  0.25500000920E-02 0. -1.
       -2    1    3    3    0  502 -0.14399911925E+04  0.62794629855E+02 -0.64337529818E+03  0.15784326321E+04  0.25500000920E-02 0.  1.
</event>
<event>
 5   0  0.3553585E-08  0.3499504E+04  0.7818609E-02  0.8113908E-01
        2   -1    0    0  501    0  0.00000000000E+00  0.00000000000E+00  0.16664205760E+04  0.16664205760E+04  0.25500000920E-02 0.  1.
       -2   -1    0    0    0  501  0.00000000000E+00  0.00000000000E+00 -0.18372500054E+04  0.18372500054E+04  0.25500000920E-02 0. -1.
    10030    2    1    2    0    0  0.00000000000E+00  0.00000000000E+00 -0.17082942943E+03  0.35036705814E+04  0.34995035146E+04 0.  0.
        2    1    3    3  502    0  0.11530748148E+04  0.30032209765E+03  0.11974604784E+04  0.16892857923E+04  0.25500000920E-02 0.  1.
       -2    1    3    3    0  502 -0.11530748148E+04 -0.30032209765E+03 -0.13682899078E+04  0.18143847890E+04  0.25500000920E-02 0. -1.
</event>
<event>
 5   0  0.3467834E-08  0.3499854E+04  0.7818609E-02  0.8113825E-01
        2   -1    0    0  501    0  0.00000000000E+00  0.00000000000E+00  0.16848130503E+04  0.16848130503E+04  0.25500000920E-02 0. -1.
       -2   -1    0    0    0  501  0.00000000000E+00  0.00000000000E+00 -0.18175573451E+04  0.18175573451E+04  0.25500000920E-02 0.  1.
    10030    2    1    2    0    0  0.00000000000E+00  0.00000000000E+00 -0.13274429479E+03  0.35023703955E+04  0.34998539026E+04 0.  0.
        3    1    3    3  502    0  0.67316081537E+03 -0.16151793535E+04 -0.83545409603E+02  0.17518360862E+04  0.10100000352E+00 0. -1.
       -3    1    3    3    0  502 -0.67316081537E+03  0.16151793535E+04 -0.49198885188E+02  0.17505343092E+04  0.10100000352E+00 0.  1.
</event>
<event>
 5   0  0.1121462E-08  0.3500815E+04  0.7818609E-02  0.8113597E-01
        3   -1    0    0  501    0  0.00000000000E+00  0.00000000000E+00  0.12438985079E+04  0.12438985120E+04  0.10100000352E+00 0.  1.
       -3   -1    0    0    0  501  0.00000000000E+00  0.00000000000E+00 -0.24631644782E+04  0.24631644802E+04  0.10100000352E+00 0. -1.
    10030    2    1    2    0    0  0.00000000000E+00  0.00000000000E+00 -0.12192659702E+04  0.37070629923E+04  0.35008151226E+04 0.  0.
        5    1    3    3  502    0 -0.16070119819E+04  0.65130188149E+03 -0.86293910491E+03  0.19368447640E+04  0.46999998093E+01 0. -1.
       -5    1    3    3    0  502  0.16070119819E+04 -0.65130188149E+03 -0.35632686531E+03  0.17702182283E+04  0.46999998093E+01 0.  1.
</event>
<event>
 5   0  0.1129219E-08  0.3499602E+04  0.7818609E-02  0.8113884E-01
        1   -1    0    0  501    0  0.00000000000E+00  0.00000000000E+00  0.19843206873E+04  0.19843206873E+04  0.50400001928E-02 0. -1.
       -1   -1    0    0    0  501  0.00000000000E+00  0.00000000000E+00 -0.15429987476E+04  0.15429987476E+04  0.50400001928E-02 0.  1.
    10030    2    1    2    0    0  0.00000000000E+00  0.00000000000E+00  0.44132193976E+03  0.35273194349E+04  0.34996024547E+04 0.  0.
        5    1    3    3  502    0  0.10614911749E+04 -0.51876065463E+03 -0.10802612748E+04  0.16008943260E+04  0.46999998093E+01 0.  1.
       -5    1    3    3    0  502 -0.10614911749E+04  0.51876065463E+03  0.15215832146E+04  0.19264251089E+04  0.46999998093E+01 0. -1.
</event>
<event>
 5   0  0.3628017E-08  0.3499636E+04  0.7818609E-02  0.8113876E-01
        2   -1    0    0  501    0  0.00000000000E+00  0.00000000000E+00  0.24635558268E+04  0.24635558268E+04  0.25500000920E-02 0.  1.
       -2   -1    0    0    0  501  0.00000000000E+00  0.00000000000E+00 -0.12428630979E+04  0.12428630979E+04  0.25500000920E-02 0. -1.
    10030    2    1    2    0    0  0.00000000000E+00  0.00000000000E+00  0.12206927289E+04  0.37064189247E+04  0.34996357678E+04 0.  0.
        1    1    3    3  502    0  0.82165215491E+03  0.54634772679E+02  0.22455182612E+04  0.23917461161E+04  0.50400001928E-02 0.  1.
       -1    1    3    3    0  502 -0.82165215491E+03 -0.54634772679E+02 -0.10248255323E+04  0.13146728087E+04  0.50400001928E-02 0. -1.
</event>
<event>
 5   0  0.1121462E-08  0.3497933E+04  0.7818609E-02  0.8114280E-01
       -1   -1    0    0    0  501  0.00000000000E+00  0.00000000000E+00  0.14063412038E+04  0.14063412038E+04  0.50400001928E-02 0. -1.
        1   -1    0    0  501    0  0.00000000000E+00  0.00000000000E+00 -0.21750656978E+04  0.21750656978E+04  0.50400001928E-02 0.  1.
    10030    2    1    2    0    0  0.00000000000E+00  0.00000000000E+00 -0.76872449395E+03  0.35814069016E+04  0.34979333966E+04 0.  0.
        4    1    3    3  502    0  0.28946594140E+03 -0.12926221061E+04  0.78491536532E+03  0.15397260094E+04  0.12699999809E+01 0. -1.
       -4    1    3    3    0  502 -0.28946594140E+03  0.12926221061E+04 -0.15536398593E+04  0.20416808922E+04  0.12699999809E+01 0.  1.
</event>
<event>
 5   0  0.1121462E-08  0.3504443E+04  0.7818609E-02  0.8112738E-01
        1   -1    0    0  501    0  0.00000000000E+00  0.00000000000E+00  0.19289234688E+04  0.19289234688E+04  0.50400001928E-02 0. -1.
       -1   -1    0    0    0  501  0.00000000000E+00  0.00000000000E+00 -0.15917063915E+04  0.15917063915E+04  0.50400001928E-02 0.  1.
    10030    2    1    2    0    0  0.00000000000E+00  0.00000000000E+00  0.33721707722E+03  0.35206298603E+04  0.35044427883E+04 0.  0.
        2    1    3    3  502    0 -0.14639792769E+04  0.94226650735E+03  0.36745794506E+03  0.17793613560E+04  0.25500000920E-02 0. -1.
       -2    1    3    3    0  502  0.14639792769E+04 -0.94226650735E+03 -0.30240867835E+02  0.17412685043E+04  0.25500000920E-02 0.  1.
</event>
<event>
 5   0  0.3700096E-08  0.3501127E+04  0.7818609E-02  0.8113523E-01
        2   -1    0    0  501    0  0.00000000000E+00  0.00000000000E+00  0.23250762021E+04  0.23250762021E+04  0.25500000920E-02 0.  1.
       -2   -1    0    0    0  501  0.00000000000E+00  0.00000000000E+00 -0.13180098617E+04  0.13180098617E+04  0.25500000920E-02 0. -1.
    10030    2    1    2    0    0  0.00000000000E+00  0.00000000000E+00  0.10070663404E+04  0.36430860638E+04  0.35011274547E+04 0.  0.
        4    1    3    3  502    0  0.48839960551E+03 -0.19132372838E+03  0.22413807261E+04  0.23019400765E+04  0.12699999809E+01 0.  1.
       -4    1    3    3    0  502 -0.48839960551E+03  0.19132372838E+03 -0.12343143857E+04  0.13411459873E+04  0.12699999809E+01 0. -1.
</event>
<event>
 5   0  0.3553585E-08  0.3499253E+04  0.7818609E-02  0.8113967E-01
       -2   -1    0    0    0  501  0.00000000000E+00  0.00000000000E+00  0.21533741237E+04  0.21533741237E+04  0.25500000920E-02 0. -1.
        2   -1    0    0  501    0  0.00000000000E+00  0.00000000000E+00 -0.14215797548E+04  0.14215797548E+04  0.25500000920E-02 0.  1.
    10030    2    1    2    0    0  0.00000000000E+00  0.00000000000E+00  0.73179436899E+03  0.35749538785E+04  0.34992530967E+04 0.  0.
        2    1    3    3  502    0  0.67204741652E+02  0.88358503664E+03 -0.11753661033E+04  0.14719797794E+04  0.25500000920E-02 0.  1.
       -2    1    3    3    0  502 -0.67204741652E+02 -0.88358503664E+03  0.19071604723E+04  0.21029740991E+04  0.25500000920E-02 0. -1.
</event>
<event>
 5   0  0.3554451E-08  0.3497447E+04  0.7818609E-02  0.8114395E-01
       -2   -1    0    0    0  501  0.00000000000E+00  0.00000000000E+00  0.17289467946E+04  0.17289467946E+04  0.25500000920E-02 0. -1.
        2   -1    0    0  501    0  0.00000000000E+00  0.00000000000E+00 -0.17687265999E+04  0.17687265999E+04  0.25500000920E-02 0.  1.
    10030    2    1    2    0    0  0.00000000000E+00  0.00000000000E+00 -0.39779805301E+02  0.34976733946E+04  0.34974471750E+04 0.  0.
        5    1    3    3  502    0  0.14667004350E+04 -0.73244090886E+03  0.58869875425E+03  0.17419150852E+04  0.46999998093E+01 0. -1.
       -5    1    3    3    0  502 -0.14667004350E+04  0.73244090886E+03 -0.62847855955E+03  0.17557583093E+04  0.46999998093E+01 0.  1.
</event>
<event>
 5   0  0.1121462E-08  0.3502181E+04  0.7818609E-02  0.8113273E-01
        1   -1    0    0  501    0  0.00000000000E+00  0.00000000000E+00  0.15002907339E+04  0.15002907339E+04  0.50400001928E-02 0. -1.
       -1   -1    0    0    0  501  0.00000000000E+00  0.00000000000E+00 -0.20438163303E+04  0.20438163303E+04  0.50400001928E-02 0.  1.
    10030    2    1    2    0    0  0.00000000000E+00  0.00000000000E+00 -0.54352559643E+03  0.35441070642E+04  0.35021814357E+04 0.  0.
        2    1    3    3  502    0 -0.59913943497E+03  0.82797244788E+03 -0.17106892784E+04  0.19927278399E+04  0.25500000920E-02 0.  1.
       -2    1    3    3    0  502  0.59913943497E+03 -0.82797244788E+03  0.11671636819E+04  0.15513792242E+04  0.25500000920E-02 0. -1.
</event>
<event>
 5   0  0.3700096E-08  0.3500411E+04  0.7818609E-02  0.8113693E-01
        2   -1    0    0  501    0  0.00000000000E+00  0.00000000000E+00  0.20549282226E+04  0.20549282226E+04  0.25500000920E-02 0. -1.
       -2   -1    0    0    0  501  0.00000000000E+00  0.00000000000E+00 -0.14906695177E+04  0.14906695177E+04  0.25500000920E-02 0.  1.
    10030    2    1    2    0    0  0.00000000000E+00  0.00000000000E+00  0.56425870490E+03  0.35455977402E+04  0.35004107544E+04 0.  0.
        4    1    3    3  502    0 -0.11045350060E+04 -0.11303114560E+04  0.10439121715E+04  0.18940316264E+04  0.12699999809E+01 0. -1.
       -4    1    3    3    0  502  0.11045350060E+04  0.11303114560E+04 -0.47965346664E+03  0.16515661138E+04  0.12699999809E+01 0.  1.
</event>
<event>
 5   0  0.3467834E-08  0.3500969E+04  0.7818609E-02  0.8113560E-01
       -2   -1    0    0    0  501  0.00000000000E+00  0.00000000000E+00  0.28369634621E+04  0.28369634621E+04  0.25500000920E-02 0.  1.
        2   -1    0    0  501    0  0.00000000000E+00  0.00000000000E+00 -0.10800968681E+04  0.10800968681E+04  0.25500000920E-02 0. -1.
    10030    2    1    2    0    0  0.00000000000E+00  0.00000000000E+00  0.17568665940E+04  0.39170603303E+04  0.35009686377E+04 0.  0.
        3    1    3    3  502    0  0.13834723389E+04 -0.35699183008E+03 -0.25307607684E+03  0.14510294243E+04  0.10100000352E+00 0. -1.
       -3    1    3    3    0  502 -0.13834723389E+04  0.35699183008E+03  0.20099426708E+04  0.24660309060E+04  0.10100000352E+00 0.  1.
</event>
<event>
 5   0  0.1129219E-08  0.3499660E+04  0.7818609E-02  0.8113871E-01
       -1   -1    0    0    0  501  0.00000000000E+00  0.00000000000E+00  0.11404447829E+04  0.11404447829E+04  0.50400001928E-02 0. -1.
        1   -1    0    0  501    0  0.00000000000E+00  0.00000000000E+00 -0.26848335056E+04  0.26848335056E+04  0.50400001928E-02 0.  1.
    10030    2    1    2    0    0  0.00000000000E+00  0.00000000000E+00 -0.15443887227E+04  0.38252782886E+04  0.34996596203E+04 0.  0.
        5    1    3    3  502    0 -0.11962443313E+04  0.51729213908E+03 -0.20484317154E+04  0.24278974937E+04  0.46999998093E+01 0.  1.
       -5    1    3    3    0  502  0.11962443313E+04 -0.51729213908E+03  0.50404299273E+03  0.13973807948E+04  0.46999998093E+01 0. -1.
</event>
<event>
 5   0  0.3467834E-08  0.3500855E+04  0.7818609E-02  0.8113587E-01
       -2   -1    0    0    0  501  0.00000000000E+00  0.00000000000E+00  0.17300265509E+04  0.17300265509E+04  0.25500000920E-02 0.  1.
        2   -1    0    0  501    0  0.00000000000E+00  0.00000000000E+00 -0.17710691622E+04  0.17710691622E+04  0.25500000920E-02 0. -1.
    10030    2    1    2    0    0  0.00000000000E+00  0.00000000000E+00 -0.41042611298E+02  0.35010957132E+04  0.35008551379E+04 0.  0.
        3    1    3    3  502    0 -0.45554623373E+03 -0.99343566319E+03  0.13468911535E+04  0.17345179669E+04  0.10100000352E+00 0.  1.
       -3    1    3    3    0  502  0.45554623373E+03  0.99343566319E+03 -0.13879337648E+04  0.17665777463E+04  0.10100000352E+00 0. -1.
</event>
<event>
 5   0  0.1121462E-08  0.3501632E+04  0.7818609E-02  0.8113403E-01
       -1   -1    0    0    0  501  0.00000000000E+00  0.00000000000E+00  0.32455702393E+04  0.32455702393E+04  0.50400001928E-02 0. -1.
        1   -1    0    0  501    0  0.00000000000E+00  0.00000000000E+00 -0.94447385646E+03  0.94447385647E+03  0.50400001928E-02 0.  1.
    10030    2    1    2    0    0  0.00000000000E+00  0.00000000000E+00  0.23010963828E+04  0.41900440958E+04  0.35016317570E+04 0.  0.
        2    1    3    3  502    0 -0.87145737377E+03  0.15181687112E+04  0.11111866691E+04  0.20734054122E+04  0.25500000920E-02 0.  1.
       -2    1    3    3    0  502  0.87145737377E+03 -0.15181687112E+04  0.11899097138E+04  0.21166386836E+04  0.25500000920E-02 0. -1.
</event>
<event>
 5   0  0.1121462E-08  0.3500596E+04  0.7818609E-02  0.8113649E-01
       -1   -1    0    0    0  501  0.00000000000E+00  0.00000000000E+00  0.19752772090E+04  0.19752772090E+04  0.50400001928E-02 0. -1.
        1   -1    0    0  501    0  0.00000000000E+00  0.00000000000E+00 -0.15509433407E+04  0.15509433407E+04  0.50400001928E-02 0.  1.
    10030    2    1    2    0    0  0.00000000000E+00  0.00000000000E+00  0.42433386826E+03  0.35262205497E+04  0.35005959683E+04 0.  0.
        1    1    3    3  502    0 -0.13148535490E+04  0.53780515101E+03 -0.81779938147E+03  0.16391674912E+04  0.50400001928E-02 0.  1.
       -1    1    3    3    0  502  0.13148535490E+04 -0.53780515101E+03  0.12421332497E+04  0.18870530586E+04  0.50400001928E-02 0. -1.
</event>
<event>
 5   0  0.3700096E-08  0.3500222E+04  0.7818609E-02  0.8113737E-01
       -2   -1    0    0    0  501  0.00000000000E+00  0.00000000000E+00  0.12622256262E+04  0.12622256262E+04  0.25500000920E-02 0. -1.
        2   -1    0    0  501    0  0.00000000000E+00  0.00000000000E+00 -0.24265773146E+04  0.24265773146E+04  0.25500000920E-02 0.  1.
    10030    2    1    2    0    0  0.00000000000E+00  0.00000000000E+00 -0.11643516884E+04  0.36888029408E+04  0.35002217475E+04 0.  0.
        4    1    3    3  502    0  0.99799946415E+03  0.58705752624E+03 -0.19652249925E+04  0.22809538254E+04  0.12699999809E+01 0.  1.
       -4    1    3    3    0  502 -0.99799946415E+03 -0.58705752624E+03  0.80087330415E+03  0.14078491154E+04  0.12699999809E+01 0. -1.
</event>
<event>
 5   0  0.3700096E-08  0.3500103E+04  0.7818609E-02  0.8113765E-01
       -2   -1    0    0    0  501  0.00000000000E+00  0.00000000000E+00  0.15517509105E+04  0.15517509105E+04  0.25500000920E-02 0.  1.
        2   -1    0    0  501    0  0.00000000000E+00  0.00000000000E+00 -0.19736936829E+04  0.19736936829E+04  0.25500000920E-02 0. -1.
    10030    2    1    2    0    0  0.00000000000E+00  0.00000000000E+00 -0.42194277240E+03  0.35254445935E+04  0.35001034097E+04 0.  0.
        4    1    3    3  502    0  0.81100693346E+03 -0.69998582289E+03 -0.16048137508E+04  0.19295442949E+04  0.12699999809E+01 0. -1.
       -4    1    3    3    0  502 -0.81100693346E+03  0.69998582289E+03  0.11828709784E+04  0.15959002985E+04  0.12699999809E+01 0.  1.
</event>
<event>
 5   0  0.3700096E-08  0.3490526E+04  0.7818609E-02  0.8116039E-01
        2   -1    0    0  501    0  0.00000000000E+00  0.00000000000E+00  0.26010205251E+04  0.26010205251E+04  0.25500000920E-02 0. -1.
       -2   -1    0    0    0  501  0.00000000000E+00  0.00000000000E+00 -0.11710570934E+04  0.11710570934E+04  0.25500000920E-02 0.  1.
    10030    2    1    2    0    0  0.00000000000E+00  0.00000000000E+00  0.14299634317E+04  0.37720776185E+04  0.34905263419E+04 0.  0.
        4    1    3    3  502    0  0.10202575414E+04  0.11860569618E+04 -0.12089819384E+03  0.15691636478E+04  0.12699999809E+01 0.  1.
       -4    1    3    3    0  502 -0.10202575414E+04 -0.11860569618E+04  0.15508616256E+04  0.22029139707E+04  0.12699999809E+01 0. -1.
</event>
<event>
 5   0  0.1140808E-08  0.3482406E+04  0.7818609E-02  0.8117972E-01
        1   -1    0    0  501    0  0.00000000000E+00  0.00000000000E+00  0.25920291714E+04  0.25920291714E+04  0.50400001928E-02 0.  1.
       -1   -1    0    0    0  501  0.00000000000E+00  0.00000000000E+00 -0.11696584160E+04  0.11696584160E+04  0.50400001928E-02 0. -1.
    10030    2    1    2    0    0  0.00000000000E+00  0.00000000000E+00  0.14223707554E+04  0.37616875875E+04  0.34824064869E+04 0.  0.
        3    1    3    3  502    0  0.87868325869E+02  0.11789795483E+04  0.20920123698E+04  0.24029626264E+04  0.10100000352E+00 0.  1.
       -3    1    3    3    0  502 -0.87868325869E+02 -0.11789795483E+04 -0.66964161441E+03  0.13587249611E+04  0.10100000352E+00 0. -1.
</event>
<event>
 5   0  0.3467834E-08  0.3499349E+04  0.7818609E-02  0.8113944E-01
       -2   -1    0    0    0  501  0.00000000000E+00  0.00000000000E+00  0.33747921733E+04  0.33747921733E+04  0.25500000920E-02 0. -1.
        2   -1    0    0  501    0  0.00000000000E+00  0.00000000000E+00 -0.90712570977E+03  0.90712570977E+03  0.25500000920E-02 0.  1.
    10030    2    1    2    0    0  0.00000000000E+00  0.00000000000E+00  0.24676664635E+04  0.42819178831E+04  0.34993489369E+04 0.  0.
        3    1    3    3  502    0 -0.24260324473E+01 -0.16831513298E+04  0.18185663958E+04  0.24779402799E+04  0.10100000352E+00 0. -1.
       -3    1    3    3    0  502  0.24260324473E+01  0.16831513298E+04  0.64910006770E+03  0.18039776032E+04  0.10100000352E+00 0.  1.
</event>
<event>
 5   0  0.3467834E-08  0.3499570E+04  0.7818609E-02  0.8113892E-01
        2   -1    0    0  501    0  0.00000000000E+00  0.00000000000E+00  0.20377542351E+04  0.20377542351E+04  0.25500000920E-02 0.  1.
       -2   -1    0    0    0  501  0.00000000000E+00  0.00000000000E+00 -0.15025109826E+04  0.15025109826E+04  0.25500000920E-02 0. -1.
    10030    2    1    2    0    0  0.00000000000E+00  0.00000000000E+00  0.53524325254E+03  0.35402652177E+04  0.34995703268E+04 0.  0.
        3    1    3    3  502    0  0.77638396213E+03 -0.77395416462E+03  0.16472882543E+04  0.19787207253E+04  0.10100000352E+00 0.  1.
       -3    1    3    3    0  502 -0.77638396213E+03  0.77395416462E+03 -0.11120450018E+04  0.15615444924E+04  0.10100000352E+00 0. -1.
</event>
<event>
 5   0  0.1121462E-08  0.3499949E+04  0.7818609E-02  0.8113802E-01
        1   -1    0    0  501    0  0.00000000000E+00  0.00000000000E+00  0.18400257280E+04  0.18400257281E+04  0.50400001928E-02 0.  1.
       -1   -1    0    0    0  501  0.00000000000E+00  0.00000000000E+00 -0.16643301317E+04  0.16643301317E+04  0.50400001928E-02 0. -1.
    10030    2    1    2    0    0  0.00000000000E+00  0.00000000000E+00  0.17569559636E+03  0.35043558597E+04  0.34999487209E+04 0.  0.
        2    1    3    3  502    0 -0.13408043862E+04  0.84051673825E+01  0.12138007045E+04  0.18086290939E+04  0.25500000920E-02 0.  1.
       -2    1    3    3    0  502  0.13408043862E+04 -0.84051673825E+01 -0.10381051082E+04  0.16957267659E+04  0.25500000920E-02 0. -1.
</event>
<event>
 5   0  0.1121462E-08  0.3501738E+04  0.7818609E-02  0.8113378E-01
       -1   -1    0    0    0  501  0.00000000000E+00  0.00000000000E+00  0.14013744486E+04  0.14013744486E+04  0.50400001928E-02 0. -1.
        1   -1    0    0  501    0  0.00000000000E+00  0.00000000000E+00 -0.21875250754E+04  0.21875250755E+04  0.50400001928E-02 0.  1.
    10030    2    1    2    0    0  0.00000000000E+00  0.00000000000E+00 -0.78615062681E+03  0.35888995241E+04  0.35017377095E+04 0.  0.
        1    1    3    3  502    0  0.27863986074E+03 -0.53930337699E+03  0.12900732970E+04  0.14257550337E+04  0.50400001928E-02 0. -1.
       -1    1    3    3    0  502 -0.27863986074E+03  0.53930337699E+03 -0.20762239238E+04  0.21631444904E+04  0.50400001928E-02 0.  1.
</event>
<event>
 5   0  0.1121462E-08  0.3510407E+04  0.7818609E-02  0.8111328E-01
       -1   -1    0    0    0  501  0.00000000000E+00  0.00000000000E+00  0.16942202267E+04  0.16942202267E+04  0.50400001928E-02 0.  1.
        1   -1    0    0  501    0  0.00000000000E+00  0.00000000000E+00 -0.18183813740E+04  0.18183813740E+04  0.50400001928E-02 0. -1.
    10030    2    1    2    0    0  0.00000000000E+00  0.00000000000E+00 -0.12416114731E+03  0.35126016006E+04  0.35104065312E+04 0.  0.
        2    1    3    3  502    0  0.11873126202E+04  0.47895577834E+03 -0.12635097569E+04  0.17987681344E+04  0.25500000920E-02 0. -1.
       -2    1    3    3    0  502 -0.11873126202E+04 -0.47895577834E+03  0.11393486096E+04  0.17138334662E+04  0.25500000920E-02 0.  1.
</event>
<event>
 5   0  0.3467834E-08  0.3498751E+04  0.7818609E-02  0.8114086E-01
       -2   -1    0    0    0  501  0.00000000000E+00  0.00000000000E+00  0.13414355597E+04  0.13414355597E+04  0.25500000920E-02 0.  1.
        2   -1    0    0  501    0  0.00000000000E+00  0.00000000000E+00 -0.22813722177E+04  0.22813722177E+04  0.25500000920E-02 0. -1.
    10030    2    1    2    0    0  0.00000000000E+00  0.00000000000E+00 -0.93993665802E+03  0.36228077774E+04  0.34987505300E+04 0.  0.
        3    1    3    3  502    0 -0.31174086268E+03  0.44094121947E+03 -0.21929094788E+04  0.22584205801E+04  0.10100000352E+00 0. -1.
       -3    1    3    3    0  502  0.31174086268E+03 -0.44094121947E+03  0.12529728207E+04  0.13643871973E+04  0.10100000352E+00 0.  1.
</event>
<event>
 5   0  0.1121462E-08  0.3497886E+04  0.7818609E-02  0.8114291E-01
        1   -1    0    0  501    0  0.00000000000E+00  0.00000000000E+00  0.10175221855E+04  0.10175221855E+04  0.50400001928E-02 0.  1.
       -1   -1    0    0    0  501  0.00000000000E+00  0.00000000000E+00 -0.30061280506E+04  0.30061280506E+04  0.50400001928E-02 0. -1.
    10030    2    1    2    0    0  0.00000000000E+00  0.00000000000E+00 -0.19886058652E+04  0.40236502361E+04  0.34978862096E+04 0.  0.
        2    1    3    3  502    0 -0.16297756424E+03  0.95886875698E+03  0.67773016358E+03  0.11854573608E+04  0.25500000920E-02 0.  1.
       -2    1    3    3    0  502  0.16297756424E+03 -0.95886875698E+03 -0.26663360287E+04  0.28381928754E+04  0.25500000920E-02 0. -1.
</event>
<event>
 5   0  0.3700096E-08  0.3499075E+04  0.7818609E-02  0.8114009E-01
       -2   -1    0    0    0  501  0.00000000000E+00  0.00000000000E+00  0.12051287647E+04  0.12051287647E+04  0.25500000920E-02 0. -1.
        2   -1    0    0  501    0  0.00000000000E+00  0.00000000000E+00 -0.25398790240E+04  0.25398790240E+04  0.25500000920E-02 0.  1.
    10030    2    1    2    0    0  0.00000000000E+00  0.00000000000E+00 -0.13347502593E+04  0.37450077887E+04  0.34990748896E+04 0.  0.
        4    1    3    3  502    0  0.17342218996E+04 -0.12714084882E+03 -0.87377446148E+03  0.19460662412E+04  0.12699999809E+01 0.  1.
       -4    1    3    3    0  502 -0.17342218996E+04  0.12714084882E+03 -0.46097579779E+03  0.17989415476E+04  0.12699999809E+01 0. -1.
</event>
<event>
 5   0  0.1140808E-08  0.3500099E+04  0.7818609E-02  0.8113767E-01
        1   -1    0    0  501    0  0.00000000000E+00  0.00000000000E+00  0.16961685139E+04  0.16961685139E+04  0.50400001928E-02 0. -1.
       -1   -1    0    0    0  501  0.00000000000E+00  0.00000000000E+00 -0.18056419741E+04  0.18056419741E+04  0.50400001928E-02 0.  1.
    10030    2    1    2    0    0  0.00000000000E+00  0.00000000000E+00 -0.10947346021E+03  0.35018104881E+04  0.35000988923E+04 0.  0.
        3    1    3    3  502    0 -0.15634581054E+04  0.70254159800E+03  0.29857489767E+03  0.17398600300E+04  0.10100000352E+00 0. -1.
       -3    1    3    3    0  502  0.15634581054E+04 -0.70254159800E+03 -0.40804835787E+03  0.17619504581E+04  0.10100000352E+00 0.  1.
</event>
<event>
 5   0  0.1121462E-08  0.3498188E+04  0.7818609E-02  0.8114219E-01
        1   -1    0    0  501    0  0.00000000000E+00  0.00000000000E+00  0.19846823297E+04  0.19846823297E+04  0.50400001928E-02 0.  1.
       -1   -1    0    0    0  501  0.00000000000E+00  0.00000000000E+00 -0.15414708892E+04  0.15414708892E+04  0.50400001928E-02 0. -1.
    10030    2    1    2    0    0  0.00000000000E+00  0.00000000000E+00  0.44321144050E+03  0.35261532190E+04  0.34981881228E+04 0.  0.
        1    1    3    3  502    0  0.59078478779E+03  0.12992369022E+04 -0.79755905260E+03  0.16349751178E+04  0.50400001928E-02 0. -1.
       -1    1    3    3    0  502 -0.59078478779E+03 -0.12992369022E+04  0.12407704931E+04  0.18911781011E+04  0.50400001928E-02 0.  1.
</event>
<event>
 5   0  0.3700096E-08  0.3499699E+04  0.7818609E-02  0.8113861E-01
       -2   -1    0    0    0  501  0.00000000000E+00  0.00000000000E+00  0.14575207079E+04  0.14575207079E+04  0.25500000920E-02 0. -1.
        2   -1    0    0  501    0  0.00000000000E+00  0.00000000000E+00 -0.21008088736E+04  0.21008088736E+04  0.25500000920E-02 0.  1.
    10030    2    1    2    0    0  0.00000000000E+00  0.00000000000E+00 -0.64328816566E+03  0.35583295815E+04  0.34996985222E+04 0.  0.
        4    1    3    3  502    0 -0.71140368444E+03 -0.95972015920E+03  0.97837448907E+03  0.15441425582E+04  0.12699999809E+01 0. -1.
       -4    1    3    3    0  502  0.71140368444E+03  0.95972015920E+03 -0.16216626547E+04  0.20141870233E+04  0.12699999809E+01 0.  1.
</event>
<event>
 5   0  0.3554451E-08  0.3499810E+04  0.7818609E-02  0.8113835E-01
       -2   -1    0    0    0  501  0.00000000000E+00  0.00000000000E+00  0.22236718412E+04  0.22236718412E+04  0.25500000920E-02 0.  1.
        2   -1    0    0  501    0  0.00000000000E+00  0.00000000000E+00 -0.13770769105E+04  0.13770769105E+04  0.25500000920E-02 0. -1.
    10030    2    1    2    0    0  0.00000000000E+00  0.00000000000E+00  0.84659493066E+03  0.36007487517E+04  0.34998097943E+04 0.  0.
        5    1    3    3  502    0 -0.15112235190E+04  0.63535506646E+03 -0.20646137232E+03  0.16523077719E+04  0.46999998093E+01 0. -1.
       -5    1    3    3    0  502  0.15112235190E+04 -0.63535506646E+03  0.10530563030E+04  0.19484409799E+04  0.46999998093E+01 0.  1.
</event>
<event>
 5   0  0.1121462E-08  0.3501956E+04  0.7818609E-02  0.8113327E-01
       -1   -1    0    0    0  501  0.00000000000E+00  0.00000000000E+00  0.14485782068E+04  0.14485782069E+04  0.50400001928E-02 0. -1.
        1   -1    0    0  501    0  0.00000000000E+00  0.00000000000E+00 -0.21165058214E+04  0.21165058214E+04  0.50400001928E-02 0.  1.
    10030    2    1    2    0    0  0.00000000000E+00  0.00000000000E+00 -0.66792761451E+03  0.35650840282E+04  0.35019561434E+04 0.  0.
        2    1    3    3  502    0 -0.45979280756E+03 -0.14641434355E+04  0.52432293690E+03  0.16217397965E+04  0.25500000920E-02 0. -1.
       -2    1    3    3    0  502  0.45979280756E+03  0.14641434355E+04 -0.11922505514E+04  0.19433442317E+04  0.25500000920E-02 0.  1.
</event>
<event>
 5   0  0.1121462E-08  0.3490960E+04  0.7818609E-02  0.8115936E-01
        1   -1    0    0  501    0  0.00000000000E+00  0.00000000000E+00  0.28299970652E+04  0.28299970652E+04  0.50400001928E-02 0. -1.
       -1   -1    0    0    0  501  0.00000000000E+00  0.00000000000E+00 -0.10765737431E+04  0.10765737431E+04  0.50400001928E-02 0.  1.
    10030    2    1    2    0    0  0.00000000000E+00  0.00000000000E+00  0.17534233221E+04  0.39065708083E+04  0.34909600590E+04 0.  0.
        4    1    3    3  502    0  0.68602632882E+03 -0.53099270482E+03  0.25716670613E+04  0.27140483532E+04  0.12699999809E+01 0. -1.
       -4    1    3    3    0  502 -0.68602632882E+03  0.53099270482E+03 -0.81824373914E+03  0.11925224551E+04  0.12699999809E+01 0.  1.
</event>
<event>
 5   0  0.1121462E-08  0.3505282E+04  0.7818609E-02  0.8112539E-01
       -1   -1    0    0    0  501  0.00000000000E+00  0.00000000000E+00  0.31017740596E+04  0.31017740596E+04  0.50400001928E-02 0.  1.
        1   -1    0    0  501    0  0.00000000000E+00  0.00000000000E+00 -0.99032066835E+03  0.99032066836E+03  0.50400001928E-02 0. -1.
    10030    2    1    2    0    0  0.00000000000E+00  0.00000000000E+00  0.21114533913E+04  0.40920947280E+04  0.35052822767E+04 0.  0.
        1    1    3    3  502    0  0.97556183157E+03  0.29840216421E+02 -0.64370012752E+03  0.11691711508E+04  0.50400001928E-02 0. -1.
       -1    1    3    3    0  502 -0.97556183157E+03 -0.29840216421E+02  0.27551535188E+04  0.29229235772E+04  0.50400001928E-02 0.  1.
</event>
<event>
 5   0  0.1129219E-08  0.3500100E+04  0.7818609E-02  0.8113766E-01
        1   -1    0    0  501    0  0.00000000000E+00  0.00000000000E+00  0.24447566678E+04  0.24447566678E+04  0.50400001928E-02 0. -1.
       -1   -1    0    0    0  501  0.00000000000E+00  0.00000000000E+00 -0.12527521597E+04  0.12527521597E+04  0.50400001928E-02 0.  1.
    10030    2    1    2    0    0  0.00000000000E+00  0.00000000000E+00  0.11920045081E+04  0.36975088275E+04  0.35000995389E+04 0.  0.
        5    1    3    3  502    0 -0.57899407749E+03 -0.76349138598E+03  0.21430073159E+04  0.23474785802E+04  0.46999998093E+01 0. -1.
       -5    1    3    3    0  502  0.57899407749E+03  0.76349138598E+03 -0.95100280781E+03  0.13500302473E+04  0.46999998093E+01 0.  1.
</event>
<event>
 5   0  0.1140808E-08  0.3499046E+04  0.7818609E-02  0.8114016E-01
        1   -1    0    0  501    0  0.00000000000E+00  0.00000000000E+00  0.17197563337E+04  0.17197563337E+04  0.50400001928E-02 0. -1.
       -1   -1    0    0    0  501  0.00000000000E+00  0.00000000000E+00 -0.17798046592E+04  0.17798046592E+04  0.50400001928E-02 0.  1.
    10030    2    1    2    0    0  0.00000000000E+00  0.00000000000E+00 -0.60048325481E+02  0.34995609930E+04  0.34990457759E+04 0.  0.
        3    1    3    3  502    0 -0.48303696832E+03  0.13451724325E+04  0.97909255855E+03  0.17324652477E+04  0.10100000352E+00 0. -1.
       -3    1    3    3    0  502  0.48303696832E+03 -0.13451724325E+04 -0.10391408840E+04  0.17670957453E+04  0.10100000352E+00 0.  1.
</event>
<event>
 5   0  0.3628017E-08  0.3502164E+04  0.7818609E-02  0.8113277E-01
        2   -1    0    0  501    0  0.00000000000E+00  0.00000000000E+00  0.97589273464E+03  0.97589273464E+03  0.25500000920E-02 0. -1.
       -2   -1    0    0    0  501  0.00000000000E+00  0.00000000000E+00 -0.31420343665E+04  0.31420343665E+04  0.25500000920E-02 0.  1.
    10030    2    1    2    0    0  0.00000000000E+00  0.00000000000E+00 -0.21661416319E+04  0.41179271011E+04  0.35021641939E+04 0.  0.
        1    1    3    3  502    0  0.18365373619E+03  0.37854105782E+03 -0.30817171458E+04  0.31103058682E+04  0.50400001928E-02 0.  1.
       -1    1    3    3    0  502 -0.18365373619E+03 -0.37854105782E+03  0.91557551393E+03  0.10076212329E+04  0.50400001928E-02 0. -1.
</event>
<event>
 5   0  0.1129219E-08  0.3500469E+04  0.7818609E-02  0.8113679E-01
       -1   -1    0    0    0  501  0.00000000000E+00  0.00000000000E+00  0.12651588761E+04  0.12651588761E+04  0.50400001928E-02 0. -1.
        1   -1    0    0  501    0  0.00000000000E+00  0.00000000000E+00 -0.24212928041E+04  0.24212928041E+04  0.50400001928E-02 0.  1.
    10030    2    1    2    0    0  0.00000000000E+00  0.00000000000E+00 -0.11561339280E+04  0.36864516802E+04  0.35004685874E+04 0.  0.
        5    1    3    3  502    0  0.39905727138E+02  0.89542030583E+03 -0.21612446596E+04  0.23397372844E+04  0.46999998093E+01 0.  1.
       -5    1    3    3    0  502 -0.39905727138E+02 -0.89542030583E+03  0.10051107316E+04  0.13467143959E+04  0.46999998093E+01 0. -1.
</event>
<event>
 5   0  0.1121462E-08  0.3493650E+04  0.7818609E-02  0.8115297E-01
       -1   -1    0    0    0  501  0.00000000000E+00  0.00000000000E+00  0.28279918204E+04  0.28279918204E+04  0.50400001928E-02 0.  1.
        1   -1    0    0  501    0  0.00000000000E+00  0.00000000000E+00 -0.10789977716E+04  0.10789977716E+04  0.50400001928E-02 0. -1.
    10030    2    1    2    0    0  0.00000000000E+00  0.00000000000E+00  0.17489940488E+04  0.39069895919E+04  0.34936495944E+04 0.  0.
        1    1    3    3  502    0  0.80195435479E+03 -0.17274593741E+02 -0.86085759582E+03  0.11766499051E+04  0.50400001928E-02 0. -1.
       -1    1    3    3    0  502 -0.80195435479E+03  0.17274593741E+02  0.26098516446E+04  0.27303396869E+04  0.50400001928E-02 0.  1.
</event>
<event>
 5   0  0.1140808E-08  0.3501443E+04  0.7818609E-02  0.8113448E-01
        1   -1    0    0  501    0  0.00000000000E+00  0.00000000000E+00  0.20475941483E+04  0.20475941483E+04  0.50400001928E-02 0. -1.
       -1   -1    0    0    0  501  0.00000000000E+00  0.00000000000E+00 -0.14968909401E+04  0.14968909401E+04  0.50400001928E-02 0.  1.
    10030    2    1    2    0    0  0.00000000000E+00  0.00000000000E+00  0.55070320814E+03  0.35444850884E+04  0.35014426339E+04 0.  0.
        3    1    3    3  502    0  0.15666278920E+04 -0.72147879202E+03  0.57932699473E+03  0.18194709056E+04  0.10100000352E+00 0.  1.
       -3    1    3    3    0  502 -0.15666278920E+04  0.72147879202E+03 -0.28623786583E+02  0.17250141828E+04  0.10100000352E+00 0. -1.
</event>
<event>
 5   0  0.1121462E-08  0.3500083E+04  0.7818609E-02  0.8113770E-01
       -1   -1    0    0    0  501  0.00000000000E+00  0.00000000000E+00  0.12806779648E+04  0.12806779648E+04  0.50400001928E-02 0.  1.
        1   -1    0    0  501    0  0.00000000000E+00  0.00000000000E+00 -0.23914255733E+04  0.23914255734E+04  0.50400001928E-02 0. -1.
    10030    2    1    2    0    0  0.00000000000E+00  0.00000000000E+00 -0.11107476086E+04  0.36721035382E+04  0.35000834483E+04 0.  0.
        4    1    3    3  502    0  0.12121752334E+04  0.11617904089E+04 -0.37644612398E+02  0.16794476712E+04  0.12699999809E+01 0.  1.
       -4    1    3    3    0  502 -0.12121752334E+04 -0.11617904089E+04 -0.10731029962E+04  0.19926558669E+04  0.12699999809E+01 0. -1.
</event>
<event>
 5   0  0.1140808E-08  0.3496225E+04  0.7818609E-02  0.8114685E-01
       -1   -1    0    0    0  501  0.00000000000E+00  0.00000000000E+00  0.10402875919E+04  0.10402875919E+04  0.50400001928E-02 0.  1.
        1   -1    0    0  501    0  0.00000000000E+00  0.00000000000E+00 -0.29375500073E+04  0.29375500073E+04  0.50400001928E-02 0. -1.
    10030    2    1    2    0    0  0.00000000000E+00  0.00000000000E+00 -0.18972624155E+04  0.39778375992E+04  0.34962247200E+04 0.  0.
        3    1    3    3  502    0  0.65540570786E+03 -0.12397781499E+04 -0.21360926851E+04  0.25552883344E+04  0.10100000352E+00 0. -1.
       -3    1    3    3    0  502 -0.65540570786E+03  0.12397781499E+04  0.23883026958E+03  0.14225492648E+04  0.10100000352E+00 0.  1.
</event>
<event>
 5   0  0.3628017E-08  0.3500042E+04  0.7818609E-02  0.8113780E-01
       -2   -1    0    0    0  501  0.00000000000E+00  0.00000000000E+00  0.12250037699E+04  0.12250037699E+04  0.25500000920E-02 0.  1.
        2   -1    0    0  501    0  0.00000000000E+00  0.00000000000E+00 -0.25000516814E+04  0.25000516814E+04  0.25500000920E-02 0. -1.
    10030    2    1    2    0    0  0.00000000000E+00  0.00000000000E+00 -0.12750479115E+04  0.37250554512E+04  0.35000415624E+04 0.  0.
        1    1    3    3  502    0 -0.10180357880E+04 -0.53090101782E+03  0.76811122392E+03  0.13813933577E+04  0.50400001928E-02 0.  1.
       -1    1    3    3    0  502  0.10180357880E+04  0.53090101782E+03 -0.20431591354E+04  0.23436620936E+04  0.50400001928E-02 0. -1.
</event>
<event>
 5   0  0.3554451E-08  0.3500087E+04  0.7818609E-02  0.8113769E-01
        2   -1    0    0  501    0  0.00000000000E+00  0.00000000000E+00  0.15890089931E+04  0.15890089931E+04  0.25500000920E-02 0. -1.
       -2   -1    0    0    0  501  0.00000000000E+00  0.00000000000E+00 -0.19273974951E+04  0.19273974951E+04  0.25500000920E-02 0.  1.
    10030    2    1    2    0    0  0.00000000000E+00  0.00000000000E+00 -0.33838850192E+03  0.35164064882E+04  0.35000868292E+04 0.  0.
        5    1    3    3  502    0 -0.35845105023E+03  0.12894515464E+04 -0.13020410039E+04  0.18672186031E+04  0.46999998093E+01 0.  1.
       -5    1    3    3    0  502  0.35845105023E+03 -0.12894515464E+04  0.96365250200E+03  0.16491878851E+04  0.46999998093E+01 0. -1.
</event>
<event>
 5   0  0.1140808E-08  0.3499697E+04  0.7818609E-02  0.8113862E-01
       -1   -1    0    0    0  501  0.00000000000E+00  0.00000000000E+00  0.14799122031E+04  0.14799122031E+04  0.50400001928E-02 0.  1.
        1   -1    0    0  501    0  0.00000000000E+00  0.00000000000E+00 -0.20690217437E+04  0.20690217437E+04  0.50400001928E-02 0. -1.
    10030    2    1    2    0    0  0.00000000000E+00  0.00000000000E+00 -0.58910954065E+03  0.35489339468E+04  0.34996974309E+04 0.  0.
        3    1    3    3  502    0 -0.11472186010E+04  0.10198084644E+04 -0.11465238644E+04  0.19158906035E+04  0.10100000352E+00 0. -1.
       -3    1    3    3    0  502  0.11472186010E+04 -0.10198084644E+04  0.55741432378E+03  0.16330433433E+04  0.10100000352E+00 0.  1.
</event>
<event>
 5   0  0.1121462E-08  0.3500059E+04  0.7818609E-02  0.8113776E-01
       -1   -1    0    0    0  501  0.00000000000E+00  0.00000000000E+00  0.13628558309E+04  0.13628558309E+04  0.50400001928E-02 0.  1.
        1   -1    0    0  501    0  0.00000000000E+00  0.00000000000E+00 -0.22471949220E+04  0.22471949221E+04  0.50400001928E-02 0. -1.
    10030    2    1    2    0    0  0.00000000000E+00  0.00000000000E+00 -0.88433909114E+03  0.36100507530E+04  0.35000586868E+04 0.  0.
        2    1    3    3  502    0  0.39295204615E+03  0.16152503914E+04  0.12197185991E+03  0.16668300070E+04  0.25500000920E-02 0.  1.
       -2    1    3    3    0  502 -0.39295204615E+03 -0.16152503914E+04 -0.10063109511E+04  0.19432207460E+04  0.25500000920E-02 0. -1.
</event>
<event>
 5   0  0.1121462E-08  0.3499379E+04  0.7818609E-02  0.8113937E-01
        1   -1    0    0  501    0  0.00000000000E+00  0.00000000000E+00  0.24760844810E+04  0.24760844810E+04  0.50400001928E-02 0. -1.
       -1   -1    0    0    0  501  0.00000000000E+00  0.00000000000E+00 -0.12363927835E+04  0.12363927835E+04  0.50400001928E-02 0.  1.
    10030    2    1    2    0    0  0.00000000000E+00  0.00000000000E+00  0.12396916976E+04  0.37124772645E+04  0.34993787927E+04 0.  0.
        4    1    3    3  502    0  0.14336208744E+04  0.46421062856E+03 -0.32348768602E+03  0.15412352887E+04  0.12699999809E+01 0.  1.
       -4    1    3    3    0  502 -0.14336208744E+04 -0.46421062856E+03  0.15631793836E+04  0.21712419758E+04  0.12699999809E+01 0. -1.
</event>
<event>
 5   0  0.1121462E-08  0.3505633E+04  0.7818609E-02  0.8112456E-01
       -1   -1    0    0    0  501  0.00000000000E+00  0.00000000000E+00  0.12930360125E+04  0.12930360125E+04  0.50400001928E-02 0.  1.
        1   -1    0    0  501    0  0.00000000000E+00  0.00000000000E+00 -0.23760870835E+04  0.23760870835E+04  0.50400001928E-02 0. -1.
    10030    2    1    2    0    0  0.00000000000E+00  0.00000000000E+00 -0.10830510711E+04  0.36691230960E+04  0.35056332768E+04 0.  0.
        2    1    3    3  502    0 -0.75770721426E+03  0.14727114575E+04  0.59144241903E+02  0.16572559551E+04  0.25500000920E-02 0.  1.
       -2    1    3    3    0  502  0.75770721426E+03 -0.14727114575E+04 -0.11421953130E+04  0.20118671409E+04  0.25500000920E-02 0. -1.
</event>
<event>
 5   0  0.1121462E-08  0.3502077E+04  0.7818609E-02  0.8113298E-01
        1   -1    0    0  501    0  0.00000000000E+00  0.00000000000E+00  0.25797812979E+04  0.25797812979E+04  0.50400001928E-02 0. -1.
       -1   -1    0    0    0  501  0.00000000000E+00  0.00000000000E+00 -0.11885252935E+04  0.11885252935E+04  0.50400001928E-02 0.  1.
    10030    2    1    2    0    0  0.00000000000E+00  0.00000000000E+00  0.13912560044E+04  0.37683065914E+04  0.35020767121E+04 0.  0.
        1    1    3    3  502    0 -0.41621177237E+03 -0.77296617048E+02 -0.11326345983E+04  0.12091600968E+04  0.50400001928E-02 0.  1.
       -1    1    3    3    0  502  0.41621177237E+03  0.77296617048E+02  0.25238906027E+04  0.25591464946E+04  0.50400001928E-02 0. -1.
</event>
<event>
 5   0  0.1129219E-08  0.3498671E+04  0.7818609E-02  0.8114105E-01
        1   -1    0    0  501    0  0.00000000000E+00  0.00000000000E+00  0.12546759069E+04  0.12546759069E+04  0.50400001928E-02 0. -1.
       -1   -1    0    0    0  501  0.00000000000E+00  0.00000000000E+00 -0.24390162580E+04  0.24390162580E+04  0.50400001928E-02 0.  1.
    10030    2    1    2    0    0  0.00000000000E+00  0.00000000000E+00 -0.11843403511E+04  0.36936921648E+04  0.34986711394E+04 0.  0.
        5    1    3    3  502    0  0.50654692980E+03 -0.16050914981E+04 -0.10954437290E+04  0.20082150191E+04  0.46999998093E+01 0.  1.
       -5    1    3    3    0  502 -0.50654692980E+03  0.16050914981E+04 -0.88896622110E+02  0.16854771458E+04  0.46999998093E+01 0. -1.
</event>
<event>
 5   0  0.3554451E-08  0.3498201E+04  0.7818609E-02  0.8114216E-01
       -2   -1    0    0    0  501  0.00000000000E+00  0.00000000000E+00  0.14799366353E+04  0.14799366354E+04  0.25500000920E-02 0. -1.
        2   -1    0    0  501    0  0.00000000000E+00  0.00000000000E+00 -0.20672185508E+04  0.20672185508E+04  0.25500000920E-02 0.  1.
    10030    2    1    2    0    0  0.00000000000E+00  0.00000000000E+00 -0.58728191544E+03  0.35471551861E+04  0.34982009471E+04 0.  0.
        5    1    3    3  502    0  0.38346242094E+03 -0.10717650385E+03 -0.20206489216E+04  0.20595082873E+04  0.46999998093E+01 0.  1.
       -5    1    3    3    0  502 -0.38346242094E+03  0.10717650385E+03  0.14333670061E+04  0.14876468988E+04  0.46999998093E+01 0. -1.
</event>
<event>
 5   0  0.3700096E-08  0.3499051E+04  0.7818609E-02  0.8114015E-01
        2   -1    0    0  501    0  0.00000000000E+00  0.00000000000E+00  0.18870888934E+04  0.18870888934E+04  0.25500000920E-02 0.  1.
       -2   -1    0    0    0  501  0.00000000000E+00  0.00000000000E+00 -0.16219898630E+04  0.16219898630E+04  0.25500000920E-02 0. -1.
    10030    2    1    2    0    0  0.00000000000E+00  0.00000000000E+00  0.26509903047E+03  0.35090787564E+04  0.34990507602E+04 0.  0.
        4    1    3    3  502    0 -0.65122445320E+03 -0.16145779575E+04 -0.40810510823E+02  0.17414426146E+04  0.12699999809E+01 0.  1.
       -4    1    3    3    0  502  0.65122445320E+03  0.16145779575E+04  0.30590954130E+03  0.17676361418E+04  0.12699999809E+01 0. -1.
</event>
<event>
 5   0  0.1129219E-08  0.3499343E+04  0.7818609E-02  0.8113946E-01
        1   -1    0    0  501    0  0.00000000000E+00  0.00000000000E+00  0.14871768447E+04  0.14871768447E+04  0.50400001928E-02 0. -1.
       -1   -1    0    0    0  501  0.00000000000E+00  0.00000000000E+00 -0.20584973163E+04  0.20584973163E+04  0.50400001928E-02 0.  1.
    10030    2    1    2    0    0  0.00000000000E+00  0.00000000000E+00 -0.57132047161E+03  0.35456741611E+04  0.34993425347E+04 0.  0.
        5    1    3    3  502    0 -0.27228978457E+03  0.10485687071E+03  0.14623450803E+04  0.14911780289E+04  0.46999998093E+01 0. -1.
       -5    1    3    3    0  502  0.27228978457E+03 -0.10485687071E+03 -0.20336655519E+04  0.20544961322E+04  0.46999998093E+01 0.  1.
</event>
<event>
 5   0  0.3467834E-08  0.3499337E+04  0.7818609E-02  0.8113947E-01
        2   -1    0    0  501    0  0.00000000000E+00  0.00000000000E+00  0.21852789591E+04  0.21852789591E+04  0.25500000920E-02 0.  1.
       -2   -1    0    0    0  501  0.00000000000E+00  0.00000000000E+00 -0.14008916290E+04  0.14008916290E+04  0.25500000920E-02 0. -1.
    10030    2    1    2    0    0  0.00000000000E+00  0.00000000000E+00  0.78438733014E+03  0.35861705881E+04  0.34993365090E+04 0.  0.
        3    1    3    3  502    0 -0.20184736096E+03  0.14860666394E+04 -0.53139249855E+03  0.15910733520E+04  0.10100000352E+00 0. -1.
       -3    1    3    3    0  502  0.20184736096E+03 -0.14860666394E+04  0.13157798287E+04  0.19950972361E+04  0.10100000352E+00 0.  1.
</event>
<event>
 5   0  0.3700096E-08  0.3499246E+04  0.7818609E-02  0.8113969E-01
       -2   -1    0    0    0  501  0.00000000000E+00  0.00000000000E+00  0.16331564279E+04  0.16331564279E+04  0.25500000920E-02 0. -1.
        2   -1    0    0  501    0  0.00000000000E+00  0.00000000000E+00 -0.18743950281E+04  0.18743950281E+04  0.25500000920E-02 0.  1.
    10030    2    1    2    0    0  0.00000000000E+00  0.00000000000E+00 -0.24123860024E+03  0.35075514560E+04  0.34992457980E+04 0.  0.
        4    1    3    3  502    0  0.13851738802E+03  0.30596062421E+03 -0.18417795507E+04  0.18721518359E+04  0.12699999809E+01 0.  1.
       -4    1    3    3    0  502 -0.13851738802E+03 -0.30596062421E+03  0.16005409505E+04  0.16353996201E+04  0.12699999809E+01 0. -1.
</event>
<event>
 5   0  0.3700096E-08  0.3499461E+04  0.7818609E-02  0.8113918E-01
       -2   -1    0    0    0  501  0.00000000000E+00  0.00000000000E+00  0.26053217507E+04  0.26053217507E+04  0.25500000920E-02 0. -1.
        2   -1    0    0  501    0  0.00000000000E+00  0.00000000000E+00 -0.11751166132E+04  0.11751166132E+04  0.25500000920E-02 0.  1.
    10030    2    1    2    0    0  0.00000000000E+00  0.00000000000E+00  0.14302051375E+04  0.37804383639E+04  0.34994610283E+04 0.  0.
        4    1    3    3  502    0  0.12871430587E+04  0.10643388866E+02  0.19954667670E+04  0.23746030756E+04  0.12699999809E+01 0. -1.
       -4    1    3    3    0  502 -0.12871430587E+04 -0.10643388866E+02 -0.56526162958E+03  0.14058352884E+04  0.12699999809E+01 0.  1.
</event>
<event>
 5   0  0.1121462E-08  0.3503587E+04  0.7818609E-02  0.8112941E-01
        1   -1    0    0  501    0  0.00000000000E+00  0.00000000000E+00  0.17314597545E+04  0.17314597545E+04  0.50400001928E-02 0. -1.
       -1   -1    0    0    0  501  0.00000000000E+00  0.00000000000E+00 -0.17723655857E+04  0.17723655857E+04  0.50400001928E-02 0.  1.
    10030    2    1    2    0    0  0.00000000000E+00  0.00000000000E+00 -0.40905831199E+02  0.35038253403E+04  0.35035865521E+04 0.  0.
        1    1    3    3  502    0  0.98251753440E+03  0.10185781768E+03  0.14263882223E+04  0.17350213489E+04  0.50400001928E-02 0. -1.
       -1    1    3    3    0  502 -0.98251753440E+03 -0.10185781768E+03 -0.14672940535E+04  0.17688039914E+04  0.50400001928E-02 0.  1.
</event>
<event>
 5   0  0.1129219E-08  0.3500279E+04  0.7818609E-02  0.8113724E-01
        1   -1    0    0  501    0  0.00000000000E+00  0.00000000000E+00  0.19655960529E+04  0.19655960530E+04  0.50400001928E-02 0.  1.
       -1   -1    0    0    0  501  0.00000000000E+00  0.00000000000E+00 -0.15582995880E+04  0.15582995880E+04  0.50400001928E-02 0. -1.
    10030    2    1    2    0    0  0.00000000000E+00  0.00000000000E+00  0.40729646498E+03  0.35238956409E+04  0.35002785715E+04 0.  0.
        5    1    3    3  502    0 -0.12838758873E+03  0.68524977334E+03 -0.14124600628E+04  0.15751559110E+04  0.46999998093E+01 0. -1.
       -5    1    3    3    0  502  0.12838758873E+03 -0.68524977334E+03  0.18197565278E+04  0.19487397300E+04  0.46999998093E+01 0.  1.
</event>
<event>
 5   0  0.1140808E-08  0.3494998E+04  0.7818609E-02  0.8114976E-01
        1   -1    0    0  501    0  0.00000000000E+00  0.00000000000E+00  0.19914876210E+04  0.19914876210E+04  0.50400001928E-02 0. -1.
       -1   -1    0    0    0  501  0.00000000000E+00  0.00000000000E+00 -0.15334027013E+04  0.15334027013E+04  0.50400001928E-02 0.  1.
    10030    2    1    2    0    0  0.00000000000E+00  0.00000000000E+00  0.45808491971E+03  0.35248903223E+04  0.34949978527E+04 0.  0.
        3    1    3    3  502    0  0.47353780352E+03 -0.11712806073E+04 -0.98860140420E+03  0.16042035591E+04  0.10100000352E+00 0.  1.
       -3    1    3    3    0  502 -0.47353780352E+03  0.11712806073E+04  0.14466863239E+04  0.19206867632E+04  0.10100000352E+00 0. -1.
</event>
<event>
 5   0  0.3628017E-08  0.3499730E+04  0.7818609E-02  0.8113854E-01
       -2   -1    0    0    0  501  0.00000000000E+00  0.00000000000E+00  0.12789776689E+04  0.12789776689E+04  0.25500000920E-02 0.  1.
        2   -1    0    0  501    0  0.00000000000E+00  0.00000000000E+00 -0.23941210642E+04  0.23941210642E+04  0.25500000920E-02 0. -1.
    10030    2    1    2    0    0  0.00000000000E+00  0.00000000000E+00 -0.11151433953E+04  0.36730987331E+04  0.34997299197E+04 0.  0.
        1    1    3    3  502    0  0.12937470014E+03  0.15812849163E+04  0.21711770191E+03  0.16013556432E+04  0.50400001928E-02 0.  1.
       -1    1    3    3    0  502 -0.12937470014E+03 -0.15812849163E+04 -0.13322610973E+04  0.20717430899E+04  0.50400001928E-02 0. -1.
</event>
<event>
 5   0  0.1121462E-08  0.3498371E+04  0.7818609E-02  0.8114176E-01
       -1   -1    0    0    0  501  0.00000000000E+00  0.00000000000E+00  0.25931608655E+04  0.25931608655E+04  0.50400001928E-02 0.  1.
        1   -1    0    0  501    0  0.00000000000E+00  0.00000000000E+00 -0.11798922284E+04  0.11798922284E+04  0.50400001928E-02 0. -1.
    10030    2    1    2    0    0  0.00000000000E+00  0.00000000000E+00  0.14132686371E+04  0.37730530939E+04  0.34983712509E+04 0.  0.
        4    1    3    3  502    0 -0.10675839356E+04  0.68984278050E+03  0.20026646389E+04  0.23719792981E+04  0.12699999809E+01 0.  1.
       -4    1    3    3    0  502  0.10675839356E+04 -0.68984278050E+03 -0.58939600187E+03  0.14010737958E+04  0.12699999809E+01 0. -1.
</event>
<event>
 5   0  0.3467834E-08  0.3499544E+04  0.7818609E-02  0.8113898E-01
       -2   -1    0    0    0  501  0.00000000000E+00  0.00000000000E+00  0.14373663758E+04  0.14373663758E+04  0.25500000920E-02 0. -1.
        2   -1    0    0  501    0  0.00000000000E+00  0.00000000000E+00 -0.21300780344E+04  0.21300780344E+04  0.25500000920E-02 0.  1.
    10030    2    1    2    0    0  0.00000000000E+00  0.00000000000E+00 -0.69271165862E+03  0.35674444102E+04  0.34995442815E+04 0.  0.
        3    1    3    3  502    0  0.22290540845E+03  0.54287120859E+03  0.13340533304E+04  0.14574272773E+04  0.10100000352E+00 0. -1.
       -3    1    3    3    0  502 -0.22290540845E+03 -0.54287120859E+03 -0.20267649890E+04  0.21100171329E+04  0.10100000352E+00 0.  1.
</event>
<event>
 5   0  0.1129219E-08  0.3500597E+04  0.7818609E-02  0.8113649E-01
        1   -1    0    0  501    0  0.00000000000E+00  0.00000000000E+00  0.16432258945E+04  0.16432258945E+04  0.50400001928E-02 0.  1.
       -1   -1    0    0    0  501  0.00000000000E+00  0.00000000000E+00 -0.18643475886E+04  0.18643475886E+04  0.50400001928E-02 0. -1.
    10030    2    1    2    0    0  0.00000000000E+00  0.00000000000E+00 -0.22112169408E+03  0.35075734830E+04  0.35005966542E+04 0.  0.
        5    1    3    3  502    0 -0.16069299104E+02  0.17253476816E+04 -0.40515242280E+03  0.17723581524E+04  0.46999998093E+01 0. -1.
       -5    1    3    3    0  502  0.16069299104E+02 -0.17253476816E+04  0.18403072872E+03  0.17352153307E+04  0.46999998093E+01 0.  1.
</event>
<event>
 5   0  0.3467834E-08  0.3499998E+04  0.7818609E-02  0.8113790E-01
        2   -1    0    0  501    0  0.00000000000E+00  0.00000000000E+00  0.22614883473E+04  0.22614883473E+04  0.25500000920E-02 0.  1.
       -2   -1    0    0    0  501  0.00000000000E+00  0.00000000000E+00 -0.13541952474E+04  0.13541952474E+04  0.25500000920E-02 0. -1.
    10030    2    1    2    0    0  0.00000000000E+00  0.00000000000E+00  0.90729309983E+03  0.36156835947E+04  0.34999981554E+04 0.  0.
        3    1    3    3  502    0 -0.41946130499E+03 -0.16060476754E+04 -0.11889211310E+03  0.16641731481E+04  0.10100000352E+00 0. -1.
       -3    1    3    3    0  502  0.41946130499E+03  0.16060476754E+04  0.10261852129E+04  0.19515104467E+04  0.10100000352E+00 0.  1.
</event>
<event>
 5   0  0.3628017E-08  0.3498860E+04  0.7818609E-02  0.8114060E-01
       -2   -1    0    0    0  501  0.00000000000E+00  0.00000000000E+00  0.12921057005E+04  0.12921057005E+04  0.25500000920E-02 0.  1.
        2   -1    0    0  501    0  0.00000000000E+00  0.00000000000E+00 -0.23686183114E+04  0.23686183114E+04  0.25500000920E-02 0. -1.
    10030    2    1    2    0    0  0.00000000000E+00  0.00000000000E+00 -0.10765126109E+04  0.36607240119E+04  0.34988599415E+04 0.  0.
        1    1    3    3  502    0 -0.12051897944E+04  0.11379755822E+04  0.47121742831E+02  0.16582193235E+04  0.50400001928E-02 0. -1.
       -1    1    3    3    0  502  0.12051897944E+04 -0.11379755822E+04 -0.11236343537E+04  0.20025046884E+04  0.50400001928E-02 0.  1.
</event>
<event>
 5   0  0.1129219E-08  0.3497997E+04  0.7818609E-02  0.8114265E-01
        1   -1    0    0  501    0  0.00000000000E+00  0.00000000000E+00  0.14372288886E+04  0.14372288886E+04  0.50400001928E-02 0. -1.
       -1   -1    0    0    0  501  0.00000000000E+00  0.00000000000E+00 -0.21283989307E+04  0.21283989307E+04  0.50400001928E-02 0.  1.
    10030    2    1    2    0    0  0.00000000000E+00  0.00000000000E+00 -0.69117004216E+03  0.35656278193E+04  0.34979973869E+04 0.  0.
        5    1    3    3  502    0 -0.16667267359E+04 -0.50830550808E+02  0.19226471293E+03  0.16785557980E+04  0.46999998093E+01 0. -1.
       -5    1    3    3    0  502  0.16667267359E+04  0.50830550808E+02 -0.88343475509E+03  0.18870720213E+04  0.46999998093E+01 0.  1.
</event>
<event>
 5   0  0.1121462E-08  0.3499924E+04  0.7818609E-02  0.8113808E-01
       -1   -1    0    0    0  501  0.00000000000E+00  0.00000000000E+00  0.18343089746E+04  0.18343089746E+04  0.50400001928E-02 0.  1.
        1   -1    0    0  501    0  0.00000000000E+00  0.00000000000E+00 -0.16694936995E+04  0.16694936995E+04  0.50400001928E-02 0. -1.
    10030    2    1    2    0    0  0.00000000000E+00  0.00000000000E+00  0.16481527515E+03  0.35038026741E+04  0.34999241569E+04 0.  0.
        2    1    3    3  502    0 -0.10095260364E+04  0.54441730196E+03  0.14055508608E+04  0.18141406338E+04  0.25500000920E-02 0.  1.
       -2    1    3    3    0  502  0.10095260364E+04 -0.54441730196E+03 -0.12407355857E+04  0.16896620403E+04  0.25500000920E-02 0. -1.
</event>
<event>
 5   0  0.3553585E-08  0.3513473E+04  0.7818609E-02  0.8110604E-01
        2   -1    0    0  501    0  0.00000000000E+00  0.00000000000E+00  0.34262055771E+04  0.34262055771E+04  0.25500000920E-02 0.  1.
       -2   -1    0    0    0  501  0.00000000000E+00  0.00000000000E+00 -0.90074103716E+03  0.90074103716E+03  0.25500000920E-02 0. -1.
    10030    2    1    2    0    0  0.00000000000E+00  0.00000000000E+00  0.25254645400E+04  0.43269466143E+04  0.35134734751E+04 0.  0.
        2    1    3    3  502    0 -0.10022341185E+03  0.40851261528E+03 -0.83780987251E+03  0.93747142442E+03  0.25500000920E-02 0. -1.
       -2    1    3    3    0  502  0.10022341185E+03 -0.40851261528E+03  0.33632744125E+04  0.33894751899E+04  0.25500000920E-02 0.  1.
</event>
<event>
 5   0  0.3553585E-08  0.3504010E+04  0.7818609E-02  0.8112840E-01
       -2   -1    0    0    0  501  0.00000000000E+00  0.00000000000E+00  0.15560745400E+04  0.15560745400E+04  0.25500000920E-02 0.  1.
        2   -1    0    0  501    0  0.00000000000E+00  0.00000000000E+00 -0.19726060464E+04  0.19726060464E+04  0.25500000920E-02 0. -1.
    10030    2    1    2    0    0  0.00000000000E+00  0.00000000000E+00 -0.41653150638E+03  0.35286805865E+04  0.35040103004E+04 0.  0.
        2    1    3    3  502    0  0.93022577712E+03  0.40149987326E+03 -0.16476645882E+04  0.19342493996E+04  0.25500000920E-02 0. -1.
       -2    1    3    3    0  502 -0.93022577712E+03 -0.40149987326E+03  0.12311330818E+04  0.15944311869E+04  0.25500000920E-02 0.  1.
</event>
<event>
 5   0  0.1140808E-08  0.3499807E+04  0.7818609E-02  0.8113836E-01
       -1   -1    0    0    0  501  0.00000000000E+00  0.00000000000E+00  0.14523160169E+04  0.14523160169E+04  0.50400001928E-02 0.  1.
        1   -1    0    0  501    0  0.00000000000E+00  0.00000000000E+00 -0.21084685854E+04  0.21084685854E+04  0.50400001928E-02 0. -1.
    10030    2    1    2    0    0  0.00000000000E+00  0.00000000000E+00 -0.65615256851E+03  0.35607846023E+04  0.34998072505E+04 0.  0.
        3    1    3    3  502    0 -0.11466249033E+04 -0.12170701669E+04  0.19681367019E+03  0.16836698284E+04  0.10100000352E+00 0. -1.
       -3    1    3    3    0  502  0.11466249033E+04  0.12170701669E+04 -0.85296623870E+03  0.18771147739E+04  0.10100000352E+00 0.  1.
</event>
<event>
 5   0  0.1121462E-08  0.3503479E+04  0.7818609E-02  0.8112966E-01
       -1   -1    0    0    0  501  0.00000000000E+00  0.00000000000E+00  0.23402802357E+04  0.23402802357E+04  0.50400001928E-02 0.  1.
        1   -1    0    0  501    0  0.00000000000E+00  0.00000000000E+00 -0.13112069907E+04  0.13112069907E+04  0.50400001928E-02 0. -1.
    10030    2    1    2    0    0  0.00000000000E+00  0.00000000000E+00  0.10290732450E+04  0.36514872264E+04  0.35034793022E+04 0.  0.
        2    1    3    3  502    0 -0.60272030706E+02 -0.12641695835E+04 -0.74775809769E+03  0.14699998729E+04  0.25500000920E-02 0. -1.
       -2    1    3    3    0  502  0.60272030706E+02  0.12641695835E+04  0.17768313427E+04  0.21814873536E+04  0.25500000920E-02 0.  1.
</event>
<event>
 5   0  0.3628017E-08  0.3501282E+04  0.7818609E-02  0.8113486E-01
        2   -1    0    0  501    0  0.00000000000E+00  0.00000000000E+00  0.26422004765E+04  0.26422004765E+04  0.25500000920E-02 0.  1.
       -2   -1    0    0    0  501  0.00000000000E+00  0.00000000000E+00 -0.11599211720E+04  0.11599211720E+04  0.25500000920E-02 0. -1.
    10030    2    1    2    0    0  0.00000000000E+00  0.00000000000E+00  0.14822793045E+04  0.38021216485E+04  0.35012822071E+04 0.  0.
        1    1    3    3  502    0  0.57395486795E+03 -0.28503093448E+03  0.25102531139E+04  0.25907600275E+04  0.50400001928E-02 0.  1.
       -1    1    3    3    0  502 -0.57395486795E+03  0.28503093448E+03 -0.10279738094E+04  0.12113616210E+04  0.50400001928E-02 0. -1.
</event>
<event>
 5   0  0.1121462E-08  0.3500265E+04  0.7818609E-02  0.8113727E-01
        1   -1    0    0  501    0  0.00000000000E+00  0.00000000000E+00  0.13406185813E+04  0.13406185813E+04  0.50400001928E-02 0. -1.
       -1   -1    0    0    0  501  0.00000000000E+00  0.00000000000E+00 -0.22847385951E+04  0.22847385951E+04  0.50400001928E-02 0.  1.
    10030    2    1    2    0    0  0.00000000000E+00  0.00000000000E+00 -0.94412001383E+03  0.36253571764E+04  0.35002645694E+04 0.  0.
        4    1    3    3  502    0 -0.44891800443E+03  0.15900198893E+04 -0.10699875318E+04  0.19683916161E+04  0.12699999809E+01 0.  1.
       -4    1    3    3    0  502  0.44891800443E+03 -0.15900198893E+04  0.12586751794E+03  0.16569655603E+04  0.12699999809E+01 0. -1.
</event>
<event>
 5   0  0.3628017E-08  0.3499887E+04  0.7818609E-02  0.8113817E-01
        2   -1    0    0  501    0  0.00000000000E+00  0.00000000000E+00  0.18279405927E+04  0.18279405927E+04  0.25500000920E-02 0.  1.
       -2   -1    0    0    0  501  0.00000000000E+00  0.00000000000E+00 -0.16752747885E+04  0.16752747885E+04  0.25500000920E-02 0. -1.
    10030    2    1    2    0    0  0.00000000000E+00  0.00000000000E+00  0.15266580422E+03  0.35032153811E+04  0.34998873066E+04 0.  0.
        1    1    3    3  502    0 -0.26402112569E+03  0.14976453685E+04 -0.79031602828E+03  0.17138401994E+04  0.50400001928E-02 0.  1.
       -1    1    3    3    0  502  0.26402112569E+03 -0.14976453685E+04  0.94298183250E+03  0.17893751817E+04  0.50400001928E-02 0. -1.
</event>
<event>
 5   0  0.1121462E-08  0.3498175E+04  0.7818609E-02  0.8114223E-01
       -1   -1    0    0    0  501  0.00000000000E+00  0.00000000000E+00  0.10524127800E+04  0.10524127800E+04  0.50400001928E-02 0. -1.
        1   -1    0    0  501    0  0.00000000000E+00  0.00000000000E+00 -0.29069464084E+04  0.29069464084E+04  0.50400001928E-02 0.  1.
    10030    2    1    2    0    0  0.00000000000E+00  0.00000000000E+00 -0.18545336284E+04  0.39593591884E+04  0.34981752677E+04 0.  0.
        1    1    3    3  502    0 -0.37059960306E+03  0.42329849744E+02 -0.28614051315E+04  0.28856152218E+04  0.50400001928E-02 0.  1.
       -1    1    3    3    0  502  0.37059960306E+03 -0.42329849744E+02  0.10068715031E+04  0.10737439665E+04  0.50400001928E-02 0. -1.
</event>
<event>
 5   0  0.3700096E-08  0.3500472E+04  0.7818609E-02  0.8113678E-01
        2   -1    0    0  501    0  0.00000000000E+00  0.00000000000E+00  0.19958637250E+04  0.19958637250E+04  0.25500000920E-02 0.  1.
       -2   -1    0    0    0  501  0.00000000000E+00  0.00000000000E+00 -0.15348375653E+04  0.15348375653E+04  0.25500000920E-02 0. -1.
    10030    2    1    2    0    0  0.00000000000E+00  0.00000000000E+00  0.46102615969E+03  0.35307012902E+04  0.35004723225E+04 0.  0.
        4    1    3    3  502    0 -0.28484138357E+03  0.16982929304E+04  0.54625232535E+03  0.18065787298E+04  0.12699999809E+01 0. -1.
       -4    1    3    3    0  502  0.28484138357E+03 -0.16982929304E+04 -0.85226165659E+02  0.17241225604E+04  0.12699999809E+01 0.  1.
</event>
<event>
 5   0  0.3467834E-08  0.3497501E+04  0.7818609E-02  0.8114383E-01
        2   -1    0    0  501    0  0.00000000000E+00  0.00000000000E+00  0.28861171110E+04  0.28861171110E+04  0.25500000920E-02 0. -1.
       -2   -1    0    0    0  501  0.00000000000E+00  0.00000000000E+00 -0.10595992733E+04  0.10595992733E+04  0.25500000920E-02 0.  1.
    10030    2    1    2    0    0  0.00000000000E+00  0.00000000000E+00  0.18265178376E+04  0.39457163843E+04  0.34975005896E+04 0.  0.
        3    1    3    3  502    0  0.46178930154E+03 -0.16817135156E+04  0.76739139338E+03  0.19053344243E+04  0.10100000352E+00 0.  1.
       -3    1    3    3    0  502 -0.46178930154E+03  0.16817135156E+04  0.10591264443E+04  0.20403819600E+04  0.10100000352E+00 0. -1.
</event>
<event>
 5   0  0.3553585E-08  0.3499383E+04  0.7818609E-02  0.8113936E-01
       -2   -1    0    0    0  501  0.00000000000E+00  0.00000000000E+00  0.14121202893E+04  0.14121202893E+04  0.25500000920E-02 0.  1.
        2   -1    0    0  501    0  0.00000000000E+00  0.00000000000E+00 -0.21679602604E+04  0.21679602604E+04  0.25500000920E-02 0. -1.
    10030    2    1    2    0    0  0.00000000000E+00  0.00000000000E+00 -0.75583997111E+03  0.35800805497E+04  0.34993831858E+04 0.  0.
        2    1    3    3  502    0  0.55163247340E+02 -0.13423166801E+04  0.76889547124E+03  0.15479203142E+04  0.25500000920E-02 0.  1.
       -2    1    3    3    0  502 -0.55163247340E+02  0.13423166801E+04 -0.15247354424E+04  0.20321602355E+04  0.25500000920E-02 0. -1.
</event>
<event>
 5   0  0.3628017E-08  0.3500694E+04  0.7818609E-02  0.8113626E-01
       -2   -1    0    0    0  501  0.00000000000E+00  0.00000000000E+00  0.15682269023E+04  0.15682269023E+04  0.25500000920E-02 0.  1.
        2   -1    0    0  501    0  0.00000000000E+00  0.00000000000E+00 -0.19536168174E+04  0.19536168174E+04  0.25500000920E-02 0. -1.
    10030    2    1    2    0    0  0.00000000000E+00  0.00000000000E+00 -0.38538991503E+03  0.35218437197E+04  0.35006939026E+04 0.  0.
        1    1    3    3  502    0  0.16940719324E+04  0.43623856247E+03 -0.25247325399E+03  0.17674633064E+04  0.50400001928E-02 0. -1.
       -1    1    3    3    0  502 -0.16940719324E+04 -0.43623856247E+03 -0.13291666104E+03  0.17543804133E+04  0.50400001928E-02 0.  1.
</event>
<event>
 5   0  0.1121462E-08  0.3498511E+04  0.7818609E-02  0.8114143E-01
       -1   -1    0    0    0  501  0.00000000000E+00  0.00000000000E+00  0.13266939032E+04  0.13266939032E+04  0.50400001928E-02 0. -1.
        1   -1    0    0  501    0  0.00000000000E+00  0.00000000000E+00 -0.23064062848E+04  0.23064062848E+04  0.50400001928E-02 0.  1.
    10030    2    1    2    0    0  0.00000000000E+00  0.00000000000E+00 -0.97971238169E+03  0.36331001880E+04  0.34985112013E+04 0.  0.
        4    1    3    3  502    0  0.12545231191E+04 -0.74199549449E+03  0.51456959209E+03  0.15456937110E+04  0.12699999809E+01 0. -1.
       -4    1    3    3    0  502 -0.12545231191E+04  0.74199549449E+03 -0.14942819738E+04  0.20874064770E+04  0.12699999809E+01 0.  1.
</event>
<event>
 5   0  0.3553585E-08  0.3499948E+04  0.7818609E-02  0.8113802E-01
       -2   -1    0    0    0  501  0.00000000000E+00  0.00000000000E+00  0.12074711952E+04  0.12074711952E+04  0.25500000920E-02 0. -1.
        2   -1    0    0  501    0  0.00000000000E+00  0.00000000000E+00 -0.25362177373E+04  0.25362177373E+04  0.25500000920E-02 0.  1.
    10030    2    1    2    0    0  0.00000000000E+00  0.00000000000E+00 -0.13287465421E+04  0.37436889325E+04  0.34999484925E+04 0.  0.
        2    1    3    3  502    0  0.97195626619E+03 -0.14038431039E+04 -0.10743897863E+04  0.20173715217E+04  0.25500000920E-02 0.  1.
       -2    1    3    3    0  502 -0.97195626619E+03  0.14038431039E+04 -0.25435675571E+03  0.17263174108E+04  0.25500000920E-02 0. -1.
</event>
<event>
 5   0  0.1129219E-08  0.3498092E+04  0.7818609E-02  0.8114242E-01
        1   -1    0    0  501    0  0.00000000000E+00  0.00000000000E+00  0.26592395541E+04  0.26592395541E+04  0.50400001928E-02 0.  1.
       -1   -1    0    0    0  501  0.00000000000E+00  0.00000000000E+00 -0.11503898218E+04  0.11503898218E+04  0.50400001928E-02 0. -1.
    10030    2    1    2    0    0  0.00000000000E+00  0.00000000000E+00  0.15088497323E+04  0.38096293759E+04  0.34980921182E+04 0.  0.
        5    1    3    3  502    0  0.21092327794E+03  0.14276268890E+04  0.18306296460E+04  0.23310585909E+04  0.46999998093E+01 0.  1.
       -5    1    3    3    0  502 -0.21092327794E+03 -0.14276268890E+04 -0.32177991366E+03  0.14785707850E+04  0.46999998093E+01 0. -1.
</event>
<event>
 5   0  0.1121462E-08  0.3493140E+04  0.7818609E-02  0.8115418E-01
       -1   -1    0    0    0  501  0.00000000000E+00  0.00000000000E+00  0.18109322933E+04  0.18109322933E+04  0.50400001928E-02 0. -1.
        1   -1    0    0  501    0  0.00000000000E+00  0.00000000000E+00 -0.16844949646E+04  0.16844949647E+04  0.50400001928E-02 0.  1.
    10030    2    1    2    0    0  0.00000000000E+00  0.00000000000E+00  0.12643732868E+03  0.34954272580E+04  0.34931397507E+04 0.  0.
        4    1    3    3  502    0 -0.16202679667E+04 -0.38105302325E+03  0.59274856152E+03  0.17668678956E+04  0.12699999809E+01 0. -1.
       -4    1    3    3    0  502  0.16202679667E+04  0.38105302325E+03 -0.46631123283E+03  0.17285593624E+04  0.12699999809E+01 0.  1.
</event>
<event>
 5   0  0.1121462E-08  0.3500036E+04  0.7818609E-02  0.8113781E-01
        1   -1    0    0  501    0  0.00000000000E+00  0.00000000000E+00  0.23318667307E+04  0.23318667307E+04  0.50400001928E-02 0.  1.
       -1   -1    0    0    0  501  0.00000000000E+00  0.00000000000E+00 -0.13133527272E+04  0.13133527272E+04  0.50400001928E-02 0. -1.
    10030    2    1    2    0    0  0.00000000000E+00  0.00000000000E+00  0.10185140035E+04  0.36452194579E+04  0.35000363028E+04 0.  0.
        4    1    3    3  502    0 -0.12148661096E+04 -0.12454724513E+04  0.70537810620E+03  0.18774081008E+04  0.12699999809E+01 0.  1.
       -4    1    3    3    0  502  0.12148661096E+04  0.12454724513E+04  0.31313589735E+03  0.17678113571E+04  0.12699999809E+01 0. -1.
</event>
<event>
 5   0  0.1129219E-08  0.3510064E+04  0.7818609E-02  0.8111409E-01
        1   -1    0    0  501    0  0.00000000000E+00  0.00000000000E+00  0.26890241191E+04  0.26890241191E+04  0.50400001928E-02 0.  1.
       -1   -1    0    0    0  501  0.00000000000E+00  0.00000000000E+00 -0.11454478513E+04  0.11454478513E+04  0.50400001928E-02 0. -1.
    10030    2    1    2    0    0  0.00000000000E+00  0.00000000000E+00  0.15435762678E+04  0.38344719705E+04  0.35100637598E+04 0.  0.
        5    1    3    3  502    0  0.32010630843E+03  0.95180457913E+03  0.23441610217E+04  0.25501986180E+04  0.46999998093E+01 0.  1.
       -5    1    3    3    0  502 -0.32010630843E+03 -0.95180457913E+03 -0.80058475394E+03  0.12842733524E+04  0.46999998093E+01 0. -1.
</event>
<event>
 5   0  0.3467834E-08  0.3495940E+04  0.7818609E-02  0.8114753E-01
        2   -1    0    0  501    0  0.00000000000E+00  0.00000000000E+00  0.26463339974E+04  0.26463339974E+04  0.25500000920E-02 0.  1.
       -2   -1    0    0    0  501  0.00000000000E+00  0.00000000000E+00 -0.11545782558E+04  0.11545782558E+04  0.25500000920E-02 0. -1.
    10030    2    1    2    0    0  0.00000000000E+00  0.00000000000E+00  0.14917557415E+04  0.38009122532E+04  0.34959403262E+04 0.  0.
        3    1    3    3  502    0  0.14217357544E+04  0.10021918508E+04  0.93318127960E+03  0.19739676725E+04  0.10100000352E+00 0. -1.
       -3    1    3    3    0  502 -0.14217357544E+04 -0.10021918508E+04  0.55857446192E+03  0.18269445807E+04  0.10100000352E+00 0.  1.
</event>
<event>
 5   0  0.3700096E-08  0.3500125E+04  0.7818609E-02  0.8113760E-01
       -2   -1    0    0    0  501  0.00000000000E+00  0.00000000000E+00  0.19268858120E+04  0.19268858120E+04  0.25500000920E-02 0. -1.
        2   -1    0    0  501    0  0.00000000000E+00  0.00000000000E+00 -0.15894652783E+04  0.15894652783E+04  0.25500000920E-02 0.  1.
    10030    2    1    2    0    0  0.00000000000E+00  0.00000000000E+00  0.33742053377E+03  0.35163510903E+04  0.35001246226E+04 0.  0.
        4    1    3    3  502    0 -0.12204054460E+04  0.20523898398E+03  0.14118651741E+04  0.18774656790E+04  0.12699999809E+01 0. -1.
       -4    1    3    3    0  502  0.12204054460E+04 -0.20523898398E+03 -0.10744446403E+04  0.16388854113E+04  0.12699999809E+01 0.  1.
</event>
<event>
 5   0  0.3554451E-08  0.3501012E+04  0.7818609E-02  0.8113550E-01
        2   -1    0    0  501    0  0.00000000000E+00  0.00000000000E+00  0.25051582843E+04  0.25051582843E+04  0.25500000920E-02 0. -1.
       -2   -1    0    0    0  501  0.00000000000E+00  0.00000000000E+00 -0.12231846536E+04  0.12231846536E+04  0.25500000920E-02 0.  1.
    10030    2    1    2    0    0  0.00000000000E+00  0.00000000000E+00  0.12819736307E+04  0.37283429379E+04  0.35010119498E+04 0.  0.
        5    1    3    3  502    0 -0.14590420236E+04 -0.17171462008E+03 -0.37263666165E+03  0.15156416822E+04  0.46999998093E+01 0.  1.
       -5    1    3    3    0  502  0.14590420236E+04  0.17171462008E+03  0.16546102923E+04  0.22127012557E+04  0.46999998093E+01 0. -1.
</event>
<event>
 5   0  0.1121462E-08  0.3518294E+04  0.7818609E-02  0.8109468E-01
       -1   -1    0    0    0  501  0.00000000000E+00  0.00000000000E+00  0.19869525223E+04  0.19869525223E+04  0.50400001928E-02 0. -1.
        1   -1    0    0  501    0  0.00000000000E+00  0.00000000000E+00 -0.15574598513E+04  0.15574598513E+04  0.50400001928E-02 0.  1.
    10030    2    1    2    0    0  0.00000000000E+00  0.00000000000E+00  0.42949267095E+03  0.35444123736E+04  0.35182943481E+04 0.  0.
        2    1    3    3  502    0  0.35962317674E+03 -0.47931864573E+03  0.18809661902E+04  0.19741096733E+04  0.25500000920E-02 0. -1.
       -2    1    3    3    0  502 -0.35962317674E+03  0.47931864573E+03 -0.14514735193E+04  0.15703027003E+04  0.25500000920E-02 0.  1.
</event>
<event>
 5   0  0.1121462E-08  0.3498642E+04  0.7818609E-02  0.8114112E-01
        1   -1    0    0  501    0  0.00000000000E+00  0.00000000000E+00  0.20795574403E+04  0.20795574404E+04  0.50400001928E-02 0.  1.
       -1   -1    0    0    0  501  0.00000000000E+00  0.00000000000E+00 -0.14715263440E+04  0.14715263440E+04  0.50400001928E-02 0. -1.
    10030    2    1    2    0    0  0.00000000000E+00  0.00000000000E+00  0.60803109637E+03  0.35510837843E+04  0.34986417692E+04 0.  0.
        2    1    3    3  502    0  0.12646757105E+04  0.11814236993E+04  0.56270233473E+03  0.18198353023E+04  0.25500000920E-02 0. -1.
       -2    1    3    3    0  502 -0.12646757105E+04 -0.11814236993E+04  0.45328761645E+02  0.17312484820E+04  0.25500000920E-02 0.  1.
</event>
<event>
 5   0  0.1121462E-08  0.3499669E+04  0.7818609E-02  0.8113868E-01
        1   -1    0    0  501    0  0.00000000000E+00  0.00000000000E+00  0.20918116870E+04  0.20918116870E+04  0.50400001928E-02 0. -1.
       -1   -1    0    0    0  501  0.00000000000E+00  0.00000000000E+00 -0.14637646492E+04  0.14637646492E+04  0.50400001928E-02 0.  1.
    10030    2    1    2    0    0  0.00000000000E+00  0.00000000000E+00  0.62804703781E+03  0.35555763361E+04  0.34996685558E+04 0.  0.
        4    1    3    3  502    0  0.32185267833E+03  0.13726822414E+04 -0.73890752838E+03  0.15918013792E+04  0.12699999809E+01 0.  1.
       -4    1    3    3    0  502 -0.32185267833E+03 -0.13726822414E+04  0.13669545662E+04  0.19637749569E+04  0.12699999809E+01 0. -1.
</event>
<event>
 5   0  0.1140808E-08  0.3499618E+04  0.7818609E-02  0.8113880E-01
        1   -1    0    0  501    0  0.00000000000E+00  0.00000000000E+00  0.19937400877E+04  0.19937400877E+04  0.50400001928E-02 0. -1.
       -1   -1    0    0    0  501  0.00000000000E+00  0.00000000000E+00 -0.15357229035E+04  0.15357229035E+04  0.50400001928E-02 0.  1.
    10030    2    1    2    0    0  0.00000000000E+00  0.00000000000E+00  0.45801718417E+03  0.35294629912E+04  0.34996184456E+04 0.  0.
        3    1    3    3  502    0 -0.14570891394E+04  0.95262305106E+03  0.40724395343E+03  0.17878610364E+04  0.10100000352E+00 0.  1.
       -3    1    3    3    0  502  0.14570891394E+04 -0.95262305106E+03  0.50773230740E+02  0.17416019548E+04  0.10100000352E+00 0. -1.
</event>
<event>
 5   0  0.3700096E-08  0.3502392E+04  0.7818609E-02  0.8113223E-01
       -2   -1    0    0    0  501  0.00000000000E+00  0.00000000000E+00  0.97232676588E+03  0.97232676589E+03  0.25500000920E-02 0. -1.
        2   -1    0    0  501    0  0.00000000000E+00  0.00000000000E+00 -0.31539670397E+04  0.31539670397E+04  0.25500000920E-02 0.  1.
    10030    2    1    2    0    0  0.00000000000E+00  0.00000000000E+00 -0.21816402738E+04  0.41262938056E+04  0.35023915095E+04 0.  0.
        4    1    3    3  502    0  0.10187738929E+04 -0.71452070453E+03  0.36084473808E+03  0.12956275005E+04  0.12699999809E+01 0. -1.
       -4    1    3    3    0  502 -0.10187738929E+04  0.71452070453E+03 -0.25424850119E+04  0.28306663051E+04  0.12699999809E+01 0.  1.
</event>
<event>
 5   0  0.3554451E-08  0.3498163E+04  0.7818609E-02  0.8114225E-01
        2   -1    0    0  501    0  0.00000000000E+00  0.00000000000E+00  0.19849333146E+04  0.19849333146E+04  0.25500000920E-02 0.  1.
       -2   -1    0    0    0  501  0.00000000000E+00  0.00000000000E+00 -0.15412536343E+04  0.15412536343E+04  0.25500000920E-02 0. -1.
    10030    2    1    2    0    0  0.00000000000E+00  0.00000000000E+00  0.44367968031E+03  0.35261869489E+04  0.34981627664E+04 0.  0.
        5    1    3    3  502    0  0.89907101536E+03  0.98526222596E+03 -0.91868063757E+03  0.16195883886E+04  0.46999998093E+01 0. -1.
       -5    1    3    3    0  502 -0.89907101536E+03 -0.98526222596E+03  0.13623603179E+04  0.19065985603E+04  0.46999998093E+01 0.  1.
</event>
<event>
 5   0  0.1129219E-08  0.3500476E+04  0.7818609E-02  0.8113677E-01
       -1   -1    0    0    0  501  0.00000000000E+00  0.00000000000E+00  0.11311257306E+04  0.11311257306E+04  0.50400001928E-02 0. -1.
        1   -1    0    0  501    0  0.00000000000E+00  0.00000000000E+00 -0.27082169194E+04  0.27082169195E+04  0.50400001928E-02 0.  1.
    10030    2    1    2    0    0  0.00000000000E+00  0.00000000000E+00 -0.15770911888E+04  0.38393426501E+04  0.35004764486E+04 0.  0.
        5    1    3    3  502    0 -0.64087123905E+03 -0.36650255373E+03  0.95198236667E+03  0.12047126559E+04  0.46999998093E+01 0. -1.
       -5    1    3    3    0  502  0.64087123905E+03  0.36650255373E+03 -0.25290735555E+04  0.26346299941E+04  0.46999998093E+01 0.  1.
</event>
<event>
 5   0  0.3628017E-08  0.3499477E+04  0.7818609E-02  0.8113914E-01
        2   -1    0    0  501    0  0.00000000000E+00  0.00000000000E+00  0.22138818659E+04  0.22138818659E+04  0.25500000920E-02 0.  1.
       -2   -1    0    0    0  501  0.00000000000E+00  0.00000000000E+00 -0.13829037415E+04  0.13829037415E+04  0.25500000920E-02 0. -1.
    10030    2    1    2    0    0  0.00000000000E+00  0.00000000000E+00  0.83097812439E+03  0.35967856074E+04  0.34994773985E+04 0.  0.
        1    1    3    3  502    0  0.43803109527E+03 -0.15410900893E+04  0.11384365006E+04  0.19654179122E+04  0.50400001928E-02 0.  1.
       -1    1    3    3    0  502 -0.43803109527E+03  0.15410900893E+04 -0.30745837619E+03  0.16313676952E+04  0.50400001928E-02 0. -1.
</event>
<event>
 5   0  0.3553585E-08  0.3496568E+04  0.7818609E-02  0.8114604E-01
       -2   -1    0    0    0  501  0.00000000000E+00  0.00000000000E+00  0.10441711068E+04  0.10441711068E+04  0.25500000920E-02 0. -1.
        2   -1    0    0  501    0  0.00000000000E+00  0.00000000000E+00 -0.29271999050E+04  0.29271999050E+04  0.25500000920E-02 0.  1.
    10030    2    1    2    0    0  0.00000000000E+00  0.00000000000E+00 -0.18830287982E+04  0.39713710118E+04  0.34965683546E+04 0.  0.
        2    1    3    3  502    0  0.40622795066E+03  0.11872548897E+04 -0.23241515324E+04  0.26412640282E+04  0.25500000920E-02 0.  1.
       -2    1    3    3    0  502 -0.40622795066E+03 -0.11872548897E+04  0.44112273427E+03  0.13301069836E+04  0.25500000920E-02 0. -1.
</event>
<event>
 5   0  0.3553585E-08  0.3499695E+04  0.7818609E-02  0.8113862E-01
        2   -1    0    0  501    0  0.00000000000E+00  0.00000000000E+00  0.23289401549E+04  0.23289401549E+04  0.25500000920E-02 0. -1.
       -2   -1    0    0    0  501  0.00000000000E+00  0.00000000000E+00 -0.13147462975E+04  0.13147462975E+04  0.25500000920E-02 0.  1.
    10030    2    1    2    0    0  0.00000000000E+00  0.00000000000E+00  0.10141938573E+04  0.36436864524E+04  0.34996945271E+04 0.  0.
        2    1    3    3  502    0  0.79775215396E+03  0.15557858942E+04  0.58135611436E+03  0.18425127352E+04  0.25500000920E-02 0. -1.
       -2    1    3    3    0  502 -0.79775215396E+03 -0.15557858942E+04  0.43283774297E+03  0.18011737172E+04  0.25500000920E-02 0.  1.
</event>
<event>
 5   0  0.1121462E-08  0.3500216E+04  0.7818609E-02  0.8113739E-01
        1   -1    0    0  501    0  0.00000000000E+00  0.00000000000E+00  0.11443812067E+04  0.11443812068E+04  0.50400001928E-02 0. -1.
       -1   -1    0    0    0  501  0.00000000000E+00  0.00000000000E+00 -0.26764487412E+04  0.26764487412E+04  0.50400001928E-02 0.  1.
    10030    2    1    2    0    0  0.00000000000E+00  0.00000000000E+00 -0.15320675344E+04  0.38208299479E+04  0.35002157878E+04 0.  0.
        4    1    3    3  502    0  0.38781502056E+03 -0.30609033575E+03  0.10666764769E+04  0.11755390692E+04  0.12699999809E+01 0. -1.
       -4    1    3    3    0  502 -0.38781502056E+03  0.30609033575E+03 -0.25987440114E+04  0.26452908788E+04  0.12699999809E+01 0.  1.
</event>
<event>
 5   0  0.1121462E-08  0.3499886E+04  0.7818609E-02  0.8113817E-01
       -1   -1    0    0    0  501  0.00000000000E+00  0.00000000000E+00  0.18626434542E+04  0.18626434542E+04  0.50400001928E-02 0. -1.
        1   -1    0    0  501    0  0.00000000000E+00  0.00000000000E+00 -0.16440615124E+04  0.16440615124E+04  0.50400001928E-02 0.  1.
    10030    2    1    2    0    0  0.00000000000E+00  0.00000000000E+00  0.21858194179E+03  0.35067049666E+04  0.34998859492E+04 0.  0.
        1    1    3    3  502    0 -0.12550512405E+04  0.26000214476E+03  0.13030592177E+04  0.18277631291E+04  0.50400001928E-02 0. -1.
       -1    1    3    3    0  502  0.12550512405E+04 -0.26000214476E+03 -0.10844772759E+04  0.16789418374E+04  0.50400001928E-02 0.  1.
</event>
<event>
 5   0  0.3554451E-08  0.3499450E+04  0.7818609E-02  0.8113920E-01
        2   -1    0    0  501    0  0.00000000000E+00  0.00000000000E+00  0.25005268768E+04  0.25005268768E+04  0.25500000920E-02 0.  1.
       -2   -1    0    0    0  501  0.00000000000E+00  0.00000000000E+00 -0.12243570098E+04  0.12243570098E+04  0.25500000920E-02 0. -1.
    10030    2    1    2    0    0  0.00000000000E+00  0.00000000000E+00  0.12761698670E+04  0.37248838866E+04  0.34994500195E+04 0.  0.
        5    1    3    3  502    0  0.12202672956E+04  0.22321400834E+02  0.19726334921E+04  0.23196671101E+04  0.46999998093E+01 0.  1.
       -5    1    3    3    0  502 -0.12202672956E+04 -0.22321400834E+02 -0.69646362511E+03  0.14052167764E+04  0.46999998093E+01 0. -1.
</event>
<event>
 5   0  0.1129219E-08  0.3499233E+04  0.7818609E-02  0.8113972E-01
       -1   -1    0    0    0  501  0.00000000000E+00  0.00000000000E+00  0.13398297471E+04  0.13398297471E+04  0.50400001928E-02 0.  1.
        1   -1    0    0  501    0  0.00000000000E+00  0.00000000000E+00 -0.22847367845E+04  0.22847367845E+04  0.50400001928E-02 0. -1.
    10030    2    1    2    0    0  0.00000000000E+00  0.00000000000E+00 -0.94490703737E+03  0.36245665316E+04  0.34992332349E+04 0.  0.
        5    1    3    3  502    0 -0.47686527553E+02  0.17485283007E+04 -0.43218972629E+03  0.18017866890E+04  0.46999998093E+01 0. -1.
       -5    1    3    3    0  502  0.47686527553E+02 -0.17485283007E+04 -0.51271731108E+03  0.18227798425E+04  0.46999998093E+01 0.  1.
</event>
<event>
 5   0  0.3553585E-08  0.3499866E+04  0.7818609E-02  0.8113822E-01
       -2   -1    0    0    0  501  0.00000000000E+00  0.00000000000E+00  0.25963732410E+04  0.25963732410E+04  0.25500000920E-02 0.  1.
        2   -1    0    0  501    0  0.00000000000E+00  0.00000000000E+00 -0.11794397983E+04  0.11794397983E+04  0.25500000920E-02 0. -1.
    10030    2    1    2    0    0  0.00000000000E+00  0.00000000000E+00  0.14169334427E+04  0.37758130393E+04  0.34998662441E+04 0.  0.
        2    1    3    3  502    0  0.49603127795E+03  0.12097688428E+04 -0.54628063212E+03  0.14170427696E+04  0.25500000920E-02 0. -1.
       -2    1    3    3    0  502 -0.49603127795E+03 -0.12097688428E+04  0.19632140748E+04  0.23587702697E+04  0.25500000920E-02 0.  1.
</event>
<event>
 5   0  0.3700096E-08  0.3500052E+04  0.7818609E-02  0.8113778E-01
       -2   -1    0    0    0  501  0.00000000000E+00  0.00000000000E+00  0.22266155311E+04  0.22266155311E+04  0.25500000920E-02 0. -1.
        2   -1    0    0  501    0  0.00000000000E+00  0.00000000000E+00 -0.13754467971E+04  0.13754467971E+04  0.25500000920E-02 0.  1.
    10030    2    1    2    0    0  0.00000000000E+00  0.00000000000E+00  0.85116873401E+03  0.36020623282E+04  0.35000521142E+04 0.  0.
        4    1    3    3  502    0  0.12408090574E+04  0.61662548014E+03 -0.67456934981E+03  0.15410644114E+04  0.12699999809E+01 0.  1.
       -4    1    3    3    0  502 -0.12408090574E+04 -0.61662548014E+03  0.15257380838E+04  0.20609979168E+04  0.12699999809E+01 0. -1.
</event>
<event>
 5   0  0.1121462E-08  0.3499687E+04  0.7818609E-02  0.8113864E-01
       -1   -1    0    0    0  501  0.00000000000E+00  0.00000000000E+00  0.14972647722E+04  0.14972647722E+04  0.50400001928E-02 0. -1.
        1   -1    0    0  501    0  0.00000000000E+00  0.00000000000E+00 -0.20450311781E+04  0.20450311781E+04  0.50400001928E-02 0.  1.
    10030    2    1    2    0    0  0.00000000000E+00  0.00000000000E+00 -0.54776640592E+03  0.35422959503E+04  0.34996874952E+04 0.  0.
        4    1    3    3  502    0  0.12060421765E+04 -0.38864286746E+03  0.94761129831E+03  0.15822609758E+04  0.12699999809E+01 0. -1.
       -4    1    3    3    0  502 -0.12060421765E+04  0.38864286746E+03 -0.14953777042E+04  0.19600349745E+04  0.12699999809E+01 0.  1.
</event>
<event>
 5   0  0.3554451E-08  0.3501570E+04  0.7818609E-02  0.8113418E-01
        2   -1    0    0  501    0  0.00000000000E+00  0.00000000000E+00  0.18848621031E+04  0.18848621031E+04  0.25500000920E-02 0.  1.
       -2   -1    0    0    0  501  0.00000000000E+00  0.00000000000E+00 -0.16262449301E+04  0.16262449301E+04  0.25500000920E-02 0. -1.
    10030    2    1    2    0    0  0.00000000000E+00  0.00000000000E+00  0.25861717307E+03  0.35111070332E+04  0.35015696132E+04 0.  0.
        5    1    3    3  502    0 -0.13273550199E+04 -0.71516477341E+03 -0.76299913507E+03  0.16898289180E+04  0.46999998093E+01 0. -1.
       -5    1    3    3    0  502  0.13273550199E+04  0.71516477341E+03  0.10216163081E+04  0.18212781152E+04  0.46999998093E+01 0.  1.
</event>
<event>
 5   0  0.3467834E-08  0.3500425E+04  0.7818609E-02  0.8113689E-01
        2   -1    0    0  501    0  0.00000000000E+00  0.00000000000E+00  0.17822045788E+04  0.17822045788E+04  0.25500000920E-02 0.  1.
       -2   -1    0    0    0  501  0.00000000000E+00  0.00000000000E+00 -0.17187946067E+04  0.17187946067E+04  0.25500000920E-02 0. -1.
    10030    2    1    2    0    0  0.00000000000E+00  0.00000000000E+00  0.63409972022E+02  0.35009991855E+04  0.35004248988E+04 0.  0.
        3    1    3    3  502    0 -0.12744720785E+04 -0.97495914300E+03 -0.66727961584E+03  0.17378396086E+04  0.10100000352E+00 0. -1.
       -3    1    3    3    0  502  0.12744720785E+04  0.97495914300E+03  0.73068958786E+03  0.17631595769E+04  0.10100000352E+00 0.  1.
</event>
<event>
 5   0  0.3700096E-08  0.3498911E+04  0.7818609E-02  0.8114048E-01
        2   -1    0    0  501    0  0.00000000000E+00  0.00000000000E+00  0.30141685008E+04  0.30141685008E+04  0.25500000920E-02 0. -1.
       -2   -1    0    0    0  501  0.00000000000E+00  0.00000000000E+00 -0.10154027151E+04  0.10154027152E+04  0.25500000920E-02 0.  1.
    10030    2    1    2    0    0  0.00000000000E+00  0.00000000000E+00  0.19987657856E+04  0.40295712159E+04  0.34989111904E+04 0.  0.
        4    1    3    3  502    0 -0.11567288306E+04  0.73337033044E+03 -0.25415473741E+03  0.13930003132E+04  0.12699999809E+01 0.  1.
       -4    1    3    3    0  502  0.11567288306E+04 -0.73337033044E+03  0.22529205230E+04  0.26365709027E+04  0.12699999809E+01 0. -1.
</event>
<event>
 5   0  0.1121462E-08  0.3502760E+04  0.7818609E-02  0.8113136E-01
       -1   -1    0    0    0  501  0.00000000000E+00  0.00000000000E+00  0.13543454192E+04  0.13543454192E+04  0.50400001928E-02 0. -1.
        1   -1    0    0  501    0  0.00000000000E+00  0.00000000000E+00 -0.22648082713E+04  0.22648082713E+04  0.50400001928E-02 0.  1.
    10030    2    1    2    0    0  0.00000000000E+00  0.00000000000E+00 -0.91046285212E+03  0.36191536905E+04  0.35027604586E+04 0.  0.
        2    1    3    3  502    0 -0.33315202454E+03  0.31756207508E+03  0.12907411739E+04  0.13703462048E+04  0.25500000920E-02 0. -1.
       -2    1    3    3    0  502  0.33315202454E+03 -0.31756207508E+03 -0.22012040261E+04  0.22488074856E+04  0.25500000920E-02 0.  1.
</event>
<event>
 5   0  0.3554451E-08  0.3500578E+04  0.7818609E-02  0.8113653E-01
        2   -1    0    0  501    0  0.00000000000E+00  0.00000000000E+00  0.10951488365E+04  0.10951488365E+04  0.25500000920E-02 0.  1.
       -2   -1    0    0    0  501  0.00000000000E+00  0.00000000000E+00 -0.27973476716E+04  0.27973476716E+04  0.25500000920E-02 0. -1.
    10030    2    1    2    0    0  0.00000000000E+00  0.00000000000E+00 -0.17021988352E+04  0.38924965081E+04  0.35005782652E+04 0.  0.
        5    1    3    3  502    0  0.70529304891E+03  0.43321339516E+03 -0.25659601799E+04  0.26961613204E+04  0.46999998093E+01 0. -1.
       -5    1    3    3    0  502 -0.70529304891E+03 -0.43321339516E+03  0.86376134478E+03  0.11963351877E+04  0.46999998093E+01 0.  1.
</event>
<event>
 5   0  0.1129219E-08  0.3500327E+04  0.7818609E-02  0.8113712E-01
       -1   -1    0    0    0  501  0.00000000000E+00  0.00000000000E+00  0.21621397826E+04  0.21621397826E+04  0.50400001928E-02 0.  1.
        1   -1    0    0  501    0  0.00000000000E+00  0.00000000000E+00 -0.14166859660E+04  0.14166859660E+04  0.50400001928E-02 0. -1.
    10030    2    1    2    0    0  0.00000000000E+00  0.00000000000E+00  0.74545381656E+03  0.35788257486E+04  0.35003274627E+04 0.  0.
        5    1    3    3  502    0  0.40224504440E+03  0.39874617160E+02 -0.13682997136E+04  0.14267646117E+04  0.46999998093E+01 0. -1.
       -5    1    3    3    0  502 -0.40224504440E+03 -0.39874617160E+02  0.21137535302E+04  0.21520611369E+04  0.46999998093E+01 0.  1.
</event>
<event>
 5   0  0.3700096E-08  0.3500374E+04  0.7818609E-02  0.8113701E-01
        2   -1    0    0  501    0  0.00000000000E+00  0.00000000000E+00  0.12908192283E+04  0.12908192283E+04  0.25500000920E-02 0. -1.
       -2   -1    0    0    0  501  0.00000000000E+00  0.00000000000E+00 -0.23730316205E+04  0.23730316205E+04  0.25500000920E-02 0.  1.
    10030    2    1    2    0    0  0.00000000000E+00  0.00000000000E+00 -0.10822123922E+04  0.36638508488E+04  0.35003741772E+04 0.  0.
        4    1    3    3  502    0 -0.33477171832E+03 -0.17170768212E+04 -0.48643345157E+03  0.18157764260E+04  0.12699999809E+01 0. -1.
       -4    1    3    3    0  502  0.33477171832E+03  0.17170768212E+04 -0.59577894068E+03  0.18480744229E+04  0.12699999809E+01 0.  1.
</event>
<event>
 5   0  0.1121462E-08  0.3500561E+04  0.7818609E-02  0.8113657E-01
        1   -1    0    0  501    0  0.00000000000E+00  0.00000000000E+00  0.21661759525E+04  0.21661759525E+04  0.50400001928E-02 0. -1.
       -1   -1    0    0    0  501  0.00000000000E+00  0.00000000000E+00 -0.14142351527E+04  0.14142351527E+04  0.50400001928E-02 0.  1.
    10030    2    1    2    0    0  0.00000000000E+00  0.00000000000E+00  0.75194079980E+03  0.35804111052E+04  0.35005612001E+04 0.  0.
        1    1    3    3  502    0 -0.14137186487E+04 -0.84123183170E+02 -0.67598672384E+03  0.15692785535E+04  0.50400001928E-02 0.  1.
       -1    1    3    3    0  502  0.14137186487E+04  0.84123183170E+02  0.14279275236E+04  0.20111325517E+04  0.50400001928E-02 0. -1.
</event>
<event>
 5   0  0.3554451E-08  0.3501905E+04  0.7818609E-02  0.8113339E-01
       -2   -1    0    0    0  501  0.00000000000E+00  0.00000000000E+00  0.13304257188E+04  0.13304257188E+04  0.25500000920E-02 0. -1.
        2   -1    0    0  501    0  0.00000000000E+00  0.00000000000E+00 -0.23044006695E+04  0.23044006695E+04  0.25500000920E-02 0.  1.
    10030    2    1    2    0    0  0.00000000000E+00  0.00000000000E+00 -0.97397495078E+03  0.36348263883E+04  0.35019045773E+04 0.  0.
        5    1    3    3  502    0 -0.13459884121E+04  0.49538255109E+03  0.55548682732E+03  0.15380755452E+04  0.46999998093E+01 0. -1.
       -5    1    3    3    0  502  0.13459884121E+04 -0.49538255109E+03 -0.15294617781E+04  0.20967508431E+04  0.46999998093E+01 0.  1.
</event>
<event>
 5   0  0.1129219E-08  0.3497535E+04  0.7818609E-02  0.8114374E-01
        1   -1    0    0  501    0  0.00000000000E+00  0.00000000000E+00  0.20588751459E+04  0.20588751459E+04  0.50400001928E-02 0. -1.
       -1   -1    0    0    0  501  0.00000000000E+00  0.00000000000E+00 -0.14853686297E+04  0.14853686298E+04  0.50400001928E-02 0.  1.
    10030    2    1    2    0    0  0.00000000000E+00  0.00000000000E+00  0.57350651611E+03  0.35442437756E+04  0.34975354490E+04 0.  0.
        5    1    3    3  502    0  0.10896503091E+04  0.10196760561E+04  0.12105689487E+04  0.19216077448E+04  0.46999998093E+01 0. -1.
       -5    1    3    3    0  502 -0.10896503091E+04 -0.10196760561E+04 -0.63706243255E+03  0.16226360308E+04  0.46999998093E+01 0.  1.
</event>
<event>
 5   0  0.1129219E-08  0.3500288E+04  0.7818609E-02  0.8113722E-01
        1   -1    0    0  501    0  0.00000000000E+00  0.00000000000E+00  0.23137146755E+04  0.23137146755E+04  0.50400001928E-02 0. -1.
       -1   -1    0    0    0  501  0.00000000000E+00  0.00000000000E+00 -0.13238471626E+04  0.13238471626E+04  0.50400001928E-02 0.  1.
    10030    2    1    2    0    0  0.00000000000E+00  0.00000000000E+00  0.98986751294E+03  0.36375618381E+04  0.35002883357E+04 0.  0.
        5    1    3    3  502    0 -0.44591162749E+02 -0.11290837246E+04  0.18838218059E+04  0.21967305514E+04  0.46999998093E+01 0. -1.
       -5    1    3    3    0  502  0.44591162749E+02  0.11290837246E+04 -0.89395429293E+03  0.14408312867E+04  0.46999998093E+01 0.  1.
</event>
<event>
 5   0  0.3554451E-08  0.3499954E+04  0.7818609E-02  0.8113801E-01
       -2   -1    0    0    0  501  0.00000000000E+00  0.00000000000E+00  0.97091823113E+03  0.97091823114E+03  0.25500000920E-02 0.  1.
        2   -1    0    0  501    0  0.00000000000E+00  0.00000000000E+00 -0.31541480392E+04  0.31541480392E+04  0.25500000920E-02 0. -1.
    10030    2    1    2    0    0  0.00000000000E+00  0.00000000000E+00 -0.21832298081E+04  0.41250662703E+04  0.34999541911E+04 0.  0.
        5    1    3    3  502    0 -0.11855935954E+04  0.12688273830E+03  0.41804355298E+03  0.12635323126E+04  0.46999998093E+01 0.  1.
       -5    1    3    3    0  502  0.11855935954E+04 -0.12688273830E+03 -0.26012733611E+04  0.28615339578E+04  0.46999998093E+01 0. -1.
</event>
<event>
 5   0  0.1121462E-08  0.3493400E+04  0.7818609E-02  0.8115356E-01
        1   -1    0    0  501    0  0.00000000000E+00  0.00000000000E+00  0.16138315540E+04  0.16138315540E+04  0.50400001928E-02 0.  1.
       -1   -1    0    0    0  501  0.00000000000E+00  0.00000000000E+00 -0.18905071353E+04  0.18905071353E+04  0.50400001928E-02 0. -1.
    10030    2    1    2    0    0  0.00000000000E+00  0.00000000000E+00 -0.27667558129E+03  0.35043386893E+04  0.34933995294E+04 0.  0.
        1    1    3    3  502    0  0.59859770967E+03 -0.11776254183E+04 -0.12846493474E+04  0.18426732726E+04  0.50400001928E-02 0. -1.
       -1    1    3    3    0  502 -0.59859770967E+03  0.11776254183E+04  0.10079737661E+04  0.16616654167E+04  0.50400001928E-02 0.  1.
</event>
<event>
 5   0  0.1121462E-08  0.3500415E+04  0.7818609E-02  0.8113692E-01
        1   -1    0    0  501    0  0.00000000000E+00  0.00000000000E+00  0.20405900270E+04  0.20405900270E+04  0.50400001928E-02 0.  1.
       -1   -1    0    0    0  501  0.00000000000E+00  0.00000000000E+00 -0.15011475018E+04  0.15011475018E+04  0.50400001928E-02 0. -1.
    10030    2    1    2    0    0  0.00000000000E+00  0.00000000000E+00  0.53944252516E+03  0.35417375288E+04  0.35004151875E+04 0.  0.
        4    1    3    3  502    0 -0.29641670247E+03 -0.43421573046E+03 -0.14193624855E+04  0.15136041888E+04  0.12699999809E+01 0. -1.
       -4    1    3    3    0  502  0.29641670247E+03  0.43421573046E+03  0.19588050107E+04  0.20281333400E+04  0.12699999809E+01 0.  1.
</event>
<event>
 5   0  0.1129219E-08  0.3503349E+04  0.7818609E-02  0.8112997E-01
       -1   -1    0    0    0  501  0.00000000000E+00  0.00000000000E+00  0.24109970195E+04  0.24109970195E+04  0.50400001928E-02 0. -1.
        1   -1    0    0  501    0  0.00000000000E+00  0.00000000000E+00 -0.12726535198E+04  0.12726535198E+04  0.50400001928E-02 0.  1.
    10030    2    1    2    0    0  0.00000000000E+00  0.00000000000E+00  0.11383434997E+04  0.36836505394E+04  0.35033491651E+04 0.  0.
        5    1    3    3  502    0 -0.11361621515E+04  0.39815904013E+03  0.19070336130E+04  0.22552592638E+04  0.46999998093E+01 0. -1.
       -5    1    3    3    0  502  0.11361621515E+04 -0.39815904013E+03 -0.76869011329E+03  0.14283912756E+04  0.46999998093E+01 0.  1.
</event>
<event>
 5   0  0.1121462E-08  0.3501062E+04  0.7818609E-02  0.8113538E-01
       -1   -1    0    0    0  501  0.00000000000E+00  0.00000000000E+00  0.19016325185E+04  0.19016325185E+04  0.50400001928E-02 0. -1.
        1   -1    0    0  501    0  0.00000000000E+00  0.00000000000E+00 -0.16114354028E+04  0.16114354028E+04  0.50400001928E-02 0.  1.
    10030    2    1    2    0    0  0.00000000000E+00  0.00000000000E+00  0.29019711574E+03  0.35130679213E+04  0.35010615324E+04 0.  0.
        4    1    3    3  502    0 -0.20123924738E+03  0.11367996480E+04 -0.11752961617E+04  0.16474627022E+04  0.12699999809E+01 0.  1.
       -4    1    3    3    0  502  0.20123924738E+03 -0.11367996480E+04  0.14654932774E+04  0.18656052191E+04  0.12699999809E+01 0. -1.
</event>
<event>
 5   0  0.1121462E-08  0.3499742E+04  0.7818609E-02  0.8113851E-01
        1   -1    0    0  501    0  0.00000000000E+00  0.00000000000E+00  0.27115094278E+04  0.27115094279E+04  0.50400001928E-02 0. -1.
       -1   -1    0    0    0  501  0.00000000000E+00  0.00000000000E+00 -0.11292782284E+04  0.11292782284E+04  0.50400001928E-02 0.  1.
    10030    2    1    2    0    0  0.00000000000E+00  0.00000000000E+00  0.15822311995E+04  0.38407876562E+04  0.34997420264E+04 0.  0.
        4    1    3    3  502    0  0.12302197224E+02  0.15058220097E+04  0.17692593888E+04  0.23233449306E+04  0.12699999809E+01 0. -1.
       -4    1    3    3    0  502 -0.12302197224E+02 -0.15058220097E+04 -0.18702818929E+03  0.15174427256E+04  0.12699999809E+01 0.  1.
</event>
<event>
 5   0  0.1121462E-08  0.3501163E+04  0.7818609E-02  0.8113514E-01
        1   -1    0    0  501    0  0.00000000000E+00  0.00000000000E+00  0.20990336976E+04  0.20990336976E+04  0.50400001928E-02 0.  1.
       -1   -1    0    0    0  501  0.00000000000E+00  0.00000000000E+00 -0.14599742017E+04  0.14599742018E+04  0.50400001928E-02 0. -1.
    10030    2    1    2    0    0  0.00000000000E+00  0.00000000000E+00  0.63905949586E+03  0.35590078994E+04  0.35011626910E+04 0.  0.
        4    1    3    3  502    0 -0.25357902810E+03 -0.15755077227E+04  0.10511475693E+04  0.19108740757E+04  0.12699999809E+01 0.  1.
       -4    1    3    3    0  502  0.25357902810E+03  0.15755077227E+04 -0.41208807343E+03  0.16481338237E+04  0.12699999809E+01 0. -1.
</event>
<event>
 5   0  0.1140808E-08  0.3497425E+04  0.7818609E-02  0.8114401E-01
       -1   -1    0    0    0  501  0.00000000000E+00  0.00000000000E+00  0.22231210272E+04  0.22231210272E+04  0.50400001928E-02 0.  1.
        1   -1    0    0  501    0  0.00000000000E+00  0.00000000000E+00 -0.13755413651E+04  0.13755413651E+04  0.50400001928E-02 0. -1.
    10030    2    1    2    0    0  0.00000000000E+00  0.00000000000E+00  0.84757966212E+03  0.35986623923E+04  0.34974247283E+04 0.  0.
        3    1    3    3  502    0  0.10777275901E+04  0.77643804930E+03 -0.74651716856E+03  0.15236931109E+04  0.10100000352E+00 0. -1.
       -3    1    3    3    0  502 -0.10777275901E+04 -0.77643804930E+03  0.15940968307E+04  0.20749692814E+04  0.10100000352E+00 0.  1.
</event>
<event>
 5   0  0.3553585E-08  0.3512808E+04  0.7818609E-02  0.8110761E-01
       -2   -1    0    0    0  501  0.00000000000E+00  0.00000000000E+00  0.16189195270E+04  0.16189195270E+04  0.25500000920E-02 0.  1.
        2   -1    0    0  501    0  0.00000000000E+00  0.00000000000E+00 -0.19055642395E+04  0.19055642395E+04  0.25500000920E-02 0. -1.
    10030    2    1    2    0    0  0.00000000000E+00  0.00000000000E+00 -0.28664471253E+03  0.35244837665E+04  0.35128080831E+04 0.  0.
        2    1    3    3  502    0 -0.20563028015E+03 -0.53774806806E+03 -0.18082045262E+04  0.18976460169E+04  0.25500000920E-02 0. -1.
       -2    1    3    3    0  502  0.20563028015E+03  0.53774806806E+03  0.15215598137E+04  0.16268377496E+04  0.25500000920E-02 0.  1.
</event>
<event>
 5   0  0.1140808E-08  0.3495235E+04  0.7818609E-02  0.8114920E-01
        1   -1    0    0  501    0  0.00000000000E+00  0.00000000000E+00  0.24347289499E+04  0.24347289499E+04  0.50400001928E-02 0.  1.
       -1   -1    0    0    0  501  0.00000000000E+00  0.00000000000E+00 -0.12544177560E+04  0.12544177560E+04  0.50400001928E-02 0. -1.
    10030    2    1    2    0    0  0.00000000000E+00  0.00000000000E+00  0.11803111938E+04  0.36891467059E+04  0.34952351714E+04 0.  0.
        3    1    3    3  502    0  0.91105828815E+02  0.53443592420E+03  0.23437265977E+04  0.24056135193E+04  0.10100000352E+00 0.  1.
       -3    1    3    3    0  502 -0.91105828815E+02 -0.53443592420E+03 -0.11634154039E+04  0.12835331867E+04  0.10100000352E+00 0. -1.
</event>
<event>
 5   0  0.1121462E-08  0.3500040E+04  0.7818609E-02  0.8113781E-01
       -1   -1    0    0    0  501  0.00000000000E+00  0.00000000000E+00  0.13453582252E+04  0.13453582252E+04  0.50400001928E-02 0. -1.
        1   -1    0    0  501    0  0.00000000000E+00  0.00000000000E+00 -0.22763969396E+04  0.22763969396E+04  0.50400001928E-02 0.  1.
    10030    2    1    2    0    0  0.00000000000E+00  0.00000000000E+00 -0.93103871440E+03  0.36217551648E+04  0.35000396264E+04 0.  0.
        1    1    3    3  502    0  0.61497078773E+03 -0.26405252067E+02  0.12296447084E+04  0.13751045109E+04  0.50400001928E-02 0. -1.
       -1    1    3    3    0  502 -0.61497078773E+03  0.26405252067E+02 -0.21606834228E+04  0.22466506539E+04  0.50400001928E-02 0.  1.
</event>
<event>
 5   0  0.3554451E-08  0.3499266E+04  0.7818609E-02  0.8113964E-01
       -2   -1    0    0    0  501  0.00000000000E+00  0.00000000000E+00  0.20488008210E+04  0.20488008210E+04  0.25500000920E-02 0.  1.
        2   -1    0    0  501    0  0.00000000000E+00  0.00000000000E+00 -0.14941498235E+04  0.14941498235E+04  0.25500000920E-02 0. -1.
    10030    2    1    2    0    0  0.00000000000E+00  0.00000000000E+00  0.55465099752E+03  0.35429506445E+04  0.34992658573E+04 0.  0.
        5    1    3    3  502    0 -0.13282443731E+04 -0.10505893542E+04  0.72238355015E+03  0.18411494207E+04  0.46999998093E+01 0.  1.
       -5    1    3    3    0  502  0.13282443731E+04  0.10505893542E+04 -0.16773255263E+03  0.17018012237E+04  0.46999998093E+01 0. -1.
</event>
<event>
 5   0  0.1121462E-08  0.3499440E+04  0.7818609E-02  0.8113923E-01
        1   -1    0    0  501    0  0.00000000000E+00  0.00000000000E+00  0.12336026617E+04  0.12336026617E+04  0.50400001928E-02 0. -1.
       -1   -1    0    0    0  501  0.00000000000E+00  0.00000000000E+00 -0.24817711446E+04  0.24817711446E+04  0.50400001928E-02 0.  1.
    10030    2    1    2    0    0  0.00000000000E+00  0.00000000000E+00 -0.12481684829E+04  0.37153738064E+04  0.34994396636E+04 0.  0.
        2    1    3    3  502    0 -0.66256340722E+03 -0.11142121172E+04 -0.18717848001E+04  0.22768480952E+04  0.25500000920E-02 0.  1.
       -2    1    3    3    0  502  0.66256340722E+03  0.11142121172E+04  0.62361631717E+03  0.14385257112E+04  0.25500000920E-02 0. -1.
</event>
<event>
 5   0  0.1129219E-08  0.3500193E+04  0.7818609E-02  0.8113744E-01
        1   -1    0    0  501    0  0.00000000000E+00  0.00000000000E+00  0.20048877941E+04  0.20048877942E+04  0.50400001928E-02 0. -1.
       -1   -1    0    0    0  501  0.00000000000E+00  0.00000000000E+00 -0.15276849993E+04  0.15276849993E+04  0.50400001928E-02 0.  1.
    10030    2    1    2    0    0  0.00000000000E+00  0.00000000000E+00  0.47720279481E+03  0.35325727935E+04  0.35001925710E+04 0.  0.
        5    1    3    3  502    0 -0.37477924653E+03  0.15600576308E+04 -0.46684671967E+03  0.16709898996E+04  0.46999998093E+01 0. -1.
       -5    1    3    3    0  502  0.37477924653E+03 -0.15600576308E+04  0.94404951448E+03  0.18615828939E+04  0.46999998093E+01 0.  1.
</event>
<event>
 5   0  0.1121462E-08  0.3501928E+04  0.7818609E-02  0.8113333E-01
        1   -1    0    0  501    0  0.00000000000E+00  0.00000000000E+00  0.19280768907E+04  0.19280768907E+04  0.50400001928E-02 0. -1.
       -1   -1    0    0    0  501  0.00000000000E+00  0.00000000000E+00 -0.15901204125E+04  0.15901204125E+04  0.50400001928E-02 0.  1.
    10030    2    1    2    0    0  0.00000000000E+00  0.00000000000E+00  0.33795647826E+03  0.35181973032E+04  0.35019277096E+04 0.  0.
        4    1    3    3  502    0  0.11420531132E+04 -0.13181986200E+04  0.13534184146E+02  0.17441667644E+04  0.12699999809E+01 0. -1.
       -4    1    3    3    0  502 -0.11420531132E+04  0.13181986200E+04  0.32442229411E+03  0.17740305389E+04  0.12699999809E+01 0.  1.
</event>
<event>
 5   0  0.1121462E-08  0.3497441E+04  0.7818609E-02  0.8114397E-01
       -1   -1    0    0    0  501  0.00000000000E+00  0.00000000000E+00  0.16662310371E+04  0.16662310371E+04  0.50400001928E-02 0. -1.
        1   -1    0    0  501    0  0.00000000000E+00  0.00000000000E+00 -0.18352935493E+04  0.18352935493E+04  0.50400001928E-02 0.  1.
    10030    2    1    2    0    0  0.00000000000E+00  0.00000000000E+00 -0.16906251219E+03  0.35015245865E+04  0.34974408210E+04 0.  0.
        4    1    3    3  502    0 -0.10380993641E+04  0.10123631463E+04 -0.10631653466E+04  0.17980132360E+04  0.12699999809E+01 0.  1.
       -4    1    3    3    0  502  0.10380993641E+04 -0.10123631463E+04  0.89410283439E+03  0.17035113505E+04  0.12699999809E+01 0. -1.
</event>
<event>
 5   0  0.3700096E-08  0.3502337E+04  0.7818609E-02  0.8113236E-01
       -2   -1    0    0    0  501  0.00000000000E+00  0.00000000000E+00  0.33435225720E+04  0.33435225720E+04  0.25500000920E-02 0. -1.
        2   -1    0    0  501    0  0.00000000000E+00  0.00000000000E+00 -0.91717370853E+03  0.91717370853E+03  0.25500000920E-02 0.  1.
    10030    2    1    2    0    0  0.00000000000E+00  0.00000000000E+00  0.24263488635E+04  0.42606962806E+04  0.35023369324E+04 0.  0.
        4    1    3    3  502    0  0.13343517401E+04 -0.12370236505E+02  0.25927112924E+04  0.29159562835E+04  0.12699999809E+01 0. -1.
       -4    1    3    3    0  502 -0.13343517401E+04  0.12370236505E+02 -0.16636242887E+03  0.13447399970E+04  0.12699999809E+01 0.  1.
</event>
<event>
 5   0  0.1140808E-08  0.3501225E+04  0.7818609E-02  0.8113500E-01
       -1   -1    0    0    0  501  0.00000000000E+00  0.00000000000E+00  0.11761066808E+04  0.11761066808E+04  0.50400001928E-02 0. -1.
        1   -1    0    0  501    0  0.00000000000E+00  0.00000000000E+00 -0.26057540320E+04  0.26057540320E+04  0.50400001928E-02 0.  1.
    10030    2    1    2    0    0  0.00000000000E+00  0.00000000000E+00 -0.14296473512E+04  0.37818607128E+04  0.35012253429E+04 0.  0.
        3    1    3    3  502    0 -0.26104851159E+03  0.50166132171E+03 -0.25043724224E+04  0.25674289956E+04  0.10100000352E+00 0.  1.
       -3    1    3    3    0  502  0.26104851159E+03 -0.50166132171E+03  0.10747250711E+04  0.12144317172E+04  0.10100000352E+00 0. -1.
</event>
<event>
 5   0  0.3553585E-08  0.3500071E+04  0.7818609E-02  0.8113773E-01
        2   -1    0    0  501    0  0.00000000000E+00  0.00000000000E+00  0.23286590578E+04  0.23286590578E+04  0.25500000920E-02 0. -1.
       -2   -1    0    0    0  501  0.00000000000E+00  0.00000000000E+00 -0.13151882665E+04  0.13151882665E+04  0.25500000920E-02 0.  1.
    10030    2    1    2    0    0  0.00000000000E+00  0.00000000000E+00  0.10134707913E+04  0.36438473242E+04  0.35000714675E+04 0.  0.
        2    1    3    3  502    0  0.96548560915E+03 -0.13449059303E+04 -0.83740911794E+02  0.16576932657E+04  0.25500000920E-02 0.  1.
       -2    1    3    3    0  502 -0.96548560915E+03  0.13449059303E+04  0.10972117031E+04  0.19861540585E+04  0.25500000920E-02 0. -1.
</event>
<event>
 5   0  0.3554451E-08  0.3498339E+04  0.7818609E-02  0.8114184E-01
        2   -1    0    0  501    0  0.00000000000E+00  0.00000000000E+00  0.17179044972E+04  0.17179044972E+04  0.25500000920E-02 0.  1.
       -2   -1    0    0    0  501  0.00000000000E+00  0.00000000000E+00 -0.17810033252E+04  0.17810033252E+04  0.25500000920E-02 0. -1.
    10030    2    1    2    0    0  0.00000000000E+00  0.00000000000E+00 -0.63098827996E+02  0.34989078225E+04  0.34983388184E+04 0.  0.
        5    1    3    3  502    0  0.15055739864E+03 -0.26609074326E+03 -0.17540663711E+04  0.17805175479E+04  0.46999998093E+01 0. -1.
       -5    1    3    3    0  502 -0.15055739864E+03  0.26609074326E+03  0.16909675431E+04  0.17183902746E+04  0.46999998093E+01 0.  1.
</event>
<event>
 5   0  0.3467834E-08  0.3497909E+04  0.7818609E-02  0.8114286E-01
       -2   -1    0    0    0  501  0.00000000000E+00  0.00000000000E+00  0.15983046762E+04  0.15983046762E+04  0.25500000920E-02 0. -1.
        2   -1    0    0  501    0  0.00000000000E+00  0.00000000000E+00 -0.19138038879E+04  0.19138038879E+04  0.25500000920E-02 0.  1.
    10030    2    1    2    0    0  0.00000000000E+00  0.00000000000E+00 -0.31549921174E+03  0.35121085641E+04  0.34979089201E+04 0.  0.
        3    1    3    3  502    0 -0.39487729754E+02 -0.15769555439E+04  0.60062683476E+03  0.16879279230E+04  0.10100000352E+00 0. -1.
       -3    1    3    3    0  502  0.39487729754E+02  0.15769555439E+04 -0.91612604650E+03  0.18241806412E+04  0.10100000352E+00 0.  1.
</event>
<event>
 5   0  0.1121462E-08  0.3502637E+04  0.7818609E-02  0.8113165E-01
        1   -1    0    0  501    0  0.00000000000E+00  0.00000000000E+00  0.11515124094E+04  0.11515124094E+04  0.50400001928E-02 0. -1.
       -1   -1    0    0    0  501  0.00000000000E+00  0.00000000000E+00 -0.26635555839E+04  0.26635555839E+04  0.50400001928E-02 0.  1.
    10030    2    1    2    0    0  0.00000000000E+00  0.00000000000E+00 -0.15120431746E+04  0.38150679933E+04  0.35026374679E+04 0.  0.
        2    1    3    3  502    0 -0.37054085749E+03  0.16516047752E+04 -0.26646532783E+03  0.17135059474E+04  0.25500000920E-02 0.  1.
       -2    1    3    3    0  502  0.37054085749E+03 -0.16516047752E+04 -0.12455778467E+04  0.21015620459E+04  0.25500000920E-02 0. -1.
</event>
<event>
 5   0  0.3467834E-08  0.3496146E+04  0.7818609E-02  0.8114704E-01
        2   -1    0    0  501    0  0.00000000000E+00  0.00000000000E+00  0.18108645456E+04  0.18108645456E+04  0.25500000920E-02 0.  1.
       -2   -1    0    0    0  501  0.00000000000E+00  0.00000000000E+00 -0.16874588276E+04  0.16874588276E+04  0.25500000920E-02 0. -1.
    10030    2    1    2    0    0  0.00000000000E+00  0.00000000000E+00  0.12340571803E+03  0.34983233732E+04  0.34961460857E+04 0.  0.
        3    1    3    3  502    0 -0.17317637580E+04  0.21945466355E+03 -0.31054870896E+02  0.17458895951E+04  0.10100000352E+00 0.  1.
       -3    1    3    3    0  502  0.17317637580E+04 -0.21945466355E+03  0.15446058892E+03  0.17524337781E+04  0.10100000352E+00 0. -1.
</event>
<event>
 5   0  0.1129219E-08  0.3500100E+04  0.7818609E-02  0.8113766E-01
        1   -1    0    0  501    0  0.00000000000E+00  0.00000000000E+00  0.24016161654E+04  0.24016161654E+04  0.50400001928E-02 0. -1.
       -1   -1    0    0    0  501  0.00000000000E+00  0.00000000000E+00 -0.12752559008E+04  0.12752559008E+04  0.50400001928E-02 0.  1.
    10030    2    1    2    0    0  0.00000000000E+00  0.00000000000E+00  0.11263602646E+04  0.36768720662E+04  0.35001001051E+04 0.  0.
        5    1    3    3  502    0 -0.99624662582E+03 -0.13476872368E+04  0.33862376312E+02  0.16762866635E+04  0.46999998093E+01 0.  1.
       -5    1    3    3    0  502  0.99624662582E+03  0.13476872368E+04  0.10924978883E+04  0.20005854027E+04  0.46999998093E+01 0. -1.
</event>
<event>
 5   0  0.1140808E-08  0.3496839E+04  0.7818609E-02  0.8114540E-01
        1   -1    0    0  501    0  0.00000000000E+00  0.00000000000E+00  0.16234397698E+04  0.16234397698E+04  0.50400001928E-02 0. -1.
       -1   -1    0    0    0  501  0.00000000000E+00  0.00000000000E+00 -0.18830205449E+04  0.18830205449E+04  0.50400001928E-02 0.  1.
    10030    2    1    2    0    0  0.00000000000E+00  0.00000000000E+00 -0.25958077509E+03  0.35064603148E+04  0.34968388239E+04 0.  0.
        3    1    3    3  502    0  0.36841466831E+03 -0.48678955257E+03 -0.17726746798E+04  0.18748517186E+04  0.10100000352E+00 0.  1.
       -3    1    3    3    0  502 -0.36841466831E+03  0.48678955257E+03  0.15130939047E+04  0.16316085961E+04  0.10100000352E+00 0. -1.
</event>
<event>
 5   0  0.1121462E-08  0.3499787E+04  0.7818609E-02  0.8113840E-01
        1   -1    0    0  501    0  0.00000000000E+00  0.00000000000E+00  0.13058797437E+04  0.13058797437E+04  0.50400001928E-02 0. -1.
       -1   -1    0    0    0  501  0.00000000000E+00  0.00000000000E+00 -0.23448775234E+04  0.23448775234E+04  0.50400001928E-02 0.  1.
    10030    2    1    2    0    0  0.00000000000E+00  0.00000000000E+00 -0.10389977797E+04  0.36507572672E+04  0.34997874561E+04 0.  0.
        1    1    3    3  502    0 -0.48278630614E+03 -0.11142571044E+04  0.79480243938E+03  0.14513312612E+04  0.50400001928E-02 0. -1.
       -1    1    3    3    0  502  0.48278630614E+03  0.11142571044E+04 -0.18338002191E+04  0.21994260060E+04  0.50400001928E-02 0.  1.
</event>
<event>
 5   0  0.3700096E-08  0.3499641E+04  0.7818609E-02  0.8113875E-01
       -2   -1    0    0    0  501  0.00000000000E+00  0.00000000000E+00  0.22682496630E+04  0.22682496630E+04  0.25500000920E-02 0.  1.
        2   -1    0    0  501    0  0.00000000000E+00  0.00000000000E+00 -0.13498833120E+04  0.13498833120E+04  0.25500000920E-02 0. -1.
    10030    2    1    2    0    0  0.00000000000E+00  0.00000000000E+00  0.91836635103E+03  0.36181329750E+04  0.34996413345E+04 0.  0.
        4    1    3    3  502    0  0.98348221365E+03  0.29285470804E+03 -0.10061516161E+04  0.14371304158E+04  0.12699999809E+01 0. -1.
       -4    1    3    3    0  502 -0.98348221365E+03 -0.29285470804E+03  0.19245179671E+04  0.21810025592E+04  0.12699999809E+01 0.  1.
</event>
<event>
 5   0  0.1121462E-08  0.3502011E+04  0.7818609E-02  0.8113313E-01
        1   -1    0    0  501    0  0.00000000000E+00  0.00000000000E+00  0.22163210543E+04  0.22163210543E+04  0.50400001928E-02 0. -1.
       -1   -1    0    0    0  501  0.00000000000E+00  0.00000000000E+00 -0.13833828821E+04  0.13833828821E+04  0.50400001928E-02 0.  1.
    10030    2    1    2    0    0  0.00000000000E+00  0.00000000000E+00  0.83293817221E+03  0.35997039364E+04  0.35020111980E+04 0.  0.
        4    1    3    3  502    0  0.13238384088E+04 -0.10893223201E+04  0.50376757364E+02  0.17151415918E+04  0.12699999809E+01 0.  1.
       -4    1    3    3    0  502 -0.13238384088E+04  0.10893223201E+04  0.78256141485E+03  0.18845623445E+04  0.12699999809E+01 0. -1.
</event>
<event>
 5   0  0.1121462E-08  0.3499456E+04  0.7818609E-02  0.8113919E-01
        1   -1    0    0  501    0  0.00000000000E+00  0.00000000000E+00  0.22463937820E+04  0.22463937820E+04  0.50400001928E-02 0. -1.
       -1   -1    0    0    0  501  0.00000000000E+00  0.00000000000E+00 -0.13628721395E+04  0.13628721395E+04  0.50400001928E-02 0.  1.
    10030    2    1    2    0    0  0.00000000000E+00  0.00000000000E+00  0.88352164248E+03  0.36092659215E+04  0.34994556719E+04 0.  0.
        2    1    3    3  502    0 -0.13109577377E+04 -0.10257385306E+04  0.99793897383E+03  0.19407812650E+04  0.25500000920E-02 0. -1.
       -2    1    3    3    0  502  0.13109577377E+04  0.10257385306E+04 -0.11441733135E+03  0.16684846565E+04  0.25500000920E-02 0.  1.
</event>
<event>
 5   0  0.1129219E-08  0.3500076E+04  0.7818609E-02  0.8113772E-01
        1   -1    0    0  501    0  0.00000000000E+00  0.00000000000E+00  0.15016253590E+04  0.15016253590E+04  0.50400001928E-02 0.  1.
       -1   -1    0    0    0  501  0.00000000000E+00  0.00000000000E+00 -0.20395449348E+04  0.20395449348E+04  0.50400001928E-02 0. -1.
    10030    2    1    2    0    0  0.00000000000E+00  0.00000000000E+00 -0.53791957581E+03  0.35411702938E+04  0.35000756534E+04 0.  0.
        5    1    3    3  502    0  0.17489759831E+04 -0.30110076006E+02 -0.32236878056E+03  0.17786982113E+04  0.46999998093E+01 0. -1.
       -5    1    3    3    0  502 -0.17489759831E+04  0.30110076006E+02 -0.21555079525E+03  0.17624720825E+04  0.46999998093E+01 0.  1.
</event>
<event>
 5   0  0.3553585E-08  0.3506233E+04  0.7818609E-02  0.8112314E-01
       -2   -1    0    0    0  501  0.00000000000E+00  0.00000000000E+00  0.16826763003E+04  0.16826763003E+04  0.25500000920E-02 0. -1.
        2   -1    0    0  501    0  0.00000000000E+00  0.00000000000E+00 -0.18265058479E+04  0.18265058479E+04  0.25500000920E-02 0.  1.
    10030    2    1    2    0    0  0.00000000000E+00  0.00000000000E+00 -0.14382954761E+03  0.35091821481E+04  0.35062333650E+04 0.  0.
        2    1    3    3  502    0  0.17033355323E+04 -0.82042455081E+02  0.33504151027E+03  0.17379113077E+04  0.25500000920E-02 0. -1.
       -2    1    3    3    0  502 -0.17033355323E+04  0.82042455081E+02 -0.47887105788E+03  0.17712708404E+04  0.25500000920E-02 0.  1.
</event>
<event>
 5   0  0.3700096E-08  0.3491241E+04  0.7818609E-02  0.8115869E-01
       -2   -1    0    0    0  501  0.00000000000E+00  0.00000000000E+00  0.19312977253E+04  0.19312977253E+04  0.25500000920E-02 0. -1.
        2   -1    0    0  501    0  0.00000000000E+00  0.00000000000E+00 -0.15777944136E+04  0.15777944136E+04  0.25500000920E-02 0.  1.
    10030    2    1    2    0    0  0.00000000000E+00  0.00000000000E+00  0.35350331174E+03  0.35090921388E+04  0.34912409037E+04 0.  0.
        4    1    3    3  502    0 -0.12008691069E+04  0.11747086512E+04  0.65369041887E+03  0.18025925229E+04  0.12699999809E+01 0.  1.
       -4    1    3    3    0  502  0.12008691069E+04 -0.11747086512E+04 -0.30018710714E+03  0.17064996159E+04  0.12699999809E+01 0. -1.
</event>
<event>
 5   0  0.3553585E-08  0.3500594E+04  0.7818609E-02  0.8113649E-01
        2   -1    0    0  501    0  0.00000000000E+00  0.00000000000E+00  0.15123925246E+04  0.15123925246E+04  0.25500000920E-02 0.  1.
       -2   -1    0    0    0  501  0.00000000000E+00  0.00000000000E+00 -0.20256242759E+04  0.20256242759E+04  0.25500000920E-02 0. -1.
    10030    2    1    2    0    0  0.00000000000E+00  0.00000000000E+00 -0.51323175122E+03  0.35380168005E+04  0.35005936711E+04 0.  0.
        2    1    3    3  502    0  0.22321184820E+03  0.11910535821E+04 -0.15330931207E+04  0.19541767273E+04  0.25500000920E-02 0. -1.
       -2    1    3    3    0  502 -0.22321184820E+03 -0.11910535821E+04  0.10198613695E+04  0.15838400732E+04  0.25500000920E-02 0.  1.
</event>
<event>
 5   0  0.1121462E-08  0.3477903E+04  0.7818609E-02  0.8119047E-01
        1   -1    0    0  501    0  0.00000000000E+00  0.00000000000E+00  0.28941968879E+04  0.28941968879E+04  0.50400001928E-02 0. -1.
       -1   -1    0    0    0  501  0.00000000000E+00  0.00000000000E+00 -0.10448329666E+04  0.10448329666E+04  0.50400001928E-02 0.  1.
    10030    2    1    2    0    0  0.00000000000E+00  0.00000000000E+00  0.18493639213E+04  0.39390298545E+04  0.34779030006E+04 0.  0.
        4    1    3    3  502    0 -0.13951119483E+04 -0.73926593224E+03  0.99291115919E+02  0.15819961459E+04  0.12699999809E+01 0.  1.
       -4    1    3    3    0  502  0.13951119483E+04  0.73926593224E+03  0.17500728054E+04  0.23570337087E+04  0.12699999809E+01 0. -1.
</event>
<event>
 5   0  0.3554451E-08  0.3501725E+04  0.7818609E-02  0.8113381E-01
       -2   -1    0    0    0  501  0.00000000000E+00  0.00000000000E+00  0.15429678371E+04  0.15429678371E+04  0.25500000920E-02 0.  1.
        2   -1    0    0  501    0  0.00000000000E+00  0.00000000000E+00 -0.19867676811E+04  0.19867676811E+04  0.25500000920E-02 0. -1.
    10030    2    1    2    0    0  0.00000000000E+00  0.00000000000E+00 -0.44379984403E+03  0.35297355181E+04  0.35017245075E+04 0.  0.
        5    1    3    3  502    0 -0.15716679100E+04  0.76020001846E+03 -0.35506441606E+03  0.17816107647E+04  0.46999998093E+01 0. -1.
       -5    1    3    3    0  502  0.15716679100E+04 -0.76020001846E+03 -0.88735427968E+02  0.17481247534E+04  0.46999998093E+01 0.  1.
</event>
<event>
 5   0  0.1121462E-08  0.3500643E+04  0.7818609E-02  0.8113638E-01
       -1   -1    0    0    0  501  0.00000000000E+00  0.00000000000E+00  0.24303583895E+04  0.24303583895E+04  0.50400001928E-02 0.  1.
        1   -1    0    0  501    0  0.00000000000E+00  0.00000000000E+00 -0.12605652007E+04  0.12605652007E+04  0.50400001928E-02 0. -1.
    10030    2    1    2    0    0  0.00000000000E+00  0.00000000000E+00  0.11697931888E+04  0.36909235903E+04  0.35006429188E+04 0.  0.
        2    1    3    3  502    0 -0.10020788471E+04  0.12239729990E+03 -0.92267830271E+03  0.13676543296E+04  0.25500000920E-02 0. -1.
       -2    1    3    3    0  502  0.10020788471E+04 -0.12239729990E+03  0.20924714915E+04  0.23232692607E+04  0.25500000920E-02 0.  1.
</event>
<event>
 5   0  0.1121462E-08  0.3500790E+04  0.7818609E-02  0.8113603E-01
       -1   -1    0    0    0  501  0.00000000000E+00  0.00000000000E+00  0.20635102019E+04  0.20635102019E+04  0.50400001928E-02 0. -1.
        1   -1    0    0  501    0  0.00000000000E+00  0.00000000000E+00 -0.14847912879E+04  0.14847912879E+04  0.50400001928E-02 0.  1.
    10030    2    1    2    0    0  0.00000000000E+00  0.00000000000E+00  0.57871891401E+03  0.35483014899E+04  0.35007896083E+04 0.  0.
        1    1    3    3  502    0 -0.14804738434E+04 -0.69147811096E+03  0.92552185374E+03  0.18779072077E+04  0.50400001928E-02 0. -1.
       -1    1    3    3    0  502  0.14804738434E+04  0.69147811096E+03 -0.34680293972E+03  0.16703942822E+04  0.50400001928E-02 0.  1.
</event>
<event>
 5   0  0.1129219E-08  0.3499740E+04  0.7818609E-02  0.8113851E-01
        1   -1    0    0  501    0  0.00000000000E+00  0.00000000000E+00  0.11575874454E+04  0.11575874454E+04  0.50400001928E-02 0. -1.
       -1   -1    0    0    0  501  0.00000000000E+00  0.00000000000E+00 -0.26451958405E+04  0.26451958405E+04  0.50400001928E-02 0.  1.
    10030    2    1    2    0    0  0.00000000000E+00  0.00000000000E+00 -0.14876083951E+04  0.38027832860E+04  0.34997402736E+04 0.  0.
        5    1    3    3  502    0  0.76241263259E+03 -0.76699879465E+03 -0.22385917975E+04  0.24861366614E+04  0.46999998093E+01 0.  1.
       -5    1    3    3    0  502 -0.76241263259E+03  0.76699879465E+03  0.75098340239E+03  0.13166466246E+04  0.46999998093E+01 0. -1.
</event>
<event>
 5   0  0.1121462E-08  0.3501163E+04  0.7818609E-02  0.8113514E-01
        1   -1    0    0  501    0  0.00000000000E+00  0.00000000000E+00  0.18613824662E+04  0.18613824662E+04  0.50400001928E-02 0.  1.
       -1   -1    0    0    0  501  0.00000000000E+00  0.00000000000E+00 -0.16463756592E+04  0.16463756592E+04  0.50400001928E-02 0. -1.
    10030    2    1    2    0    0  0.00000000000E+00  0.00000000000E+00  0.21500680701E+03  0.35077581255E+04  0.35011625412E+04 0.  0.
        4    1    3    3  502    0 -0.12037049510E+04  0.91993257475E+03 -0.77127586442E+03  0.17000145950E+04  0.12699999809E+01 0.  1.
       -4    1    3    3    0  502  0.12037049510E+04 -0.91993257475E+03  0.98628267143E+03  0.18077435305E+04  0.12699999809E+01 0. -1.
</event>
<event>
 5   0  0.3628017E-08  0.3502150E+04  0.7818609E-02  0.8113281E-01
       -2   -1    0    0    0  501  0.00000000000E+00  0.00000000000E+00  0.14620846004E+04  0.14620846004E+04  0.25500000920E-02 0. -1.
        2   -1    0    0  501    0  0.00000000000E+00  0.00000000000E+00 -0.20971858974E+04  0.20971858974E+04  0.25500000920E-02 0.  1.
    10030    2    1    2    0    0  0.00000000000E+00  0.00000000000E+00 -0.63510129693E+03  0.35592704978E+04  0.35021497425E+04 0.  0.
        1    1    3    3  502    0  0.89401437391E+03  0.11288315441E+04 -0.13301653530E+04  0.19603219690E+04  0.50400001928E-02 0.  1.
       -1    1    3    3    0  502 -0.89401437391E+03 -0.11288315441E+04  0.69506405611E+03  0.15989485288E+04  0.50400001928E-02 0. -1.
</event>
<event>
 5   0  0.1121462E-08  0.3500754E+04  0.7818609E-02  0.8113611E-01
       -1   -1    0    0    0  501  0.00000000000E+00  0.00000000000E+00  0.34868766707E+04  0.34868766707E+04  0.50400001928E-02 0.  1.
        1   -1    0    0  501    0  0.00000000000E+00  0.00000000000E+00 -0.87867145864E+03  0.87867145866E+03  0.50400001928E-02 0. -1.
    10030    2    1    2    0    0  0.00000000000E+00  0.00000000000E+00  0.26082052120E+04  0.43655481293E+04  0.35007536391E+04 0.  0.
        1    1    3    3  502    0 -0.13128219770E+04  0.10033316259E-01 -0.13961106945E+03  0.13202245242E+04  0.50400001928E-02 0. -1.
       -1    1    3    3    0  502  0.13128219770E+04 -0.10033316259E-01  0.27478162815E+04  0.30453236052E+04  0.50400001928E-02 0.  1.
</event>
<event>
 5   0  0.3467834E-08  0.3499543E+04  0.7818609E-02  0.8113898E-01
       -2   -1    0    0    0  501  0.00000000000E+00  0.00000000000E+00  0.10121771289E+04  0.10121771289E+04  0.25500000920E-02 0.  1.
        2   -1    0    0  501    0  0.00000000000E+00  0.00000000000E+00 -0.30248659543E+04  0.30248659543E+04  0.25500000920E-02 0. -1.
    10030    2    1    2    0    0  0.00000000000E+00  0.00000000000E+00 -0.20126888254E+04  0.40370430832E+04  0.34995429055E+04 0.  0.
        3    1    3    3  502    0 -0.87290975535E+03  0.10089888815E+03 -0.27518729269E+04  0.28887638607E+04  0.10100000352E+00 0. -1.
       -3    1    3    3    0  502  0.87290975535E+03 -0.10089888815E+03  0.73918410151E+03  0.11482792225E+04  0.10100000352E+00 0.  1.
</event>
<event>
 5   0  0.3467834E-08  0.3498675E+04  0.7818609E-02  0.8114104E-01
       -2   -1    0    0    0  501  0.00000000000E+00  0.00000000000E+00  0.13776076270E+04  0.13776076270E+04  0.25500000920E-02 0.  1.
        2   -1    0    0  501    0  0.00000000000E+00  0.00000000000E+00 -0.22213743864E+04  0.22213743864E+04  0.25500000920E-02 0. -1.
    10030    2    1    2    0    0  0.00000000000E+00  0.00000000000E+00 -0.84376675940E+03  0.35989820134E+04  0.34986753477E+04 0.  0.
        3    1    3    3  502    0  0.13877838433E+04 -0.22418281232E+03  0.64910988013E+03  0.15484009738E+04  0.10100000352E+00 0.  1.
       -3    1    3    3    0  502 -0.13877838433E+04  0.22418281232E+03 -0.14928766395E+04  0.20505810396E+04  0.10100000352E+00 0. -1.
</event>
<event>
 5   0  0.3628017E-08  0.3501741E+04  0.7818609E-02  0.8113377E-01
        2   -1    0    0  501    0  0.00000000000E+00  0.00000000000E+00  0.17663873646E+04  0.17663873646E+04  0.25500000920E-02 0. -1.
       -2   -1    0    0    0  501  0.00000000000E+00  0.00000000000E+00 -0.17354902449E+04  0.17354902449E+04  0.25500000920E-02 0.  1.
    10030    2    1    2    0    0  0.00000000000E+00  0.00000000000E+00  0.30897119689E+02  0.35018776095E+04  0.35017413039E+04 0.  0.
        1    1    3    3  502    0  0.15001227501E+03 -0.16164704965E+04 -0.64037227891E+03  0.17451524874E+04  0.50400001928E-02 0.  1.
       -1    1    3    3    0  502 -0.15001227501E+03  0.16164704965E+04  0.67126939860E+03  0.17567251220E+04  0.50400001928E-02 0. -1.
</event>
<event>
 5   0  0.3554451E-08  0.3501066E+04  0.7818609E-02  0.8113537E-01
        2   -1    0    0  501    0  0.00000000000E+00  0.00000000000E+00  0.25624292202E+04  0.25624292202E+04  0.25500000920E-02 0. -1.
       -2   -1    0    0    0  501  0.00000000000E+00  0.00000000000E+00 -0.11958833928E+04  0.11958833928E+04  0.25500000920E-02 0.  1.
    10030    2    1    2    0    0  0.00000000000E+00  0.00000000000E+00  0.13665458274E+04  0.37583126130E+04  0.35010664373E+04 0.  0.
        5    1    3    3  502    0  0.11146290880E+04  0.13211427362E+04  0.98023681279E+03  0.19871342261E+04  0.46999998093E+01 0. -1.
       -5    1    3    3    0  502 -0.11146290880E+04 -0.13211427362E+04  0.38630901462E+03  0.17711783869E+04  0.46999998093E+01 0.  1.
</event>
<event>
 5   0  0.1129219E-08  0.3498699E+04  0.7818609E-02  0.8114098E-01
       -1   -1    0    0    0  501  0.00000000000E+00  0.00000000000E+00  0.10183842534E+04  0.10183842534E+04  0.50400001928E-02 0. -1.
        1   -1    0    0  501    0  0.00000000000E+00  0.00000000000E+00 -0.30049799710E+04  0.30049799710E+04  0.50400001928E-02 0.  1.
    10030    2    1    2    0    0  0.00000000000E+00  0.00000000000E+00 -0.19865957176E+04  0.40233642244E+04  0.34986993493E+04 0.  0.
        5    1    3    3  502    0 -0.31025706756E+02  0.13033878742E+04 -0.23345770089E+04  0.26739585722E+04  0.46999998093E+01 0.  1.
       -5    1    3    3    0  502  0.31025706756E+02 -0.13033878742E+04  0.34798129125E+03  0.13494056522E+04  0.46999998093E+01 0. -1.
</event>
<event>
 5   0  0.3467834E-08  0.3497461E+04  0.7818609E-02  0.8114392E-01
        2   -1    0    0  501    0  0.00000000000E+00  0.00000000000E+00  0.26253714034E+04  0.26253714034E+04  0.25500000920E-02 0.  1.
       -2   -1    0    0    0  501  0.00000000000E+00  0.00000000000E+00 -0.11648099891E+04  0.11648099891E+04  0.25500000920E-02 0. -1.
    10030    2    1    2    0    0  0.00000000000E+00  0.00000000000E+00  0.14605614143E+04  0.37901813925E+04  0.34974612711E+04 0.  0.
        3    1    3    3  502    0  0.16730443581E+04  0.20484005507E+03  0.22543471241E+03  0.17005462922E+04  0.10100000352E+00 0. -1.
       -3    1    3    3    0  502 -0.16730443581E+04 -0.20484005507E+03  0.12351267019E+04  0.20896351003E+04  0.10100000352E+00 0.  1.
</event>
<event>
 5   0  0.1121462E-08  0.3497209E+04  0.7818609E-02  0.8114452E-01
       -1   -1    0    0    0  501  0.00000000000E+00  0.00000000000E+00  0.13896222287E+04  0.13896222287E+04  0.50400001928E-02 0. -1.
        1   -1    0    0  501    0  0.00000000000E+00  0.00000000000E+00 -0.22003223913E+04  0.22003223913E+04  0.50400001928E-02 0.  1.
    10030    2    1    2    0    0  0.00000000000E+00  0.00000000000E+00 -0.81070016260E+03  0.35899446201E+04  0.34972085470E+04 0.  0.
        4    1    3    3  502    0 -0.16066417236E+04  0.43975520587E+03 -0.95136943693E+03  0.19182772708E+04  0.12699999809E+01 0. -1.
       -4    1    3    3    0  502  0.16066417236E+04 -0.43975520587E+03  0.14066927434E+03  0.16716673493E+04  0.12699999809E+01 0.  1.
</event>
<event>
 5   0  0.1121462E-08  0.3511624E+04  0.7818609E-02  0.8111041E-01
        1   -1    0    0  501    0  0.00000000000E+00  0.00000000000E+00  0.16335972632E+04  0.16335972632E+04  0.50400001928E-02 0.  1.
       -1   -1    0    0    0  501  0.00000000000E+00  0.00000000000E+00 -0.18871702433E+04  0.18871702433E+04  0.50400001928E-02 0. -1.
    10030    2    1    2    0    0  0.00000000000E+00  0.00000000000E+00 -0.25357298006E+03  0.35207675065E+04  0.35116242081E+04 0.  0.
        1    1    3    3  502    0  0.16800944805E+04  0.31250441621E+03  0.27737558274E+03  0.17312751623E+04  0.50400001928E-02 0. -1.
       -1    1    3    3    0  502 -0.16800944805E+04 -0.31250441621E+03 -0.53094856280E+03  0.17894923442E+04  0.50400001928E-02 0.  1.
</event>
<event>
 5   0  0.1140808E-08  0.3499682E+04  0.7818609E-02  0.8113865E-01
        1   -1    0    0  501    0  0.00000000000E+00  0.00000000000E+00  0.19812194266E+04  0.19812194266E+04  0.50400001928E-02 0.  1.
       -1   -1    0    0    0  501  0.00000000000E+00  0.00000000000E+00 -0.15454841631E+04  0.15454841631E+04  0.50400001928E-02 0. -1.
    10030    2    1    2    0    0  0.00000000000E+00  0.00000000000E+00  0.43573526348E+03  0.35267035898E+04  0.34996818413E+04 0.  0.
        3    1    3    3  502    0 -0.63084573362E+02  0.61707014775E+02 -0.15432403724E+04  0.15457613905E+04  0.10100000352E+00 0. -1.
       -3    1    3    3    0  502  0.63084573362E+02 -0.61707014775E+02  0.19789756359E+04  0.19809421993E+04  0.10100000352E+00 0.  1.
</event>
<event>
 5   0  0.1140808E-08  0.3500920E+04  0.7818609E-02  0.8113572E-01
       -1   -1    0    0    0  501  0.00000000000E+00  0.00000000000E+00  0.12726157067E+04  0.12726157067E+04  0.50400001928E-02 0.  1.
        1   -1    0    0  501    0  0.00000000000E+00  0.00000000000E+00 -0.24077266697E+04  0.24077266697E+04  0.50400001928E-02 0. -1.
    10030    2    1    2    0    0  0.00000000000E+00  0.00000000000E+00 -0.11351109630E+04  0.36803423765E+04  0.35009203232E+04 0.  0.
        3    1    3    3  502    0  0.28216435980E+03 -0.71009452279E+03 -0.22231523011E+04  0.23507992516E+04  0.10100000352E+00 0. -1.
       -3    1    3    3    0  502 -0.28216435980E+03  0.71009452279E+03  0.10880413381E+04  0.13295431249E+04  0.10100000352E+00 0.  1.
</event>
<event>
 5   0  0.3553585E-08  0.3499376E+04  0.7818609E-02  0.8113938E-01
        2   -1    0    0  501    0  0.00000000000E+00  0.00000000000E+00  0.21494453880E+04  0.21494453880E+04  0.25500000920E-02 0.  1.
       -2   -1    0    0    0  501  0.00000000000E+00  0.00000000000E+00 -0.14242780374E+04  0.14242780374E+04  0.25500000920E-02 0. -1.
    10030    2    1    2    0    0  0.00000000000E+00  0.00000000000E+00  0.72516735056E+03  0.35737234255E+04  0.34993758637E+04 0.  0.
        2    1    3    3  502    0 -0.46684848239E+03  0.13526985782E+03  0.20791162804E+04  0.21351744536E+04  0.25500000920E-02 0.  1.
       -2    1    3    3    0  502  0.46684848239E+03 -0.13526985782E+03 -0.13539489298E+04  0.14385489719E+04  0.25500000920E-02 0. -1.
</event>
<event>
 5   0  0.1129219E-08  0.3495538E+04  0.7818609E-02  0.8114848E-01
        1   -1    0    0  501    0  0.00000000000E+00  0.00000000000E+00  0.19964604511E+04  0.19964604511E+04  0.50400001928E-02 0.  1.
       -1   -1    0    0    0  501  0.00000000000E+00  0.00000000000E+00 -0.15300561272E+04  0.15300561272E+04  0.50400001928E-02 0. -1.
    10030    2    1    2    0    0  0.00000000000E+00  0.00000000000E+00  0.46640432396E+03  0.35265165783E+04  0.34955380393E+04 0.  0.
        5    1    3    3  502    0 -0.72833081873E+03 -0.24434497715E+02 -0.13694643314E+04  0.15512954171E+04  0.46999998093E+01 0. -1.
       -5    1    3    3    0  502  0.72833081873E+03  0.24434497715E+02  0.18358686553E+04  0.19752211612E+04  0.46999998093E+01 0.  1.
</event>
<event>
 5   0  0.3554451E-08  0.3499749E+04  0.7818609E-02  0.8113849E-01
       -2   -1    0    0    0  501  0.00000000000E+00  0.00000000000E+00  0.16655875386E+04  0.16655875386E+04  0.25500000920E-02 0.  1.
        2   -1    0    0  501    0  0.00000000000E+00  0.00000000000E+00 -0.18384270870E+04  0.18384270870E+04  0.25500000920E-02 0. -1.
    10030    2    1    2    0    0  0.00000000000E+00  0.00000000000E+00 -0.17283954839E+03  0.35040146256E+04  0.34997492749E+04 0.  0.
        5    1    3    3  502    0  0.81849893548E+03  0.14190342183E+04 -0.70234473253E+03  0.17823885192E+04  0.46999998093E+01 0. -1.
       -5    1    3    3    0  502 -0.81849893548E+03 -0.14190342183E+04  0.52950518414E+03  0.17216261064E+04  0.46999998093E+01 0.  1.
</event>
<event>
 5   0  0.1121462E-08  0.3500191E+04  0.7818609E-02  0.8113745E-01
        1   -1    0    0  501    0  0.00000000000E+00  0.00000000000E+00  0.13251121981E+04  0.13251121981E+04  0.50400001928E-02 0.  1.
       -1   -1    0    0    0  501  0.00000000000E+00  0.00000000000E+00 -0.23113770930E+04  0.23113770930E+04  0.50400001928E-02 0. -1.
    10030    2    1    2    0    0  0.00000000000E+00  0.00000000000E+00 -0.98626489491E+03  0.36364892911E+04  0.35001908407E+04 0.  0.
        2    1    3    3  502    0  0.14646518820E+04  0.89748202368E+03 -0.84106866793E+03  0.19126096367E+04  0.25500000920E-02 0.  1.
       -2    1    3    3    0  502 -0.14646518820E+04 -0.89748202368E+03 -0.14519622698E+03  0.17238796543E+04  0.25500000920E-02 0. -1.
</event>
<event>
 5   0  0.1121462E-08  0.3503917E+04  0.7818609E-02  0.8112862E-01
       -1   -1    0    0    0  501  0.00000000000E+00  0.00000000000E+00  0.12079327841E+04  0.12079327841E+04  0.50400001928E-02 0.  1.
        1   -1    0    0  501    0  0.00000000000E+00  0.00000000000E+00 -0.25410007760E+04  0.25410007760E+04  0.50400001928E-02 0. -1.
    10030    2    1    2    0    0  0.00000000000E+00  0.00000000000E+00 -0.13330679919E+04  0.37489335601E+04  0.35039167466E+04 0.  0.
        2    1    3    3  502    0  0.45674224344E+02 -0.44259873459E+03  0.11464717357E+04  0.12297874676E+04  0.25500000920E-02 0.  1.
       -2    1    3    3    0  502 -0.45674224344E+02  0.44259873459E+03 -0.24795397276E+04  0.25191460925E+04  0.25500000920E-02 0. -1.
</event>
<event>
 5   0  0.1121462E-08  0.3501313E+04  0.7818609E-02  0.8113479E-01
       -1   -1    0    0    0  501  0.00000000000E+00  0.00000000000E+00  0.16808674413E+04  0.16808674413E+04  0.50400001928E-02 0.  1.
        1   -1    0    0  501    0  0.00000000000E+00  0.00000000000E+00 -0.18233430626E+04  0.18233430626E+04  0.50400001928E-02 0. -1.
    10030    2    1    2    0    0  0.00000000000E+00  0.00000000000E+00 -0.14247562128E+03  0.35042105040E+04  0.35013128900E+04 0.  0.
        1    1    3    3  502    0 -0.70384611483E+03 -0.41410256812E+03  0.14785648459E+04  0.16890927429E+04  0.50400001928E-02 0.  1.
       -1    1    3    3    0  502  0.70384611483E+03  0.41410256812E+03 -0.16210404672E+04  0.18151177611E+04  0.50400001928E-02 0. -1.
</event>
<event>
 5   0  0.1121462E-08  0.3501934E+04  0.7818609E-02  0.8113332E-01
       -1   -1    0    0    0  501  0.00000000000E+00  0.00000000000E+00  0.26765522273E+04  0.26765522273E+04  0.50400001928E-02 0. -1.
        1   -1    0    0  501    0  0.00000000000E+00  0.00000000000E+00 -0.11454609220E+04  0.11454609220E+04  0.50400001928E-02 0.  1.
    10030    2    1    2    0    0  0.00000000000E+00  0.00000000000E+00  0.15310913053E+04  0.38220131493E+04  0.35019343124E+04 0.  0.
        2    1    3    3  502    0  0.11701161249E+04  0.85276664847E+03 -0.30908400633E+03  0.14805119471E+04  0.25500000920E-02 0.  1.
       -2    1    3    3    0  502 -0.11701161249E+04 -0.85276664847E+03  0.18401753116E+04  0.23415012022E+04  0.25500000920E-02 0. -1.
</event>
<event>
 5   0  0.3628017E-08  0.3507779E+04  0.7818609E-02  0.8111949E-01
       -2   -1    0    0    0  501  0.00000000000E+00  0.00000000000E+00  0.13927307724E+04  0.13927307724E+04  0.25500000920E-02 0.  1.
        2   -1    0    0  501    0  0.00000000000E+00  0.00000000000E+00 -0.22087033841E+04  0.22087033841E+04  0.25500000920E-02 0. -1.
    10030    2    1    2    0    0  0.00000000000E+00  0.00000000000E+00 -0.81597261169E+03  0.36014341564E+04  0.35077794515E+04 0.  0.
        1    1    3    3  502    0  0.14293017621E+04 -0.49831345914E+03  0.50161892216E+03  0.15946289141E+04  0.50400001928E-02 0.  1.
       -1    1    3    3    0  502 -0.14293017621E+04  0.49831345914E+03 -0.13175915338E+04  0.20068052423E+04  0.50400001928E-02 0. -1.
</event>
<event>
 5   0  0.3628017E-08  0.3498528E+04  0.7818609E-02  0.8114139E-01
       -2   -1    0    0    0  501  0.00000000000E+00  0.00000000000E+00  0.15844357331E+04  0.15844357331E+04  0.25500000920E-02 0.  1.
        2   -1    0    0  501    0  0.00000000000E+00  0.00000000000E+00 -0.19312388554E+04  0.19312388554E+04  0.25500000920E-02 0. -1.
    10030    2    1    2    0    0  0.00000000000E+00  0.00000000000E+00 -0.34680312228E+03  0.35156745885E+04  0.34985276055E+04 0.  0.
        1    1    3    3  502    0 -0.86962058903E+03 -0.50215293530E+03 -0.16127366418E+04  0.18998202587E+04  0.50400001928E-02 0. -1.
       -1    1    3    3    0  502  0.86962058903E+03  0.50215293530E+03  0.12659335196E+04  0.16158543298E+04  0.50400001928E-02 0.  1.
</event>
<event>
 5   0  0.1121462E-08  0.3499189E+04  0.7818609E-02  0.8113982E-01
        1   -1    0    0  501    0  0.00000000000E+00  0.00000000000E+00  0.21352948257E+04  0.21352948257E+04  0.50400001928E-02 0.  1.
       -1   -1    0    0    0  501  0.00000000000E+00  0.00000000000E+00 -0.14335631890E+04  0.14335631891E+04  0.50400001928E-02 0. -1.
    10030    2    1    2    0    0  0.00000000000E+00  0.00000000000E+00  0.70173163669E+03  0.35688580148E+04  0.34991885116E+04 0.  0.
        4    1    3    3  502    0 -0.14567029759E+03  0.15168119279E+04  0.12277158823E+04  0.19568408624E+04  0.12699999809E+01 0.  1.
       -4    1    3    3    0  502  0.14567029759E+03 -0.15168119279E+04 -0.52598424563E+03  0.16120171524E+04  0.12699999809E+01 0. -1.
</event>
<event>
 5   0  0.3554451E-08  0.3500353E+04  0.7818609E-02  0.8113706E-01
        2   -1    0    0  501    0  0.00000000000E+00  0.00000000000E+00  0.25457987932E+04  0.25457987932E+04  0.25500000920E-02 0.  1.
       -2   -1    0    0    0  501  0.00000000000E+00  0.00000000000E+00 -0.12032051203E+04  0.12032051203E+04  0.25500000920E-02 0. -1.
    10030    2    1    2    0    0  0.00000000000E+00  0.00000000000E+00  0.13425936729E+04  0.37490039136E+04  0.35003532070E+04 0.  0.
        5    1    3    3  502    0  0.16538064703E+04 -0.54677614755E+03  0.85386387101E+03  0.19398828823E+04  0.46999998093E+01 0.  1.
       -5    1    3    3    0  502 -0.16538064703E+04  0.54677614755E+03  0.48872980189E+03  0.18091210313E+04  0.46999998093E+01 0. -1.
</event>
<event>
 5   0  0.1129219E-08  0.3498402E+04  0.7818609E-02  0.8114169E-01
        1   -1    0    0  501    0  0.00000000000E+00  0.00000000000E+00  0.23347511382E+04  0.23347511382E+04  0.50400001928E-02 0.  1.
       -1   -1    0    0    0  501  0.00000000000E+00  0.00000000000E+00 -0.13105055697E+04  0.13105055697E+04  0.50400001928E-02 0. -1.
    10030    2    1    2    0    0  0.00000000000E+00  0.00000000000E+00  0.10242455684E+04  0.36452567079E+04  0.34984021327E+04 0.  0.
        5    1    3    3  502    0 -0.16804286314E+04  0.48562425338E+03  0.51557543018E+03  0.18235984797E+04  0.46999998093E+01 0. -1.
       -5    1    3    3    0  502  0.16804286314E+04 -0.48562425338E+03  0.50867013826E+03  0.18216582282E+04  0.46999998093E+01 0.  1.
</event>
<event>
 5   0  0.1121462E-08  0.3502752E+04  0.7818609E-02  0.8113138E-01
        1   -1    0    0  501    0  0.00000000000E+00  0.00000000000E+00  0.15101114000E+04  0.15101114000E+04  0.50400001928E-02 0.  1.
       -1   -1    0    0    0  501  0.00000000000E+00  0.00000000000E+00 -0.20311870342E+04  0.20311870342E+04  0.50400001928E-02 0. -1.
    10030    2    1    2    0    0  0.00000000000E+00  0.00000000000E+00 -0.52107563422E+03  0.35412984342E+04  0.35027524582E+04 0.  0.
        2    1    3    3  502    0 -0.44300261554E+03  0.14649786319E+04 -0.11213207043E+04  0.18973069945E+04  0.25500000920E-02 0. -1.
       -2    1    3    3    0  502  0.44300261554E+03 -0.14649786319E+04  0.60024507012E+03  0.16439914396E+04  0.25500000920E-02 0.  1.
</event>
<event>
 5   0  0.3554451E-08  0.3499512E+04  0.7818609E-02  0.8113906E-01
        2   -1    0    0  501    0  0.00000000000E+00  0.00000000000E+00  0.18437587067E+04  0.18437587067E+04  0.25500000920E-02 0. -1.
       -2   -1    0    0    0  501  0.00000000000E+00  0.00000000000E+00 -0.16605462884E+04  0.16605462884E+04  0.25500000920E-02 0.  1.
    10030    2    1    2    0    0  0.00000000000E+00  0.00000000000E+00  0.18321241829E+03  0.35043049950E+04  0.34995123529E+04 0.  0.
        5    1    3    3  502    0 -0.82573721034E+03 -0.15222897223E+04  0.34178160016E+03  0.17652321919E+04  0.46999998093E+01 0.  1.
       -5    1    3    3    0  502  0.82573721034E+03  0.15222897223E+04 -0.15856918187E+03  0.17390728031E+04  0.46999998093E+01 0. -1.
</event>
<event>
 5   0  0.3628017E-08  0.3500141E+04  0.7818609E-02  0.8113756E-01
        2   -1    0    0  501    0  0.00000000000E+00  0.00000000000E+00  0.24515059155E+04  0.24515059155E+04  0.25500000920E-02 0.  1.
       -2   -1    0    0    0  501  0.00000000000E+00  0.00000000000E+00 -0.12493330021E+04  0.12493330021E+04  0.25500000920E-02 0. -1.
    10030    2    1    2    0    0  0.00000000000E+00  0.00000000000E+00  0.12021729134E+04  0.37008389177E+04  0.35001412801E+04 0.  0.
        1    1    3    3  502    0 -0.58095056392E+03 -0.35961934072E+03  0.23046567596E+04  0.24038037373E+04  0.50400001928E-02 0.  1.
       -1    1    3    3    0  502  0.58095056392E+03  0.35961934072E+03 -0.11024838462E+04  0.12970351804E+04  0.50400001928E-02 0. -1.
</event>
<event>
 5   0  0.1121462E-08  0.3499362E+04  0.7818609E-02  0.8113941E-01
       -1   -1    0    0    0  501  0.00000000000E+00  0.00000000000E+00  0.15694087968E+04  0.15694087968E+04  0.50400001928E-02 0.  1.
        1   -1    0    0  501    0  0.00000000000E+00  0.00000000000E+00 -0.19506608860E+04  0.19506608860E+04  0.50400001928E-02 0. -1.
    10030    2    1    2    0    0  0.00000000000E+00  0.00000000000E+00 -0.38125208921E+03  0.35200696827E+04  0.34993624299E+04 0.  0.
        4    1    3    3  502    0  0.16344264963E+04  0.20733803284E+03  0.40196409991E+03  0.16958525237E+04  0.12699999809E+01 0.  1.
       -4    1    3    3    0  502 -0.16344264963E+04 -0.20733803284E+03 -0.78321618912E+03  0.18242171590E+04  0.12699999809E+01 0. -1.
</event>
<event>
 5   0  0.1121462E-08  0.3499805E+04  0.7818609E-02  0.8113836E-01
       -3   -1    0    0    0  501  0.00000000000E+00  0.00000000000E+00  0.18204724023E+04  0.18204724051E+04  0.10100000352E+00 0. -1.
        3   -1    0    0  501    0  0.00000000000E+00  0.00000000000E+00 -0.16820686355E+04  0.16820686385E+04  0.10100000352E+00 0.  1.
    10030    2    1    2    0    0  0.00000000000E+00  0.00000000000E+00  0.13840376677E+03  0.35025410436E+04  0.34998054460E+04 0.  0.
        4    1    3    3  502    0 -0.78588932952E+03  0.14017482297E+04  0.76230208773E+03  0.17786585461E+04  0.12699999809E+01 0. -1.
       -4    1    3    3    0  502  0.78588932952E+03 -0.14017482297E+04 -0.62389832096E+03  0.17238824976E+04  0.12699999809E+01 0.  1.
</event>
<event>
 5   0  0.1129219E-08  0.3500421E+04  0.7818609E-02  0.8113690E-01
        1   -1    0    0  501    0  0.00000000000E+00  0.00000000000E+00  0.26373412532E+04  0.26373412532E+04  0.50400001928E-02 0. -1.
       -1   -1    0    0    0  501  0.00000000000E+00  0.00000000000E+00 -0.11614866416E+04  0.11614866417E+04  0.50400001928E-02 0.  1.
    10030    2    1    2    0    0  0.00000000000E+00  0.00000000000E+00  0.14758546116E+04  0.37988278949E+04  0.35004209090E+04 0.  0.
        5    1    3    3  502    0 -0.98827363135E+03 -0.13803705156E+04  0.27608152049E+03  0.17199856472E+04  0.46999998093E+01 0.  1.
       -5    1    3    3    0  502  0.98827363135E+03  0.13803705156E+04  0.11997730911E+04  0.20788422477E+04  0.46999998093E+01 0. -1.
</event>
<event>
 5   0  0.1140808E-08  0.3499648E+04  0.7818609E-02  0.8113873E-01
       -1   -1    0    0    0  501  0.00000000000E+00  0.00000000000E+00  0.16550056383E+04  0.16550056383E+04  0.50400001928E-02 0. -1.
        1   -1    0    0  501    0  0.00000000000E+00  0.00000000000E+00 -0.18500748810E+04  0.18500748810E+04  0.50400001928E-02 0.  1.
    10030    2    1    2    0    0  0.00000000000E+00  0.00000000000E+00 -0.19506924266E+03  0.35050805193E+04  0.34996481876E+04 0.  0.
        3    1    3    3  502    0  0.53827309963E+03 -0.16327022850E+04  0.22920738007E+03  0.17343559941E+04  0.10100000352E+00 0. -1.
       -3    1    3    3    0  502 -0.53827309963E+03  0.16327022850E+04 -0.42427662273E+03  0.17707245251E+04  0.10100000352E+00 0.  1.
</event>
<event>
 5   0  0.1129219E-08  0.3501288E+04  0.7818609E-02  0.8113485E-01
        1   -1    0    0  501    0  0.00000000000E+00  0.00000000000E+00  0.18903920760E+04  0.18903920760E+04  0.50400001928E-02 0. -1.
       -1   -1    0    0    0  501  0.00000000000E+00  0.00000000000E+00 -0.16212265941E+04  0.16212265942E+04  0.50400001928E-02 0.  1.
    10030    2    1    2    0    0  0.00000000000E+00  0.00000000000E+00  0.26916548182E+03  0.35116186701E+04  0.35012877099E+04 0.  0.
        5    1    3    3  502    0  0.11551059191E+04  0.35591192021E+03  0.14047272740E+04  0.18531658812E+04  0.46999998093E+01 0. -1.
       -5    1    3    3    0  502 -0.11551059191E+04 -0.35591192021E+03 -0.11355617921E+04  0.16584527889E+04  0.46999998093E+01 0.  1.
</event>
<event>
 5   0  0.1121462E-08  0.3500291E+04  0.7818609E-02  0.8113721E-01
        1   -1    0    0  501    0  0.00000000000E+00  0.00000000000E+00  0.25577684945E+04  0.25577684945E+04  0.50400001928E-02 0.  1.
       -1   -1    0    0    0  501  0.00000000000E+00  0.00000000000E+00 -0.11975319842E+04  0.11975319842E+04  0.50400001928E-02 0. -1.
    10030    2    1    2    0    0  0.00000000000E+00  0.00000000000E+00  0.13602365103E+04  0.37553004787E+04  0.35002911766E+04 0.  0.
        4    1    3    3  502    0  0.54266602699E+03  0.34391915902E+03 -0.10664405674E+04  0.12450156229E+04  0.12699999809E+01 0. -1.
       -4    1    3    3    0  502 -0.54266602699E+03 -0.34391915902E+03  0.24266770777E+04  0.25102848557E+04  0.12699999809E+01 0.  1.
</event>
<event>
 5   0  0.1129219E-08  0.3498871E+04  0.7818609E-02  0.8114058E-01
        1   -1    0    0  501    0  0.00000000000E+00  0.00000000000E+00  0.21328525346E+04  0.21328525346E+04  0.50400001928E-02 0. -1.
       -1   -1    0    0    0  501  0.00000000000E+00  0.00000000000E+00 -0.14349443001E+04  0.14349443001E+04  0.50400001928E-02 0.  1.
    10030    2    1    2    0    0  0.00000000000E+00  0.00000000000E+00  0.69790823453E+03  0.35677968347E+04  0.34988710108E+04 0.  0.
        5    1    3    3  502    0  0.84266781196E+03  0.15241734212E+04  0.18044484757E+03  0.17509357762E+04  0.46999998093E+01 0.  1.
       -5    1    3    3    0  502 -0.84266781196E+03 -0.15241734212E+04  0.51746338696E+03  0.18168610586E+04  0.46999998093E+01 0. -1.
</event>
<event>
 5   0  0.3700096E-08  0.3500229E+04  0.7818609E-02  0.8113736E-01
       -2   -1    0    0    0  501  0.00000000000E+00  0.00000000000E+00  0.14059106041E+04  0.14059106041E+04  0.25500000920E-02 0.  1.
        2   -1    0    0  501    0  0.00000000000E+00  0.00000000000E+00 -0.21785883711E+04  0.21785883711E+04  0.25500000920E-02 0. -1.
    10030    2    1    2    0    0  0.00000000000E+00  0.00000000000E+00 -0.77267776695E+03  0.35844989752E+04  0.35002288457E+04 0.  0.
        4    1    3    3  502    0 -0.16582459797E+04  0.11946587199E+03 -0.94616932756E+03  0.19129270329E+04  0.12699999809E+01 0. -1.
       -4    1    3    3    0  502  0.16582459797E+04 -0.11946587199E+03  0.17349156061E+03  0.16715719423E+04  0.12699999809E+01 0.  1.
</event>
<event>
 5   0  0.1129219E-08  0.3507575E+04  0.7818609E-02  0.8111997E-01
       -1   -1    0    0    0  501  0.00000000000E+00  0.00000000000E+00  0.14461533105E+04  0.14461533105E+04  0.50400001928E-02 0. -1.
        1   -1    0    0  501    0  0.00000000000E+00  0.00000000000E+00 -0.21268628566E+04  0.21268628566E+04  0.50400001928E-02 0.  1.
    10030    2    1    2    0    0  0.00000000000E+00  0.00000000000E+00 -0.68070954607E+03  0.35730161671E+04  0.35075745244E+04 0.  0.
        5    1    3    3  502    0  0.91668645084E+03  0.14431717722E+04  0.57689836809E+02  0.17106750190E+04  0.46999998093E+01 0. -1.
       -5    1    3    3    0  502 -0.91668645084E+03 -0.14431717722E+04 -0.73839938288E+03  0.18623411481E+04  0.46999998093E+01 0.  1.
</event>
<event>
 5   0  0.3467834E-08  0.3499843E+04  0.7818609E-02  0.8113827E-01
        2   -1    0    0  501    0  0.00000000000E+00  0.00000000000E+00  0.20033643994E+04  0.20033643994E+04  0.25500000920E-02 0. -1.
       -2   -1    0    0    0  501  0.00000000000E+00  0.00000000000E+00 -0.15285414889E+04  0.15285414889E+04  0.25500000920E-02 0.  1.
    10030    2    1    2    0    0  0.00000000000E+00  0.00000000000E+00  0.47482291044E+03  0.35319058883E+04  0.34998431976E+04 0.  0.
        3    1    3    3  502    0 -0.10551923853E+04  0.10735337794E+04  0.11379541454E+04  0.18870202417E+04  0.10100000352E+00 0. -1.
       -3    1    3    3    0  502  0.10551923853E+04 -0.10735337794E+04 -0.66313123492E+03  0.16448856466E+04  0.10100000352E+00 0.  1.
</event>
<event>
 5   0  0.3467834E-08  0.3504234E+04  0.7818609E-02  0.8112787E-01
       -2   -1    0    0    0  501  0.00000000000E+00  0.00000000000E+00  0.12198139810E+04  0.12198139810E+04  0.25500000920E-02 0. -1.
        2   -1    0    0  501    0  0.00000000000E+00  0.00000000000E+00 -0.25167059834E+04  0.25167059834E+04  0.25500000920E-02 0.  1.
    10030    2    1    2    0    0  0.00000000000E+00  0.00000000000E+00 -0.12968920024E+04  0.37365199643E+04  0.35042335222E+04 0.  0.
        3    1    3    3  502    0 -0.10942288877E+04 -0.13670743739E+04 -0.58372726039E+03  0.18457970439E+04  0.10100000352E+00 0. -1.
       -3    1    3    3    0  502  0.10942288877E+04  0.13670743739E+04 -0.71316474201E+03  0.18907229205E+04  0.10100000352E+00 0.  1.
</event>
<event>
 5   0  0.1121462E-08  0.3499343E+04  0.7818609E-02  0.8113946E-01
       -1   -1    0    0    0  501  0.00000000000E+00  0.00000000000E+00  0.14933894277E+04  0.14933894277E+04  0.50400001928E-02 0. -1.
        1   -1    0    0  501    0  0.00000000000E+00  0.00000000000E+00 -0.20499339754E+04  0.20499339755E+04  0.50400001928E-02 0.  1.
    10030    2    1    2    0    0  0.00000000000E+00  0.00000000000E+00 -0.55654454775E+03  0.35433234032E+04  0.34993426391E+04 0.  0.
        2    1    3    3  502    0 -0.80718022369E+03 -0.12133812471E+04 -0.12586955497E+04  0.19256553303E+04  0.25500000920E-02 0.  1.
       -2    1    3    3    0  502  0.80718022369E+03  0.12133812471E+04  0.70215100199E+03  0.16176680728E+04  0.25500000920E-02 0. -1.
</event>
<event>
 5   0  0.3554451E-08  0.3493739E+04  0.7818609E-02  0.8115275E-01
        2   -1    0    0  501    0  0.00000000000E+00  0.00000000000E+00  0.31157728157E+04  0.31157728157E+04  0.25500000920E-02 0.  1.
       -2   -1    0    0    0  501  0.00000000000E+00  0.00000000000E+00 -0.97938875327E+03  0.97938875328E+03  0.25500000920E-02 0. -1.
    10030    2    1    2    0    0  0.00000000000E+00  0.00000000000E+00  0.21363840624E+04  0.40951615690E+04  0.34937388875E+04 0.  0.
        5    1    3    3  502    0 -0.10210714208E+04 -0.25913542478E+03 -0.56516841545E+03  0.11954812598E+04  0.46999998093E+01 0. -1.
       -5    1    3    3    0  502  0.10210714208E+04  0.25913542478E+03  0.27015524779E+04  0.28996803092E+04  0.46999998093E+01 0.  1.
</event>
<event>
 5   0  0.1129219E-08  0.3501520E+04  0.7818609E-02  0.8113430E-01
       -1   -1    0    0    0  501  0.00000000000E+00  0.00000000000E+00  0.29312627787E+04  0.29312627787E+04  0.50400001928E-02 0.  1.
        1   -1    0    0  501    0  0.00000000000E+00  0.00000000000E+00 -0.10456794145E+04  0.10456794145E+04  0.50400001928E-02 0. -1.
    10030    2    1    2    0    0  0.00000000000E+00  0.00000000000E+00  0.18855833642E+04  0.39769421931E+04  0.35015203247E+04 0.  0.
        5    1    3    3  502    0 -0.62636156787E+02  0.81413565506E+03  0.27017410376E+04  0.28224398801E+04  0.46999998093E+01 0.  1.
       -5    1    3    3    0  502  0.62636156787E+02 -0.81413565506E+03 -0.81615767335E+03  0.11545023130E+04  0.46999998093E+01 0. -1.
</event>
<event>
 5   0  0.1121462E-08  0.3499690E+04  0.7818609E-02  0.8113863E-01
       -1   -1    0    0    0  501  0.00000000000E+00  0.00000000000E+00  0.14000849837E+04  0.14000849837E+04  0.50400001928E-02 0.  1.
        1   -1    0    0  501    0  0.00000000000E+00  0.00000000000E+00 -0.21869797470E+04  0.21869797470E+04  0.50400001928E-02 0. -1.
    10030    2    1    2    0    0  0.00000000000E+00  0.00000000000E+00 -0.78689476327E+03  0.35870647307E+04  0.34996899883E+04 0.  0.
        2    1    3    3  502    0 -0.20964298146E+03 -0.14261999181E+04  0.62326615836E+03  0.15704958103E+04  0.25500000920E-02 0.  1.
       -2    1    3    3    0  502  0.20964298146E+03  0.14261999181E+04 -0.14101609216E+04  0.20165689204E+04  0.25500000920E-02 0. -1.
</event>
<event>
 5   0  0.3554451E-08  0.3500355E+04  0.7818609E-02  0.8113706E-01
        2   -1    0    0  501    0  0.00000000000E+00  0.00000000000E+00  0.15294094189E+04  0.15294094189E+04  0.25500000920E-02 0. -1.
       -2   -1    0    0    0  501  0.00000000000E+00  0.00000000000E+00 -0.20028134541E+04  0.20028134541E+04  0.25500000920E-02 0.  1.
    10030    2    1    2    0    0  0.00000000000E+00  0.00000000000E+00 -0.47340403519E+03  0.35322228730E+04  0.35003552740E+04 0.  0.
        5    1    3    3  502    0 -0.79532575653E+03 -0.10028390671E+04 -0.14412487601E+04  0.19275500855E+04  0.46999998093E+01 0.  1.
       -5    1    3    3    0  502  0.79532575653E+03  0.10028390671E+04  0.96784472488E+03  0.16046727875E+04  0.46999998093E+01 0. -1.
</event>
<event>
 5   0  0.3628017E-08  0.3500458E+04  0.7818609E-02  0.8113681E-01
        2   -1    0    0  501    0  0.00000000000E+00  0.00000000000E+00  0.22986101686E+04  0.22986101686E+04  0.25500000920E-02 0. -1.
       -2   -1    0    0    0  501  0.00000000000E+00  0.00000000000E+00 -0.13326753928E+04  0.13326753929E+04  0.25500000920E-02 0.  1.
    10030    2    1    2    0    0  0.00000000000E+00  0.00000000000E+00  0.96593477579E+03  0.36312855615E+04  0.35004578041E+04 0.  0.
        1    1    3    3  502    0 -0.10283853848E+04  0.60448102883E+03  0.18115875085E+04  0.21690604221E+04  0.50400001928E-02 0. -1.
       -1    1    3    3    0  502  0.10283853848E+04 -0.60448102883E+03 -0.84565273273E+03  0.14622251394E+04  0.50400001928E-02 0.  1.
</event>
<event>
 5   0  0.1121462E-08  0.3506550E+04  0.7818609E-02  0.8112240E-01
       -1   -1    0    0    0  501  0.00000000000E+00  0.00000000000E+00  0.97120939594E+03  0.97120939595E+03  0.50400001928E-02 0.  1.
        1   -1    0    0  501    0  0.00000000000E+00  0.00000000000E+00 -0.31650977343E+04  0.31650977343E+04  0.50400001928E-02 0. -1.
    10030    2    1    2    0    0  0.00000000000E+00  0.00000000000E+00 -0.21938883384E+04  0.41363071303E+04  0.35065496766E+04 0.  0.
        2    1    3    3  502    0 -0.12853780405E+04 -0.23425852308E+03 -0.24760607476E+04  0.27996340097E+04  0.25500000920E-02 0. -1.
       -2    1    3    3    0  502  0.12853780405E+04  0.23425852308E+03  0.28217240917E+03  0.13366731206E+04  0.25500000920E-02 0.  1.
</event>
<event>
 5   0  0.3628017E-08  0.3501033E+04  0.7818609E-02  0.8113545E-01
       -2   -1    0    0    0  501  0.00000000000E+00  0.00000000000E+00  0.28774388468E+04  0.28774388468E+04  0.25500000920E-02 0.  1.
        2   -1    0    0  501    0  0.00000000000E+00  0.00000000000E+00 -0.10649431487E+04  0.10649431487E+04  0.25500000920E-02 0. -1.
    10030    2    1    2    0    0  0.00000000000E+00  0.00000000000E+00  0.18124956981E+04  0.39423819954E+04  0.35010334392E+04 0.  0.
        1    1    3    3  502    0 -0.59874034709E+03  0.50396378875E+03 -0.85698002717E+03  0.11605534329E+04  0.50400001928E-02 0. -1.
       -1    1    3    3    0  502  0.59874034709E+03 -0.50396378875E+03  0.26694757253E+04  0.27818285625E+04  0.50400001928E-02 0.  1.
</event>
<event>
 5   0  0.1121462E-08  0.3500385E+04  0.7818609E-02  0.8113699E-01
       -1   -1    0    0    0  501  0.00000000000E+00  0.00000000000E+00  0.13226522022E+04  0.13226522022E+04  0.50400001928E-02 0.  1.
        1   -1    0    0  501    0  0.00000000000E+00  0.00000000000E+00 -0.23159324515E+04  0.23159324515E+04  0.50400001928E-02 0. -1.
    10030    2    1    2    0    0  0.00000000000E+00  0.00000000000E+00 -0.99328024928E+03  0.36385846537E+04  0.35003846401E+04 0.  0.
        4    1    3    3  502    0 -0.14828133511E+04 -0.15397788265E+03 -0.14497526818E+04  0.20794780772E+04  0.12699999809E+01 0. -1.
       -4    1    3    3    0  502  0.14828133511E+04  0.15397788265E+03  0.45647243249E+03  0.15591065765E+04  0.12699999809E+01 0.  1.
</event>
<event>
 5   0  0.3467834E-08  0.3499891E+04  0.7818609E-02  0.8113816E-01
        2   -1    0    0  501    0  0.00000000000E+00  0.00000000000E+00  0.18317086735E+04  0.18317086735E+04  0.25500000920E-02 0.  1.
       -2   -1    0    0    0  501  0.00000000000E+00  0.00000000000E+00 -0.16718323576E+04  0.16718323576E+04  0.25500000920E-02 0. -1.
    10030    2    1    2    0    0  0.00000000000E+00  0.00000000000E+00  0.15987631586E+03  0.35035410311E+04  0.34998913298E+04 0.  0.
        3    1    3    3  502    0 -0.73507360202E+03  0.11863172579E+04 -0.97692222669E+03  0.17035430385E+04  0.10100000352E+00 0.  1.
       -3    1    3    3    0  502  0.73507360202E+03 -0.11863172579E+04  0.11367985425E+04  0.17999979926E+04  0.10100000352E+00 0. -1.
</event>
<event>
 5   0  0.1121462E-08  0.3499839E+04  0.7818609E-02  0.8113828E-01
       -1   -1    0    0    0  501  0.00000000000E+00  0.00000000000E+00  0.11613873666E+04  0.11613873666E+04  0.50400001928E-02 0. -1.
        1   -1    0    0  501    0  0.00000000000E+00  0.00000000000E+00 -0.26366898992E+04  0.26366898992E+04  0.50400001928E-02 0.  1.
    10030    2    1    2    0    0  0.00000000000E+00  0.00000000000E+00 -0.14753025325E+04  0.37980772658E+04  0.34998390470E+04 0.  0.
        4    1    3    3  502    0  0.14971723734E+04 -0.86685014624E+03 -0.45204706048E+03  0.17881002347E+04  0.12699999809E+01 0. -1.
       -4    1    3    3    0  502 -0.14971723734E+04  0.86685014624E+03 -0.10232554721E+04  0.20099770311E+04  0.12699999809E+01 0.  1.
</event>
<event>
 5   0  0.3467834E-08  0.3500025E+04  0.7818609E-02  0.8113784E-01
        2   -1    0    0  501    0  0.00000000000E+00  0.00000000000E+00  0.14651790703E+04  0.14651790703E+04  0.25500000920E-02 0.  1.
       -2   -1    0    0    0  501  0.00000000000E+00  0.00000000000E+00 -0.20902176080E+04  0.20902176080E+04  0.25500000920E-02 0. -1.
    10030    2    1    2    0    0  0.00000000000E+00  0.00000000000E+00 -0.62503853773E+03  0.35553966783E+04  0.35000246237E+04 0.  0.
        3    1    3    3  502    0 -0.14671838056E+04 -0.44784736394E+03 -0.11680714130E+04  0.19281043584E+04  0.10100000352E+00 0. -1.
       -3    1    3    3    0  502  0.14671838056E+04  0.44784736394E+03  0.54303287524E+03  0.16272923199E+04  0.10100000352E+00 0.  1.
</event>
<event>
 5   0  0.3700096E-08  0.3478147E+04  0.7818609E-02  0.8118988E-01
       -2   -1    0    0    0  501  0.00000000000E+00  0.00000000000E+00  0.17014800665E+04  0.17014800665E+04  0.25500000920E-02 0.  1.
        2   -1    0    0  501    0  0.00000000000E+00  0.00000000000E+00 -0.17774972101E+04  0.17774972101E+04  0.25500000920E-02 0. -1.
    10030    2    1    2    0    0  0.00000000000E+00  0.00000000000E+00 -0.76017143645E+02  0.34789772766E+04  0.34781466738E+04 0.  0.
        4    1    3    3  502    0 -0.57586818101E+03  0.12156526398E+04  0.10644973441E+04  0.17153984118E+04  0.12699999809E+01 0.  1.
       -4    1    3    3    0  502  0.57586818101E+03 -0.12156526398E+04 -0.11405144878E+04  0.17635788648E+04  0.12699999809E+01 0. -1.
</event>
<event>
 5   0  0.3553585E-08  0.3500018E+04  0.7818609E-02  0.8113786E-01
        2   -1    0    0  501    0  0.00000000000E+00  0.00000000000E+00  0.19897273153E+04  0.19897273153E+04  0.25500000920E-02 0.  1.
       -2   -1    0    0    0  501  0.00000000000E+00  0.00000000000E+00 -0.15391711604E+04  0.15391711604E+04  0.25500000920E-02 0. -1.
    10030    2    1    2    0    0  0.00000000000E+00  0.00000000000E+00  0.45055615487E+03  0.35288984757E+04  0.35000176575E+04 0.  0.
        2    1    3    3  502    0  0.10207790455E+04  0.21502275775E+03 -0.11914163626E+04  0.15835711525E+04  0.25500000920E-02 0. -1.
       -2    1    3    3    0  502 -0.10207790455E+04 -0.21502275775E+03  0.16419725175E+04  0.19453273232E+04  0.25500000920E-02 0.  1.
</event>
<event>
 5   0  0.3553585E-08  0.3500351E+04  0.7818609E-02  0.8113707E-01
        2   -1    0    0  501    0  0.00000000000E+00  0.00000000000E+00  0.25185826588E+04  0.25185826588E+04  0.25500000920E-02 0.  1.
       -2   -1    0    0    0  501  0.00000000000E+00  0.00000000000E+00 -0.12162059036E+04  0.12162059036E+04  0.25500000920E-02 0. -1.
    10030    2    1    2    0    0  0.00000000000E+00  0.00000000000E+00  0.13023767552E+04  0.37347885624E+04  0.35003514672E+04 0.  0.
        2    1    3    3  502    0  0.16226035267E+04 -0.16105583872E+03  0.13296486921E+04  0.21039835628E+04  0.25500000920E-02 0.  1.
       -2    1    3    3    0  502 -0.16226035267E+04  0.16105583872E+03 -0.27271936977E+02  0.16308049996E+04  0.25500000920E-02 0. -1.
</event>
<event>
 5   0  0.1121462E-08  0.3496703E+04  0.7818609E-02  0.8114572E-01
       -1   -1    0    0    0  501  0.00000000000E+00  0.00000000000E+00  0.15158385602E+04  0.15158385602E+04  0.50400001928E-02 0. -1.
        1   -1    0    0  501    0  0.00000000000E+00  0.00000000000E+00 -0.20165294110E+04  0.20165294110E+04  0.50400001928E-02 0.  1.
    10030    2    1    2    0    0  0.00000000000E+00  0.00000000000E+00 -0.50069085084E+03  0.35323679712E+04  0.34967030409E+04 0.  0.
        4    1    3    3  502    0  0.62461755506E+03 -0.15591170717E+04  0.24013564851E+03  0.16966613911E+04  0.12699999809E+01 0. -1.
       -4    1    3    3    0  502 -0.62461755506E+03  0.15591170717E+04 -0.74082649936E+03  0.18357065802E+04  0.12699999809E+01 0.  1.
</event>
<event>
 5   0  0.3553585E-08  0.3499717E+04  0.7818609E-02  0.8113857E-01
        2   -1    0    0  501    0  0.00000000000E+00  0.00000000000E+00  0.27044750709E+04  0.27044750709E+04  0.25500000920E-02 0. -1.
       -2   -1    0    0    0  501  0.00000000000E+00  0.00000000000E+00 -0.11321995044E+04  0.11321995044E+04  0.25500000920E-02 0.  1.
    10030    2    1    2    0    0  0.00000000000E+00  0.00000000000E+00  0.15722755665E+04  0.38366745753E+04  0.34997173229E+04 0.  0.
        2    1    3    3  502    0  0.14141487334E+04 -0.37667444313E+03  0.18378281637E+04  0.23493217395E+04  0.25500000920E-02 0. -1.
       -2    1    3    3    0  502 -0.14141487334E+04  0.37667444313E+03 -0.26555259729E+03  0.14873528358E+04  0.25500000920E-02 0.  1.
</event>
<event>
 5   0  0.3554451E-08  0.3499672E+04  0.7818609E-02  0.8113868E-01
       -2   -1    0    0    0  501  0.00000000000E+00  0.00000000000E+00  0.17801344939E+04  0.17801344939E+04  0.25500000920E-02 0.  1.
        2   -1    0    0  501    0  0.00000000000E+00  0.00000000000E+00 -0.17200528811E+04  0.17200528811E+04  0.25500000920E-02 0. -1.
    10030    2    1    2    0    0  0.00000000000E+00  0.00000000000E+00  0.60081612859E+02  0.35001873750E+04  0.34996716789E+04 0.  0.
        5    1    3    3  502    0 -0.10594776145E+04  0.13664989077E+04  0.29857859218E+03  0.17547032074E+04  0.46999998093E+01 0. -1.
       -5    1    3    3    0  502  0.10594776145E+04 -0.13664989077E+04 -0.23849697932E+03  0.17454841676E+04  0.46999998093E+01 0.  1.
</event>
<event>
 5   0  0.3554451E-08  0.3499200E+04  0.7818609E-02  0.8113980E-01
       -2   -1    0    0    0  501  0.00000000000E+00  0.00000000000E+00  0.11496670648E+04  0.11496670648E+04  0.25500000920E-02 0. -1.
        2   -1    0    0  501    0  0.00000000000E+00  0.00000000000E+00 -0.26625973989E+04  0.26625973989E+04  0.25500000920E-02 0.  1.
    10030    2    1    2    0    0  0.00000000000E+00  0.00000000000E+00 -0.15129303341E+04  0.38122644637E+04  0.34992002151E+04 0.  0.
        5    1    3    3  502    0 -0.21257958300E+03  0.17052125084E+04 -0.11147304597E+04  0.20483129316E+04  0.46999998093E+01 0.  1.
       -5    1    3    3    0  502  0.21257958300E+03 -0.17052125084E+04 -0.39819987443E+03  0.17639515322E+04  0.46999998093E+01 0. -1.
</event>
<event>
 5   0  0.3467834E-08  0.3500270E+04  0.7818609E-02  0.8113726E-01
       -2   -1    0    0    0  501  0.00000000000E+00  0.00000000000E+00  0.15600679456E+04  0.15600679456E+04  0.25500000920E-02 0.  1.
        2   -1    0    0  501    0  0.00000000000E+00  0.00000000000E+00 -0.19633579918E+04  0.19633579918E+04  0.25500000920E-02 0. -1.
    10030    2    1    2    0    0  0.00000000000E+00  0.00000000000E+00 -0.40329004617E+03  0.35234259374E+04  0.35002696289E+04 0.  0.
        3    1    3    3  502    0 -0.26529163492E+03  0.15244749546E+04  0.62142454434E+03  0.16675047266E+04  0.10100000352E+00 0.  1.
       -3    1    3    3    0  502  0.26529163492E+03 -0.15244749546E+04 -0.10247145905E+04  0.18559212108E+04  0.10100000352E+00 0. -1.
</event>
<event>
 5   0  0.1129219E-08  0.3501023E+04  0.7818609E-02  0.8113548E-01
       -1   -1    0    0    0  501  0.00000000000E+00  0.00000000000E+00  0.13545149729E+04  0.13545149729E+04  0.50400001928E-02 0.  1.
        1   -1    0    0  501    0  0.00000000000E+00  0.00000000000E+00 -0.22622782810E+04  0.22622782810E+04  0.50400001928E-02 0. -1.
    10030    2    1    2    0    0  0.00000000000E+00  0.00000000000E+00 -0.90776330813E+03  0.36167932538E+04  0.35010225960E+04 0.  0.
        5    1    3    3  502    0  0.81560822934E+03 -0.76762008484E+03 -0.18436592372E+04  0.21572108963E+04  0.46999998093E+01 0. -1.
       -5    1    3    3    0  502 -0.81560822934E+03  0.76762008484E+03  0.93589592903E+03  0.14595823575E+04  0.46999998093E+01 0.  1.
</event>
<event>
 5   0  0.1121462E-08  0.3499582E+04  0.7818609E-02  0.8113889E-01
       -1   -1    0    0    0  501  0.00000000000E+00  0.00000000000E+00  0.14006455252E+04  0.14006455252E+04  0.50400001928E-02 0. -1.
        1   -1    0    0  501    0  0.00000000000E+00  0.00000000000E+00 -0.21859690435E+04  0.21859690435E+04  0.50400001928E-02 0.  1.
    10030    2    1    2    0    0  0.00000000000E+00  0.00000000000E+00 -0.78532351829E+03  0.35866145687E+04  0.34995815515E+04 0.  0.
        1    1    3    3  502    0 -0.14421486755E+04  0.34662774160E+03 -0.13440941302E+04  0.20016324898E+04  0.50400001928E-02 0.  1.
       -1    1    3    3    0  502  0.14421486755E+04 -0.34662774160E+03  0.55877061192E+03  0.15849820788E+04  0.50400001928E-02 0. -1.
</event>
<event>
 5   0  0.3467834E-08  0.3497758E+04  0.7818609E-02  0.8114321E-01
        2   -1    0    0  501    0  0.00000000000E+00  0.00000000000E+00  0.27001448625E+04  0.27001448625E+04  0.25500000920E-02 0. -1.
       -2   -1    0    0    0  501  0.00000000000E+00  0.00000000000E+00 -0.11327460721E+04  0.11327460721E+04  0.25500000920E-02 0.  1.
    10030    2    1    2    0    0  0.00000000000E+00  0.00000000000E+00  0.15673987904E+04  0.38328909346E+04  0.34977584177E+04 0.  0.
        3    1    3    3  502    0  0.10334062411E+04  0.12142728212E+04  0.15710027274E+04  0.22384004385E+04  0.10100000352E+00 0. -1.
       -3    1    3    3    0  502 -0.10334062411E+04 -0.12142728212E+04 -0.36039370213E+01  0.15944904961E+04  0.10100000352E+00 0.  1.
</event>
<event>
 5   0  0.1121462E-08  0.3501052E+04  0.7818609E-02  0.8113541E-01
       -1   -1    0    0    0  501  0.00000000000E+00  0.00000000000E+00  0.17795390597E+04  0.17795390597E+04  0.50400001928E-02 0. -1.
        1   -1    0    0  501    0  0.00000000000E+00  0.00000000000E+00 -0.17219860041E+04  0.17219860041E+04  0.50400001928E-02 0.  1.
    10030    2    1    2    0    0  0.00000000000E+00  0.00000000000E+00  0.57553055636E+02  0.35015250638E+04  0.35010520445E+04 0.  0.
        2    1    3    3  502    0 -0.16614635138E+04  0.51186394736E+03 -0.17588651836E+03  0.17473985738E+04  0.25500000920E-02 0. -1.
       -2    1    3    3    0  502  0.16614635138E+04 -0.51186394736E+03  0.23343957400E+03  0.17541264900E+04  0.25500000920E-02 0.  1.
</event>
<event>
 5   0  0.3700096E-08  0.3498966E+04  0.7818609E-02  0.8114035E-01
        2   -1    0    0  501    0  0.00000000000E+00  0.00000000000E+00  0.15336426577E+04  0.15336426577E+04  0.25500000920E-02 0. -1.
       -2   -1    0    0    0  501  0.00000000000E+00  0.00000000000E+00 -0.19957005358E+04  0.19957005358E+04  0.25500000920E-02 0.  1.
    10030    2    1    2    0    0  0.00000000000E+00  0.00000000000E+00 -0.46205787816E+03  0.35293431935E+04  0.34989664037E+04 0.  0.
        4    1    3    3  502    0 -0.99933386624E+03 -0.13403240185E+04 -0.75082130449E+03  0.18327222635E+04  0.12699999809E+01 0.  1.
       -4    1    3    3    0  502  0.99933386624E+03  0.13403240185E+04  0.28876342632E+03  0.16966209300E+04  0.12699999809E+01 0. -1.
</event>
<event>
 5   0  0.1121462E-08  0.3500419E+04  0.7818609E-02  0.8113691E-01
        1   -1    0    0  501    0  0.00000000000E+00  0.00000000000E+00  0.16919264488E+04  0.16919264488E+04  0.50400001928E-02 0.  1.
       -1   -1    0    0    0  501  0.00000000000E+00  0.00000000000E+00 -0.18105004721E+04  0.18105004721E+04  0.50400001928E-02 0. -1.
    10030    2    1    2    0    0  0.00000000000E+00  0.00000000000E+00 -0.11857402331E+03  0.35024269209E+04  0.35004191945E+04 0.  0.
        4    1    3    3  502    0 -0.37989337854E+03  0.95217975547E+03 -0.14786445279E+04  0.17992655497E+04  0.12699999809E+01 0. -1.
       -4    1    3    3    0  502  0.37989337854E+03 -0.95217975547E+03  0.13600705046E+04  0.17031613711E+04  0.12699999809E+01 0.  1.
</event>
<event>
 5   0  0.3700096E-08  0.3499995E+04  0.7818609E-02  0.8113791E-01
        2   -1    0    0  501    0  0.00000000000E+00  0.00000000000E+00  0.25109172167E+04  0.25109172167E+04  0.25500000920E-02 0.  1.
       -2   -1    0    0    0  501  0.00000000000E+00  0.00000000000E+00 -0.12196702894E+04  0.12196702894E+04  0.25500000920E-02 0. -1.
    10030    2    1    2    0    0  0.00000000000E+00  0.00000000000E+00  0.12912469273E+04  0.37305875062E+04  0.34999949305E+04 0.  0.
        4    1    3    3  502    0  0.48730044636E+03  0.96972234361E+03 -0.81765525452E+03  0.13588174553E+04  0.12699999809E+01 0. -1.
       -4    1    3    3    0  502 -0.48730044636E+03 -0.96972234361E+03  0.21089021818E+04  0.23717700508E+04  0.12699999809E+01 0.  1.
</event>
<event>
 5   0  0.3628017E-08  0.3501434E+04  0.7818609E-02  0.8113450E-01
        2   -1    0    0  501    0  0.00000000000E+00  0.00000000000E+00  0.20100881269E+04  0.20100881269E+04  0.25500000920E-02 0. -1.
       -2   -1    0    0    0  501  0.00000000000E+00  0.00000000000E+00 -0.15248139836E+04  0.15248139836E+04  0.25500000920E-02 0.  1.
    10030    2    1    2    0    0  0.00000000000E+00  0.00000000000E+00  0.48527414326E+03  0.35349021105E+04  0.35014342685E+04 0.  0.
        1    1    3    3  502    0  0.99363884683E+03  0.27784960747E+02 -0.12122903582E+04  0.15677174728E+04  0.50400001928E-02 0.  1.
       -1    1    3    3    0  502 -0.99363884683E+03 -0.27784960747E+02  0.16975645015E+04  0.19671846377E+04  0.50400001928E-02 0. -1.
</event>
<event>
 5   0  0.3553585E-08  0.3499147E+04  0.7818609E-02  0.8113992E-01
        2   -1    0    0  501    0  0.00000000000E+00  0.00000000000E+00  0.20933930779E+04  0.20933930779E+04  0.25500000920E-02 0. -1.
       -2   -1    0    0    0  501  0.00000000000E+00  0.00000000000E+00 -0.14622230605E+04  0.14622230605E+04  0.25500000920E-02 0.  1.
    10030    2    1    2    0    0  0.00000000000E+00  0.00000000000E+00  0.63117001732E+03  0.35556161384E+04  0.34991471151E+04 0.  0.
        2    1    3    3  502    0  0.16321090634E+04 -0.49278944971E+03 -0.83676001069E+02  0.17069338329E+04  0.25500000920E-02 0.  1.
       -2    1    3    3    0  502 -0.16321090634E+04  0.49278944971E+03  0.71484601839E+03  0.18486823055E+04  0.25500000920E-02 0. -1.
</event>
<event>
 5   0  0.1140808E-08  0.3499826E+04  0.7818609E-02  0.8113831E-01
        1   -1    0    0  501    0  0.00000000000E+00  0.00000000000E+00  0.14535526662E+04  0.14535526662E+04  0.50400001928E-02 0. -1.
       -1   -1    0    0    0  501  0.00000000000E+00  0.00000000000E+00 -0.21066969897E+04  0.21066969897E+04  0.50400001928E-02 0.  1.
    10030    2    1    2    0    0  0.00000000000E+00  0.00000000000E+00 -0.65314432349E+03  0.35602496560E+04  0.34998257250E+04 0.  0.
        3    1    3    3  502    0 -0.12640983600E+04  0.82098735819E+03  0.57772427776E+03  0.16142274491E+04  0.10100000352E+00 0. -1.
       -3    1    3    3    0  502  0.12640983600E+04 -0.82098735819E+03 -0.12308686013E+04  0.19460222069E+04  0.10100000352E+00 0.  1.
</event>
<event>
 5   0  0.1121462E-08  0.3498868E+04  0.7818609E-02  0.8114058E-01
       -1   -1    0    0    0  501  0.00000000000E+00  0.00000000000E+00  0.23639579219E+04  0.23639579219E+04  0.50400001928E-02 0. -1.
        1   -1    0    0  501    0  0.00000000000E+00  0.00000000000E+00 -0.12946590169E+04  0.12946590169E+04  0.50400001928E-02 0.  1.
    10030    2    1    2    0    0  0.00000000000E+00  0.00000000000E+00  0.10692989050E+04  0.36586169388E+04  0.34988680679E+04 0.  0.
        1    1    3    3  502    0  0.14825639847E+03  0.41313316435E+03 -0.12361459375E+04  0.13117605536E+04  0.50400001928E-02 0.  1.
       -1    1    3    3    0  502 -0.14825639847E+03 -0.41313316435E+03  0.23054448425E+04  0.23468563852E+04  0.50400001928E-02 0. -1.
</event>
<event>
 5   0  0.1121462E-08  0.3500393E+04  0.7818609E-02  0.8113697E-01
       -1   -1    0    0    0  501  0.00000000000E+00  0.00000000000E+00  0.16432178890E+04  0.16432178890E+04  0.50400001928E-02 0. -1.
        1   -1    0    0  501    0  0.00000000000E+00  0.00000000000E+00 -0.18641397923E+04  0.18641397923E+04  0.50400001928E-02 0.  1.
    10030    2    1    2    0    0  0.00000000000E+00  0.00000000000E+00 -0.22092190333E+03  0.35073576813E+04  0.35003930376E+04 0.  0.
        2    1    3    3  502    0 -0.63856536314E+03  0.16222500675E+04 -0.26480265458E+03  0.17634005360E+04  0.25500000920E-02 0.  1.
       -2    1    3    3    0  502  0.63856536314E+03 -0.16222500675E+04  0.43880751247E+02  0.17439571453E+04  0.25500000920E-02 0. -1.
</event>
<event>
 5   0  0.3553585E-08  0.3499588E+04  0.7818609E-02  0.8113887E-01
        2   -1    0    0  501    0  0.00000000000E+00  0.00000000000E+00  0.25437392814E+04  0.25437392814E+04  0.25500000920E-02 0.  1.
       -2   -1    0    0    0  501  0.00000000000E+00  0.00000000000E+00 -0.12036531602E+04  0.12036531602E+04  0.25500000920E-02 0. -1.
    10030    2    1    2    0    0  0.00000000000E+00  0.00000000000E+00  0.13400861211E+04  0.37473924416E+04  0.34995884471E+04 0.  0.
        2    1    3    3  502    0  0.13114328222E+04 -0.36487844110E+03  0.18473431653E+04  0.22947045767E+04  0.25500000920E-02 0.  1.
       -2    1    3    3    0  502 -0.13114328222E+04  0.36487844110E+03 -0.50725704418E+03  0.14526878649E+04  0.25500000920E-02 0. -1.
</event>
<event>
 5   0  0.3554451E-08  0.3514372E+04  0.7818609E-02  0.8110392E-01
       -2   -1    0    0    0  501  0.00000000000E+00  0.00000000000E+00  0.12770481038E+04  0.12770481038E+04  0.25500000920E-02 0.  1.
        2   -1    0    0  501    0  0.00000000000E+00  0.00000000000E+00 -0.24178440768E+04  0.24178440768E+04  0.25500000920E-02 0. -1.
    10030    2    1    2    0    0  0.00000000000E+00  0.00000000000E+00 -0.11407959730E+04  0.36948921806E+04  0.35143723159E+04 0.  0.
        5    1    3    3  502    0  0.10901933067E+04 -0.51291825694E+03 -0.19151913004E+04  0.22626503025E+04  0.46999998093E+01 0. -1.
       -5    1    3    3    0  502 -0.10901933067E+04  0.51291825694E+03  0.77439532742E+03  0.14322418781E+04  0.46999998093E+01 0.  1.
</event>
<event>
 5   0  0.1121462E-08  0.3500552E+04  0.7818609E-02  0.8113659E-01
       -1   -1    0    0    0  501  0.00000000000E+00  0.00000000000E+00  0.13742628693E+04  0.13742628693E+04  0.50400001928E-02 0.  1.
        1   -1    0    0  501    0  0.00000000000E+00  0.00000000000E+00 -0.22291708701E+04  0.22291708701E+04  0.50400001928E-02 0. -1.
    10030    2    1    2    0    0  0.00000000000E+00  0.00000000000E+00 -0.85490800083E+03  0.36034337395E+04  0.35005523885E+04 0.  0.
        1    1    3    3  502    0 -0.73661553625E+03 -0.13112284906E+04 -0.13490565855E+04  0.20203653813E+04  0.50400001928E-02 0. -1.
       -1    1    3    3    0  502  0.73661553625E+03  0.13112284906E+04  0.49414858472E+03  0.15830683582E+04  0.50400001928E-02 0.  1.
</event>
<event>
 5   0  0.3628017E-08  0.3501103E+04  0.7818609E-02  0.8113529E-01
       -2   -1    0    0    0  501  0.00000000000E+00  0.00000000000E+00  0.12271163136E+04  0.12271163136E+04  0.25500000920E-02 0.  1.
        2   -1    0    0  501    0  0.00000000000E+00  0.00000000000E+00 -0.24972617891E+04  0.24972617891E+04  0.25500000920E-02 0. -1.
    10030    2    1    2    0    0  0.00000000000E+00  0.00000000000E+00 -0.12701454754E+04  0.37243781027E+04  0.35011030723E+04 0.  0.
        1    1    3    3  502    0  0.75343351309E+03 -0.92771768075E+03 -0.19957493562E+04  0.23262282017E+04  0.50400001928E-02 0. -1.
       -1    1    3    3    0  502 -0.75343351309E+03  0.92771768075E+03  0.72560388072E+03  0.13981499010E+04  0.50400001928E-02 0.  1.
</event>
<event>
 5   0  0.1121462E-08  0.3492643E+04  0.7818609E-02  0.8115536E-01
        1   -1    0    0  501    0  0.00000000000E+00  0.00000000000E+00  0.16409446523E+04  0.16409446523E+04  0.50400001928E-02 0. -1.
       -1   -1    0    0    0  501  0.00000000000E+00  0.00000000000E+00 -0.18584655365E+04  0.18584655365E+04  0.50400001928E-02 0.  1.
    10030    2    1    2    0    0  0.00000000000E+00  0.00000000000E+00 -0.21752088415E+03  0.34994101888E+04  0.34926431731E+04 0.  0.
        1    1    3    3  502    0  0.15642033620E+04 -0.49745888569E+03 -0.70610477948E+03  0.17868355997E+04  0.50400001928E-02 0.  1.
       -1    1    3    3    0  502 -0.15642033620E+04  0.49745888569E+03  0.48858389533E+03  0.17125745892E+04  0.50400001928E-02 0. -1.
</event>
<event>
 5   0  0.3554451E-08  0.3500661E+04  0.7818609E-02  0.8113633E-01
        2   -1    0    0  501    0  0.00000000000E+00  0.00000000000E+00  0.19769381551E+04  0.19769381551E+04  0.25500000920E-02 0.  1.
       -2   -1    0    0    0  501  0.00000000000E+00  0.00000000000E+00 -0.15496978816E+04  0.15496978816E+04  0.25500000920E-02 0. -1.
    10030    2    1    2    0    0  0.00000000000E+00  0.00000000000E+00  0.42724027353E+03  0.35266360366E+04  0.35006610067E+04 0.  0.
        5    1    3    3  502    0 -0.71536138913E+03 -0.10542142654E+04  0.14227445942E+04  0.19097994410E+04  0.46999998093E+01 0.  1.
       -5    1    3    3    0  502  0.71536138913E+03  0.10542142654E+04 -0.99550432070E+03  0.16168365956E+04  0.46999998093E+01 0. -1.
</event>
<event>
 5   0  0.3628017E-08  0.3501087E+04  0.7818609E-02  0.8113532E-01
        2   -1    0    0  501    0  0.00000000000E+00  0.00000000000E+00  0.16283681755E+04  0.16283681755E+04  0.25500000920E-02 0. -1.
       -2   -1    0    0    0  501  0.00000000000E+00  0.00000000000E+00 -0.18818855223E+04  0.18818855223E+04  0.25500000920E-02 0.  1.
    10030    2    1    2    0    0  0.00000000000E+00  0.00000000000E+00 -0.25351734675E+03  0.35102536978E+04  0.35010869709E+04 0.  0.
        1    1    3    3  502    0  0.53548215929E+03 -0.90483760470E+03 -0.15300411234E+04  0.18564746357E+04  0.50400001928E-02 0.  1.
       -1    1    3    3    0  502 -0.53548215929E+03  0.90483760470E+03  0.12765237767E+04  0.16537790621E+04  0.50400001928E-02 0. -1.
</event>
<event>
 5   0  0.3554451E-08  0.3493003E+04  0.7818609E-02  0.8115450E-01
       -2   -1    0    0    0  501  0.00000000000E+00  0.00000000000E+00  0.15871491638E+04  0.15871491638E+04  0.25500000920E-02 0.  1.
        2   -1    0    0  501    0  0.00000000000E+00  0.00000000000E+00 -0.19218527436E+04  0.19218527436E+04  0.25500000920E-02 0. -1.
    10030    2    1    2    0    0  0.00000000000E+00  0.00000000000E+00 -0.33470357979E+03  0.35090019074E+04  0.34930027053E+04 0.  0.
        5    1    3    3  502    0 -0.50094810861E+03 -0.23306646550E+03  0.14970338121E+04  0.15957447507E+04  0.46999998093E+01 0.  1.
       -5    1    3    3    0  502  0.50094810861E+03  0.23306646550E+03 -0.18317373919E+04  0.19132571567E+04  0.46999998093E+01 0. -1.
</event>
<event>
 5   0  0.3554451E-08  0.3499435E+04  0.7818609E-02  0.8113924E-01
        2   -1    0    0  501    0  0.00000000000E+00  0.00000000000E+00  0.23482180288E+04  0.23482180288E+04  0.25500000920E-02 0.  1.
       -2   -1    0    0    0  501  0.00000000000E+00  0.00000000000E+00 -0.13037596866E+04  0.13037596866E+04  0.25500000920E-02 0. -1.
    10030    2    1    2    0    0  0.00000000000E+00  0.00000000000E+00  0.10444583422E+04  0.36519777153E+04  0.34994353837E+04 0.  0.
        5    1    3    3  502    0 -0.13298019934E+04 -0.17614947757E+03 -0.65016849943E+03  0.14906854624E+04  0.46999998093E+01 0. -1.
       -5    1    3    3    0  502  0.13298019934E+04  0.17614947757E+03  0.16946268416E+04  0.21612922529E+04  0.46999998093E+01 0.  1.
</event>
<event>
 5   0  0.1121462E-08  0.3499674E+04  0.7818609E-02  0.8113867E-01
        1   -1    0    0  501    0  0.00000000000E+00  0.00000000000E+00  0.16162472789E+04  0.16162472789E+04  0.50400001928E-02 0.  1.
       -1   -1    0    0    0  501  0.00000000000E+00  0.00000000000E+00 -0.18944684440E+04  0.18944684440E+04  0.50400001928E-02 0. -1.
    10030    2    1    2    0    0  0.00000000000E+00  0.00000000000E+00 -0.27822116508E+03  0.35107157229E+04  0.34996739663E+04 0.  0.
        2    1    3    3  502    0 -0.15377879688E+04  0.83449414656E+03 -0.11150740925E+03  0.17531703340E+04  0.25500000920E-02 0.  1.
       -2    1    3    3    0  502  0.15377879688E+04 -0.83449414656E+03 -0.16671375582E+03  0.17575453889E+04  0.25500000920E-02 0. -1.
</event>
<event>
 5   0  0.3467834E-08  0.3501191E+04  0.7818609E-02  0.8113508E-01
        2   -1    0    0  501    0  0.00000000000E+00  0.00000000000E+00  0.21965434933E+04  0.21965434933E+04  0.25500000920E-02 0. -1.
       -2   -1    0    0    0  501  0.00000000000E+00  0.00000000000E+00 -0.13951849289E+04  0.13951849289E+04  0.25500000920E-02 0.  1.
    10030    2    1    2    0    0  0.00000000000E+00  0.00000000000E+00  0.80135856439E+03  0.35917284221E+04  0.35011908702E+04 0.  0.
        3    1    3    3  502    0  0.11596759351E+04  0.55402216500E+03 -0.81866784848E+03  0.15238129446E+04  0.10100000352E+00 0.  1.
       -3    1    3    3    0  502 -0.11596759351E+04 -0.55402216500E+03  0.16200264129E+04  0.20679154776E+04  0.10100000352E+00 0. -1.
</event>
<event>
 5   0  0.1121462E-08  0.3500578E+04  0.7818609E-02  0.8113653E-01
        1   -1    0    0  501    0  0.00000000000E+00  0.00000000000E+00  0.22595380802E+04  0.22595380802E+04  0.50400001928E-02 0. -1.
       -1   -1    0    0    0  501  0.00000000000E+00  0.00000000000E+00 -0.13558131480E+04  0.13558131480E+04  0.50400001928E-02 0.  1.
    10030    2    1    2    0    0  0.00000000000E+00  0.00000000000E+00  0.90372493222E+03  0.36153512282E+04  0.35005779165E+04 0.  0.
        2    1    3    3  502    0  0.16299889435E+04  0.43521997829E+03  0.93322435084E+03  0.19280010567E+04  0.25500000920E-02 0. -1.
       -2    1    3    3    0  502 -0.16299889435E+04 -0.43521997829E+03 -0.29499418625E+02  0.16873501715E+04  0.25500000920E-02 0.  1.
</event>
<event>
 5   0  0.3700096E-08  0.3499162E+04  0.7818609E-02  0.8113989E-01
       -2   -1    0    0    0  501  0.00000000000E+00  0.00000000000E+00  0.17280073170E+04  0.17280073170E+04  0.25500000920E-02 0.  1.
        2   -1    0    0  501    0  0.00000000000E+00  0.00000000000E+00 -0.17714237756E+04  0.17714237756E+04  0.25500000920E-02 0. -1.
    10030    2    1    2    0    0  0.00000000000E+00  0.00000000000E+00 -0.43416458620E+02  0.34994310925E+04  0.34991617543E+04 0.  0.
        4    1    3    3  502    0  0.12699438054E+04  0.52844849435E+03 -0.11030021409E+04  0.17631308561E+04  0.12699999809E+01 0. -1.
       -4    1    3    3    0  502 -0.12699438054E+04 -0.52844849435E+03  0.10595856823E+04  0.17363002364E+04  0.12699999809E+01 0.  1.
</event>
<event>
 5   0  0.1140808E-08  0.3500891E+04  0.7818609E-02  0.8113579E-01
       -1   -1    0    0    0  501  0.00000000000E+00  0.00000000000E+00  0.17369816691E+04  0.17369816691E+04  0.50400001928E-02 0.  1.
        1   -1    0    0  501    0  0.00000000000E+00  0.00000000000E+00 -0.17640134770E+04  0.17640134770E+04  0.50400001928E-02 0. -1.
    10030    2    1    2    0    0  0.00000000000E+00  0.00000000000E+00 -0.27031807849E+02  0.35009951461E+04  0.35008907858E+04 0.  0.
        3    1    3    3  502    0 -0.12740287917E+04 -0.11710568572E+04  0.25018787737E+03  0.17484614691E+04  0.10100000352E+00 0.  1.
       -3    1    3    3    0  502  0.12740287917E+04  0.11710568572E+04 -0.27721968522E+03  0.17525336770E+04  0.10100000352E+00 0. -1.
</event>
<event>
 5   0  0.3467834E-08  0.3500377E+04  0.7818609E-02  0.8113701E-01
       -2   -1    0    0    0  501  0.00000000000E+00  0.00000000000E+00  0.17662222571E+04  0.17662222571E+04  0.25500000920E-02 0.  1.
        2   -1    0    0  501    0  0.00000000000E+00  0.00000000000E+00 -0.17343005802E+04  0.17343005802E+04  0.25500000920E-02 0. -1.
    10030    2    1    2    0    0  0.00000000000E+00  0.00000000000E+00  0.31921676966E+02  0.35005228373E+04  0.35003772855E+04 0.  0.
        3    1    3    3  502    0  0.26702672893E+03  0.15081643436E+04 -0.83100844541E+03  0.17425378067E+04  0.10100000352E+00 0. -1.
       -3    1    3    3    0  502 -0.26702672893E+03 -0.15081643436E+04  0.86293012237E+03  0.17579850306E+04  0.10100000352E+00 0.  1.
</event>
<event>
 5   0  0.1121462E-08  0.3497043E+04  0.7818609E-02  0.8114491E-01
       -1   -1    0    0    0  501  0.00000000000E+00  0.00000000000E+00  0.17369257898E+04  0.17369257899E+04  0.50400001928E-02 0.  1.
        1   -1    0    0  501    0  0.00000000000E+00  0.00000000000E+00 -0.17601947729E+04  0.17601947729E+04  0.50400001928E-02 0. -1.
    10030    2    1    2    0    0  0.00000000000E+00  0.00000000000E+00 -0.23268983026E+02  0.34971205627E+04  0.34970431488E+04 0.  0.
        4    1    3    3  502    0  0.14272356232E+04 -0.16364916879E+03  0.98515410053E+03  0.17419278944E+04  0.12699999809E+01 0.  1.
       -4    1    3    3    0  502 -0.14272356232E+04  0.16364916879E+03 -0.10084230836E+04  0.17551926683E+04  0.12699999809E+01 0. -1.
</event>
<event>
 5   0  0.3628017E-08  0.3499379E+04  0.7818609E-02  0.8113937E-01
       -2   -1    0    0    0  501  0.00000000000E+00  0.00000000000E+00  0.13613173467E+04  0.13613173467E+04  0.25500000920E-02 0. -1.
        2   -1    0    0  501    0  0.00000000000E+00  0.00000000000E+00 -0.22488611389E+04  0.22488611389E+04  0.25500000920E-02 0.  1.
    10030    2    1    2    0    0  0.00000000000E+00  0.00000000000E+00 -0.88754379221E+03  0.36101784855E+04  0.34993791898E+04 0.  0.
        1    1    3    3  502    0 -0.84779381642E+02 -0.14632476114E+04  0.54206390111E+03  0.15627265880E+04  0.50400001928E-02 0. -1.
       -1    1    3    3    0  502  0.84779381642E+02  0.14632476114E+04 -0.14296076933E+04  0.20474518975E+04  0.50400001928E-02 0.  1.
</event>
<event>
 5   0  0.1129219E-08  0.3499712E+04  0.7818609E-02  0.8113858E-01
       -1   -1    0    0    0  501  0.00000000000E+00  0.00000000000E+00  0.17807943046E+04  0.17807943046E+04  0.50400001928E-02 0.  1.
        1   -1    0    0  501    0  0.00000000000E+00  0.00000000000E+00 -0.17194553949E+04  0.17194553949E+04  0.50400001928E-02 0. -1.
    10030    2    1    2    0    0  0.00000000000E+00  0.00000000000E+00  0.61338909746E+02  0.35002496995E+04  0.34997122020E+04 0.  0.
        5    1    3    3  502    0  0.29584568541E+00  0.10278932442E+03  0.17777658788E+04  0.17807412340E+04  0.46999998093E+01 0.  1.
       -5    1    3    3    0  502 -0.29584568541E+00 -0.10278932442E+03 -0.17164269691E+04  0.17195084655E+04  0.46999998093E+01 0. -1.
</event>
<event>
 5   0  0.1121462E-08  0.3495884E+04  0.7818609E-02  0.8114766E-01
        1   -1    0    0  501    0  0.00000000000E+00  0.00000000000E+00  0.23878383107E+04  0.23878383107E+04  0.50400001928E-02 0. -1.
       -1   -1    0    0    0  501  0.00000000000E+00  0.00000000000E+00 -0.12795263749E+04  0.12795263749E+04  0.50400001928E-02 0.  1.
    10030    2    1    2    0    0  0.00000000000E+00  0.00000000000E+00  0.11083119358E+04  0.36673646856E+04  0.34958844933E+04 0.  0.
        4    1    3    3  502    0  0.10937902166E+04 -0.24397118884E+03 -0.85306100193E+03  0.14084082025E+04  0.12699999809E+01 0.  1.
       -4    1    3    3    0  502 -0.10937902166E+04  0.24397118884E+03  0.19613729378E+04  0.22589564832E+04  0.12699999809E+01 0. -1.
</event>
<event>
 5   0  0.3467834E-08  0.3501210E+04  0.7818609E-02  0.8113503E-01
        2   -1    0    0  501    0  0.00000000000E+00  0.00000000000E+00  0.17876541828E+04  0.17876541828E+04  0.25500000920E-02 0.  1.
       -2   -1    0    0    0  501  0.00000000000E+00  0.00000000000E+00 -0.17143241002E+04  0.17143241002E+04  0.25500000920E-02 0. -1.
    10030    2    1    2    0    0  0.00000000000E+00  0.00000000000E+00  0.73330082620E+02  0.35019782830E+04  0.35012104469E+04 0.  0.
        3    1    3    3  502    0  0.97531275865E+03 -0.13587687637E+04 -0.48029558332E+03  0.17401641842E+04  0.10100000352E+00 0. -1.
       -3    1    3    3    0  502 -0.97531275865E+03  0.13587687637E+04  0.55362566594E+03  0.17618140988E+04  0.10100000352E+00 0.  1.
</event>
<event>
 5   0  0.1129219E-08  0.3499925E+04  0.7818609E-02  0.8113808E-01
       -1   -1    0    0    0  501  0.00000000000E+00  0.00000000000E+00  0.25279152735E+04  0.25279152735E+04  0.50400001928E-02 0.  1.
        1   -1    0    0  501    0  0.00000000000E+00  0.00000000000E+00 -0.12114204403E+04  0.12114204404E+04  0.50400001928E-02 0. -1.
    10030    2    1    2    0    0  0.00000000000E+00  0.00000000000E+00  0.13164948331E+04  0.37393357139E+04  0.34999247042E+04 0.  0.
        5    1    3    3  502    0 -0.10526238440E+04  0.68744247474E+03 -0.64229200748E+03  0.14117914952E+04  0.46999998093E+01 0. -1.
       -5    1    3    3    0  502  0.10526238440E+04 -0.68744247474E+03  0.19587868406E+04  0.23275442187E+04  0.46999998093E+01 0.  1.
</event>
<event>
 5   0  0.1140808E-08  0.3499901E+04  0.7818609E-02  0.8113813E-01
        1   -1    0    0  501    0  0.00000000000E+00  0.00000000000E+00  0.18275593263E+04  0.18275593263E+04  0.50400001928E-02 0. -1.
       -1   -1    0    0    0  501  0.00000000000E+00  0.00000000000E+00 -0.16756372696E+04  0.16756372696E+04  0.50400001928E-02 0.  1.
    10030    2    1    2    0    0  0.00000000000E+00  0.00000000000E+00  0.15192205667E+03  0.35031965959E+04  0.34999008669E+04 0.  0.
        3    1    3    3  502    0 -0.14142589446E+04 -0.37093611511E+03  0.10384300918E+04  0.17933373998E+04  0.10100000352E+00 0. -1.
       -3    1    3    3    0  502  0.14142589446E+04  0.37093611511E+03 -0.88650803509E+03  0.17098591961E+04  0.10100000352E+00 0.  1.
</event>
<event>
 5   0  0.1121462E-08  0.3502282E+04  0.7818609E-02  0.8113249E-01
        1   -1    0    0  501    0  0.00000000000E+00  0.00000000000E+00  0.19375397435E+04  0.19375397435E+04  0.50400001928E-02 0.  1.
       -1   -1    0    0    0  501  0.00000000000E+00  0.00000000000E+00 -0.15826744493E+04  0.15826744493E+04  0.50400001928E-02 0. -1.
    10030    2    1    2    0    0  0.00000000000E+00  0.00000000000E+00  0.35486529422E+03  0.35202141928E+04  0.35022819112E+04 0.  0.
        2    1    3    3  502    0  0.15945209938E+04  0.56729016815E+03 -0.27451314346E+03  0.17145474039E+04  0.25500000920E-02 0.  1.
       -2    1    3    3    0  502 -0.15945209938E+04 -0.56729016815E+03  0.62937843768E+03  0.18056667888E+04  0.25500000920E-02 0. -1.
</event>
<event>
 5   0  0.3553585E-08  0.3499809E+04  0.7818609E-02  0.8113835E-01
       -2   -1    0    0    0  501  0.00000000000E+00  0.00000000000E+00  0.11960786837E+04  0.11960786837E+04  0.25500000920E-02 0. -1.
        2   -1    0    0  501    0  0.00000000000E+00  0.00000000000E+00 -0.25601706092E+04  0.25601706092E+04  0.25500000920E-02 0.  1.
    10030    2    1    2    0    0  0.00000000000E+00  0.00000000000E+00 -0.13640919255E+04  0.37562492929E+04  0.34998088475E+04 0.  0.
        2    1    3    3  502    0 -0.97288095351E+02 -0.84979746343E+03 -0.23205171545E+04  0.24731398194E+04  0.25500000920E-02 0.  1.
       -2    1    3    3    0  502  0.97288095351E+02  0.84979746343E+03  0.95642522894E+03  0.12831094735E+04  0.25500000920E-02 0. -1.
</event>
<event>
 5   0  0.1121462E-08  0.3500109E+04  0.7818609E-02  0.8113764E-01
       -1   -1    0    0    0  501  0.00000000000E+00  0.00000000000E+00  0.14755619231E+04  0.14755619231E+04  0.50400001928E-02 0.  1.
        1   -1    0    0  501    0  0.00000000000E+00  0.00000000000E+00 -0.20756094032E+04  0.20756094032E+04  0.50400001928E-02 0. -1.
    10030    2    1    2    0    0  0.00000000000E+00  0.00000000000E+00 -0.60004748012E+03  0.35511713264E+04  0.35001086856E+04 0.  0.
        4    1    3    3  502    0  0.24830920486E+03 -0.16375731774E+04  0.27336280884E+03  0.16786995594E+04  0.12699999809E+01 0.  1.
       -4    1    3    3    0  502 -0.24830920486E+03  0.16375731774E+04 -0.87341028897E+03  0.18724717670E+04  0.12699999809E+01 0. -1.
</event>
<event>
 5   0  0.1121462E-08  0.3499964E+04  0.7818609E-02  0.8113799E-01
        1   -1    0    0  501    0  0.00000000000E+00  0.00000000000E+00  0.21240054660E+04  0.21240054660E+04  0.50400001928E-02 0.  1.
       -1   -1    0    0    0  501  0.00000000000E+00  0.00000000000E+00 -0.14418213210E+04  0.14418213210E+04  0.50400001928E-02 0. -1.
    10030    2    1    2    0    0  0.00000000000E+00  0.00000000000E+00  0.68218414499E+03  0.35658267870E+04  0.34999636379E+04 0.  0.
        2    1    3    3  502    0  0.13461687963E+04  0.52628957281E+03  0.13462094368E+04  0.19752040376E+04  0.25500000920E-02 0.  1.
       -2    1    3    3    0  502 -0.13461687963E+04 -0.52628957281E+03 -0.66402529183E+03  0.15906227493E+04  0.25500000920E-02 0. -1.
</event>
<event>
 5   0  0.1140808E-08  0.3500792E+04  0.7818609E-02  0.8113602E-01
       -1   -1    0    0    0  501  0.00000000000E+00  0.00000000000E+00  0.11695520967E+04  0.11695520967E+04  0.50400001928E-02 0.  1.
        1   -1    0    0  501    0  0.00000000000E+00  0.00000000000E+00 -0.26197090208E+04  0.26197090208E+04  0.50400001928E-02 0. -1.
    10030    2    1    2    0    0  0.00000000000E+00  0.00000000000E+00 -0.14501569241E+04  0.37892611174E+04  0.35007920121E+04 0.  0.
        3    1    3    3  502    0  0.89362176246E+03 -0.13024581800E+04  0.91348354053E+02  0.15821825738E+04  0.10100000352E+00 0.  1.
       -3    1    3    3    0  502 -0.89362176246E+03  0.13024581800E+04 -0.15415052781E+04  0.22070785436E+04  0.10100000352E+00 0. -1.
</event>
<event>
 5   0  0.3628017E-08  0.3500540E+04  0.7818609E-02  0.8113662E-01
        2   -1    0    0  501    0  0.00000000000E+00  0.00000000000E+00  0.22551852970E+04  0.22551852970E+04  0.25500000920E-02 0.  1.
       -2   -1    0    0    0  501  0.00000000000E+00  0.00000000000E+00 -0.13584006042E+04  0.13584006042E+04  0.25500000920E-02 0. -1.
    10030    2    1    2    0    0  0.00000000000E+00  0.00000000000E+00  0.89678469274E+03  0.36135859012E+04  0.35005399984E+04 0.  0.
        1    1    3    3  502    0  0.62164256657E+03 -0.96789663074E+03  0.18101525482E+04  0.21447413867E+04  0.50400001928E-02 0.  1.
       -1    1    3    3    0  502 -0.62164256657E+03  0.96789663074E+03 -0.91336785542E+03  0.14688445145E+04  0.50400001928E-02 0. -1.
</event>
<event>
 5   0  0.3700096E-08  0.3499832E+04  0.7818609E-02  0.8113830E-01
       -2   -1    0    0    0  501  0.00000000000E+00  0.00000000000E+00  0.12945222362E+04  0.12945222362E+04  0.25500000920E-02 0.  1.
        2   -1    0    0  501    0  0.00000000000E+00  0.00000000000E+00 -0.23655101314E+04  0.23655101314E+04  0.25500000920E-02 0. -1.
    10030    2    1    2    0    0  0.00000000000E+00  0.00000000000E+00 -0.10709878952E+04  0.36600323676E+04  0.34998316902E+04 0.  0.
        4    1    3    3  502    0 -0.89265899274E+03  0.53787373021E+03 -0.20055616956E+04  0.22601830799E+04  0.12699999809E+01 0. -1.
       -4    1    3    3    0  502  0.89265899274E+03 -0.53787373021E+03  0.93457380035E+03  0.13998492877E+04  0.12699999809E+01 0.  1.
</event>
<event>
 5   0  0.1121462E-08  0.3501365E+04  0.7818609E-02  0.8113467E-01
        1   -1    0    0  501    0  0.00000000000E+00  0.00000000000E+00  0.23410368077E+04  0.23410368077E+04  0.50400001928E-02 0.  1.
       -1   -1    0    0    0  501  0.00000000000E+00  0.00000000000E+00 -0.13092017248E+04  0.13092017248E+04  0.50400001928E-02 0. -1.
    10030    2    1    2    0    0  0.00000000000E+00  0.00000000000E+00  0.10318350829E+04  0.36502385325E+04  0.35013651203E+04 0.  0.
        1    1    3    3  502    0  0.54991376178E+03 -0.51113102772E+03 -0.11328544549E+04  0.13590508780E+04  0.50400001928E-02 0. -1.
       -1    1    3    3    0  502 -0.54991376178E+03  0.51113102772E+03  0.21646895379E+04  0.22911876545E+04  0.50400001928E-02 0.  1.
</event>
<event>
 5   0  0.3628017E-08  0.3500373E+04  0.7818609E-02  0.8113702E-01
       -2   -1    0    0    0  501  0.00000000000E+00  0.00000000000E+00  0.14835108705E+04  0.14835108705E+04  0.25500000920E-02 0. -1.
        2   -1    0    0  501    0  0.00000000000E+00  0.00000000000E+00 -0.20647998055E+04  0.20647998055E+04  0.25500000920E-02 0.  1.
    10030    2    1    2    0    0  0.00000000000E+00  0.00000000000E+00 -0.58128893496E+03  0.35483106760E+04  0.35003730984E+04 0.  0.
        1    1    3    3  502    0  0.12217560298E+04 -0.12492631313E+04 -0.19025902859E+03  0.17577100630E+04  0.50400001928E-02 0. -1.
       -1    1    3    3    0  502 -0.12217560298E+04  0.12492631313E+04 -0.39102990636E+03  0.17906006130E+04  0.50400001928E-02 0.  1.
</event>
<event>
 5   0  0.3700096E-08  0.3499709E+04  0.7818609E-02  0.8113859E-01
        2   -1    0    0  501    0  0.00000000000E+00  0.00000000000E+00  0.18864513058E+04  0.18864513058E+04  0.25500000920E-02 0. -1.
       -2   -1    0    0    0  501  0.00000000000E+00  0.00000000000E+00 -0.16231485831E+04  0.16231485831E+04  0.25500000920E-02 0.  1.
    10030    2    1    2    0    0  0.00000000000E+00  0.00000000000E+00  0.26330272270E+03  0.35095998888E+04  0.34997089959E+04 0.  0.
        4    1    3    3  502    0 -0.82747580222E+03  0.35795721281E+03  0.16356030237E+04  0.18676317714E+04  0.12699999809E+01 0. -1.
       -4    1    3    3    0  502  0.82747580222E+03 -0.35795721281E+03 -0.13723003010E+04  0.16419681174E+04  0.12699999809E+01 0.  1.
</event>
<event>
 5   0  0.3554451E-08  0.3505839E+04  0.7818609E-02  0.8112408E-01
        2   -1    0    0  501    0  0.00000000000E+00  0.00000000000E+00  0.21972189254E+04  0.21972189254E+04  0.25500000920E-02 0.  1.
       -2   -1    0    0    0  501  0.00000000000E+00  0.00000000000E+00 -0.13984616416E+04  0.13984616416E+04  0.25500000920E-02 0. -1.
    10030    2    1    2    0    0  0.00000000000E+00  0.00000000000E+00  0.79875728385E+03  0.35956805670E+04  0.35058387786E+04 0.  0.
        5    1    3    3  502    0 -0.11108060787E+04  0.60328538155E+03  0.16449387583E+04  0.20745334427E+04  0.46999998093E+01 0.  1.
       -5    1    3    3    0  502  0.11108060787E+04 -0.60328538155E+03 -0.84618147447E+03  0.15211471243E+04  0.46999998093E+01 0. -1.
</event>
<event>
 5   0  0.3628017E-08  0.3501070E+04  0.7818609E-02  0.8113537E-01
       -2   -1    0    0    0  501  0.00000000000E+00  0.00000000000E+00  0.22267301735E+04  0.22267301735E+04  0.25500000920E-02 0.  1.
        2   -1    0    0  501    0  0.00000000000E+00  0.00000000000E+00 -0.13761757343E+04  0.13761757343E+04  0.25500000920E-02 0. -1.
    10030    2    1    2    0    0  0.00000000000E+00  0.00000000000E+00  0.85055443915E+03  0.36029059078E+04  0.35010695689E+04 0.  0.
        1    1    3    3  502    0 -0.54326954386E+03 -0.10051755659E+02 -0.12871960023E+04  0.13971815857E+04  0.50400001928E-02 0. -1.
       -1    1    3    3    0  502  0.54326954386E+03  0.10051755659E+02  0.21377504414E+04  0.22057243221E+04  0.50400001928E-02 0.  1.
</event>
<event>
 5   0  0.3554451E-08  0.3500385E+04  0.7818609E-02  0.8113699E-01
        2   -1    0    0  501    0  0.00000000000E+00  0.00000000000E+00  0.12906314323E+04  0.12906314323E+04  0.25500000920E-02 0.  1.
       -2   -1    0    0    0  501  0.00000000000E+00  0.00000000000E+00 -0.23733918694E+04  0.23733918694E+04  0.25500000920E-02 0. -1.
    10030    2    1    2    0    0  0.00000000000E+00  0.00000000000E+00 -0.10827604371E+04  0.36640233017E+04  0.35003852061E+04 0.  0.
        5    1    3    3  502    0 -0.13717330840E+04  0.44439589646E+03  0.49696731860E+03  0.15251681784E+04  0.46999998093E+01 0.  1.
       -5    1    3    3    0  502  0.13717330840E+04 -0.44439589646E+03 -0.15797277556E+04  0.21388551233E+04  0.46999998093E+01 0. -1.
</event>
<event>
 5   0  0.3628017E-08  0.3500148E+04  0.7818609E-02  0.8113755E-01
       -2   -1    0    0    0  501  0.00000000000E+00  0.00000000000E+00  0.14164907143E+04  0.14164907143E+04  0.25500000920E-02 0.  1.
        2   -1    0    0  501    0  0.00000000000E+00  0.00000000000E+00 -0.21622156221E+04  0.21622156221E+04  0.25500000920E-02 0. -1.
    10030    2    1    2    0    0  0.00000000000E+00  0.00000000000E+00 -0.74572490782E+03  0.35787063364E+04  0.35001476260E+04 0.  0.
        1    1    3    3  502    0  0.14172453325E+04 -0.66664112526E+03  0.42553741712E+03  0.16229839235E+04  0.50400001928E-02 0.  1.
       -1    1    3    3    0  502 -0.14172453325E+04  0.66664112526E+03 -0.11712623249E+04  0.19557224129E+04  0.50400001928E-02 0. -1.
</event>
<event>
 5   0  0.1121462E-08  0.3498030E+04  0.7818609E-02  0.8114257E-01
        1   -1    0    0  501    0  0.00000000000E+00  0.00000000000E+00  0.14656566433E+04  0.14656566433E+04  0.50400001928E-02 0. -1.
       -1   -1    0    0    0  501  0.00000000000E+00  0.00000000000E+00 -0.20871554145E+04  0.20871554145E+04  0.50400001928E-02 0.  1.
    10030    2    1    2    0    0  0.00000000000E+00  0.00000000000E+00 -0.62149877121E+03  0.35528120578E+04  0.34980298448E+04 0.  0.
        4    1    3    3  502    0 -0.90593284185E+03 -0.14286413187E+04 -0.76191465213E+03  0.18553290493E+04  0.12699999809E+01 0.  1.
       -4    1    3    3    0  502  0.90593284185E+03  0.14286413187E+04  0.14041588092E+03  0.16974830084E+04  0.12699999809E+01 0. -1.
</event>
<event>
 5   0  0.1140808E-08  0.3500338E+04  0.7818609E-02  0.8113710E-01
        1   -1    0    0  501    0  0.00000000000E+00  0.00000000000E+00  0.16470361347E+04  0.16470361347E+04  0.50400001928E-02 0. -1.
       -1   -1    0    0    0  501  0.00000000000E+00  0.00000000000E+00 -0.18597593182E+04  0.18597593182E+04  0.50400001928E-02 0.  1.
    10030    2    1    2    0    0  0.00000000000E+00  0.00000000000E+00 -0.21272318348E+03  0.35067954529E+04  0.35003375831E+04 0.  0.
        3    1    3    3  502    0 -0.16470750835E+04 -0.16000459549E+03 -0.67717849871E+03  0.17880236381E+04  0.10100000352E+00 0. -1.
       -3    1    3    3    0  502  0.16470750835E+04  0.16000459549E+03  0.46445531523E+03  0.17187718147E+04  0.10100000352E+00 0.  1.
</event>
<event>
 5   0  0.3628017E-08  0.3498730E+04  0.7818609E-02  0.8114091E-01
        2   -1    0    0  501    0  0.00000000000E+00  0.00000000000E+00  0.16937504197E+04  0.16937504197E+04  0.25500000920E-02 0.  1.
       -2   -1    0    0    0  501  0.00000000000E+00  0.00000000000E+00 -0.18068053654E+04  0.18068053654E+04  0.25500000920E-02 0. -1.
    10030    2    1    2    0    0  0.00000000000E+00  0.00000000000E+00 -0.11305494571E+03  0.35005557852E+04  0.34987296815E+04 0.  0.
        1    1    3    3  502    0  0.89350816767E+03  0.44995915206E+03 -0.14923574146E+04  0.17966498649E+04  0.50400001928E-02 0. -1.
       -1    1    3    3    0  502 -0.89350816767E+03 -0.44995915206E+03  0.13793024689E+04  0.17039059202E+04  0.50400001928E-02 0.  1.
</event>
<event>
 5   0  0.1121462E-08  0.3496403E+04  0.7818609E-02  0.8114643E-01
        1   -1    0    0  501    0  0.00000000000E+00  0.00000000000E+00  0.16766844971E+04  0.16766844971E+04  0.50400001928E-02 0. -1.
       -1   -1    0    0    0  501  0.00000000000E+00  0.00000000000E+00 -0.18227694016E+04  0.18227694016E+04  0.50400001928E-02 0.  1.
    10030    2    1    2    0    0  0.00000000000E+00  0.00000000000E+00 -0.14608490455E+03  0.34994538987E+04  0.34964034078E+04 0.  0.
        2    1    3    3  502    0  0.29007704396E+03 -0.10551104903E+04  0.12915275395E+04  0.16927628965E+04  0.25500000920E-02 0. -1.
       -2    1    3    3    0  502 -0.29007704396E+03  0.10551104903E+04 -0.14376124441E+04  0.18066910023E+04  0.25500000920E-02 0.  1.
</event>
<event>
 5   0  0.3553585E-08  0.3500018E+04  0.7818609E-02  0.8113786E-01
        2   -1    0    0  501    0  0.00000000000E+00  0.00000000000E+00  0.23528352094E+04  0.23528352094E+04  0.25500000920E-02 0.  1.
       -2   -1    0    0    0  501  0.00000000000E+00  0.00000000000E+00 -0.13016344740E+04  0.13016344740E+04  0.25500000920E-02 0. -1.
    10030    2    1    2    0    0  0.00000000000E+00  0.00000000000E+00  0.10512007354E+04  0.36544696834E+04  0.35000179544E+04 0.  0.
        2    1    3    3  502    0 -0.15769603965E+04  0.56141412469E+03 -0.73571016238E+01  0.16739307149E+04  0.25500000920E-02 0. -1.
       -2    1    3    3    0  502  0.15769603965E+04 -0.56141412469E+03  0.10585578370E+04  0.19805389685E+04  0.25500000920E-02 0.  1.
</event>
<event>
 5   0  0.1121462E-08  0.3503541E+04  0.7818609E-02  0.8112951E-01
        1   -1    0    0  501    0  0.00000000000E+00  0.00000000000E+00  0.17500951357E+04  0.17500951357E+04  0.50400001928E-02 0.  1.
       -1   -1    0    0    0  501  0.00000000000E+00  0.00000000000E+00 -0.17534473433E+04  0.17534473433E+04  0.50400001928E-02 0. -1.
    10030    2    1    2    0    0  0.00000000000E+00  0.00000000000E+00 -0.33522076556E+01  0.35035424790E+04  0.35035408753E+04 0.  0.
        4    1    3    3  502    0 -0.18827799093E+03 -0.42011145654E+03 -0.16918708946E+04  0.17533884267E+04  0.12699999809E+01 0. -1.
       -4    1    3    3    0  502  0.18827799093E+03  0.42011145654E+03  0.16885186870E+04  0.17501540523E+04  0.12699999809E+01 0.  1.
</event>
<event>
 5   0  0.3554451E-08  0.3500590E+04  0.7818609E-02  0.8113650E-01
       -2   -1    0    0    0  501  0.00000000000E+00  0.00000000000E+00  0.12876221500E+04  0.12876221500E+04  0.25500000920E-02 0.  1.
        2   -1    0    0  501    0  0.00000000000E+00  0.00000000000E+00 -0.23792173610E+04  0.23792173610E+04  0.25500000920E-02 0. -1.
    10030    2    1    2    0    0  0.00000000000E+00  0.00000000000E+00 -0.10915952109E+04  0.36668395110E+04  0.35005902209E+04 0.  0.
        5    1    3    3  502    0 -0.74455705694E+03  0.97273141647E+03 -0.18553463782E+04  0.22232642427E+04  0.46999998093E+01 0. -1.
       -5    1    3    3    0  502  0.74455705694E+03 -0.97273141647E+03  0.76375116734E+03  0.14435752683E+04  0.46999998093E+01 0.  1.
</event>
<event>
 5   0  0.1121462E-08  0.3500514E+04  0.7818609E-02  0.8113668E-01
        1   -1    0    0  501    0  0.00000000000E+00  0.00000000000E+00  0.13427122360E+04  0.13427122360E+04  0.50400001928E-02 0.  1.
       -1   -1    0    0    0  501  0.00000000000E+00  0.00000000000E+00 -0.22815016929E+04  0.22815016929E+04  0.50400001928E-02 0. -1.
    10030    2    1    2    0    0  0.00000000000E+00  0.00000000000E+00 -0.93878945694E+03  0.36242139289E+04  0.35005143847E+04 0.  0.
        1    1    3    3  502    0 -0.59197954707E+03 -0.14276934315E+04 -0.13197919629E+04  0.20323875476E+04  0.50400001928E-02 0. -1.
       -1    1    3    3    0  502  0.59197954707E+03  0.14276934315E+04  0.38100250595E+03  0.15918263812E+04  0.50400001928E-02 0.  1.
</event>
<event>
 5   0  0.3628017E-08  0.3499590E+04  0.7818609E-02  0.8113887E-01
       -2   -1    0    0    0  501  0.00000000000E+00  0.00000000000E+00  0.15754937359E+04  0.15754937359E+04  0.25500000920E-02 0. -1.
        2   -1    0    0  501    0  0.00000000000E+00  0.00000000000E+00 -0.19433792811E+04  0.19433792811E+04  0.25500000920E-02 0.  1.
    10030    2    1    2    0    0  0.00000000000E+00  0.00000000000E+00 -0.36788554518E+03  0.35188730170E+04  0.34995896239E+04 0.  0.
        1    1    3    3  502    0  0.11895712129E+04  0.10248187591E+04 -0.96049922375E+03  0.18406226985E+04  0.50400001928E-02 0.  1.
       -1    1    3    3    0  502 -0.11895712129E+04 -0.10248187591E+04  0.59261367857E+03  0.16782503185E+04  0.50400001928E-02 0. -1.
</event>
<event>
 5   0  0.1121462E-08  0.3499412E+04  0.7818609E-02  0.8113929E-01
       -1   -1    0    0    0  501  0.00000000000E+00  0.00000000000E+00  0.12515947226E+04  0.12515947226E+04  0.50400001928E-02 0.  1.
        1   -1    0    0  501    0  0.00000000000E+00  0.00000000000E+00 -0.24460565540E+04  0.24460565540E+04  0.50400001928E-02 0. -1.
    10030    2    1    2    0    0  0.00000000000E+00  0.00000000000E+00 -0.11944618314E+04  0.36976512767E+04  0.34994122216E+04 0.  0.
        2    1    3    3  502    0 -0.47843510362E+03 -0.16047932762E+04 -0.11331196884E+04  0.20219351711E+04  0.25500000920E-02 0.  1.
       -2    1    3    3    0  502  0.47843510362E+03  0.16047932762E+04 -0.61342142991E+02  0.16757161055E+04  0.25500000920E-02 0. -1.
</event>
<event>
 5   0  0.1121462E-08  0.3500571E+04  0.7818609E-02  0.8113655E-01
       -1   -1    0    0    0  501  0.00000000000E+00  0.00000000000E+00  0.17406839022E+04  0.17406839022E+04  0.50400001928E-02 0.  1.
        1   -1    0    0  501    0  0.00000000000E+00  0.00000000000E+00 -0.17599399633E+04  0.17599399633E+04  0.50400001928E-02 0. -1.
    10030    2    1    2    0    0  0.00000000000E+00  0.00000000000E+00 -0.19256061102E+02  0.35006238656E+04  0.35005709038E+04 0.  0.
        2    1    3    3  502    0 -0.46110311785E+03 -0.45095421811E+03 -0.16367738393E+04  0.17592624571E+04  0.25500000920E-02 0. -1.
       -2    1    3    3    0  502  0.46110311785E+03  0.45095421811E+03  0.16175177782E+04  0.17413614084E+04  0.25500000920E-02 0.  1.
</event>
<event>
 5   0  0.1129219E-08  0.3498098E+04  0.7818609E-02  0.8114241E-01
        1   -1    0    0  501    0  0.00000000000E+00  0.00000000000E+00  0.20757597314E+04  0.20757597314E+04  0.50400001928E-02 0. -1.
       -1   -1    0    0    0  501  0.00000000000E+00  0.00000000000E+00 -0.14737606503E+04  0.14737606503E+04  0.50400001928E-02 0.  1.
    10030    2    1    2    0    0  0.00000000000E+00  0.00000000000E+00  0.60199908114E+03  0.35495203818E+04  0.34980983472E+04 0.  0.
        5    1    3    3  502    0 -0.42366622659E+03  0.14268583432E+04  0.12330516791E+04  0.19328363450E+04  0.46999998093E+01 0. -1.
       -5    1    3    3    0  502  0.42366622659E+03 -0.14268583432E+04 -0.63105259798E+03  0.16166840367E+04  0.46999998093E+01 0.  1.
</event>
<event>
 5   0  0.1129219E-08  0.3501049E+04  0.7818609E-02  0.8113541E-01
        1   -1    0    0  501    0  0.00000000000E+00  0.00000000000E+00  0.20999989959E+04  0.20999989959E+04  0.50400001928E-02 0.  1.
       -1   -1    0    0    0  501  0.00000000000E+00  0.00000000000E+00 -0.14592084806E+04  0.14592084806E+04  0.50400001928E-02 0. -1.
    10030    2    1    2    0    0  0.00000000000E+00  0.00000000000E+00  0.64079051529E+03  0.35592074765E+04  0.35010491822E+04 0.  0.
        5    1    3    3  502    0  0.36047738114E+03  0.49080551975E+03 -0.13480501132E+04  0.14792211458E+04  0.46999998093E+01 0. -1.
       -5    1    3    3    0  502 -0.36047738114E+03 -0.49080551975E+03  0.19888406285E+04  0.20799863307E+04  0.46999998093E+01 0.  1.
</event>
<event>
 5   0  0.1121462E-08  0.3499488E+04  0.7818609E-02  0.8113911E-01
       -1   -1    0    0    0  501  0.00000000000E+00  0.00000000000E+00  0.14455421337E+04  0.14455421337E+04  0.50400001928E-02 0. -1.
        1   -1    0    0  501    0  0.00000000000E+00  0.00000000000E+00 -0.21179626751E+04  0.21179626751E+04  0.50400001928E-02 0.  1.
    10030    2    1    2    0    0  0.00000000000E+00  0.00000000000E+00 -0.67242054145E+03  0.35635048088E+04  0.34994881252E+04 0.  0.
        4    1    3    3  502    0  0.10064587155E+03  0.34867195873E+03  0.14067973824E+04  0.14528531289E+04  0.12699999809E+01 0. -1.
       -4    1    3    3    0  502 -0.10064587155E+03 -0.34867195873E+03 -0.20792179238E+04  0.21106516799E+04  0.12699999809E+01 0.  1.
</event>
<event>
 5   0  0.3700096E-08  0.3500396E+04  0.7818609E-02  0.8113696E-01
        2   -1    0    0  501    0  0.00000000000E+00  0.00000000000E+00  0.23220408311E+04  0.23220408311E+04  0.25500000920E-02 0. -1.
       -2   -1    0    0    0  501  0.00000000000E+00  0.00000000000E+00 -0.13191813040E+04  0.13191813040E+04  0.25500000920E-02 0.  1.
    10030    2    1    2    0    0  0.00000000000E+00  0.00000000000E+00  0.10028595271E+04  0.36412221351E+04  0.35003958928E+04 0.  0.
        4    1    3    3  502    0  0.10770298185E+04  0.53851554871E+03 -0.81978671690E+03  0.14567237557E+04  0.12699999809E+01 0.  1.
       -4    1    3    3    0  502 -0.10770298185E+04 -0.53851554871E+03  0.18226462440E+04  0.21844983795E+04  0.12699999809E+01 0. -1.
</event>
<event>
 5   0  0.3628017E-08  0.3500759E+04  0.7818609E-02  0.8113610E-01
       -2   -1    0    0    0  501  0.00000000000E+00  0.00000000000E+00  0.18610239118E+04  0.18610239118E+04  0.25500000920E-02 0. -1.
        2   -1    0    0  501    0  0.00000000000E+00  0.00000000000E+00 -0.16463136093E+04  0.16463136093E+04  0.25500000920E-02 0.  1.
    10030    2    1    2    0    0  0.00000000000E+00  0.00000000000E+00  0.21471030248E+03  0.35073375211E+04  0.35007593423E+04 0.  0.
        1    1    3    3  502    0  0.14147889871E+04 -0.10017601761E+04 -0.13533475564E+03  0.17388119003E+04  0.50400001928E-02 0.  1.
       -1    1    3    3    0  502 -0.14147889871E+04  0.10017601761E+04  0.35004505812E+03  0.17685256208E+04  0.50400001928E-02 0. -1.
</event>
<event>
 5   0  0.3554451E-08  0.3500622E+04  0.7818609E-02  0.8113643E-01
        2   -1    0    0  501    0  0.00000000000E+00  0.00000000000E+00  0.19231268203E+04  0.19231268203E+04  0.25500000920E-02 0. -1.
       -2   -1    0    0    0  501  0.00000000000E+00  0.00000000000E+00 -0.15930243462E+04  0.15930243462E+04  0.25500000920E-02 0.  1.
    10030    2    1    2    0    0  0.00000000000E+00  0.00000000000E+00  0.33010247410E+03  0.35161511666E+04  0.35006215709E+04 0.  0.
        5    1    3    3  502    0  0.81223712923E+03 -0.13793544987E+04 -0.54605682563E+03  0.16913155039E+04  0.46999998093E+01 0.  1.
       -5    1    3    3    0  502 -0.81223712923E+03  0.13793544987E+04  0.87615929973E+03  0.18248356626E+04  0.46999998093E+01 0. -1.
</event>
<event>
 5   0  0.3553585E-08  0.3500679E+04  0.7818609E-02  0.8113629E-01
        2   -1    0    0  501    0  0.00000000000E+00  0.00000000000E+00  0.26843379511E+04  0.26843379511E+04  0.25500000920E-02 0. -1.
       -2   -1    0    0    0  501  0.00000000000E+00  0.00000000000E+00 -0.11413200450E+04  0.11413200450E+04  0.25500000920E-02 0.  1.
    10030    2    1    2    0    0  0.00000000000E+00  0.00000000000E+00  0.15430179061E+04  0.38256579961E+04  0.35006791976E+04 0.  0.
        2    1    3    3  502    0 -0.17072382727E+04 -0.39840262655E+02  0.35188532366E+03  0.17435805251E+04  0.25500000920E-02 0. -1.
       -2    1    3    3    0  502  0.17072382727E+04  0.39840262655E+02  0.11911325824E+04  0.20820774710E+04  0.25500000920E-02 0.  1.
</event>
<event>
 5   0  0.1121462E-08  0.3499893E+04  0.7818609E-02  0.8113815E-01
       -1   -1    0    0    0  501  0.00000000000E+00  0.00000000000E+00  0.16287466023E+04  0.16287466023E+04  0.50400001928E-02 0.  1.
        1   -1    0    0  501    0  0.00000000000E+00  0.00000000000E+00 -0.18801657018E+04  0.18801657018E+04  0.50400001928E-02 0. -1.
    10030    2    1    2    0    0  0.00000000000E+00  0.00000000000E+00 -0.25141909949E+03  0.35089123041E+04  0.34998934262E+04 0.  0.
        2    1    3    3  502    0 -0.50923565082E+02  0.17463672337E+04 -0.25844765710E+02  0.17473006828E+04  0.25500000920E-02 0.  1.
       -2    1    3    3    0  502  0.50923565082E+02 -0.17463672337E+04 -0.22557433378E+03  0.17616116213E+04  0.25500000920E-02 0. -1.
</event>
<event>
 5   0  0.1121462E-08  0.3526861E+04  0.7818609E-02  0.8107454E-01
       -1   -1    0    0    0  501  0.00000000000E+00  0.00000000000E+00  0.19040938455E+04  0.19040938455E+04  0.50400001928E-02 0.  1.
        1   -1    0    0  501    0  0.00000000000E+00  0.00000000000E+00 -0.16331580991E+04  0.16331580991E+04  0.50400001928E-02 0. -1.
    10030    2    1    2    0    0  0.00000000000E+00  0.00000000000E+00  0.27093574638E+03  0.35372519446E+04  0.35268605219E+04 0.  0.
        1    1    3    3  502    0  0.24589901473E+03 -0.16164692967E+04  0.79790386733E+03  0.18193652448E+04  0.50400001928E-02 0.  1.
       -1    1    3    3    0  502 -0.24589901473E+03  0.16164692967E+04 -0.52696812096E+03  0.17178866997E+04  0.50400001928E-02 0. -1.
</event>
<event>
 5   0  0.3554451E-08  0.3500467E+04  0.7818609E-02  0.8113679E-01
        2   -1    0    0  501    0  0.00000000000E+00  0.00000000000E+00  0.11685551441E+04  0.11685551441E+04  0.25500000920E-02 0.  1.
       -2   -1    0    0    0  501  0.00000000000E+00  0.00000000000E+00 -0.26214577916E+04  0.26214577916E+04  0.25500000920E-02 0. -1.
    10030    2    1    2    0    0  0.00000000000E+00  0.00000000000E+00 -0.14529026474E+04  0.37900129357E+04  0.35004673902E+04 0.  0.
        5    1    3    3  502    0 -0.13811537067E+03  0.16877829682E+04 -0.24759113413E+03  0.17114352640E+04  0.46999998093E+01 0. -1.
       -5    1    3    3    0  502  0.13811537067E+03 -0.16877829682E+04 -0.12053115133E+04  0.20785776717E+04  0.46999998093E+01 0.  1.
</event>
<event>
 5   0  0.3628017E-08  0.3499184E+04  0.7818609E-02  0.8113983E-01
       -2   -1    0    0    0  501  0.00000000000E+00  0.00000000000E+00  0.16035199349E+04  0.16035199349E+04  0.25500000920E-02 0. -1.
        2   -1    0    0  501    0  0.00000000000E+00  0.00000000000E+00 -0.19089708190E+04  0.19089708190E+04  0.25500000920E-02 0.  1.
    10030    2    1    2    0    0  0.00000000000E+00  0.00000000000E+00 -0.30545088418E+03  0.35124907539E+04  0.34991843412E+04 0.  0.
        1    1    3    3  502    0 -0.58203431441E+03  0.13652410549E+04 -0.10827613543E+04  0.18371225412E+04  0.50400001928E-02 0.  1.
       -1    1    3    3    0  502  0.58203431441E+03 -0.13652410549E+04  0.77731047007E+03  0.16753682127E+04  0.50400001928E-02 0. -1.
</event>
<event>
 5   0  0.1121462E-08  0.3499996E+04  0.7818609E-02  0.8113791E-01
        3   -1    0    0  501    0  0.00000000000E+00  0.00000000000E+00  0.22147463086E+04  0.22147463109E+04  0.10100000352E+00 0. -1.
       -3   -1    0    0    0  501  0.00000000000E+00  0.00000000000E+00 -0.13827736134E+04  0.13827736171E+04  0.10100000352E+00 0.  1.
    10030    2    1    2    0    0  0.00000000000E+00  0.00000000000E+00  0.83197269520E+03  0.35975199281E+04  0.34999958667E+04 0.  0.
        2    1    3    3  502    0  0.26839313131E+03 -0.73152786095E+03  0.20265954878E+04  0.21712340167E+04  0.25500000920E-02 0. -1.
       -2    1    3    3    0  502 -0.26839313131E+03  0.73152786095E+03 -0.11946227926E+04  0.14262859113E+04  0.25500000920E-02 0.  1.
</event>
<event>
 5   0  0.1140808E-08  0.3484878E+04  0.7818609E-02  0.8117383E-01
       -1   -1    0    0    0  501  0.00000000000E+00  0.00000000000E+00  0.13024050125E+04  0.13024050125E+04  0.50400001928E-02 0.  1.
        1   -1    0    0  501    0  0.00000000000E+00  0.00000000000E+00 -0.23311435933E+04  0.23311435933E+04  0.50400001928E-02 0. -1.
    10030    2    1    2    0    0  0.00000000000E+00  0.00000000000E+00 -0.10287385808E+04  0.36335486059E+04  0.34848776741E+04 0.  0.
        3    1    3    3  502    0  0.11926892115E+04 -0.66382297797E+03 -0.16435890824E+04  0.21364815897E+04  0.10100000352E+00 0. -1.
       -3    1    3    3    0  502 -0.11926892115E+04  0.66382297797E+03  0.61485050156E+03  0.14970670161E+04  0.10100000352E+00 0.  1.
</event>
<event>
 5   0  0.3554451E-08  0.3499753E+04  0.7818609E-02  0.8113848E-01
        2   -1    0    0  501    0  0.00000000000E+00  0.00000000000E+00  0.24132095061E+04  0.24132095061E+04  0.25500000920E-02 0.  1.
       -2   -1    0    0    0  501  0.00000000000E+00  0.00000000000E+00 -0.12688776694E+04  0.12688776694E+04  0.25500000920E-02 0. -1.
    10030    2    1    2    0    0  0.00000000000E+00  0.00000000000E+00  0.11443318367E+04  0.36820871755E+04  0.34997529364E+04 0.  0.
        5    1    3    3  502    0  0.80476831733E+03 -0.14297974432E+04  0.12121958098E+04  0.20399542996E+04  0.46999998093E+01 0.  1.
       -5    1    3    3    0  502 -0.80476831733E+03  0.14297974432E+04 -0.67863973162E+02  0.16421328759E+04  0.46999998093E+01 0. -1.
</event>
<event>
 5   0  0.1140808E-08  0.3500214E+04  0.7818609E-02  0.8113739E-01
       -1   -1    0    0    0  501  0.00000000000E+00  0.00000000000E+00  0.14671210963E+04  0.14671210963E+04  0.50400001928E-02 0.  1.
        1   -1    0    0  501    0  0.00000000000E+00  0.00000000000E+00 -0.20876766879E+04  0.20876766879E+04  0.50400001928E-02 0. -1.
    10030    2    1    2    0    0  0.00000000000E+00  0.00000000000E+00 -0.62055559165E+03  0.35547977842E+04  0.35002139998E+04 0.  0.
        3    1    3    3  502    0 -0.14812336358E+04 -0.85903857817E+03 -0.67768462187E+03  0.18415365377E+04  0.10100000352E+00 0. -1.
       -3    1    3    3    0  502  0.14812336358E+04  0.85903857817E+03  0.57129030220E+02  0.17132612466E+04  0.10100000352E+00 0.  1.
</event>
<event>
 5   0  0.3554451E-08  0.3500226E+04  0.7818609E-02  0.8113736E-01
       -2   -1    0    0    0  501  0.00000000000E+00  0.00000000000E+00  0.15177472989E+04  0.15177472989E+04  0.25500000920E-02 0.  1.
        2   -1    0    0  501    0  0.00000000000E+00  0.00000000000E+00 -0.20180537914E+04  0.20180537914E+04  0.25500000920E-02 0. -1.
    10030    2    1    2    0    0  0.00000000000E+00  0.00000000000E+00 -0.50030649245E+03  0.35358010903E+04  0.35002261018E+04 0.  0.
        5    1    3    3  502    0 -0.43509816068E+03 -0.16500649474E+04 -0.64249338697E+03  0.18234156362E+04  0.46999998093E+01 0.  1.
       -5    1    3    3    0  502  0.43509816068E+03  0.16500649474E+04  0.14218689452E+03  0.17123854540E+04  0.46999998093E+01 0. -1.
</event>
<event>
 5   0  0.1121462E-08  0.3498882E+04  0.7818609E-02  0.8114055E-01
       -1   -1    0    0    0  501  0.00000000000E+00  0.00000000000E+00  0.15875494562E+04  0.15875494562E+04  0.50400001928E-02 0. -1.
        1   -1    0    0  501    0  0.00000000000E+00  0.00000000000E+00 -0.19278419097E+04  0.19278419097E+04  0.50400001928E-02 0.  1.
    10030    2    1    2    0    0  0.00000000000E+00  0.00000000000E+00 -0.34029245356E+03  0.35153913659E+04  0.34988823218E+04 0.  0.
        2    1    3    3  502    0 -0.13414860006E+04 -0.24516445995E+03 -0.12711516633E+04  0.18642738139E+04  0.25500000920E-02 0.  1.
       -2    1    3    3    0  502  0.13414860006E+04  0.24516445995E+03  0.93085920978E+03  0.16511175520E+04  0.25500000920E-02 0. -1.
</event>
<event>
 5   0  0.3628017E-08  0.3500718E+04  0.7818609E-02  0.8113620E-01
        2   -1    0    0  501    0  0.00000000000E+00  0.00000000000E+00  0.20002751918E+04  0.20002751918E+04  0.25500000920E-02 0. -1.
       -2   -1    0    0    0  501  0.00000000000E+00  0.00000000000E+00 -0.15316678099E+04  0.15316678099E+04  0.25500000920E-02 0.  1.
    10030    2    1    2    0    0  0.00000000000E+00  0.00000000000E+00  0.46860738185E+03  0.35319430017E+04  0.35007182819E+04 0.  0.
        1    1    3    3  502    0 -0.91976318292E+03  0.14349697706E+04 -0.16756374219E+03  0.17126529604E+04  0.50400001928E-02 0.  1.
       -1    1    3    3    0  502  0.91976318292E+03 -0.14349697706E+04  0.63617112404E+03  0.18192900413E+04  0.50400001928E-02 0. -1.
</event>
<event>
 5   0  0.1121462E-08  0.3499409E+04  0.7818609E-02  0.8113930E-01
        1   -1    0    0  501    0  0.00000000000E+00  0.00000000000E+00  0.11629758814E+04  0.11629758814E+04  0.50400001928E-02 0. -1.
       -1   -1    0    0    0  501  0.00000000000E+00  0.00000000000E+00 -0.26324410716E+04  0.26324410716E+04  0.50400001928E-02 0.  1.
    10030    2    1    2    0    0  0.00000000000E+00  0.00000000000E+00 -0.14694651903E+04  0.37954169530E+04  0.34994087932E+04 0.  0.
        2    1    3    3  502    0 -0.13310360707E+04  0.60152830794E+03  0.31006529120E+03  0.14931958383E+04  0.25500000920E-02 0. -1.
       -2    1    3    3    0  502  0.13310360707E+04 -0.60152830794E+03 -0.17795304815E+04  0.23022211147E+04  0.25500000920E-02 0.  1.
</event>
<event>
 5   0  0.3700096E-08  0.3496840E+04  0.7818609E-02  0.8114539E-01
       -2   -1    0    0    0  501  0.00000000000E+00  0.00000000000E+00  0.96819434914E+03  0.96819434915E+03  0.25500000920E-02 0. -1.
        2   -1    0    0  501    0  0.00000000000E+00  0.00000000000E+00 -0.31573962230E+04  0.31573962230E+04  0.25500000920E-02 0.  1.
    10030    2    1    2    0    0  0.00000000000E+00  0.00000000000E+00 -0.21892018738E+04  0.41255905721E+04  0.34968403916E+04 0.  0.
        4    1    3    3  502    0 -0.92928218855E+03  0.92847389462E+03 -0.24559051831E+04  0.27851572739E+04  0.12699999809E+01 0.  1.
       -4    1    3    3    0  502  0.92928218855E+03 -0.92847389462E+03  0.26670330928E+03  0.13404332982E+04  0.12699999809E+01 0. -1.
</event>
<event>
 5   0  0.1121462E-08  0.3499515E+04  0.7818609E-02  0.8113905E-01
       -1   -1    0    0    0  501  0.00000000000E+00  0.00000000000E+00  0.12723143087E+04  0.12723143087E+04  0.50400001928E-02 0. -1.
        1   -1    0    0  501    0  0.00000000000E+00  0.00000000000E+00 -0.24063644701E+04  0.24063644701E+04  0.50400001928E-02 0.  1.
    10030    2    1    2    0    0  0.00000000000E+00  0.00000000000E+00 -0.11340501614E+04  0.36786787788E+04  0.34995153649E+04 0.  0.
        4    1    3    3  502    0 -0.12802112726E+04  0.18422465716E+03  0.67176932713E+03  0.14574482044E+04  0.12699999809E+01 0. -1.
       -4    1    3    3    0  502  0.12802112726E+04 -0.18422465716E+03 -0.18058194885E+04  0.22212305744E+04  0.12699999809E+01 0.  1.
</event>
<event>
 5   0  0.1121462E-08  0.3498856E+04  0.7818609E-02  0.8114061E-01
        1   -1    0    0  501    0  0.00000000000E+00  0.00000000000E+00  0.12244942756E+04  0.12244942756E+04  0.50400001928E-02 0. -1.
       -1   -1    0    0    0  501  0.00000000000E+00  0.00000000000E+00 -0.24993976004E+04  0.24993976004E+04  0.50400001928E-02 0.  1.
    10030    2    1    2    0    0  0.00000000000E+00  0.00000000000E+00 -0.12749033248E+04  0.37238918760E+04  0.34988558439E+04 0.  0.
        2    1    3    3  502    0 -0.13273593720E+04 -0.37905634886E+03 -0.17812490871E+04  0.22535338756E+04  0.25500000920E-02 0.  1.
       -2    1    3    3    0  502  0.13273593720E+04  0.37905634886E+03  0.50634576234E+03  0.14703580003E+04  0.25500000920E-02 0. -1.
</event>
<event>
 5   0  0.1129219E-08  0.3503956E+04  0.7818609E-02  0.8112853E-01
       -1   -1    0    0    0  501  0.00000000000E+00  0.00000000000E+00  0.13242257584E+04  0.13242257584E+04  0.50400001928E-02 0.  1.
        1   -1    0    0  501    0  0.00000000000E+00  0.00000000000E+00 -0.23179027642E+04  0.23179027642E+04  0.50400001928E-02 0. -1.
    10030    2    1    2    0    0  0.00000000000E+00  0.00000000000E+00 -0.99367700584E+03  0.36421285227E+04  0.35039557908E+04 0.  0.
        5    1    3    3  502    0 -0.27740675677E+03 -0.40443272770E+03 -0.22450912830E+04  0.22980377062E+04  0.46999998093E+01 0. -1.
       -5    1    3    3    0  502  0.27740675677E+03  0.40443272770E+03  0.12514142772E+04  0.13440908165E+04  0.46999998093E+01 0.  1.
</event>
<event>
 5   0  0.1121462E-08  0.3505452E+04  0.7818609E-02  0.8112499E-01
        1   -1    0    0  501    0  0.00000000000E+00  0.00000000000E+00  0.24795155982E+04  0.24795155982E+04  0.50400001928E-02 0. -1.
       -1   -1    0    0    0  501  0.00000000000E+00  0.00000000000E+00 -0.12389710495E+04  0.12389710496E+04  0.50400001928E-02 0.  1.
    10030    2    1    2    0    0  0.00000000000E+00  0.00000000000E+00  0.12405445486E+04  0.37184866477E+04  0.35054517786E+04 0.  0.
        2    1    3    3  502    0 -0.12958519013E+04 -0.92771018341E+03 -0.15356082928E+03  0.16010806547E+04  0.25500000920E-02 0. -1.
       -2    1    3    3    0  502  0.12958519013E+04  0.92771018341E+03  0.13941053779E+04  0.21174059930E+04  0.25500000920E-02 0.  1.
</event>
<event>
 5   0  0.1140808E-08  0.3500138E+04  0.7818609E-02  0.8113757E-01
       -1   -1    0    0    0  501  0.00000000000E+00  0.00000000000E+00  0.14396145535E+04  0.14396145535E+04  0.50400001928E-02 0. -1.
        1   -1    0    0  501    0  0.00000000000E+00  0.00000000000E+00 -0.21274738405E+04  0.21274738405E+04  0.50400001928E-02 0.  1.
    10030    2    1    2    0    0  0.00000000000E+00  0.00000000000E+00 -0.68785928703E+03  0.35670883941E+04  0.35001384562E+04 0.  0.
        3    1    3    3  502    0  0.43971569488E+02  0.79752598991E+03  0.12430199206E+04  0.14775248684E+04  0.10100000352E+00 0. -1.
       -3    1    3    3    0  502 -0.43971569488E+02 -0.79752598991E+03 -0.19308792076E+04  0.20895635257E+04  0.10100000352E+00 0.  1.
</event>
<event>
 5   0  0.1129219E-08  0.3501182E+04  0.7818609E-02  0.8113510E-01
       -1   -1    0    0    0  501  0.00000000000E+00  0.00000000000E+00  0.11820058557E+04  0.11820058557E+04  0.50400001928E-02 0. -1.
        1   -1    0    0  501    0  0.00000000000E+00  0.00000000000E+00 -0.25926855299E+04  0.25926855299E+04  0.50400001928E-02 0.  1.
    10030    2    1    2    0    0  0.00000000000E+00  0.00000000000E+00 -0.14106796742E+04  0.37746913856E+04  0.35011823593E+04 0.  0.
        5    1    3    3  502    0  0.94782783148E+03 -0.26903805719E+03  0.85469071633E+03  0.13043302438E+04  0.46999998093E+01 0. -1.
       -5    1    3    3    0  502 -0.94782783148E+03  0.26903805719E+03 -0.22653703906E+04  0.24703611418E+04  0.46999998093E+01 0.  1.
</event>
<event>
 5   0  0.1129219E-08  0.3500648E+04  0.7818609E-02  0.8113636E-01
        1   -1    0    0  501    0  0.00000000000E+00  0.00000000000E+00  0.14197997896E+04  0.14197997896E+04  0.50400001928E-02 0. -1.
       -1   -1    0    0    0  501  0.00000000000E+00  0.00000000000E+00 -0.21577925113E+04  0.21577925113E+04  0.50400001928E-02 0.  1.
    10030    2    1    2    0    0  0.00000000000E+00  0.00000000000E+00 -0.73799272172E+03  0.35775923009E+04  0.35006475707E+04 0.  0.
        5    1    3    3  502    0 -0.48986963649E+03  0.12045583568E+04  0.82836935895E+03  0.15418012131E+04  0.46999998093E+01 0. -1.
       -5    1    3    3    0  502  0.48986963649E+03 -0.12045583568E+04 -0.15663620807E+04  0.20357910879E+04  0.46999998093E+01 0.  1.
</event>
<event>
 5   0  0.1129219E-08  0.3500014E+04  0.7818609E-02  0.8113787E-01
       -1   -1    0    0    0  501  0.00000000000E+00  0.00000000000E+00  0.15263405979E+04  0.15263405980E+04  0.50400001928E-02 0. -1.
        1   -1    0    0  501    0  0.00000000000E+00  0.00000000000E+00 -0.20064494092E+04  0.20064494092E+04  0.50400001928E-02 0.  1.
    10030    2    1    2    0    0  0.00000000000E+00  0.00000000000E+00 -0.48010881126E+03  0.35327900072E+04  0.35000143948E+04 0.  0.
        5    1    3    3  502    0  0.11005362001E+04  0.10275654277E+04 -0.11402764611E+04  0.18887358560E+04  0.46999998093E+01 0.  1.
       -5    1    3    3    0  502 -0.11005362001E+04 -0.10275654277E+04  0.66016764987E+03  0.16440541512E+04  0.46999998093E+01 0. -1.
</event>
<event>
 5   0  0.3700096E-08  0.3499531E+04  0.7818609E-02  0.8113901E-01
        2   -1    0    0  501    0  0.00000000000E+00  0.00000000000E+00  0.22966294333E+04  0.22966294333E+04  0.25500000920E-02 0. -1.
       -2   -1    0    0    0  501  0.00000000000E+00  0.00000000000E+00 -0.13331184354E+04  0.13331184354E+04  0.25500000920E-02 0.  1.
    10030    2    1    2    0    0  0.00000000000E+00  0.00000000000E+00  0.96351099785E+03  0.36297478687E+04  0.34995308468E+04 0.  0.
        4    1    3    3  502    0 -0.71959436125E+03 -0.90222249449E+03 -0.88242426430E+03  0.14527545111E+04  0.12699999809E+01 0.  1.
       -4    1    3    3    0  502  0.71959436125E+03  0.90222249449E+03  0.18459352621E+04  0.21769933576E+04  0.12699999809E+01 0. -1.
</event>
<event>
 5   0  0.1121462E-08  0.3500352E+04  0.7818609E-02  0.8113706E-01
        1   -1    0    0  501    0  0.00000000000E+00  0.00000000000E+00  0.18111787208E+04  0.18111787208E+04  0.50400001928E-02 0.  1.
       -1   -1    0    0    0  501  0.00000000000E+00  0.00000000000E+00 -0.16912280978E+04  0.16912280978E+04  0.50400001928E-02 0. -1.
    10030    2    1    2    0    0  0.00000000000E+00  0.00000000000E+00  0.11995062298E+03  0.35024068186E+04  0.35003521781E+04 0.  0.
        4    1    3    3  502    0 -0.16366753245E+04 -0.22240842914E+03  0.63905771367E+03  0.17710358555E+04  0.12699999809E+01 0.  1.
       -4    1    3    3    0  502  0.16366753245E+04  0.22240842914E+03 -0.51910709069E+03  0.17313709631E+04  0.12699999809E+01 0. -1.
</event>
<event>
 5   0  0.3467834E-08  0.3498859E+04  0.7818609E-02  0.8114060E-01
        2   -1    0    0  501    0  0.00000000000E+00  0.00000000000E+00  0.17516829407E+04  0.17516829407E+04  0.25500000920E-02 0.  1.
       -2   -1    0    0    0  501  0.00000000000E+00  0.00000000000E+00 -0.17471785761E+04  0.17471785761E+04  0.25500000920E-02 0. -1.
    10030    2    1    2    0    0  0.00000000000E+00  0.00000000000E+00  0.45043645542E+01  0.34988615168E+04  0.34988586173E+04 0.  0.
        3    1    3    3  502    0  0.26695772125E+03  0.17147883078E+04 -0.21851378221E+03  0.17491465487E+04  0.10100000352E+00 0. -1.
       -3    1    3    3    0  502 -0.26695772125E+03 -0.17147883078E+04  0.22301814677E+03  0.17497149681E+04  0.10100000352E+00 0.  1.
</event>
<event>
 5   0  0.3628017E-08  0.3501519E+04  0.7818609E-02  0.8113430E-01
       -2   -1    0    0    0  501  0.00000000000E+00  0.00000000000E+00  0.14486468156E+04  0.14486468156E+04  0.25500000920E-02 0. -1.
        2   -1    0    0  501    0  0.00000000000E+00  0.00000000000E+00 -0.21158767657E+04  0.21158767658E+04  0.25500000920E-02 0.  1.
    10030    2    1    2    0    0  0.00000000000E+00  0.00000000000E+00 -0.66722995016E+03  0.35645235813E+04  0.35015186071E+04 0.  0.
        1    1    3    3  502    0  0.14471787139E+04  0.59492614866E+02  0.66759224391E+03  0.15948495243E+04  0.50400001928E-02 0. -1.
       -1    1    3    3    0  502 -0.14471787139E+04 -0.59492614866E+02 -0.13348221941E+04  0.19696740570E+04  0.50400001928E-02 0.  1.
</event>
<event>
 5   0  0.1121462E-08  0.3501600E+04  0.7818609E-02  0.8113411E-01
        1   -1    0    0  501    0  0.00000000000E+00  0.00000000000E+00  0.23676979834E+04  0.23676979834E+04  0.50400001928E-02 0. -1.
       -1   -1    0    0    0  501  0.00000000000E+00  0.00000000000E+00 -0.12946332420E+04  0.12946332420E+04  0.50400001928E-02 0.  1.
    10030    2    1    2    0    0  0.00000000000E+00  0.00000000000E+00  0.10730647413E+04  0.36623312254E+04  0.35015999294E+04 0.  0.
        4    1    3    3  502    0  0.72298493715E+03  0.15075588215E+04  0.10798562727E+04  0.19903597670E+04  0.12699999809E+01 0. -1.
       -4    1    3    3    0  502 -0.72298493715E+03 -0.15075588215E+04 -0.67915313209E+01  0.16719714583E+04  0.12699999809E+01 0.  1.
</event>
<event>
 5   0  0.3628017E-08  0.3499945E+04  0.7818609E-02  0.8113803E-01
        2   -1    0    0  501    0  0.00000000000E+00  0.00000000000E+00  0.11101993895E+04  0.11101993895E+04  0.25500000920E-02 0.  1.
       -2   -1    0    0    0  501  0.00000000000E+00  0.00000000000E+00 -0.27584275143E+04  0.27584275143E+04  0.25500000920E-02 0. -1.
    10030    2    1    2    0    0  0.00000000000E+00  0.00000000000E+00 -0.16482281249E+04  0.38686269038E+04  0.34999454523E+04 0.  0.
        1    1    3    3  502    0  0.36140108625E+03 -0.15742399361E+04 -0.79700796082E+02  0.16171562505E+04  0.50400001928E-02 0.  1.
       -1    1    3    3    0  502 -0.36140108625E+03  0.15742399361E+04 -0.15685273288E+04  0.22514706533E+04  0.50400001928E-02 0. -1.
</event>
<event>
 5   0  0.3467834E-08  0.3499913E+04  0.7818609E-02  0.8113810E-01
       -2   -1    0    0    0  501  0.00000000000E+00  0.00000000000E+00  0.37208135580E+04  0.37208135580E+04  0.25500000920E-02 0. -1.
        2   -1    0    0  501    0  0.00000000000E+00  0.00000000000E+00 -0.82303190186E+03  0.82303190187E+03  0.25500000920E-02 0.  1.
    10030    2    1    2    0    0  0.00000000000E+00  0.00000000000E+00  0.28977816561E+04  0.45438454599E+04  0.34999132899E+04 0.  0.
        3    1    3    3  502    0 -0.38927840707E+03 -0.51785196563E+03  0.35593903705E+04  0.36178679020E+04  0.10100000352E+00 0. -1.
       -3    1    3    3    0  502  0.38927840707E+03  0.51785196563E+03 -0.66160871437E+03  0.92597755785E+03  0.10100000352E+00 0.  1.
</event>
<event>
 5   0  0.1121462E-08  0.3500440E+04  0.7818609E-02  0.8113686E-01
       -1   -1    0    0    0  501  0.00000000000E+00  0.00000000000E+00  0.13352143895E+04  0.13352143895E+04  0.50400001928E-02 0. -1.
        1   -1    0    0  501    0  0.00000000000E+00  0.00000000000E+00 -0.22942158772E+04  0.22942158772E+04  0.50400001928E-02 0.  1.
    10030    2    1    2    0    0  0.00000000000E+00  0.00000000000E+00 -0.95900148769E+03  0.36294302667E+04  0.35004400019E+04 0.  0.
        2    1    3    3  502    0  0.12980125735E+04  0.20233523379E+03  0.71961669106E+03  0.14978732823E+04  0.25500000920E-02 0. -1.
       -2    1    3    3    0  502 -0.12980125735E+04 -0.20233523379E+03 -0.16786181787E+04  0.21315569844E+04  0.25500000920E-02 0.  1.
</event>
<event>
 5   0  0.3467834E-08  0.3499405E+04  0.7818609E-02  0.8113931E-01
       -2   -1    0    0    0  501  0.00000000000E+00  0.00000000000E+00  0.18210889539E+04  0.18210889539E+04  0.25500000920E-02 0.  1.
        2   -1    0    0  501    0  0.00000000000E+00  0.00000000000E+00 -0.16811146906E+04  0.16811146906E+04  0.25500000920E-02 0. -1.
    10030    2    1    2    0    0  0.00000000000E+00  0.00000000000E+00  0.13997426336E+03  0.35022036445E+04  0.34994053171E+04 0.  0.
        3    1    3    3  502    0 -0.96787374954E+03 -0.42788281400E+03  0.14645130557E+04  0.18068375129E+04  0.10100000352E+00 0.  1.
       -3    1    3    3    0  502  0.96787374954E+03  0.42788281400E+03 -0.13245387923E+04  0.16953661316E+04  0.10100000352E+00 0. -1.
</event>
<event>
 5   0  0.1121462E-08  0.3500120E+04  0.7818609E-02  0.8113761E-01
        1   -1    0    0  501    0  0.00000000000E+00  0.00000000000E+00  0.13096652492E+04  0.13096652492E+04  0.50400001928E-02 0.  1.
       -1   -1    0    0    0  501  0.00000000000E+00  0.00000000000E+00 -0.23385443425E+04  0.23385443425E+04  0.50400001928E-02 0. -1.
    10030    2    1    2    0    0  0.00000000000E+00  0.00000000000E+00 -0.10288790933E+04  0.36482095917E+04  0.35001201460E+04 0.  0.
        1    1    3    3  502    0 -0.10036340463E+04  0.13556332569E+04 -0.28129202227E+02  0.16869540830E+04  0.50400001928E-02 0. -1.
       -1    1    3    3    0  502  0.10036340463E+04 -0.13556332569E+04 -0.10007498911E+04  0.19612555087E+04  0.50400001928E-02 0.  1.
</event>
<event>
 5   0  0.1121462E-08  0.3500902E+04  0.7818609E-02  0.8113576E-01
        1   -1    0    0  501    0  0.00000000000E+00  0.00000000000E+00  0.20583676579E+04  0.20583676579E+04  0.50400001928E-02 0.  1.
       -1   -1    0    0    0  501  0.00000000000E+00  0.00000000000E+00 -0.14885966591E+04  0.14885966591E+04  0.50400001928E-02 0. -1.
    10030    2    1    2    0    0  0.00000000000E+00  0.00000000000E+00  0.56977099878E+03  0.35469643170E+04  0.35009022944E+04 0.  0.
        2    1    3    3  502    0  0.13612624109E+04  0.71983563114E+03 -0.55846092597E+03  0.16380101627E+04  0.25500000920E-02 0. -1.
       -2    1    3    3    0  502 -0.13612624109E+04 -0.71983563114E+03  0.11282319248E+04  0.19089541543E+04  0.25500000920E-02 0.  1.
</event>
<event>
 5   0  0.1121462E-08  0.3500468E+04  0.7818609E-02  0.8113679E-01
       -1   -1    0    0    0  501  0.00000000000E+00  0.00000000000E+00  0.17544620228E+04  0.17544620228E+04  0.50400001928E-02 0. -1.
        1   -1    0    0  501    0  0.00000000000E+00  0.00000000000E+00 -0.17460165047E+04  0.17460165047E+04  0.50400001928E-02 0.  1.
    10030    2    1    2    0    0  0.00000000000E+00  0.00000000000E+00  0.84455180528E+01  0.35004785275E+04  0.35004683393E+04 0.  0.
        1    1    3    3  502    0 -0.80413366336E+03  0.30778381451E+03 -0.15195788487E+04  0.17465628252E+04  0.50400001928E-02 0.  1.
       -1    1    3    3    0  502  0.80413366336E+03 -0.30778381451E+03  0.15280243668E+04  0.17539157022E+04  0.50400001928E-02 0. -1.
</event>
<event>
 5   0  0.3628017E-08  0.3498822E+04  0.7818609E-02  0.8114069E-01
       -2   -1    0    0    0  501  0.00000000000E+00  0.00000000000E+00  0.22948606081E+04  0.22948606081E+04  0.25500000920E-02 0.  1.
        2   -1    0    0  501    0  0.00000000000E+00  0.00000000000E+00 -0.13336056320E+04  0.13336056320E+04  0.25500000920E-02 0. -1.
    10030    2    1    2    0    0  0.00000000000E+00  0.00000000000E+00  0.96125497612E+03  0.36284662401E+04  0.34988221056E+04 0.  0.
        1    1    3    3  502    0  0.12978668757E+04 -0.82946347482E+03  0.13408014155E+04  0.20421107999E+04  0.50400001928E-02 0.  1.
       -1    1    3    3    0  502 -0.12978668757E+04  0.82946347482E+03 -0.37954643943E+03  0.15863554402E+04  0.50400001928E-02 0. -1.
</event>
<event>
 5   0  0.1121462E-08  0.3508680E+04  0.7818609E-02  0.8111736E-01
       -1   -1    0    0    0  501  0.00000000000E+00  0.00000000000E+00  0.14221008054E+04  0.14221008054E+04  0.50400001928E-02 0. -1.
        1   -1    0    0  501    0  0.00000000000E+00  0.00000000000E+00 -0.21641985903E+04  0.21641985904E+04  0.50400001928E-02 0.  1.
    10030    2    1    2    0    0  0.00000000000E+00  0.00000000000E+00 -0.74209778496E+03  0.35862993958E+04  0.35086798420E+04 0.  0.
        1    1    3    3  502    0  0.14016480507E+04 -0.61158066229E+03 -0.12497532211E+04  0.19749762728E+04  0.50400001928E-02 0.  1.
       -1    1    3    3    0  502 -0.14016480507E+04  0.61158066229E+03  0.50765543617E+03  0.16113231229E+04  0.50400001928E-02 0. -1.
</event>
<event>
 5   0  0.1121462E-08  0.3499717E+04  0.7818609E-02  0.8113857E-01
       -1   -1    0    0    0  501  0.00000000000E+00  0.00000000000E+00  0.11255940374E+04  0.11255940374E+04  0.50400001928E-02 0.  1.
        1   -1    0    0  501    0  0.00000000000E+00  0.00000000000E+00 -0.27203459152E+04  0.27203459152E+04  0.50400001928E-02 0. -1.
    10030    2    1    2    0    0  0.00000000000E+00  0.00000000000E+00 -0.15947518778E+04  0.38459399526E+04  0.34997172124E+04 0.  0.
        4    1    3    3  502    0 -0.10517593398E+04 -0.41231403743E+03 -0.22659177447E+04  0.25319133897E+04  0.12699999809E+01 0. -1.
       -4    1    3    3    0  502  0.10517593398E+04  0.41231403743E+03  0.67116586687E+03  0.13140265629E+04  0.12699999809E+01 0.  1.
</event>
<event>
 5   0  0.3553585E-08  0.3503993E+04  0.7818609E-02  0.8112844E-01
        2   -1    0    0  501    0  0.00000000000E+00  0.00000000000E+00  0.18331661112E+04  0.18331661112E+04  0.25500000920E-02 0. -1.
       -2   -1    0    0    0  501  0.00000000000E+00  0.00000000000E+00 -0.16744208313E+04  0.16744208313E+04  0.25500000920E-02 0.  1.
    10030    2    1    2    0    0  0.00000000000E+00  0.00000000000E+00  0.15874527987E+03  0.35075869425E+04  0.35039928789E+04 0.  0.
        2    1    3    3  502    0  0.39905726940E+03  0.16260118167E+04 -0.43722877760E+03  0.17304132848E+04  0.25500000920E-02 0. -1.
       -2    1    3    3    0  502 -0.39905726940E+03 -0.16260118167E+04  0.59597405747E+03  0.17771736577E+04  0.25500000920E-02 0.  1.
</event>
<event>
 5   0  0.3553585E-08  0.3490154E+04  0.7818609E-02  0.8116127E-01
       -2   -1    0    0    0  501  0.00000000000E+00  0.00000000000E+00  0.11008918488E+04  0.11008918488E+04  0.25500000920E-02 0.  1.
        2   -1    0    0  501    0  0.00000000000E+00  0.00000000000E+00 -0.27662064478E+04  0.27662064478E+04  0.25500000920E-02 0. -1.
    10030    2    1    2    0    0  0.00000000000E+00  0.00000000000E+00 -0.16653145990E+04  0.38670982966E+04  0.34901542261E+04 0.  0.
        2    1    3    3  502    0 -0.16326948142E+04 -0.27982452852E+03 -0.14408485446E+04  0.21954586427E+04  0.25500000920E-02 0. -1.
       -2    1    3    3    0  502  0.16326948142E+04  0.27982452852E+03 -0.22446605441E+03  0.16716396540E+04  0.25500000920E-02 0.  1.
</event>
<event>
 5   0  0.1121462E-08  0.3501006E+04  0.7818609E-02  0.8113552E-01
       -1   -1    0    0    0  501  0.00000000000E+00  0.00000000000E+00  0.12579779659E+04  0.12579779659E+04  0.50400001928E-02 0.  1.
        1   -1    0    0  501    0  0.00000000000E+00  0.00000000000E+00 -0.24358616441E+04  0.24358616441E+04  0.50400001928E-02 0. -1.
    10030    2    1    2    0    0  0.00000000000E+00  0.00000000000E+00 -0.11778836782E+04  0.36938396100E+04  0.35010057276E+04 0.  0.
        2    1    3    3  502    0 -0.14243611368E+04 -0.92972838951E+03 -0.15256629985E+03  0.17077693059E+04  0.25500000920E-02 0. -1.
       -2    1    3    3    0  502  0.14243611368E+04  0.92972838951E+03 -0.10253173783E+04  0.19860703041E+04  0.25500000920E-02 0.  1.
</event>
<event>
 5   0  0.3628017E-08  0.3501302E+04  0.7818609E-02  0.8113481E-01
        2   -1    0    0  501    0  0.00000000000E+00  0.00000000000E+00  0.25127012289E+04  0.25127012289E+04  0.25500000920E-02 0. -1.
       -2   -1    0    0    0  501  0.00000000000E+00  0.00000000000E+00 -0.12197149554E+04  0.12197149554E+04  0.25500000920E-02 0.  1.
    10030    2    1    2    0    0  0.00000000000E+00  0.00000000000E+00  0.12929862735E+04  0.37324161844E+04  0.35013021963E+04 0.  0.
        1    1    3    3  502    0 -0.79347245672E+03  0.24933375120E+03 -0.99564831460E+03  0.12973362808E+04  0.50400001928E-02 0.  1.
       -1    1    3    3    0  502  0.79347245672E+03 -0.24933375120E+03  0.22886345881E+04  0.24350799036E+04  0.50400001928E-02 0. -1.
</event>
<event>
 5   0  0.1140808E-08  0.3498307E+04  0.7818609E-02  0.8114191E-01
        1   -1    0    0  501    0  0.00000000000E+00  0.00000000000E+00  0.19072804385E+04  0.19072804385E+04  0.50400001928E-02 0.  1.
       -1   -1    0    0    0  501  0.00000000000E+00  0.00000000000E+00 -0.16041361461E+04  0.16041361462E+04  0.50400001928E-02 0. -1.
    10030    2    1    2    0    0  0.00000000000E+00  0.00000000000E+00  0.30314429231E+03  0.35114165846E+04  0.34983067288E+04 0.  0.
        3    1    3    3  502    0  0.10734660724E+04  0.43457499628E+03 -0.11641997882E+04  0.16421163153E+04  0.10100000352E+00 0. -1.
       -3    1    3    3    0  502 -0.10734660724E+04 -0.43457499628E+03  0.14673440805E+04  0.18693002693E+04  0.10100000352E+00 0.  1.
</event>
<event>
 5   0  0.3700096E-08  0.3500349E+04  0.7818609E-02  0.8113707E-01
       -2   -1    0    0    0  501  0.00000000000E+00  0.00000000000E+00  0.12833483304E+04  0.12833483304E+04  0.25500000920E-02 0. -1.
        2   -1    0    0  501    0  0.00000000000E+00  0.00000000000E+00 -0.23868117825E+04  0.23868117825E+04  0.25500000920E-02 0.  1.
    10030    2    1    2    0    0  0.00000000000E+00  0.00000000000E+00 -0.11034634521E+04  0.36701601129E+04  0.35003490774E+04 0.  0.
        4    1    3    3  502    0 -0.43191179532E+03  0.16342854277E+04 -0.10272442070E+04  0.19780467466E+04  0.12699999809E+01 0.  1.
       -4    1    3    3    0  502  0.43191179532E+03 -0.16342854277E+04 -0.76219245150E+02  0.16921133663E+04  0.12699999809E+01 0. -1.
</event>
<event>
 5   0  0.3554451E-08  0.3507493E+04  0.7818609E-02  0.8112017E-01
        2   -1    0    0  501    0  0.00000000000E+00  0.00000000000E+00  0.25182519869E+04  0.25182519869E+04  0.25500000920E-02 0.  1.
       -2   -1    0    0    0  501  0.00000000000E+00  0.00000000000E+00 -0.12213338064E+04  0.12213338064E+04  0.25500000920E-02 0. -1.
    10030    2    1    2    0    0  0.00000000000E+00  0.00000000000E+00  0.12969181805E+04  0.37395857933E+04  0.35074927139E+04 0.  0.
        5    1    3    3  502    0  0.16127402049E+04 -0.57477302388E+03  0.24344164614E+03  0.17293296165E+04  0.46999998093E+01 0. -1.
       -5    1    3    3    0  502 -0.16127402049E+04  0.57477302388E+03  0.10534765344E+04  0.20102561767E+04  0.46999998093E+01 0.  1.
</event>
<event>
 5   0  0.3467834E-08  0.3500574E+04  0.7818609E-02  0.8113654E-01
       -2   -1    0    0    0  501  0.00000000000E+00  0.00000000000E+00  0.18392358030E+04  0.18392358030E+04  0.25500000920E-02 0.  1.
        2   -1    0    0  501    0  0.00000000000E+00  0.00000000000E+00 -0.16656401975E+04  0.16656401975E+04  0.25500000920E-02 0. -1.
    10030    2    1    2    0    0  0.00000000000E+00  0.00000000000E+00  0.17359560549E+03  0.35048760005E+04  0.35005742879E+04 0.  0.
        3    1    3    3  502    0  0.10265686607E+04 -0.11868586026E+04  0.86301077904E+03  0.17908836290E+04  0.10100000352E+00 0.  1.
       -3    1    3    3    0  502 -0.10265686607E+04  0.11868586026E+04 -0.68941517355E+03  0.17139923715E+04  0.10100000352E+00 0. -1.
</event>
<event>
 5   0  0.1121462E-08  0.3499037E+04  0.7818609E-02  0.8114018E-01
        1   -1    0    0  501    0  0.00000000000E+00  0.00000000000E+00  0.18274033532E+04  0.18274033532E+04  0.50400001928E-02 0. -1.
       -1   -1    0    0    0  501  0.00000000000E+00  0.00000000000E+00 -0.16749528898E+04  0.16749528898E+04  0.50400001928E-02 0.  1.
    10030    2    1    2    0    0  0.00000000000E+00  0.00000000000E+00  0.15245046337E+03  0.35023562430E+04  0.34990367401E+04 0.  0.
        1    1    3    3  502    0  0.40592899160E+03  0.12653941029E+04  0.12152036625E+04  0.18007555424E+04  0.50400001928E-02 0. -1.
       -1    1    3    3    0  502 -0.40592899160E+03 -0.12653941029E+04 -0.10627531991E+04  0.17016007006E+04  0.50400001928E-02 0.  1.
</event>
<event>
 5   0  0.1121462E-08  0.3496632E+04  0.7818609E-02  0.8114589E-01
       -1   -1    0    0    0  501  0.00000000000E+00  0.00000000000E+00  0.33671584098E+04  0.33671584098E+04  0.50400001928E-02 0.  1.
        1   -1    0    0  501    0  0.00000000000E+00  0.00000000000E+00 -0.90777077574E+03  0.90777077575E+03  0.50400001928E-02 0. -1.
    10030    2    1    2    0    0  0.00000000000E+00  0.00000000000E+00  0.24593876340E+04  0.42749291855E+04  0.34966315229E+04 0.  0.
        2    1    3    3  502    0  0.29780682544E+02 -0.17258387511E+04  0.88999616977E+03  0.19420348776E+04  0.25500000920E-02 0.  1.
       -2    1    3    3    0  502 -0.29780682544E+02  0.17258387511E+04  0.15693914643E+04  0.23328943079E+04  0.25500000920E-02 0. -1.
</event>
<event>
 5   0  0.1121462E-08  0.3515681E+04  0.7818609E-02  0.8110084E-01
        1   -1    0    0  501    0  0.00000000000E+00  0.00000000000E+00  0.12788843094E+04  0.12788843094E+04  0.50400001928E-02 0. -1.
       -1   -1    0    0    0  501  0.00000000000E+00  0.00000000000E+00 -0.24161709352E+04  0.24161709352E+04  0.50400001928E-02 0.  1.
    10030    2    1    2    0    0  0.00000000000E+00  0.00000000000E+00 -0.11372866258E+04  0.36950552446E+04  0.35156809285E+04 0.  0.
        2    1    3    3  502    0 -0.63636250764E+03  0.54842881496E+03  0.10542476955E+04  0.13480243357E+04  0.25500000920E-02 0. -1.
       -2    1    3    3    0  502  0.63636250764E+03 -0.54842881496E+03 -0.21915343212E+04  0.23470309089E+04  0.25500000920E-02 0.  1.
</event>
<event>
 5   0  0.3553585E-08  0.3497575E+04  0.7818609E-02  0.8114365E-01
        2   -1    0    0  501    0  0.00000000000E+00  0.00000000000E+00  0.16694667994E+04  0.16694667994E+04  0.25500000920E-02 0. -1.
       -2   -1    0    0    0  501  0.00000000000E+00  0.00000000000E+00 -0.18318767116E+04  0.18318767116E+04  0.25500000920E-02 0.  1.
    10030    2    1    2    0    0  0.00000000000E+00  0.00000000000E+00 -0.16240991216E+03  0.35013435110E+04  0.34975747887E+04 0.  0.
        2    1    3    3  502    0  0.16486628028E+04  0.19674079514E+03 -0.63085155778E+03  0.17761671278E+04  0.25500000920E-02 0. -1.
       -2    1    3    3    0  502 -0.16486628028E+04 -0.19674079514E+03  0.46844164563E+03  0.17251763832E+04  0.25500000920E-02 0.  1.
</event>
<event>
 5   0  0.3700096E-08  0.3499493E+04  0.7818609E-02  0.8113910E-01
        2   -1    0    0  501    0  0.00000000000E+00  0.00000000000E+00  0.12580317742E+04  0.12580317742E+04  0.25500000920E-02 0.  1.
       -2   -1    0    0    0  501  0.00000000000E+00  0.00000000000E+00 -0.24336532609E+04  0.24336532609E+04  0.25500000920E-02 0. -1.
    10030    2    1    2    0    0  0.00000000000E+00  0.00000000000E+00 -0.11756214868E+04  0.36916850351E+04  0.34994931802E+04 0.  0.
        4    1    3    3  502    0  0.35158986787E+03 -0.48728343489E+02  0.12196527282E+04  0.12702536270E+04  0.12699999809E+01 0.  1.
       -4    1    3    3    0  502 -0.35158986787E+03  0.48728343489E+02 -0.23952742149E+04  0.24214314081E+04  0.12699999809E+01 0. -1.
</event>
<event>
 5   0  0.3554451E-08  0.3500955E+04  0.7818609E-02  0.8113564E-01
       -2   -1    0    0    0  501  0.00000000000E+00  0.00000000000E+00  0.16016204142E+04  0.16016204142E+04  0.25500000920E-02 0.  1.
        2   -1    0    0  501    0  0.00000000000E+00  0.00000000000E+00 -0.19131694904E+04  0.19131694904E+04  0.25500000920E-02 0. -1.
    10030    2    1    2    0    0  0.00000000000E+00  0.00000000000E+00 -0.31154907619E+03  0.35147899047E+04  0.35009549050E+04 0.  0.
        5    1    3    3  502    0 -0.47100272327E+03 -0.16698574727E+03  0.15284788011E+04  0.16081036473E+04  0.46999998093E+01 0.  1.
       -5    1    3    3    0  502  0.47100272327E+03  0.16698574727E+03 -0.18400278772E+04  0.19066862574E+04  0.46999998093E+01 0. -1.
</event>
<event>
 5   0  0.1121462E-08  0.3498858E+04  0.7818609E-02  0.8114061E-01
       -1   -1    0    0    0  501  0.00000000000E+00  0.00000000000E+00  0.15484163632E+04  0.15484163632E+04  0.50400001928E-02 0.  1.
        1   -1    0    0  501    0  0.00000000000E+00  0.00000000000E+00 -0.19765368317E+04  0.19765368317E+04  0.50400001928E-02 0. -1.
    10030    2    1    2    0    0  0.00000000000E+00  0.00000000000E+00 -0.42812046847E+03  0.35249531949E+04  0.34988580838E+04 0.  0.
        1    1    3    3  502    0 -0.91991111851E+03  0.80035457806E+03 -0.14778875313E+04  0.19159737659E+04  0.50400001928E-02 0. -1.
       -1    1    3    3    0  502  0.91991111851E+03 -0.80035457806E+03  0.10497670628E+04  0.16089794289E+04  0.50400001928E-02 0.  1.
</event>
<event>
 5   0  0.1121462E-08  0.3500920E+04  0.7818609E-02  0.8113572E-01
        1   -1    0    0  501    0  0.00000000000E+00  0.00000000000E+00  0.18779799654E+04  0.18779799654E+04  0.50400001928E-02 0.  1.
       -1   -1    0    0    0  501  0.00000000000E+00  0.00000000000E+00 -0.16315991203E+04  0.16315991203E+04  0.50400001928E-02 0. -1.
    10030    2    1    2    0    0  0.00000000000E+00  0.00000000000E+00  0.24638084512E+03  0.35095790856E+04  0.35009201416E+04 0.  0.
        4    1    3    3  502    0 -0.11708920668E+04  0.56103037315E+02 -0.11800145256E+04  0.16633014388E+04  0.12699999809E+01 0. -1.
       -4    1    3    3    0  502  0.11708920668E+04 -0.56103037315E+02  0.14263953707E+04  0.18462776468E+04  0.12699999809E+01 0.  1.
</event>
<event>
 5   0  0.3553585E-08  0.3500246E+04  0.7818609E-02  0.8113732E-01
        2   -1    0    0  501    0  0.00000000000E+00  0.00000000000E+00  0.25209116588E+04  0.25209116588E+04  0.25500000920E-02 0.  1.
       -2   -1    0    0    0  501  0.00000000000E+00  0.00000000000E+00 -0.12150093995E+04  0.12150093995E+04  0.25500000920E-02 0. -1.
    10030    2    1    2    0    0  0.00000000000E+00  0.00000000000E+00  0.13059022594E+04  0.37359210583E+04  0.35002464831E+04 0.  0.
        2    1    3    3  502    0 -0.25011918452E+03  0.16989201381E+04  0.29251219183E+03  0.17419680320E+04  0.25500000920E-02 0. -1.
       -2    1    3    3    0  502  0.25011918452E+03 -0.16989201381E+04  0.10133900675E+04  0.19939530263E+04  0.25500000920E-02 0.  1.
</event>
<event>
 5   0  0.3628017E-08  0.3499591E+04  0.7818609E-02  0.8113887E-01
        2   -1    0    0  501    0  0.00000000000E+00  0.00000000000E+00  0.17327561994E+04  0.17327561994E+04  0.25500000920E-02 0.  1.
       -2   -1    0    0    0  501  0.00000000000E+00  0.00000000000E+00 -0.17670021867E+04  0.17670021867E+04  0.25500000920E-02 0. -1.
    10030    2    1    2    0    0  0.00000000000E+00  0.00000000000E+00 -0.34245987333E+02  0.34997583861E+04  0.34995908295E+04 0.  0.
        1    1    3    3  502    0  0.36325653281E+03  0.84299173629E+03 -0.15068901324E+04  0.17644569270E+04  0.50400001928E-02 0. -1.
       -1    1    3    3    0  502 -0.36325653281E+03 -0.84299173629E+03  0.14726441451E+04  0.17353014591E+04  0.50400001928E-02 0.  1.
</event>
<event>
 5   0  0.3628017E-08  0.3497698E+04  0.7818609E-02  0.8114336E-01
        2   -1    0    0  501    0  0.00000000000E+00  0.00000000000E+00  0.18763606015E+04  0.18763606015E+04  0.25500000920E-02 0. -1.
       -2   -1    0    0    0  501  0.00000000000E+00  0.00000000000E+00 -0.16300028214E+04  0.16300028214E+04  0.25500000920E-02 0.  1.
    10030    2    1    2    0    0  0.00000000000E+00  0.00000000000E+00  0.24635778013E+03  0.35063634230E+04  0.34976981428E+04 0.  0.
        1    1    3    3  502    0 -0.16815919421E+04 -0.14244343390E+03  0.58304346828E+03  0.17854918867E+04  0.50400001928E-02 0. -1.
       -1    1    3    3    0  502  0.16815919421E+04  0.14244343390E+03 -0.33668568815E+03  0.17208715362E+04  0.50400001928E-02 0.  1.
</event>
<event>
 5   0  0.1121462E-08  0.3500040E+04  0.7818609E-02  0.8113780E-01
       -1   -1    0    0    0  501  0.00000000000E+00  0.00000000000E+00  0.15054378384E+04  0.15054378384E+04  0.50400001928E-02 0.  1.
        1   -1    0    0  501    0  0.00000000000E+00  0.00000000000E+00 -0.20343384191E+04  0.20343384191E+04  0.50400001928E-02 0. -1.
    10030    2    1    2    0    0  0.00000000000E+00  0.00000000000E+00 -0.52890058068E+03  0.35397762575E+04  0.35000400182E+04 0.  0.
        2    1    3    3  502    0 -0.90150357105E+03 -0.13168936963E+04  0.46179160175E+03  0.16613756889E+04  0.25500000920E-02 0. -1.
       -2    1    3    3    0  502  0.90150357105E+03  0.13168936963E+04 -0.99069218243E+03  0.18784005687E+04  0.25500000920E-02 0.  1.
</event>
<event>
 5   0  0.3554451E-08  0.3499993E+04  0.7818609E-02  0.8113791E-01
        2   -1    0    0  501    0  0.00000000000E+00  0.00000000000E+00  0.12404676378E+04  0.12404676378E+04  0.25500000920E-02 0. -1.
       -2   -1    0    0    0  501  0.00000000000E+00  0.00000000000E+00 -0.24688177919E+04  0.24688177919E+04  0.25500000920E-02 0.  1.
    10030    2    1    2    0    0  0.00000000000E+00  0.00000000000E+00 -0.12283501541E+04  0.37092854296E+04  0.34999934710E+04 0.  0.
        5    1    3    3  502    0 -0.57727345477E+03  0.11510938799E+04 -0.18700264191E+04  0.22705247543E+04  0.46999998093E+01 0.  1.
       -5    1    3    3    0  502  0.57727345477E+03 -0.11510938799E+04  0.64167626494E+03  0.14387606753E+04  0.46999998093E+01 0. -1.
</event>
<event>
 5   0  0.1121462E-08  0.3513377E+04  0.7818609E-02  0.8110627E-01
       -1   -1    0    0    0  501  0.00000000000E+00  0.00000000000E+00  0.15996772176E+04  0.15996772176E+04  0.50400001928E-02 0.  1.
        1   -1    0    0  501    0  0.00000000000E+00  0.00000000000E+00 -0.19291112526E+04  0.19291112526E+04  0.50400001928E-02 0. -1.
    10030    2    1    2    0    0  0.00000000000E+00  0.00000000000E+00 -0.32943403499E+03  0.35287884702E+04  0.35133774753E+04 0.  0.
        4    1    3    3  502    0 -0.36204567276E+03 -0.41449912919E+03 -0.18402873132E+04  0.19208189934E+04  0.12699999809E+01 0. -1.
       -4    1    3    3    0  502  0.36204567276E+03  0.41449912919E+03  0.15108532782E+04  0.16079694768E+04  0.12699999809E+01 0.  1.
</event>
<event>
 5   0  0.1121462E-08  0.3500883E+04  0.7818609E-02  0.8113581E-01
       -1   -1    0    0    0  501  0.00000000000E+00  0.00000000000E+00  0.13948974858E+04  0.13948974858E+04  0.50400001928E-02 0.  1.
        1   -1    0    0  501    0  0.00000000000E+00  0.00000000000E+00 -0.21966091950E+04  0.21966091950E+04  0.50400001928E-02 0. -1.
    10030    2    1    2    0    0  0.00000000000E+00  0.00000000000E+00 -0.80171170924E+03  0.35915066808E+04  0.35008825420E+04 0.  0.
        1    1    3    3  502    0  0.28164421002E+02 -0.15414160924E+04  0.44963268976E+03  0.16059035962E+04  0.50400001928E-02 0.  1.
       -1    1    3    3    0  502 -0.28164421002E+02  0.15414160924E+04 -0.12513443990E+04  0.19856030846E+04  0.50400001928E-02 0. -1.
</event>
<event>
 5   0  0.1121462E-08  0.3502227E+04  0.7818609E-02  0.8113262E-01
        1   -1    0    0  501    0  0.00000000000E+00  0.00000000000E+00  0.22705099794E+04  0.22705099794E+04  0.50400001928E-02 0. -1.
       -1   -1    0    0    0  501  0.00000000000E+00  0.00000000000E+00 -0.13505327069E+04  0.13505327069E+04  0.50400001928E-02 0.  1.
    10030    2    1    2    0    0  0.00000000000E+00  0.00000000000E+00  0.91997727249E+03  0.36210426863E+04  0.35022267137E+04 0.  0.
        1    1    3    3  502    0  0.80211470144E+03 -0.15350889074E+04  0.19333990314E+03  0.17427754491E+04  0.50400001928E-02 0.  1.
       -1    1    3    3    0  502 -0.80211470144E+03  0.15350889074E+04  0.72663736936E+03  0.18782672372E+04  0.50400001928E-02 0. -1.
</event>
<event>
 5   0  0.1121462E-08  0.3499744E+04  0.7818609E-02  0.8113851E-01
        1   -1    0    0  501    0  0.00000000000E+00  0.00000000000E+00  0.25529013289E+04  0.25529013289E+04  0.50400001928E-02 0. -1.
       -1   -1    0    0    0  501  0.00000000000E+00  0.00000000000E+00 -0.11994398819E+04  0.11994398819E+04  0.50400001928E-02 0.  1.
    10030    2    1    2    0    0  0.00000000000E+00  0.00000000000E+00  0.13534614470E+04  0.37523412109E+04  0.34997438012E+04 0.  0.
        2    1    3    3  502    0 -0.17281810185E+04  0.27209929017E+03  0.63655612648E+03  0.18616797142E+04  0.25500000920E-02 0. -1.
       -2    1    3    3    0  502  0.17281810185E+04 -0.27209929017E+03  0.71690532050E+03  0.18906614966E+04  0.25500000920E-02 0.  1.
</event>
<event>
 5   0  0.1140808E-08  0.3500550E+04  0.7818609E-02  0.8113660E-01
       -1   -1    0    0    0  501  0.00000000000E+00  0.00000000000E+00  0.19899096087E+04  0.19899096087E+04  0.50400001928E-02 0. -1.
        1   -1    0    0  501    0  0.00000000000E+00  0.00000000000E+00 -0.15394986678E+04  0.15394986678E+04  0.50400001928E-02 0.  1.
    10030    2    1    2    0    0  0.00000000000E+00  0.00000000000E+00  0.45041094091E+03  0.35294082765E+04  0.35005503519E+04 0.  0.
        3    1    3    3  502    0  0.13155290404E+04  0.31203869222E+03 -0.89547846311E+03  0.16216863105E+04  0.10100000352E+00 0.  1.
       -3    1    3    3    0  502 -0.13155290404E+04 -0.31203869222E+03  0.13458894040E+04  0.19077219660E+04  0.10100000352E+00 0. -1.
</event>
<event>
 5   0  0.3467834E-08  0.3498348E+04  0.7818609E-02  0.8114182E-01
       -2   -1    0    0    0  501  0.00000000000E+00  0.00000000000E+00  0.10610199477E+04  0.10610199477E+04  0.25500000920E-02 0.  1.
        2   -1    0    0  501    0  0.00000000000E+00  0.00000000000E+00 -0.28836494457E+04  0.28836494457E+04  0.25500000920E-02 0. -1.
    10030    2    1    2    0    0  0.00000000000E+00  0.00000000000E+00 -0.18226294980E+04  0.39446693934E+04  0.34983479438E+04 0.  0.
        3    1    3    3  502    0 -0.16522924044E+03  0.15125722163E+04  0.61568567303E+02  0.15228151923E+04  0.10100000352E+00 0.  1.
       -3    1    3    3    0  502  0.16522924044E+03 -0.15125722163E+04 -0.18841980653E+04  0.24218542010E+04  0.10100000352E+00 0. -1.
</event>
<event>
 5   0  0.1140808E-08  0.3499608E+04  0.7818609E-02  0.8113883E-01
       -1   -1    0    0    0  501  0.00000000000E+00  0.00000000000E+00  0.18600573019E+04  0.18600573019E+04  0.50400001928E-02 0. -1.
        1   -1    0    0  501    0  0.00000000000E+00  0.00000000000E+00 -0.16460862087E+04  0.16460862087E+04  0.50400001928E-02 0.  1.
    10030    2    1    2    0    0  0.00000000000E+00  0.00000000000E+00  0.21397109326E+03  0.35061435106E+04  0.34996083621E+04 0.  0.
        3    1    3    3  502    0 -0.44777864325E+03 -0.88968941882E+03 -0.13343676461E+04  0.16651096062E+04  0.10100000352E+00 0.  1.
       -3    1    3    3    0  502  0.44777864325E+03  0.88968941882E+03  0.15483387394E+04  0.18410339045E+04  0.10100000352E+00 0. -1.
</event>
<event>
 5   0  0.3700096E-08  0.3500664E+04  0.7818609E-02  0.8113633E-01
        2   -1    0    0  501    0  0.00000000000E+00  0.00000000000E+00  0.19768048292E+04  0.19768048292E+04  0.25500000920E-02 0. -1.
       -2   -1    0    0    0  501  0.00000000000E+00  0.00000000000E+00 -0.15498049686E+04  0.15498049686E+04  0.25500000920E-02 0.  1.
    10030    2    1    2    0    0  0.00000000000E+00  0.00000000000E+00  0.42699986053E+03  0.35266097978E+04  0.35006639063E+04 0.  0.
        4    1    3    3  502    0  0.14438984879E+04 -0.59012509164E+03 -0.58646988319E+03  0.16664450198E+04  0.12699999809E+01 0.  1.
       -4    1    3    3    0  502 -0.14438984879E+04  0.59012509164E+03  0.10134697437E+04  0.18601647780E+04  0.12699999809E+01 0. -1.
</event>
<event>
 5   0  0.3467834E-08  0.3500231E+04  0.7818609E-02  0.8113735E-01
        2   -1    0    0  501    0  0.00000000000E+00  0.00000000000E+00  0.17182805819E+04  0.17182805819E+04  0.25500000920E-02 0.  1.
       -2   -1    0    0    0  501  0.00000000000E+00  0.00000000000E+00 -0.17825397239E+04  0.17825397239E+04  0.25500000920E-02 0. -1.
    10030    2    1    2    0    0  0.00000000000E+00  0.00000000000E+00 -0.64259141993E+02  0.35008203058E+04  0.35002305033E+04 0.  0.
        3    1    3    3  502    0 -0.11019487005E+04  0.13563600394E+04 -0.12648468990E+03  0.17521420839E+04  0.10100000352E+00 0. -1.
       -3    1    3    3    0  502  0.11019487005E+04 -0.13563600394E+04  0.62225547906E+02  0.17486782220E+04  0.10100000352E+00 0.  1.
</event>
<event>
 5   0  0.3553585E-08  0.3499142E+04  0.7818609E-02  0.8113993E-01
        2   -1    0    0  501    0  0.00000000000E+00  0.00000000000E+00  0.19853563118E+04  0.19853563118E+04  0.25500000920E-02 0.  1.
       -2   -1    0    0    0  501  0.00000000000E+00  0.00000000000E+00 -0.15417881702E+04  0.15417881702E+04  0.25500000920E-02 0. -1.
    10030    2    1    2    0    0  0.00000000000E+00  0.00000000000E+00  0.44356814163E+03  0.35271444820E+04  0.34991421093E+04 0.  0.
        2    1    3    3  502    0  0.13060938528E+04 -0.31536615742E+03  0.13513147451E+04  0.19056202418E+04  0.25500000920E-02 0.  1.
       -2    1    3    3    0  502 -0.13060938528E+04  0.31536615742E+03 -0.90774660343E+03  0.16215242403E+04  0.25500000920E-02 0. -1.
</event>
<event>
 5   0  0.1129219E-08  0.3514989E+04  0.7818609E-02  0.8110247E-01
        1   -1    0    0  501    0  0.00000000000E+00  0.00000000000E+00  0.25252655031E+04  0.25252655031E+04  0.50400001928E-02 0.  1.
       -1   -1    0    0    0  501  0.00000000000E+00  0.00000000000E+00 -0.12231531354E+04  0.12231531354E+04  0.50400001928E-02 0. -1.
    10030    2    1    2    0    0  0.00000000000E+00  0.00000000000E+00  0.13021123677E+04  0.37484186385E+04  0.35149887157E+04 0.  0.
        5    1    3    3  502    0 -0.33006930479E+03  0.37260412973E+03  0.24485135758E+04  0.24986036909E+04  0.46999998093E+01 0.  1.
       -5    1    3    3    0  502  0.33006930479E+03 -0.37260412973E+03 -0.11464012081E+04  0.12498149476E+04  0.46999998093E+01 0. -1.
</event>
<event>
 5   0  0.1121462E-08  0.3499784E+04  0.7818609E-02  0.8113841E-01
        1   -1    0    0  501    0  0.00000000000E+00  0.00000000000E+00  0.16291868870E+04  0.16291868870E+04  0.50400001928E-02 0.  1.
       -1   -1    0    0    0  501  0.00000000000E+00  0.00000000000E+00 -0.18795397117E+04  0.18795397117E+04  0.50400001928E-02 0. -1.
    10030    2    1    2    0    0  0.00000000000E+00  0.00000000000E+00 -0.25035282471E+03  0.35087265986E+04  0.34997836801E+04 0.  0.
        1    1    3    3  502    0  0.22778928803E+03  0.48399458798E+03 -0.17955618975E+04  0.18735477706E+04  0.50400001928E-02 0. -1.
       -1    1    3    3    0  502 -0.22778928803E+03 -0.48399458798E+03  0.15452090728E+04  0.16351788280E+04  0.50400001928E-02 0.  1.
</event>
<event>
 5   0  0.3628017E-08  0.3498051E+04  0.7818609E-02  0.8114252E-01
       -2   -1    0    0    0  501  0.00000000000E+00  0.00000000000E+00  0.13050946584E+04  0.13050946584E+04  0.25500000920E-02 0.  1.
        2   -1    0    0  501    0  0.00000000000E+00  0.00000000000E+00 -0.23439609657E+04  0.23439609657E+04  0.25500000920E-02 0. -1.
    10030    2    1    2    0    0  0.00000000000E+00  0.00000000000E+00 -0.10388663073E+04  0.36490556241E+04  0.34980514209E+04 0.  0.
        1    1    3    3  502    0  0.28895400805E+03 -0.79111122159E+03  0.10796246306E+04  0.13692847501E+04  0.50400001928E-02 0.  1.
       -1    1    3    3    0  502 -0.28895400805E+03  0.79111122159E+03 -0.21184909380E+04  0.22797708740E+04  0.50400001928E-02 0. -1.
</event>
<event>
 5   0  0.3700096E-08  0.3500617E+04  0.7818609E-02  0.8113644E-01
        2   -1    0    0  501    0  0.00000000000E+00  0.00000000000E+00  0.26909823754E+04  0.26909823754E+04  0.25500000920E-02 0.  1.
       -2   -1    0    0    0  501  0.00000000000E+00  0.00000000000E+00 -0.11384613688E+04  0.11384613688E+04  0.25500000920E-02 0. -1.
    10030    2    1    2    0    0  0.00000000000E+00  0.00000000000E+00  0.15525210066E+04  0.38294437442E+04  0.35006167905E+04 0.  0.
        4    1    3    3  502    0 -0.15937979050E+04  0.63874371333E+03  0.11478642208E+04  0.20653762794E+04  0.12699999809E+01 0.  1.
       -4    1    3    3    0  502  0.15937979050E+04 -0.63874371333E+03  0.40465678581E+03  0.17640674648E+04  0.12699999809E+01 0. -1.
</event>
<event>
 5   0  0.1121462E-08  0.3500787E+04  0.7818609E-02  0.8113604E-01
       -4   -1    0    0    0  501  0.00000000000E+00  0.00000000000E+00  0.23590996479E+04  0.23590999897E+04  0.12699999809E+01 0. -1.
        4   -1    0    0  501    0  0.00000000000E+00  0.00000000000E+00 -0.12987475364E+04  0.12987481573E+04  0.12699999809E+01 0.  1.
    10030    2    1    2    0    0  0.00000000000E+00  0.00000000000E+00  0.10603521115E+04  0.36578481470E+04  0.35007865497E+04 0.  0.
        3    1    3    3  502    0 -0.12099145701E+04  0.12293801454E+04  0.84120156571E+03  0.19190854315E+04  0.10100000352E+00 0.  1.
       -3    1    3    3    0  502  0.12099145701E+04 -0.12293801454E+04  0.21915054577E+03  0.17387627155E+04  0.10100000352E+00 0. -1.
</event>
<event>
 5   0  0.3467834E-08  0.3499302E+04  0.7818609E-02  0.8113955E-01
        2   -1    0    0  501    0  0.00000000000E+00  0.00000000000E+00  0.12280400659E+04  0.12280400660E+04  0.25500000920E-02 0. -1.
       -2   -1    0    0    0  501  0.00000000000E+00  0.00000000000E+00 -0.24928158902E+04  0.24928158902E+04  0.25500000920E-02 0.  1.
    10030    2    1    2    0    0  0.00000000000E+00  0.00000000000E+00 -0.12647758243E+04  0.37208559562E+04  0.34993015247E+04 0.  0.
        3    1    3    3  502    0 -0.15672583381E+04 -0.38198165906E+03  0.88056570044E+02  0.16155378844E+04  0.10100000352E+00 0. -1.
       -3    1    3    3    0  502  0.15672583381E+04  0.38198165906E+03 -0.13528323943E+04  0.21053180718E+04  0.10100000352E+00 0.  1.
</event>
<event>
 5   0  0.3700096E-08  0.3500812E+04  0.7818609E-02  0.8113598E-01
       -2   -1    0    0    0  501  0.00000000000E+00  0.00000000000E+00  0.14339123251E+04  0.14339123251E+04  0.25500000920E-02 0.  1.
        2   -1    0    0  501    0  0.00000000000E+00  0.00000000000E+00 -0.21367557955E+04  0.21367557955E+04  0.25500000920E-02 0. -1.
    10030    2    1    2    0    0  0.00000000000E+00  0.00000000000E+00 -0.70284347043E+03  0.35706681207E+04  0.35008116036E+04 0.  0.
        4    1    3    3  502    0  0.53336436388E+03 -0.13796310244E+03 -0.20460222943E+04  0.21188959870E+04  0.12699999809E+01 0. -1.
       -4    1    3    3    0  502 -0.53336436388E+03  0.13796310244E+03  0.13431788238E+04  0.14517721336E+04  0.12699999809E+01 0.  1.
</event>
<event>
 5   0  0.1129219E-08  0.3500221E+04  0.7818609E-02  0.8113738E-01
       -1   -1    0    0    0  501  0.00000000000E+00  0.00000000000E+00  0.15604516231E+04  0.15604516231E+04  0.50400001928E-02 0.  1.
        1   -1    0    0  501    0  0.00000000000E+00  0.00000000000E+00 -0.19628203599E+04  0.19628203599E+04  0.50400001928E-02 0. -1.
    10030    2    1    2    0    0  0.00000000000E+00  0.00000000000E+00 -0.40236873683E+03  0.35232719830E+04  0.35002206882E+04 0.  0.
        5    1    3    3  502    0 -0.72502370962E+02  0.17328811056E+04  0.34302054795E+02  0.17347427017E+04  0.46999998093E+01 0. -1.
       -5    1    3    3    0  502  0.72502370962E+02 -0.17328811056E+04 -0.43667079163E+03  0.17885292814E+04  0.46999998093E+01 0.  1.
</event>
<event>
 5   0  0.1121462E-08  0.3496586E+04  0.7818609E-02  0.8114599E-01
        1   -1    0    0  501    0  0.00000000000E+00  0.00000000000E+00  0.19550581381E+04  0.19550581381E+04  0.50400001928E-02 0. -1.
       -1   -1    0    0    0  501  0.00000000000E+00  0.00000000000E+00 -0.15633955728E+04  0.15633955728E+04  0.50400001928E-02 0.  1.
    10030    2    1    2    0    0  0.00000000000E+00  0.00000000000E+00  0.39166256529E+03  0.35184537109E+04  0.34965864712E+04 0.  0.
        2    1    3    3  502    0  0.59099419377E+03  0.15248233861E+04 -0.42623283426E+03  0.16899807469E+04  0.25500000920E-02 0.  1.
       -2    1    3    3    0  502 -0.59099419377E+03 -0.15248233861E+04  0.81789539955E+03  0.18284729641E+04  0.25500000920E-02 0. -1.
</event>
<event>
 5   0  0.3700096E-08  0.3500913E+04  0.7818609E-02  0.8113574E-01
        2   -1    0    0  501    0  0.00000000000E+00  0.00000000000E+00  0.12571117327E+04  0.12571117327E+04  0.25500000920E-02 0. -1.
       -2   -1    0    0    0  501  0.00000000000E+00  0.00000000000E+00 -0.24374116187E+04  0.24374116187E+04  0.25500000920E-02 0.  1.
    10030    2    1    2    0    0  0.00000000000E+00  0.00000000000E+00 -0.11802998861E+04  0.36945233514E+04  0.35009134484E+04 0.  0.
        4    1    3    3  502    0  0.15022724527E+04 -0.71980938130E+03 -0.22686437930E+02  0.16659724953E+04  0.12699999809E+01 0. -1.
       -4    1    3    3    0  502 -0.15022724527E+04  0.71980938130E+03 -0.11576134482E+04  0.20285508561E+04  0.12699999809E+01 0.  1.
</event>
<event>
 5   0  0.3467834E-08  0.3500206E+04  0.7818609E-02  0.8113741E-01
        2   -1    0    0  501    0  0.00000000000E+00  0.00000000000E+00  0.21689989969E+04  0.21689989969E+04  0.25500000920E-02 0. -1.
       -2   -1    0    0    0  501  0.00000000000E+00  0.00000000000E+00 -0.14121077882E+04  0.14121077882E+04  0.25500000920E-02 0.  1.
    10030    2    1    2    0    0  0.00000000000E+00  0.00000000000E+00  0.75689120871E+03  0.35811067851E+04  0.35002059231E+04 0.  0.
        3    1    3    3  502    0 -0.74212992038E+03  0.44828612911E+03  0.19338276943E+04  0.21192939470E+04  0.10100000352E+00 0. -1.
       -3    1    3    3    0  502  0.74212992038E+03 -0.44828612911E+03 -0.11769364856E+04  0.14618128381E+04  0.10100000352E+00 0.  1.
</event>
<event>
 5   0  0.3553585E-08  0.3500169E+04  0.7818609E-02  0.8113750E-01
       -2   -1    0    0    0  501  0.00000000000E+00  0.00000000000E+00  0.15674234050E+04  0.15674234050E+04  0.25500000920E-02 0. -1.
        2   -1    0    0  501    0  0.00000000000E+00  0.00000000000E+00 -0.19540322423E+04  0.19540322423E+04  0.25500000920E-02 0.  1.
    10030    2    1    2    0    0  0.00000000000E+00  0.00000000000E+00 -0.38660883736E+03  0.35214556473E+04  0.35001690649E+04 0.  0.
        2    1    3    3  502    0  0.44080121400E+03 -0.10907590785E+04 -0.14968440711E+04  0.19038390822E+04  0.25500000920E-02 0.  1.
       -2    1    3    3    0  502 -0.44080121400E+03  0.10907590785E+04  0.11102352337E+04  0.16176165651E+04  0.25500000920E-02 0. -1.
</event>
<event>
 5   0  0.3700096E-08  0.3500023E+04  0.7818609E-02  0.8113784E-01
       -2   -1    0    0    0  501  0.00000000000E+00  0.00000000000E+00  0.19108841092E+04  0.19108841092E+04  0.25500000920E-02 0. -1.
        2   -1    0    0  501    0  0.00000000000E+00  0.00000000000E+00 -0.16026826760E+04  0.16026826760E+04  0.25500000920E-02 0.  1.
    10030    2    1    2    0    0  0.00000000000E+00  0.00000000000E+00  0.30820143315E+03  0.35135667852E+04  0.35000233472E+04 0.  0.
        4    1    3    3  502    0 -0.58770507935E+03  0.16429036157E+04  0.28882020909E+03  0.17686006550E+04  0.12699999809E+01 0.  1.
       -4    1    3    3    0  502  0.58770507935E+03 -0.16429036157E+04  0.19381224066E+02  0.17449661302E+04  0.12699999809E+01 0. -1.
</event>
<event>
 5   0  0.1121462E-08  0.3501387E+04  0.7818609E-02  0.8113461E-01
        1   -1    0    0  501    0  0.00000000000E+00  0.00000000000E+00  0.24071550510E+04  0.24071550511E+04  0.50400001928E-02 0.  1.
       -1   -1    0    0    0  501  0.00000000000E+00  0.00000000000E+00 -0.12732575138E+04  0.12732575138E+04  0.50400001928E-02 0. -1.
    10030    2    1    2    0    0  0.00000000000E+00  0.00000000000E+00  0.11338975373E+04  0.36804125648E+04  0.35013872997E+04 0.  0.
        1    1    3    3  502    0 -0.90506109319E+03 -0.59079943924E+03 -0.88069348120E+03  0.13942024845E+04  0.50400001928E-02 0. -1.
       -1    1    3    3    0  502  0.90506109319E+03  0.59079943924E+03  0.20145910185E+04  0.22862100804E+04  0.50400001928E-02 0.  1.
</event>
<event>
 5   0  0.3553585E-08  0.3501388E+04  0.7818609E-02  0.8113461E-01
       -2   -1    0    0    0  501  0.00000000000E+00  0.00000000000E+00  0.19368184164E+04  0.19368184164E+04  0.25500000920E-02 0. -1.
        2   -1    0    0  501    0  0.00000000000E+00  0.00000000000E+00 -0.15824557362E+04  0.15824557362E+04  0.25500000920E-02 0.  1.
    10030    2    1    2    0    0  0.00000000000E+00  0.00000000000E+00  0.35436268017E+03  0.35192741526E+04  0.35013879608E+04 0.  0.
        2    1    3    3  502    0  0.11147135810E+03 -0.38889098794E+03 -0.15348304095E+04  0.15872512246E+04  0.25500000920E-02 0.  1.
       -2    1    3    3    0  502 -0.11147135810E+03  0.38889098794E+03  0.18891930897E+04  0.19320229280E+04  0.25500000920E-02 0. -1.
</event>
<event>
 5   0  0.1129219E-08  0.3500643E+04  0.7818609E-02  0.8113638E-01
        1   -1    0    0  501    0  0.00000000000E+00  0.00000000000E+00  0.11454142442E+04  0.11454142442E+04  0.50400001928E-02 0.  1.
       -1   -1    0    0    0  501  0.00000000000E+00  0.00000000000E+00 -0.26746873283E+04  0.26746873283E+04  0.50400001928E-02 0. -1.
    10030    2    1    2    0    0  0.00000000000E+00  0.00000000000E+00 -0.15292730841E+04  0.38201015725E+04  0.35006427779E+04 0.  0.
        5    1    3    3  502    0  0.10159269797E+04  0.60480617486E+03  0.64376381140E+03  0.13462362616E+04  0.46999998093E+01 0.  1.
       -5    1    3    3    0  502 -0.10159269797E+04 -0.60480617486E+03 -0.21730368955E+04  0.24738653109E+04  0.46999998093E+01 0. -1.
</event>
<event>
 5   0  0.1140808E-08  0.3503210E+04  0.7818609E-02  0.8113030E-01
       -1   -1    0    0    0  501  0.00000000000E+00  0.00000000000E+00  0.13454862260E+04  0.13454862260E+04  0.50400001928E-02 0.  1.
        1   -1    0    0  501    0  0.00000000000E+00  0.00000000000E+00 -0.22803059575E+04  0.22803059575E+04  0.50400001928E-02 0. -1.
    10030    2    1    2    0    0  0.00000000000E+00  0.00000000000E+00 -0.93481973154E+03  0.36257921835E+04  0.35032101032E+04 0.  0.
        3    1    3    3  502    0  0.77207696410E+03  0.25164887280E+03 -0.20737118702E+04  0.22270408448E+04  0.10100000352E+00 0. -1.
       -3    1    3    3    0  502 -0.77207696410E+03 -0.25164887280E+03  0.11388921387E+04  0.13987513387E+04  0.10100000352E+00 0.  1.
</event>
<event>
 5   0  0.3554451E-08  0.3500459E+04  0.7818609E-02  0.8113681E-01
        2   -1    0    0  501    0  0.00000000000E+00  0.00000000000E+00  0.21515667357E+04  0.21515667357E+04  0.25500000920E-02 0. -1.
       -2   -1    0    0    0  501  0.00000000000E+00  0.00000000000E+00 -0.14237548365E+04  0.14237548365E+04  0.25500000920E-02 0.  1.
    10030    2    1    2    0    0  0.00000000000E+00  0.00000000000E+00  0.72781189921E+03  0.35753215722E+04  0.35004591390E+04 0.  0.
        5    1    3    3  502    0 -0.16809513863E+04 -0.62581461470E+02  0.85774123724E+03  0.18881885824E+04  0.46999998093E+01 0. -1.
       -5    1    3    3    0  502  0.16809513863E+04  0.62581461470E+02 -0.12992933803E+03  0.16871329898E+04  0.46999998093E+01 0.  1.
</event>
<event>
 5   0  0.1129219E-08  0.3498640E+04  0.7818609E-02  0.8114112E-01
        1   -1    0    0  501    0  0.00000000000E+00  0.00000000000E+00  0.21553308435E+04  0.21553308435E+04  0.50400001928E-02 0.  1.
       -1   -1    0    0    0  501  0.00000000000E+00  0.00000000000E+00 -0.14197914308E+04  0.14197914309E+04  0.50400001928E-02 0. -1.
    10030    2    1    2    0    0  0.00000000000E+00  0.00000000000E+00  0.73553941268E+03  0.35751222744E+04  0.34986398856E+04 0.  0.
        5    1    3    3  502    0  0.13352776288E+04  0.11075149170E+04  0.13803840795E+03  0.17402966211E+04  0.46999998093E+01 0. -1.
       -5    1    3    3    0  502 -0.13352776288E+04 -0.11075149170E+04  0.59750100474E+03  0.18348256533E+04  0.46999998093E+01 0.  1.
</event>
<event>
 5   0  0.3467834E-08  0.3499735E+04  0.7818609E-02  0.8113853E-01
        2   -1    0    0  501    0  0.00000000000E+00  0.00000000000E+00  0.24313033992E+04  0.24313033992E+04  0.25500000920E-02 0. -1.
       -2   -1    0    0    0  501  0.00000000000E+00  0.00000000000E+00 -0.12594219291E+04  0.12594219291E+04  0.25500000920E-02 0.  1.
    10030    2    1    2    0    0  0.00000000000E+00  0.00000000000E+00  0.11718814701E+04  0.36907253283E+04  0.34997353141E+04 0.  0.
        3    1    3    3  502    0 -0.12930186473E+03 -0.17346178388E+04  0.78719230225E+03  0.19092641907E+04  0.10100000352E+00 0. -1.
       -3    1    3    3    0  502  0.12930186473E+03  0.17346178388E+04  0.38468916788E+03  0.17814611376E+04  0.10100000352E+00 0.  1.
</event>
<event>
 5   0  0.1121462E-08  0.3499432E+04  0.7818609E-02  0.8113925E-01
        1   -1    0    0  501    0  0.00000000000E+00  0.00000000000E+00  0.24773826134E+04  0.24773826134E+04  0.50400001928E-02 0.  1.
       -1   -1    0    0    0  501  0.00000000000E+00  0.00000000000E+00 -0.12357825746E+04  0.12357825746E+04  0.50400001928E-02 0. -1.
    10030    2    1    2    0    0  0.00000000000E+00  0.00000000000E+00  0.12416000388E+04  0.37131651880E+04  0.34994321049E+04 0.  0.
        1    1    3    3  502    0 -0.34849303285E+02 -0.12522978222E+04  0.19168961556E+04  0.22899683799E+04  0.50400001928E-02 0.  1.
       -1    1    3    3    0  502  0.34849303285E+02  0.12522978222E+04 -0.67529611678E+03  0.14231968081E+04  0.50400001928E-02 0. -1.
</event>
<event>
 5   0  0.1129219E-08  0.3499166E+04  0.7818609E-02  0.8113988E-01
        1   -1    0    0  501    0  0.00000000000E+00  0.00000000000E+00  0.23224956028E+04  0.23224956028E+04  0.50400001928E-02 0.  1.
       -1   -1    0    0    0  501  0.00000000000E+00  0.00000000000E+00 -0.13179963744E+04  0.13179963744E+04  0.50400001928E-02 0. -1.
    10030    2    1    2    0    0  0.00000000000E+00  0.00000000000E+00  0.10044992284E+04  0.36404919773E+04  0.34991660630E+04 0.  0.
        5    1    3    3  502    0  0.91112414555E+03  0.13394442989E+04  0.11898200266E+04  0.20099631898E+04  0.46999998093E+01 0. -1.
       -5    1    3    3    0  502 -0.91112414555E+03 -0.13394442989E+04 -0.18532079820E+03  0.16305287875E+04  0.46999998093E+01 0.  1.
</event>
<event>
 5   0  0.3467834E-08  0.3507352E+04  0.7818609E-02  0.8112050E-01
        2   -1    0    0  501    0  0.00000000000E+00  0.00000000000E+00  0.23419811961E+04  0.23419811961E+04  0.25500000920E-02 0. -1.
       -2   -1    0    0    0  501  0.00000000000E+00  0.00000000000E+00 -0.13131526963E+04  0.13131526963E+04  0.25500000920E-02 0.  1.
    10030    2    1    2    0    0  0.00000000000E+00  0.00000000000E+00  0.10288284999E+04  0.36551338924E+04  0.35073516632E+04 0.  0.
        3    1    3    3  502    0 -0.11516653539E+04 -0.43499274167E+03 -0.78713981879E+03  0.14612121260E+04  0.10100000352E+00 0.  1.
       -3    1    3    3    0  502  0.11516653539E+04  0.43499274167E+03  0.18159683186E+04  0.21939217664E+04  0.10100000352E+00 0. -1.
</event>
<event>
 5   0  0.3554451E-08  0.3500256E+04  0.7818609E-02  0.8113729E-01
       -2   -1    0    0    0  501  0.00000000000E+00  0.00000000000E+00  0.18407531723E+04  0.18407531723E+04  0.25500000920E-02 0.  1.
        2   -1    0    0  501    0  0.00000000000E+00  0.00000000000E+00 -0.16639649400E+04  0.16639649400E+04  0.25500000920E-02 0. -1.
    10030    2    1    2    0    0  0.00000000000E+00  0.00000000000E+00  0.17678823234E+03  0.35047181123E+04  0.35002564145E+04 0.  0.
        5    1    3    3  502    0 -0.15816245522E+04  0.49671417443E+03  0.65005964102E+03  0.17806911080E+04  0.46999998093E+01 0.  1.
       -5    1    3    3    0  502  0.15816245522E+04 -0.49671417443E+03 -0.47327140868E+03  0.17240270043E+04  0.46999998093E+01 0. -1.
</event>
<event>
 5   0  0.3554451E-08  0.3499748E+04  0.7818609E-02  0.8113850E-01
       -2   -1    0    0    0  501  0.00000000000E+00  0.00000000000E+00  0.23706208798E+04  0.23706208798E+04  0.25500000920E-02 0. -1.
        2   -1    0    0  501    0  0.00000000000E+00  0.00000000000E+00 -0.12916696572E+04  0.12916696572E+04  0.25500000920E-02 0.  1.
    10030    2    1    2    0    0  0.00000000000E+00  0.00000000000E+00  0.10789512226E+04  0.36622905370E+04  0.34997480247E+04 0.  0.
        5    1    3    3  502    0 -0.48027895548E+03  0.53144753183E+03  0.22101630022E+04  0.23233482176E+04  0.46999998093E+01 0. -1.
       -5    1    3    3    0  502  0.48027895548E+03 -0.53144753183E+03 -0.11312117796E+04  0.13389423193E+04  0.46999998093E+01 0.  1.
</event>
<event>
 5   0  0.1121462E-08  0.3494991E+04  0.7818609E-02  0.8114978E-01
        1   -1    0    0  501    0  0.00000000000E+00  0.00000000000E+00  0.15202052240E+04  0.15202052240E+04  0.50400001928E-02 0. -1.
       -1   -1    0    0    0  501  0.00000000000E+00  0.00000000000E+00 -0.20087684971E+04  0.20087684971E+04  0.50400001928E-02 0.  1.
    10030    2    1    2    0    0  0.00000000000E+00  0.00000000000E+00 -0.48856327310E+03  0.35289737212E+04  0.34949909088E+04 0.  0.
        4    1    3    3  502    0  0.13307074796E+04 -0.81354779319E+03  0.55147791424E+03  0.16543191684E+04  0.12699999809E+01 0. -1.
       -4    1    3    3    0  502 -0.13307074796E+04  0.81354779319E+03 -0.10400411873E+04  0.18746545528E+04  0.12699999809E+01 0.  1.
</event>
<event>
 5   0  0.1121462E-08  0.3502925E+04  0.7818609E-02  0.8113097E-01
       -3   -1    0    0    0  501  0.00000000000E+00  0.00000000000E+00  0.14990351154E+04  0.14990351188E+04  0.10100000352E+00 0. -1.
        3   -1    0    0  501    0  0.00000000000E+00  0.00000000000E+00 -0.20463972962E+04  0.20463972987E+04  0.10100000352E+00 0.  1.
    10030    2    1    2    0    0  0.00000000000E+00  0.00000000000E+00 -0.54736218082E+03  0.35454324175E+04  0.35029253018E+04 0.  0.
        3    1    3    3  502    0  0.48222393399E+02  0.80496236687E+02  0.14964891592E+04  0.14994281767E+04  0.10100000352E+00 0. -1.
       -3    1    3    3    0  502 -0.48222393399E+02 -0.80496236687E+02 -0.20438513400E+04  0.20460042408E+04  0.10100000352E+00 0.  1.
</event>
<event>
 5   0  0.1121462E-08  0.3497974E+04  0.7818609E-02  0.8114270E-01
        1   -1    0    0  501    0  0.00000000000E+00  0.00000000000E+00  0.27540338659E+04  0.27540338659E+04  0.50400001928E-02 0. -1.
       -1   -1    0    0    0  501  0.00000000000E+00  0.00000000000E+00 -0.11107181172E+04  0.11107181173E+04  0.50400001928E-02 0.  1.
    10030    2    1    2    0    0  0.00000000000E+00  0.00000000000E+00  0.16433157487E+04  0.38647519832E+04  0.34979738766E+04 0.  0.
        4    1    3    3  502    0  0.15596927422E+04  0.54801796824E+03  0.14524790198E+04  0.22006049303E+04  0.12699999809E+01 0. -1.
       -4    1    3    3    0  502 -0.15596927422E+04 -0.54801796824E+03  0.19083672886E+03  0.16641470528E+04  0.12699999809E+01 0.  1.
</event>
<event>
 5   0  0.1140808E-08  0.3499645E+04  0.7818609E-02  0.8113874E-01
       -1   -1    0    0    0  501  0.00000000000E+00  0.00000000000E+00  0.15946005095E+04  0.15946005095E+04  0.50400001928E-02 0. -1.
        1   -1    0    0  501    0  0.00000000000E+00  0.00000000000E+00 -0.19201542678E+04  0.19201542678E+04  0.50400001928E-02 0.  1.
    10030    2    1    2    0    0  0.00000000000E+00  0.00000000000E+00 -0.32555375833E+03  0.35147547773E+04  0.34996451098E+04 0.  0.
        3    1    3    3  502    0  0.11392516044E+04 -0.88840537413E+03 -0.11543188554E+04  0.18492188505E+04  0.10100000352E+00 0.  1.
       -3    1    3    3    0  502 -0.11392516044E+04  0.88840537413E+03  0.82876509706E+03  0.16655359267E+04  0.10100000352E+00 0. -1.
</event>
<event>
 5   0  0.1121462E-08  0.3501569E+04  0.7818609E-02  0.8113418E-01
        1   -1    0    0  501    0  0.00000000000E+00  0.00000000000E+00  0.13853099127E+04  0.13853099127E+04  0.50400001928E-02 0.  1.
       -1   -1    0    0    0  501  0.00000000000E+00  0.00000000000E+00 -0.22126789725E+04  0.22126789725E+04  0.50400001928E-02 0. -1.
    10030    2    1    2    0    0  0.00000000000E+00  0.00000000000E+00 -0.82736905976E+03  0.35979888852E+04  0.35015688565E+04 0.  0.
        1    1    3    3  502    0  0.81585615063E+02 -0.94572738226E+03  0.10979430299E+04  0.14513908471E+04  0.50400001928E-02 0.  1.
       -1    1    3    3    0  502 -0.81585615063E+02  0.94572738226E+03 -0.19253120897E+04  0.21465980380E+04  0.50400001928E-02 0. -1.
</event>
<event>
 5   0  0.3554451E-08  0.3501104E+04  0.7818609E-02  0.8113528E-01
        2   -1    0    0  501    0  0.00000000000E+00  0.00000000000E+00  0.24411517895E+04  0.24411517895E+04  0.25500000920E-02 0. -1.
       -2   -1    0    0    0  501  0.00000000000E+00  0.00000000000E+00 -0.12553219902E+04  0.12553219902E+04  0.25500000920E-02 0.  1.
    10030    2    1    2    0    0  0.00000000000E+00  0.00000000000E+00  0.11858297993E+04  0.36964737797E+04  0.35011035533E+04 0.  0.
        5    1    3    3  502    0 -0.59300538806E+03  0.12315116363E+04  0.17476235887E+04  0.22186677530E+04  0.46999998093E+01 0. -1.
       -5    1    3    3    0  502  0.59300538806E+03 -0.12315116363E+04 -0.56179378931E+03  0.14778060266E+04  0.46999998093E+01 0.  1.
</event>
<event>
 5   0  0.3554451E-08  0.3503516E+04  0.7818609E-02  0.8112957E-01
        2   -1    0    0  501    0  0.00000000000E+00  0.00000000000E+00  0.21151559889E+04  0.21151559889E+04  0.25500000920E-02 0. -1.
       -2   -1    0    0    0  501  0.00000000000E+00  0.00000000000E+00 -0.14507939967E+04  0.14507939967E+04  0.25500000920E-02 0.  1.
    10030    2    1    2    0    0  0.00000000000E+00  0.00000000000E+00  0.66436199211E+03  0.35659499856E+04  0.35035157261E+04 0.  0.
        5    1    3    3  502    0  0.16768669725E+04 -0.45872045373E+03  0.11311013197E+03  0.17421605236E+04  0.46999998093E+01 0.  1.
       -5    1    3    3    0  502 -0.16768669725E+04  0.45872045373E+03  0.55125186015E+03  0.18237894619E+04  0.46999998093E+01 0. -1.
</event>
<event>
 5   0  0.3554451E-08  0.3499397E+04  0.7818609E-02  0.8113933E-01
       -2   -1    0    0    0  501  0.00000000000E+00  0.00000000000E+00  0.12340930090E+04  0.12340930090E+04  0.25500000920E-02 0.  1.
        2   -1    0    0  501    0  0.00000000000E+00  0.00000000000E+00 -0.24807249972E+04  0.24807249972E+04  0.25500000920E-02 0. -1.
    10030    2    1    2    0    0  0.00000000000E+00  0.00000000000E+00 -0.12466319882E+04  0.37148180061E+04  0.34993973059E+04 0.  0.
        5    1    3    3  502    0  0.24228174000E+03 -0.70023261849E+03 -0.23059452381E+04  0.24220717770E+04  0.46999998093E+01 0. -1.
       -5    1    3    3    0  502 -0.24228174000E+03  0.70023261849E+03  0.10593132500E+04  0.12927462292E+04  0.46999998093E+01 0.  1.
</event>
<event>
 5   0  0.1121462E-08  0.3501044E+04  0.7818609E-02  0.8113543E-01
       -1   -1    0    0    0  501  0.00000000000E+00  0.00000000000E+00  0.11764675983E+04  0.11764675983E+04  0.50400001928E-02 0.  1.
        1   -1    0    0  501    0  0.00000000000E+00  0.00000000000E+00 -0.26046850767E+04  0.26046850767E+04  0.50400001928E-02 0. -1.
    10030    2    1    2    0    0  0.00000000000E+00  0.00000000000E+00 -0.14282174784E+04  0.37811526750E+04  0.35010441851E+04 0.  0.
        1    1    3    3  502    0 -0.84294255754E+03  0.13817238887E+04  0.60337750392E+01  0.16185640137E+04  0.50400001928E-02 0.  1.
       -1    1    3    3    0  502  0.84294255754E+03 -0.13817238887E+04 -0.14342512535E+04  0.21625886613E+04  0.50400001928E-02 0. -1.
</event>
<event>
 5   0  0.3628017E-08  0.3500706E+04  0.7818609E-02  0.8113623E-01
       -2   -1    0    0    0  501  0.00000000000E+00  0.00000000000E+00  0.11415959713E+04  0.11415959713E+04  0.25500000920E-02 0.  1.
        2   -1    0    0  501    0  0.00000000000E+00  0.00000000000E+00 -0.26837305333E+04  0.26837305333E+04  0.25500000920E-02 0. -1.
    10030    2    1    2    0    0  0.00000000000E+00  0.00000000000E+00 -0.15421345620E+04  0.38253265046E+04  0.35007061944E+04 0.  0.
        1    1    3    3  502    0 -0.15633706057E+04  0.53147991135E+03 -0.14055449256E+04  0.21684453152E+04  0.50400001928E-02 0. -1.
       -1    1    3    3    0  502  0.15633706057E+04 -0.53147991135E+03 -0.13658963640E+03  0.16568811894E+04  0.50400001928E-02 0.  1.
</event>
<event>
 5   0  0.3628017E-08  0.3499330E+04  0.7818609E-02  0.8113949E-01
        2   -1    0    0  501    0  0.00000000000E+00  0.00000000000E+00  0.19223596699E+04  0.19223596699E+04  0.25500000920E-02 0. -1.
       -2   -1    0    0    0  501  0.00000000000E+00  0.00000000000E+00 -0.15924845043E+04  0.15924845043E+04  0.25500000920E-02 0.  1.
    10030    2    1    2    0    0  0.00000000000E+00  0.00000000000E+00  0.32987516561E+03  0.35148441742E+04  0.34993302136E+04 0.  0.
        1    1    3    3  502    0 -0.11810999621E+04  0.56514999785E+03  0.13306587578E+04  0.18668273542E+04  0.50400001928E-02 0. -1.
       -1    1    3    3    0  502  0.11810999621E+04 -0.56514999785E+03 -0.10007835922E+04  0.16480168200E+04  0.50400001928E-02 0.  1.
</event>
<event>
 5   0  0.1140808E-08  0.3498281E+04  0.7818609E-02  0.8114197E-01
       -1   -1    0    0    0  501  0.00000000000E+00  0.00000000000E+00  0.12080281870E+04  0.12080281870E+04  0.50400001928E-02 0. -1.
        1   -1    0    0  501    0  0.00000000000E+00  0.00000000000E+00 -0.25326338266E+04  0.25326338266E+04  0.50400001928E-02 0.  1.
    10030    2    1    2    0    0  0.00000000000E+00  0.00000000000E+00 -0.13246056396E+04  0.37406620136E+04  0.34982813208E+04 0.  0.
        3    1    3    3  502    0  0.71719830367E+03  0.10009202266E+04 -0.19906630590E+04  0.23407165850E+04  0.10100000352E+00 0.  1.
       -3    1    3    3    0  502 -0.71719830367E+03 -0.10009202266E+04  0.66605741935E+03  0.13999454286E+04  0.10100000352E+00 0. -1.
</event>
<event>
 5   0  0.3700096E-08  0.3500497E+04  0.7818609E-02  0.8113672E-01
        2   -1    0    0  501    0  0.00000000000E+00  0.00000000000E+00  0.16909291207E+04  0.16909291207E+04  0.25500000920E-02 0.  1.
       -2   -1    0    0    0  501  0.00000000000E+00  0.00000000000E+00 -0.18116486133E+04  0.18116486133E+04  0.25500000920E-02 0. -1.
    10030    2    1    2    0    0  0.00000000000E+00  0.00000000000E+00 -0.12071949260E+03  0.35025777340E+04  0.35004967629E+04 0.  0.
        4    1    3    3  502    0  0.74135980604E+03  0.92278220302E+03 -0.13503997968E+04  0.17957512579E+04  0.12699999809E+01 0. -1.
       -4    1    3    3    0  502 -0.74135980604E+03 -0.92278220302E+03  0.12296803042E+04  0.17068264761E+04  0.12699999809E+01 0.  1.
</event>
<event>
 5   0  0.1121462E-08  0.3500510E+04  0.7818609E-02  0.8113669E-01
        1   -1    0    0  501    0  0.00000000000E+00  0.00000000000E+00  0.24567807106E+04  0.24567807106E+04  0.50400001928E-02 0. -1.
       -1   -1    0    0    0  501  0.00000000000E+00  0.00000000000E+00 -0.12469129875E+04  0.12469129875E+04  0.50400001928E-02 0.  1.
    10030    2    1    2    0    0  0.00000000000E+00  0.00000000000E+00  0.12098677231E+04  0.37036936981E+04  0.35005095489E+04 0.  0.
        2    1    3    3  502    0  0.47570072330E+03  0.39604701603E+03 -0.11272390165E+04  0.12860063053E+04  0.25500000920E-02 0.  1.
       -2    1    3    3    0  502 -0.47570072330E+03 -0.39604701603E+03  0.23371067395E+04  0.24176873928E+04  0.25500000920E-02 0. -1.
</event>
<event>
 5   0  0.3553585E-08  0.3500271E+04  0.7818609E-02  0.8113726E-01
        2   -1    0    0  501    0  0.00000000000E+00  0.00000000000E+00  0.15114174535E+04  0.15114174535E+04  0.25500000920E-02 0. -1.
       -2   -1    0    0    0  501  0.00000000000E+00  0.00000000000E+00 -0.20265579978E+04  0.20265579978E+04  0.25500000920E-02 0.  1.
    10030    2    1    2    0    0  0.00000000000E+00  0.00000000000E+00 -0.51514054431E+03  0.35379754514E+04  0.35002714915E+04 0.  0.
        2    1    3    3  502    0  0.74558860390E+03 -0.89616342117E+03 -0.15769909233E+04  0.19610995935E+04  0.25500000920E-02 0.  1.
       -2    1    3    3    0  502 -0.74558860390E+03  0.89616342117E+03  0.10618503790E+04  0.15768758578E+04  0.25500000920E-02 0. -1.
</event>
<event>
 5   0  0.1121462E-08  0.3499717E+04  0.7818609E-02  0.8113857E-01
        1   -1    0    0  501    0  0.00000000000E+00  0.00000000000E+00  0.20918985393E+04  0.20918985393E+04  0.50400001928E-02 0. -1.
       -1   -1    0    0    0  501  0.00000000000E+00  0.00000000000E+00 -0.14637447951E+04  0.14637447951E+04  0.50400001928E-02 0.  1.
    10030    2    1    2    0    0  0.00000000000E+00  0.00000000000E+00  0.62815374425E+03  0.35556433344E+04  0.34997174736E+04 0.  0.
        1    1    3    3  502    0  0.11791033053E+04  0.10735842736E+04  0.10461029141E+04  0.19071442274E+04  0.50400001928E-02 0. -1.
       -1    1    3    3    0  502 -0.11791033053E+04 -0.10735842736E+04 -0.41794916982E+03  0.16484991070E+04  0.50400001928E-02 0.  1.
</event>
<event>
 5   0  0.3553585E-08  0.3483758E+04  0.7818609E-02  0.8117650E-01
        2   -1    0    0  501    0  0.00000000000E+00  0.00000000000E+00  0.16386909810E+04  0.16386909810E+04  0.25500000920E-02 0.  1.
       -2   -1    0    0    0  501  0.00000000000E+00  0.00000000000E+00 -0.18515647464E+04  0.18515647464E+04  0.25500000920E-02 0. -1.
    10030    2    1    2    0    0  0.00000000000E+00  0.00000000000E+00 -0.21287376544E+03  0.34902557274E+04  0.34837580000E+04 0.  0.
        2    1    3    3  502    0 -0.60852279835E+03 -0.15455795454E+04  0.41897077839E+03  0.17130827885E+04  0.25500000920E-02 0.  1.
       -2    1    3    3    0  502  0.60852279835E+03  0.15455795454E+04 -0.63184454383E+03  0.17771729389E+04  0.25500000920E-02 0. -1.
</event>
<event>
 5   0  0.3554451E-08  0.3500201E+04  0.7818609E-02  0.8113742E-01
       -2   -1    0    0    0  501  0.00000000000E+00  0.00000000000E+00  0.12494422744E+04  0.12494422744E+04  0.25500000920E-02 0.  1.
        2   -1    0    0  501    0  0.00000000000E+00  0.00000000000E+00 -0.24513749835E+04  0.24513749835E+04  0.25500000920E-02 0. -1.
    10030    2    1    2    0    0  0.00000000000E+00  0.00000000000E+00 -0.12019327091E+04  0.37008172579E+04  0.35002008713E+04 0.  0.
        5    1    3    3  502    0  0.73348590733E+03  0.23928281456E+03 -0.22618513205E+04  0.23898224469E+04  0.46999998093E+01 0. -1.
       -5    1    3    3    0  502 -0.73348590733E+03 -0.23928281456E+03  0.10599186115E+04  0.13109948110E+04  0.46999998093E+01 0.  1.
</event>
<event>
 5   0  0.3554451E-08  0.3501846E+04  0.7818609E-02  0.8113353E-01
       -2   -1    0    0    0  501  0.00000000000E+00  0.00000000000E+00  0.10124590140E+04  0.10124590140E+04  0.25500000920E-02 0. -1.
        2   -1    0    0  501    0  0.00000000000E+00  0.00000000000E+00 -0.30280056164E+04  0.30280056164E+04  0.25500000920E-02 0.  1.
    10030    2    1    2    0    0  0.00000000000E+00  0.00000000000E+00 -0.20155466023E+04  0.40404646304E+04  0.35018461307E+04 0.  0.
        5    1    3    3  502    0 -0.28758215229E+03 -0.16915991932E+04 -0.14099520432E+04  0.22208552809E+04  0.46999998093E+01 0.  1.
       -5    1    3    3    0  502  0.28758215229E+03  0.16915991932E+04 -0.60559455910E+03  0.18196093495E+04  0.46999998093E+01 0. -1.
</event>
<event>
 5   0  0.1121462E-08  0.3504408E+04  0.7818609E-02  0.8112746E-01
       -1   -1    0    0    0  501  0.00000000000E+00  0.00000000000E+00  0.25240666686E+04  0.25240666686E+04  0.50400001928E-02 0. -1.
        1   -1    0    0  501    0  0.00000000000E+00  0.00000000000E+00 -0.12163775408E+04  0.12163775408E+04  0.50400001928E-02 0.  1.
    10030    2    1    2    0    0  0.00000000000E+00  0.00000000000E+00  0.13076891277E+04  0.37404442094E+04  0.35044075147E+04 0.  0.
        2    1    3    3  502    0 -0.12923536102E+03 -0.87075941686E+03 -0.96322150521E+03  0.13048829100E+04  0.25500000920E-02 0.  1.
       -2    1    3    3    0  502  0.12923536102E+03  0.87075941686E+03  0.22709106329E+04  0.24355612994E+04  0.25500000920E-02 0. -1.
</event>
<event>
 5   0  0.1140808E-08  0.3500649E+04  0.7818609E-02  0.8113636E-01
       -1   -1    0    0    0  501  0.00000000000E+00  0.00000000000E+00  0.15166737621E+04  0.15166737621E+04  0.50400001928E-02 0. -1.
        1   -1    0    0  501    0  0.00000000000E+00  0.00000000000E+00 -0.20199699783E+04  0.20199699783E+04  0.50400001928E-02 0.  1.
    10030    2    1    2    0    0  0.00000000000E+00  0.00000000000E+00 -0.50329621623E+03  0.35366437404E+04  0.35006487778E+04 0.  0.
        3    1    3    3  502    0 -0.93208717666E+03  0.11696636359E+02 -0.17483370741E+04  0.19813141727E+04  0.10100000352E+00 0.  1.
       -3    1    3    3    0  502  0.93208717666E+03 -0.11696636359E+02  0.12450408579E+04  0.15553295677E+04  0.10100000352E+00 0. -1.
</event>
<event>
 5   0  0.1140808E-08  0.3497728E+04  0.7818609E-02  0.8114329E-01
        1   -1    0    0  501    0  0.00000000000E+00  0.00000000000E+00  0.16918306412E+04  0.16918306412E+04  0.50400001928E-02 0. -1.
       -1   -1    0    0    0  501  0.00000000000E+00  0.00000000000E+00 -0.18078202104E+04  0.18078202104E+04  0.50400001928E-02 0.  1.
    10030    2    1    2    0    0  0.00000000000E+00  0.00000000000E+00 -0.11598956923E+03  0.34996508516E+04  0.34977281917E+04 0.  0.
        3    1    3    3  502    0 -0.55662402082E+00  0.55192238279E+02  0.16909589505E+04  0.16918595318E+04  0.10100000352E+00 0. -1.
       -3    1    3    3    0  502  0.55662402082E+00 -0.55192238279E+02 -0.18069485197E+04  0.18077913198E+04  0.10100000352E+00 0.  1.
</event>
<event>
 5   0  0.1129219E-08  0.3499561E+04  0.7818609E-02  0.8113894E-01
        1   -1    0    0  501    0  0.00000000000E+00  0.00000000000E+00  0.10002368628E+04  0.10002368628E+04  0.50400001928E-02 0.  1.
       -1   -1    0    0    0  501  0.00000000000E+00  0.00000000000E+00 -0.30610070368E+04  0.30610070368E+04  0.50400001928E-02 0. -1.
    10030    2    1    2    0    0  0.00000000000E+00  0.00000000000E+00 -0.20607701740E+04  0.40612438996E+04  0.34995611585E+04 0.  0.
        5    1    3    3  502    0  0.90650499573E+03 -0.68839449608E+03 -0.25726168718E+04  0.28131864404E+04  0.46999998093E+01 0. -1.
       -5    1    3    3    0  502 -0.90650499573E+03  0.68839449608E+03  0.51184669775E+03  0.12480574592E+04  0.46999998093E+01 0.  1.
</event>
<event>
 5   0  0.3628017E-08  0.3500256E+04  0.7818609E-02  0.8113729E-01
        2   -1    0    0  501    0  0.00000000000E+00  0.00000000000E+00  0.22599054429E+04  0.22599054429E+04  0.25500000920E-02 0.  1.
       -2   -1    0    0    0  501  0.00000000000E+00  0.00000000000E+00 -0.13553430740E+04  0.13553430740E+04  0.25500000920E-02 0. -1.
    10030    2    1    2    0    0  0.00000000000E+00  0.00000000000E+00  0.90456236895E+03  0.36152485169E+04  0.35002555278E+04 0.  0.
        1    1    3    3  502    0  0.12282191131E+04  0.10045044783E+04  0.12150523764E+04  0.19984753474E+04  0.50400001928E-02 0.  1.
       -1    1    3    3    0  502 -0.12282191131E+04 -0.10045044783E+04 -0.31049000749E+03  0.16167731695E+04  0.50400001928E-02 0. -1.
</event>
<event>
 5   0  0.1129219E-08  0.3498262E+04  0.7818609E-02  0.8114202E-01
       -1   -1    0    0    0  501  0.00000000000E+00  0.00000000000E+00  0.10179320849E+04  0.10179320849E+04  0.50400001928E-02 0. -1.
        1   -1    0    0  501    0  0.00000000000E+00  0.00000000000E+00 -0.30055628913E+04  0.30055628913E+04  0.50400001928E-02 0.  1.
    10030    2    1    2    0    0  0.00000000000E+00  0.00000000000E+00 -0.19876308064E+04  0.40234949762E+04  0.34982617971E+04 0.  0.
        5    1    3    3  502    0  0.12962694495E+04 -0.69191104469E+03  0.97535521796E+02  0.14726135432E+04  0.46999998093E+01 0. -1.
       -5    1    3    3    0  502 -0.12962694495E+04  0.69191104469E+03 -0.20851663282E+04  0.25508814331E+04  0.46999998093E+01 0.  1.
</event>
<event>
 5   0  0.3628017E-08  0.3499230E+04  0.7818609E-02  0.8113972E-01
       -2   -1    0    0    0  501  0.00000000000E+00  0.00000000000E+00  0.11854078573E+04  0.11854078573E+04  0.25500000920E-02 0.  1.
        2   -1    0    0  501    0  0.00000000000E+00  0.00000000000E+00 -0.25823630039E+04  0.25823630039E+04  0.25500000920E-02 0. -1.
    10030    2    1    2    0    0  0.00000000000E+00  0.00000000000E+00 -0.13969551466E+04  0.37677708611E+04  0.34992304269E+04 0.  0.
        1    1    3    3  502    0 -0.63876030168E+03 -0.73004960538E+03  0.86934494942E+03  0.13025927186E+04  0.50400001928E-02 0.  1.
       -1    1    3    3    0  502  0.63876030168E+03  0.73004960538E+03 -0.22663000960E+04  0.24651781426E+04  0.50400001928E-02 0. -1.
</event>
<event>
 5   0  0.3467834E-08  0.3502555E+04  0.7818609E-02  0.8113185E-01
       -2   -1    0    0    0  501  0.00000000000E+00  0.00000000000E+00  0.29959673833E+04  0.29959673833E+04  0.25500000920E-02 0. -1.
        2   -1    0    0  501    0  0.00000000000E+00  0.00000000000E+00 -0.10237002617E+04  0.10237002617E+04  0.25500000920E-02 0.  1.
    10030    2    1    2    0    0  0.00000000000E+00  0.00000000000E+00  0.19722671217E+04  0.40196676450E+04  0.35025548357E+04 0.  0.
        3    1    3    3  502    0  0.76528832589E+03 -0.62896994397E+03 -0.67128215917E+03  0.11966157109E+04  0.10100000352E+00 0.  1.
       -3    1    3    3    0  502 -0.76528832589E+03  0.62896994397E+03  0.26435492809E+04  0.28230519341E+04  0.10100000352E+00 0. -1.
</event>
<event>
 5   0  0.3553585E-08  0.3499479E+04  0.7818609E-02  0.8113913E-01
       -2   -1    0    0    0  501  0.00000000000E+00  0.00000000000E+00  0.13357703119E+04  0.13357703119E+04  0.25500000920E-02 0. -1.
        2   -1    0    0  501    0  0.00000000000E+00  0.00000000000E+00 -0.22920021826E+04  0.22920021826E+04  0.25500000920E-02 0.  1.
    10030    2    1    2    0    0  0.00000000000E+00  0.00000000000E+00 -0.95623187078E+03  0.36277724945E+04  0.34994790871E+04 0.  0.
        2    1    3    3  502    0  0.27484438586E+03  0.22737762671E+02  0.13130982026E+04  0.13417463739E+04  0.25500000920E-02 0. -1.
       -2    1    3    3    0  502 -0.27484438586E+03 -0.22737762671E+02 -0.22693300733E+04  0.22860261206E+04  0.25500000920E-02 0.  1.
</event>
<event>
 5   0  0.1121462E-08  0.3499311E+04  0.7818609E-02  0.8113953E-01
        1   -1    0    0  501    0  0.00000000000E+00  0.00000000000E+00  0.16037790312E+04  0.16037790312E+04  0.50400001928E-02 0. -1.
       -1   -1    0    0    0  501  0.00000000000E+00  0.00000000000E+00 -0.19088000641E+04  0.19088000641E+04  0.50400001928E-02 0.  1.
    10030    2    1    2    0    0  0.00000000000E+00  0.00000000000E+00 -0.30502103284E+03  0.35125790953E+04  0.34993105135E+04 0.  0.
        4    1    3    3  502    0  0.32540717212E+03 -0.58102156941E+02 -0.18771714889E+04  0.19060535407E+04  0.12699999809E+01 0.  1.
       -4    1    3    3    0  502 -0.32540717212E+03  0.58102156941E+02  0.15721504560E+04  0.16065255546E+04  0.12699999809E+01 0. -1.
</event>
<event>
 5   0  0.3554451E-08  0.3498733E+04  0.7818609E-02  0.8114090E-01
       -2   -1    0    0    0  501  0.00000000000E+00  0.00000000000E+00  0.13793160804E+04  0.13793160804E+04  0.25500000920E-02 0.  1.
        2   -1    0    0  501    0  0.00000000000E+00  0.00000000000E+00 -0.22186962390E+04  0.22186962390E+04  0.25500000920E-02 0. -1.
    10030    2    1    2    0    0  0.00000000000E+00  0.00000000000E+00 -0.83938015864E+03  0.35980123194E+04  0.34987331421E+04 0.  0.
        5    1    3    3  502    0  0.14410672492E+04 -0.93718946962E+03 -0.86042142872E+02  0.17211694451E+04  0.46999998093E+01 0. -1.
       -5    1    3    3    0  502 -0.14410672492E+04  0.93718946962E+03 -0.75333801577E+03  0.18768428742E+04  0.46999998093E+01 0.  1.
</event>
<event>
 5   0  0.3554451E-08  0.3498803E+04  0.7818609E-02  0.8114074E-01
       -2   -1    0    0    0  501  0.00000000000E+00  0.00000000000E+00  0.17952259023E+04  0.17952259023E+04  0.25500000920E-02 0.  1.
        2   -1    0    0  501    0  0.00000000000E+00  0.00000000000E+00 -0.17047463131E+04  0.17047463131E+04  0.25500000920E-02 0. -1.
    10030    2    1    2    0    0  0.00000000000E+00  0.00000000000E+00  0.90479589241E+02  0.34999722154E+04  0.34988025027E+04 0.  0.
        5    1    3    3  502    0 -0.13940131089E+04 -0.90338827277E+03  0.59405763502E+03  0.17641738811E+04  0.46999998093E+01 0.  1.
       -5    1    3    3    0  502  0.13940131089E+04  0.90338827277E+03 -0.50357804578E+03  0.17357983343E+04  0.46999998093E+01 0. -1.
</event>
<event>
 5   0  0.3628017E-08  0.3508912E+04  0.7818609E-02  0.8111681E-01
        2   -1    0    0  501    0  0.00000000000E+00  0.00000000000E+00  0.11406265395E+04  0.11406265395E+04  0.25500000920E-02 0.  1.
       -2   -1    0    0    0  501  0.00000000000E+00  0.00000000000E+00 -0.26986190897E+04  0.26986190897E+04  0.25500000920E-02 0. -1.
    10030    2    1    2    0    0  0.00000000000E+00  0.00000000000E+00 -0.15579925501E+04  0.38392456292E+04  0.35089123977E+04 0.  0.
        1    1    3    3  502    0 -0.67364423067E+03 -0.70603517421E+03 -0.23742805394E+04  0.25670002526E+04  0.50400001928E-02 0. -1.
       -1    1    3    3    0  502  0.67364423067E+03  0.70603517421E+03  0.81628798930E+03  0.12722453766E+04  0.50400001928E-02 0.  1.
</event>
<event>
 5   0  0.3700096E-08  0.3498636E+04  0.7818609E-02  0.8114113E-01
       -2   -1    0    0    0  501  0.00000000000E+00  0.00000000000E+00  0.14416162324E+04  0.14416162324E+04  0.25500000920E-02 0.  1.
        2   -1    0    0  501    0  0.00000000000E+00  0.00000000000E+00 -0.21226966867E+04  0.21226966867E+04  0.25500000920E-02 0. -1.
    10030    2    1    2    0    0  0.00000000000E+00  0.00000000000E+00 -0.68108045433E+03  0.35643129191E+04  0.34986363058E+04 0.  0.
        4    1    3    3  502    0  0.52638905091E+03  0.15163215804E+04 -0.10491515401E+04  0.19175602038E+04  0.12699999809E+01 0.  1.
       -4    1    3    3    0  502 -0.52638905091E+03 -0.15163215804E+04  0.36807108578E+03  0.16467527153E+04  0.12699999809E+01 0. -1.
</event>
<event>
 5   0  0.1121462E-08  0.3497312E+04  0.7818609E-02  0.8114427E-01
       -1   -1    0    0    0  501  0.00000000000E+00  0.00000000000E+00  0.14437369728E+04  0.14437369728E+04  0.50400001928E-02 0.  1.
        1   -1    0    0  501    0  0.00000000000E+00  0.00000000000E+00 -0.21179740540E+04  0.21179740540E+04  0.50400001928E-02 0. -1.
    10030    2    1    2    0    0  0.00000000000E+00  0.00000000000E+00 -0.67423708111E+03  0.35617110268E+04  0.34973117958E+04 0.  0.
        4    1    3    3  502    0  0.42215084814E+03 -0.96855609972E+03  0.10819101916E+04  0.15122313092E+04  0.12699999809E+01 0.  1.
       -4    1    3    3    0  502 -0.42215084814E+03  0.96855609972E+03 -0.17561472727E+04  0.20494797177E+04  0.12699999809E+01 0. -1.
</event>
<event>
 5   0  0.1121462E-08  0.3500750E+04  0.7818609E-02  0.8113612E-01
       -1   -1    0    0    0  501  0.00000000000E+00  0.00000000000E+00  0.19409161462E+04  0.19409161463E+04  0.50400001928E-02 0. -1.
        1   -1    0    0  501    0  0.00000000000E+00  0.00000000000E+00 -0.15785394161E+04  0.15785394161E+04  0.50400001928E-02 0.  1.
    10030    2    1    2    0    0  0.00000000000E+00  0.00000000000E+00  0.36237673013E+03  0.35194555624E+04  0.35007499998E+04 0.  0.
        2    1    3    3  502    0  0.10740922981E+04  0.49386314431E+03 -0.11165371691E+04  0.16261089509E+04  0.25500000920E-02 0.  1.
       -2    1    3    3    0  502 -0.10740922981E+04 -0.49386314431E+03  0.14789138992E+04  0.18933466115E+04  0.25500000920E-02 0. -1.
</event>
<event>
 5   0  0.3554451E-08  0.3500048E+04  0.7818609E-02  0.8113778E-01
        2   -1    0    0  501    0  0.00000000000E+00  0.00000000000E+00  0.30066966651E+04  0.30066966651E+04  0.25500000920E-02 0.  1.
       -2   -1    0    0    0  501  0.00000000000E+00  0.00000000000E+00 -0.10185878308E+04  0.10185878308E+04  0.25500000920E-02 0. -1.
    10030    2    1    2    0    0  0.00000000000E+00  0.00000000000E+00  0.19881088343E+04  0.40252844959E+04  0.35000483619E+04 0.  0.
        5    1    3    3  502    0  0.91379320420E+02 -0.18639172107E+03 -0.10043709325E+04  0.10256096304E+04  0.46999998093E+01 0. -1.
       -5    1    3    3    0  502 -0.91379320420E+02  0.18639172107E+03  0.29924797668E+04  0.29996748655E+04  0.46999998093E+01 0.  1.
</event>
<event>
 5   0  0.3467834E-08  0.3500350E+04  0.7818609E-02  0.8113707E-01
        2   -1    0    0  501    0  0.00000000000E+00  0.00000000000E+00  0.20405793638E+04  0.20405793638E+04  0.25500000920E-02 0.  1.
       -2   -1    0    0    0  501  0.00000000000E+00  0.00000000000E+00 -0.15010993511E+04  0.15010993511E+04  0.25500000920E-02 0. -1.
    10030    2    1    2    0    0  0.00000000000E+00  0.00000000000E+00  0.53948001265E+03  0.35416787149E+04  0.35003499019E+04 0.  0.
        3    1    3    3  502    0 -0.17008777668E+03  0.13436036310E+04  0.13913918009E+04  0.19416930043E+04  0.10100000352E+00 0.  1.
       -3    1    3    3    0  502  0.17008777668E+03 -0.13436036310E+04 -0.85191178830E+03  0.15999857106E+04  0.10100000352E+00 0. -1.
</event>
<event>
 5   0  0.1121462E-08  0.3499791E+04  0.7818609E-02  0.8113840E-01
       -1   -1    0    0    0  501  0.00000000000E+00  0.00000000000E+00  0.18412108174E+04  0.18412108174E+04  0.50400001928E-02 0.  1.
        1   -1    0    0  501    0  0.00000000000E+00  0.00000000000E+00 -0.16631085339E+04  0.16631085339E+04  0.50400001928E-02 0. -1.
    10030    2    1    2    0    0  0.00000000000E+00  0.00000000000E+00  0.17810228346E+03  0.35043193513E+04  0.34997905212E+04 0.  0.
        2    1    3    3  502    0 -0.13958794109E+04  0.29279858244E+02  0.11453080372E+04  0.18058425014E+04  0.25500000920E-02 0.  1.
       -2    1    3    3    0  502  0.13958794109E+04 -0.29279858244E+02 -0.96720575370E+03  0.16984768499E+04  0.25500000920E-02 0. -1.
</event>
<event>
 5   0  0.3700096E-08  0.3499501E+04  0.7818609E-02  0.8113908E-01
        2   -1    0    0  501    0  0.00000000000E+00  0.00000000000E+00  0.13608087654E+04  0.13608087654E+04  0.25500000920E-02 0. -1.
       -2   -1    0    0    0  501  0.00000000000E+00  0.00000000000E+00 -0.22498582633E+04  0.22498582633E+04  0.25500000920E-02 0.  1.
    10030    2    1    2    0    0  0.00000000000E+00  0.00000000000E+00 -0.88904949789E+03  0.36106670286E+04  0.34995010190E+04 0.  0.
        4    1    3    3  502    0  0.50437255216E+03  0.14844487781E+04  0.35710210743E+03  0.16079500534E+04  0.12699999809E+01 0. -1.
       -4    1    3    3    0  502 -0.50437255216E+03 -0.14844487781E+04 -0.12461516053E+04  0.20027169752E+04  0.12699999809E+01 0.  1.
</event>
<event>
 5   0  0.1121462E-08  0.3498868E+04  0.7818609E-02  0.8114058E-01
       -1   -1    0    0    0  501  0.00000000000E+00  0.00000000000E+00  0.26666450870E+04  0.26666450870E+04  0.50400001928E-02 0.  1.
        1   -1    0    0  501    0  0.00000000000E+00  0.00000000000E+00 -0.11477042171E+04  0.11477042172E+04  0.50400001928E-02 0. -1.
    10030    2    1    2    0    0  0.00000000000E+00  0.00000000000E+00  0.15189408698E+04  0.38143493041E+04  0.34988682810E+04 0.  0.
        4    1    3    3  502    0  0.87541996111E+03 -0.45502127327E+03  0.23344173716E+04  0.25343461771E+04  0.12699999809E+01 0.  1.
       -4    1    3    3    0  502 -0.87541996111E+03  0.45502127327E+03 -0.81547650178E+03  0.12800031271E+04  0.12699999809E+01 0. -1.
</event>
<event>
 5   0  0.1140808E-08  0.3499967E+04  0.7818609E-02  0.8113798E-01
       -1   -1    0    0    0  501  0.00000000000E+00  0.00000000000E+00  0.10986201475E+04  0.10986201476E+04  0.50400001928E-02 0.  1.
        1   -1    0    0  501    0  0.00000000000E+00  0.00000000000E+00 -0.27875347603E+04  0.27875347603E+04  0.50400001928E-02 0. -1.
    10030    2    1    2    0    0  0.00000000000E+00  0.00000000000E+00 -0.16889146128E+04  0.38861549079E+04  0.34999667711E+04 0.  0.
        3    1    3    3  502    0 -0.15996361697E+04 -0.36159868067E+03 -0.16646520516E+03  0.16484235366E+04  0.10100000352E+00 0.  1.
       -3    1    3    3    0  502  0.15996361697E+04  0.36159868067E+03 -0.15224494076E+04  0.22377313713E+04  0.10100000352E+00 0. -1.
</event>
<event>
 5   0  0.3467834E-08  0.3500740E+04  0.7818609E-02  0.8113615E-01
        2   -1    0    0  501    0  0.00000000000E+00  0.00000000000E+00  0.25760185584E+04  0.25760185584E+04  0.25500000920E-02 0. -1.
       -2   -1    0    0    0  501  0.00000000000E+00  0.00000000000E+00 -0.11893529456E+04  0.11893529456E+04  0.25500000920E-02 0.  1.
    10030    2    1    2    0    0  0.00000000000E+00  0.00000000000E+00  0.13866656128E+04  0.37653715040E+04  0.35007400705E+04 0.  0.
        3    1    3    3  502    0 -0.69233581116E+03 -0.16003078212E+04  0.52851330591E+03  0.18219880138E+04  0.10100000352E+00 0.  1.
       -3    1    3    3    0  502  0.69233581116E+03  0.16003078212E+04  0.85815230693E+03  0.19433834902E+04  0.10100000352E+00 0. -1.
</event>
<event>
 5   0  0.1121462E-08  0.3500209E+04  0.7818609E-02  0.8113741E-01
        1   -1    0    0  501    0  0.00000000000E+00  0.00000000000E+00  0.23469203759E+04  0.23469203759E+04  0.50400001928E-02 0.  1.
       -1   -1    0    0    0  501  0.00000000000E+00  0.00000000000E+00 -0.13050570409E+04  0.13050570409E+04  0.50400001928E-02 0. -1.
    10030    2    1    2    0    0  0.00000000000E+00  0.00000000000E+00  0.10418633350E+04  0.36519774168E+04  0.35002085429E+04 0.  0.
        2    1    3    3  502    0 -0.14131481617E+04  0.55858184461E+03 -0.38496891190E+03  0.15675466396E+04  0.25500000920E-02 0. -1.
       -2    1    3    3    0  502  0.14131481617E+04 -0.55858184461E+03  0.14268322469E+04  0.20844307772E+04  0.25500000920E-02 0.  1.
</event>
<event>
 5   0  0.3628017E-08  0.3498977E+04  0.7818609E-02  0.8114032E-01
       -2   -1    0    0    0  501  0.00000000000E+00  0.00000000000E+00  0.22278470779E+04  0.22278470779E+04  0.25500000920E-02 0.  1.
        2   -1    0    0  501    0  0.00000000000E+00  0.00000000000E+00 -0.13738423246E+04  0.13738423246E+04  0.25500000920E-02 0. -1.
    10030    2    1    2    0    0  0.00000000000E+00  0.00000000000E+00  0.85400475326E+03  0.36016894025E+04  0.34989773410E+04 0.  0.
        1    1    3    3  502    0 -0.30807839125E+03  0.15882657835E+04 -0.25828062481E+03  0.16383556926E+04  0.50400001928E-02 0.  1.
       -1    1    3    3    0  502  0.30807839125E+03 -0.15882657835E+04  0.11122853781E+04  0.19633337099E+04  0.50400001928E-02 0. -1.
</event>
<event>
 5   0  0.3467834E-08  0.3500499E+04  0.7818609E-02  0.8113672E-01
       -2   -1    0    0    0  501  0.00000000000E+00  0.00000000000E+00  0.22266916131E+04  0.22266916131E+04  0.25500000920E-02 0. -1.
        2   -1    0    0  501    0  0.00000000000E+00  0.00000000000E+00 -0.13757514348E+04  0.13757514348E+04  0.25500000920E-02 0.  1.
    10030    2    1    2    0    0  0.00000000000E+00  0.00000000000E+00  0.85094017831E+03  0.36024430479E+04  0.35004994967E+04 0.  0.
        3    1    3    3  502    0 -0.11519848577E+04  0.50098201681E+03  0.16797007761E+04  0.20974858285E+04  0.10100000352E+00 0. -1.
       -3    1    3    3    0  502  0.11519848577E+04 -0.50098201681E+03 -0.82876059775E+03  0.15049572194E+04  0.10100000352E+00 0.  1.
</event>
<event>
 5   0  0.1121462E-08  0.3499967E+04  0.7818609E-02  0.8113798E-01
        1   -1    0    0  501    0  0.00000000000E+00  0.00000000000E+00  0.25222265684E+04  0.25222265684E+04  0.50400001928E-02 0. -1.
       -1   -1    0    0    0  501  0.00000000000E+00  0.00000000000E+00 -0.12141817625E+04  0.12141817625E+04  0.50400001928E-02 0.  1.
    10030    2    1    2    0    0  0.00000000000E+00  0.00000000000E+00  0.13080448059E+04  0.37364083309E+04  0.34999665714E+04 0.  0.
        1    1    3    3  502    0  0.49387131332E+03 -0.16692592002E+04  0.46273521048E+03  0.18012381927E+04  0.50400001928E-02 0.  1.
       -1    1    3    3    0  502 -0.49387131332E+03  0.16692592002E+04  0.84530959544E+03  0.19351701382E+04  0.50400001928E-02 0. -1.
</event>
<event>
 5   0  0.1121462E-08  0.3499254E+04  0.7818609E-02  0.8113967E-01
        1   -1    0    0  501    0  0.00000000000E+00  0.00000000000E+00  0.15720060465E+04  0.15720060465E+04  0.50400001928E-02 0.  1.
       -1   -1    0    0    0  501  0.00000000000E+00  0.00000000000E+00 -0.19473171063E+04  0.19473171063E+04  0.50400001928E-02 0. -1.
    10030    2    1    2    0    0  0.00000000000E+00  0.00000000000E+00 -0.37531105980E+03  0.35193231529E+04  0.34992537866E+04 0.  0.
        1    1    3    3  502    0  0.16960466162E+04 -0.22591701178E+03  0.17992889347E+03  0.17204612832E+04  0.50400001928E-02 0.  1.
       -1    1    3    3    0  502 -0.16960466162E+04  0.22591701178E+03 -0.55523995327E+03  0.17988618697E+04  0.50400001928E-02 0. -1.
</event>
<event>
 5   0  0.3628017E-08  0.3499790E+04  0.7818609E-02  0.8113840E-01
        2   -1    0    0  501    0  0.00000000000E+00  0.00000000000E+00  0.21711171138E+04  0.21711171138E+04  0.25500000920E-02 0. -1.
       -2   -1    0    0    0  501  0.00000000000E+00  0.00000000000E+00 -0.14103947756E+04  0.14103947756E+04  0.25500000920E-02 0.  1.
    10030    2    1    2    0    0  0.00000000000E+00  0.00000000000E+00  0.76072233826E+03  0.35815118894E+04  0.34997898420E+04 0.  0.
        1    1    3    3  502    0  0.76130141994E+03  0.99838901291E+03  0.16277460645E+04  0.20557037052E+04  0.50400001928E-02 0. -1.
       -1    1    3    3    0  502 -0.76130141994E+03 -0.99838901291E+03 -0.86702372624E+03  0.15258081842E+04  0.50400001928E-02 0.  1.
</event>
<event>
 5   0  0.1121462E-08  0.3499518E+04  0.7818609E-02  0.8113904E-01
       -1   -1    0    0    0  501  0.00000000000E+00  0.00000000000E+00  0.11936693917E+04  0.11936693917E+04  0.50400001928E-02 0.  1.
        1   -1    0    0  501    0  0.00000000000E+00  0.00000000000E+00 -0.25649122293E+04  0.25649122293E+04  0.50400001928E-02 0. -1.
    10030    2    1    2    0    0  0.00000000000E+00  0.00000000000E+00 -0.13712428376E+04  0.37585816210E+04  0.34995183786E+04 0.  0.
        2    1    3    3  502    0  0.16657200637E+04 -0.48393585131E+02 -0.12586856491E+04  0.20883617582E+04  0.25500000920E-02 0.  1.
       -2    1    3    3    0  502 -0.16657200637E+04  0.48393585131E+02 -0.11255718848E+03  0.16702198629E+04  0.25500000920E-02 0. -1.
</event>
<event>
 5   0  0.1121462E-08  0.3490495E+04  0.7818609E-02  0.8116046E-01
        1   -1    0    0  501    0  0.00000000000E+00  0.00000000000E+00  0.12295904286E+04  0.12295904286E+04  0.50400001928E-02 0.  1.
       -1   -1    0    0    0  501  0.00000000000E+00  0.00000000000E+00 -0.24771569601E+04  0.24771569601E+04  0.50400001928E-02 0. -1.
    10030    2    1    2    0    0  0.00000000000E+00  0.00000000000E+00 -0.12475665315E+04  0.37067473888E+04  0.34904948007E+04 0.  0.
        1    1    3    3  502    0 -0.28738813662E+03  0.16832145468E+04 -0.10068021329E+04  0.19822849660E+04  0.50400001928E-02 0. -1.
       -1    1    3    3    0  502  0.28738813662E+03 -0.16832145468E+04 -0.24076439866E+03  0.17244624227E+04  0.50400001928E-02 0.  1.
</event>
<event>
 5   0  0.3467834E-08  0.3498031E+04  0.7818609E-02  0.8114257E-01
       -2   -1    0    0    0  501  0.00000000000E+00  0.00000000000E+00  0.13362039382E+04  0.13362039382E+04  0.25500000920E-02 0.  1.
        2   -1    0    0  501    0  0.00000000000E+00  0.00000000000E+00 -0.22893626346E+04  0.22893626346E+04  0.25500000920E-02 0. -1.
    10030    2    1    2    0    0  0.00000000000E+00  0.00000000000E+00 -0.95315869644E+03  0.36255665728E+04  0.34980310852E+04 0.  0.
        3    1    3    3  502    0  0.16294284349E+04  0.10045911164E+03  0.17393923607E+03  0.16417624450E+04  0.10100000352E+00 0.  1.
       -3    1    3    3    0  502 -0.16294284349E+04 -0.10045911164E+03 -0.11270979325E+04  0.19838041278E+04  0.10100000352E+00 0. -1.
</event>
<event>
 5   0  0.1121462E-08  0.3501020E+04  0.7818609E-02  0.8113548E-01
        1   -1    0    0  501    0  0.00000000000E+00  0.00000000000E+00  0.15514457806E+04  0.15514457806E+04  0.50400001928E-02 0.  1.
       -1   -1    0    0    0  501  0.00000000000E+00  0.00000000000E+00 -0.19751160626E+04  0.19751160626E+04  0.50400001928E-02 0. -1.
    10030    2    1    2    0    0  0.00000000000E+00  0.00000000000E+00 -0.42367028193E+03  0.35265618432E+04  0.35010201265E+04 0.  0.
        4    1    3    3  502    0 -0.84406387860E+03  0.93118648593E+03 -0.14392203827E+04  0.19107352056E+04  0.12699999809E+01 0. -1.
       -4    1    3    3    0  502  0.84406387860E+03 -0.93118648593E+03  0.10155501008E+04  0.16158266376E+04  0.12699999809E+01 0.  1.
</event>
<event>
 5   0  0.1121462E-08  0.3500212E+04  0.7818609E-02  0.8113740E-01
        1   -1    0    0  501    0  0.00000000000E+00  0.00000000000E+00  0.12619737956E+04  0.12619737956E+04  0.50400001928E-02 0. -1.
       -1   -1    0    0    0  501  0.00000000000E+00  0.00000000000E+00 -0.24270484207E+04  0.24270484207E+04  0.50400001928E-02 0.  1.
    10030    2    1    2    0    0  0.00000000000E+00  0.00000000000E+00 -0.11650746251E+04  0.36890222164E+04  0.35002122837E+04 0.  0.
        1    1    3    3  502    0 -0.39111349915E+03  0.62266686245E+03 -0.22563451199E+04  0.23731365513E+04  0.50400001928E-02 0.  1.
       -1    1    3    3    0  502  0.39111349915E+03 -0.62266686245E+03  0.10912704948E+04  0.13158856651E+04  0.50400001928E-02 0. -1.
</event>
<event>
 5   0  0.1121462E-08  0.3504545E+04  0.7818609E-02  0.8112714E-01
       -1   -1    0    0    0  501  0.00000000000E+00  0.00000000000E+00  0.21847564561E+04  0.21847564561E+04  0.50400001928E-02 0.  1.
        1   -1    0    0  501    0  0.00000000000E+00  0.00000000000E+00 -0.14054006651E+04  0.14054006651E+04  0.50400001928E-02 0. -1.
    10030    2    1    2    0    0  0.00000000000E+00  0.00000000000E+00  0.77935579100E+03  0.35901571213E+04  0.35045445791E+04 0.  0.
        1    1    3    3  502    0  0.84056554709E+03 -0.15259513959E+04  0.19698697892E+03  0.17532489759E+04  0.50400001928E-02 0. -1.
       -1    1    3    3    0  502 -0.84056554709E+03  0.15259513959E+04  0.58236881208E+03  0.18369081454E+04  0.50400001928E-02 0.  1.
</event>
<event>
 5   0  0.3553585E-08  0.3500297E+04  0.7818609E-02  0.8113719E-01
       -2   -1    0    0    0  501  0.00000000000E+00  0.00000000000E+00  0.16322646043E+04  0.16322646043E+04  0.25500000920E-02 0.  1.
        2   -1    0    0  501    0  0.00000000000E+00  0.00000000000E+00 -0.18765464050E+04  0.18765464050E+04  0.25500000920E-02 0. -1.
    10030    2    1    2    0    0  0.00000000000E+00  0.00000000000E+00 -0.24428180067E+03  0.35088110092E+04  0.35002972874E+04 0.  0.
        2    1    3    3  502    0 -0.66792535969E+03 -0.64535798375E+03 -0.16091264836E+04  0.18579287536E+04  0.25500000920E-02 0. -1.
       -2    1    3    3    0  502  0.66792535969E+03  0.64535798375E+03  0.13648446829E+04  0.16508822556E+04  0.25500000920E-02 0.  1.
</event>
<event>
 5   0  0.3700096E-08  0.3501061E+04  0.7818609E-02  0.8113539E-01
        2   -1    0    0  501    0  0.00000000000E+00  0.00000000000E+00  0.16066110243E+04  0.16066110243E+04  0.25500000920E-02 0.  1.
       -2   -1    0    0    0  501  0.00000000000E+00  0.00000000000E+00 -0.19073419387E+04  0.19073419387E+04  0.25500000920E-02 0. -1.
    10030    2    1    2    0    0  0.00000000000E+00  0.00000000000E+00 -0.30073091439E+03  0.35139529630E+04  0.35010607454E+04 0.  0.
        4    1    3    3  502    0  0.39024822535E+03  0.60917339735E+03 -0.17502770558E+04  0.18939000212E+04  0.12699999809E+01 0. -1.
       -4    1    3    3    0  502 -0.39024822535E+03 -0.60917339735E+03  0.14495461414E+04  0.16200529418E+04  0.12699999809E+01 0.  1.
</event>
<event>
 5   0  0.3467834E-08  0.3499709E+04  0.7818609E-02  0.8113859E-01
       -2   -1    0    0    0  501  0.00000000000E+00  0.00000000000E+00  0.15994746038E+04  0.15994746038E+04  0.25500000920E-02 0. -1.
        2   -1    0    0  501    0  0.00000000000E+00  0.00000000000E+00 -0.19143732870E+04  0.19143732871E+04  0.25500000920E-02 0.  1.
    10030    2    1    2    0    0  0.00000000000E+00  0.00000000000E+00 -0.31489868322E+03  0.35138478909E+04  0.34997093907E+04 0.  0.
        3    1    3    3  502    0 -0.55860666470E+03 -0.10380696059E+04 -0.14558719217E+04  0.18732840081E+04  0.10100000352E+00 0.  1.
       -3    1    3    3    0  502  0.55860666470E+03  0.10380696059E+04  0.11409732384E+04  0.16405638828E+04  0.10100000352E+00 0. -1.
</event>
<event>
 5   0  0.1140808E-08  0.3503863E+04  0.7818609E-02  0.8112875E-01
        1   -1    0    0  501    0  0.00000000000E+00  0.00000000000E+00  0.20228067169E+04  0.20228067169E+04  0.50400001928E-02 0. -1.
       -1   -1    0    0    0  501  0.00000000000E+00  0.00000000000E+00 -0.15173293081E+04  0.15173293081E+04  0.50400001928E-02 0.  1.
    10030    2    1    2    0    0  0.00000000000E+00  0.00000000000E+00  0.50547740882E+03  0.35401360250E+04  0.35038629632E+04 0.  0.
        3    1    3    3  502    0 -0.68895189963E+03 -0.55131449065E+03  0.17818999999E+04  0.19884089135E+04  0.10100000352E+00 0. -1.
       -3    1    3    3    0  502  0.68895189963E+03  0.55131449065E+03 -0.12764225910E+04  0.15517271115E+04  0.10100000352E+00 0.  1.
</event>
<event>
 5   0  0.3554451E-08  0.3503417E+04  0.7818609E-02  0.8112981E-01
       -2   -1    0    0    0  501  0.00000000000E+00  0.00000000000E+00  0.24275045910E+04  0.24275045910E+04  0.25500000920E-02 0. -1.
        2   -1    0    0  501    0  0.00000000000E+00  0.00000000000E+00 -0.12640484232E+04  0.12640484232E+04  0.25500000920E-02 0.  1.
    10030    2    1    2    0    0  0.00000000000E+00  0.00000000000E+00  0.11634561677E+04  0.36915530142E+04  0.35034173891E+04 0.  0.
        5    1    3    3  502    0 -0.11761919800E+04  0.53498534415E+03  0.18279598672E+04  0.22385478012E+04  0.46999998093E+01 0. -1.
       -5    1    3    3    0  502  0.11761919800E+04 -0.53498534415E+03 -0.66450369950E+03  0.14530052130E+04  0.46999998093E+01 0.  1.
</event>
<event>
 5   0  0.3553585E-08  0.3499350E+04  0.7818609E-02  0.8113944E-01
        2   -1    0    0  501    0  0.00000000000E+00  0.00000000000E+00  0.24612078575E+04  0.24612078575E+04  0.25500000920E-02 0. -1.
       -2   -1    0    0    0  501  0.00000000000E+00  0.00000000000E+00 -0.12438453841E+04  0.12438453841E+04  0.25500000920E-02 0.  1.
    10030    2    1    2    0    0  0.00000000000E+00  0.00000000000E+00  0.12173624734E+04  0.37050532416E+04  0.34993496727E+04 0.  0.
        2    1    3    3  502    0 -0.12404267861E+04 -0.11873773172E+04  0.96434188653E+03  0.19693853810E+04  0.25500000920E-02 0. -1.
       -2    1    3    3    0  502  0.12404267861E+04  0.11873773172E+04  0.25302058690E+03  0.17356678606E+04  0.25500000920E-02 0.  1.
</event>
<event>
 5   0  0.1140808E-08  0.3498792E+04  0.7818609E-02  0.8114076E-01
       -1   -1    0    0    0  501  0.00000000000E+00  0.00000000000E+00  0.21382170848E+04  0.21382170848E+04  0.50400001928E-02 0. -1.
        1   -1    0    0  501    0  0.00000000000E+00  0.00000000000E+00 -0.14312797010E+04  0.14312797010E+04  0.50400001928E-02 0.  1.
    10030    2    1    2    0    0  0.00000000000E+00  0.00000000000E+00  0.70693738379E+03  0.35694967859E+04  0.34987921973E+04 0.  0.
        3    1    3    3  502    0 -0.62916325555E+03 -0.37523809384E+03  0.19741994156E+04  0.21057334523E+04  0.10100000352E+00 0. -1.
       -3    1    3    3    0  502  0.62916325555E+03  0.37523809384E+03 -0.12672620318E+04  0.14637633336E+04  0.10100000352E+00 0.  1.
</event>
<event>
 5   0  0.3554451E-08  0.3500887E+04  0.7818609E-02  0.8113580E-01
        2   -1    0    0  501    0  0.00000000000E+00  0.00000000000E+00  0.18896017670E+04  0.18896017670E+04  0.25500000920E-02 0.  1.
       -2   -1    0    0    0  501  0.00000000000E+00  0.00000000000E+00 -0.16215337389E+04  0.16215337389E+04  0.25500000920E-02 0. -1.
    10030    2    1    2    0    0  0.00000000000E+00  0.00000000000E+00  0.26806802807E+03  0.35111355059E+04  0.35008873265E+04 0.  0.
        5    1    3    3  502    0  0.13275940308E+04  0.10916334499E+04 -0.19838976190E+03  0.17301878763E+04  0.46999998093E+01 0. -1.
       -5    1    3    3    0  502 -0.13275940308E+04 -0.10916334499E+04  0.46645778997E+03  0.17809476296E+04  0.46999998093E+01 0.  1.
</event>
<event>
 5   0  0.1121462E-08  0.3498236E+04  0.7818609E-02  0.8114208E-01
        3   -1    0    0  501    0  0.00000000000E+00  0.00000000000E+00  0.22843738713E+04  0.22843738735E+04  0.10100000352E+00 0. -1.
       -3   -1    0    0    0  501  0.00000000000E+00  0.00000000000E+00 -0.13392790301E+04  0.13392790339E+04  0.10100000352E+00 0.  1.
    10030    2    1    2    0    0  0.00000000000E+00  0.00000000000E+00  0.94509484122E+03  0.36236529074E+04  0.34982361462E+04 0.  0.
        5    1    3    3  502    0  0.99187231421E+03  0.72362867414E+02 -0.10179074017E+04  0.14230968486E+04  0.46999998093E+01 0.  1.
       -5    1    3    3    0  502 -0.99187231421E+03 -0.72362867414E+02  0.19630022429E+04  0.22005560588E+04  0.46999998093E+01 0. -1.
</event>
<event>
 5   0  0.3554451E-08  0.3500358E+04  0.7818609E-02  0.8113705E-01
        2   -1    0    0  501    0  0.00000000000E+00  0.00000000000E+00  0.12273775094E+04  0.12273775094E+04  0.25500000920E-02 0. -1.
       -2   -1    0    0    0  501  0.00000000000E+00  0.00000000000E+00 -0.24956674801E+04  0.24956674801E+04  0.25500000920E-02 0.  1.
    10030    2    1    2    0    0  0.00000000000E+00  0.00000000000E+00 -0.12682899708E+04  0.37230449895E+04  0.35003577737E+04 0.  0.
        5    1    3    3  502    0 -0.10549905096E+04  0.86492652328E+03  0.53196172670E+03  0.14642773763E+04  0.46999998093E+01 0. -1.
       -5    1    3    3    0  502  0.10549905096E+04 -0.86492652328E+03 -0.18002516975E+04  0.22587676132E+04  0.46999998093E+01 0.  1.
</event>
<event>
 5   0  0.3628017E-08  0.3500082E+04  0.7818609E-02  0.8113771E-01
        2   -1    0    0  501    0  0.00000000000E+00  0.00000000000E+00  0.30993634504E+04  0.30993634504E+04  0.25500000920E-02 0.  1.
       -2   -1    0    0    0  501  0.00000000000E+00  0.00000000000E+00 -0.98815226377E+03  0.98815226377E+03  0.25500000920E-02 0. -1.
    10030    2    1    2    0    0  0.00000000000E+00  0.00000000000E+00  0.21112111866E+04  0.40875157142E+04  0.35000817189E+04 0.  0.
        1    1    3    3  502    0 -0.82769886285E+03  0.70289516564E+02  0.28544560828E+04  0.29728682366E+04  0.50400001928E-02 0.  1.
       -1    1    3    3    0  502  0.82769886285E+03 -0.70289516564E+02 -0.74324489611E+03  0.11146474776E+04  0.50400001928E-02 0. -1.
</event>
<event>
 5   0  0.3700096E-08  0.3500864E+04  0.7818609E-02  0.8113585E-01
        2   -1    0    0  501    0  0.00000000000E+00  0.00000000000E+00  0.22962792981E+04  0.22962792981E+04  0.25500000920E-02 0.  1.
       -2   -1    0    0    0  501  0.00000000000E+00  0.00000000000E+00 -0.13343374818E+04  0.13343374818E+04  0.25500000920E-02 0. -1.
    10030    2    1    2    0    0  0.00000000000E+00  0.00000000000E+00  0.96194181628E+03  0.36306167799E+04  0.35008636284E+04 0.  0.
        4    1    3    3  502    0  0.17036081618E+04 -0.38736212293E+03  0.59304927843E+03  0.18450038598E+04  0.12699999809E+01 0. -1.
       -4    1    3    3    0  502 -0.17036081618E+04  0.38736212293E+03  0.36889253785E+03  0.17856129201E+04  0.12699999809E+01 0.  1.
</event>
<event>
 5   0  0.1140808E-08  0.3504545E+04  0.7818609E-02  0.8112714E-01
        1   -1    0    0  501    0  0.00000000000E+00  0.00000000000E+00  0.25303014952E+04  0.25303014953E+04  0.50400001928E-02 0. -1.
       -1   -1    0    0    0  501  0.00000000000E+00  0.00000000000E+00 -0.12134755084E+04  0.12134755084E+04  0.50400001928E-02 0.  1.
    10030    2    1    2    0    0  0.00000000000E+00  0.00000000000E+00  0.13168259868E+04  0.37437770037E+04  0.35045449881E+04 0.  0.
        3    1    3    3  502    0 -0.12447190140E+04  0.11502328091E+04  0.18294825152E+03  0.17046498209E+04  0.10100000352E+00 0. -1.
       -3    1    3    3    0  502  0.12447190140E+04 -0.11502328091E+04  0.11338777353E+04  0.20391271828E+04  0.10100000352E+00 0.  1.
</event>
<event>
 5   0  0.1121462E-08  0.3500531E+04  0.7818609E-02  0.8113664E-01
        1   -1    0    0  501    0  0.00000000000E+00  0.00000000000E+00  0.27938623789E+04  0.27938623789E+04  0.50400001928E-02 0. -1.
       -1   -1    0    0    0  501  0.00000000000E+00  0.00000000000E+00 -0.10964851721E+04  0.10964851721E+04  0.50400001928E-02 0.  1.
    10030    2    1    2    0    0  0.00000000000E+00  0.00000000000E+00  0.16973772068E+04  0.38903475509E+04  0.35005306291E+04 0.  0.
        4    1    3    3  502    0  0.73133888629E+03  0.13888296153E+04  0.17093449910E+04  0.23206822657E+04  0.12699999809E+01 0.  1.
       -4    1    3    3    0  502 -0.73133888629E+03 -0.13888296153E+04 -0.11967784190E+02  0.15696652853E+04  0.12699999809E+01 0. -1.
</event>
<event>
 5   0  0.3628017E-08  0.3502259E+04  0.7818609E-02  0.8113255E-01
        2   -1    0    0  501    0  0.00000000000E+00  0.00000000000E+00  0.15674587443E+04  0.15674587443E+04  0.25500000920E-02 0. -1.
       -2   -1    0    0    0  501  0.00000000000E+00  0.00000000000E+00 -0.19563220172E+04  0.19563220172E+04  0.25500000920E-02 0.  1.
    10030    2    1    2    0    0  0.00000000000E+00  0.00000000000E+00 -0.38886327285E+03  0.35237807615E+04  0.35022587297E+04 0.  0.
        1    1    3    3  502    0  0.77894612823E+03  0.28130004541E+03 -0.17468218007E+04  0.19332028320E+04  0.50400001928E-02 0.  1.
       -1    1    3    3    0  502 -0.77894612823E+03 -0.28130004541E+03  0.13579585279E+04  0.15905779295E+04  0.50400001928E-02 0. -1.
</event>
<event>
 5   0  0.1121462E-08  0.3500568E+04  0.7818609E-02  0.8113655E-01
        1   -1    0    0  501    0  0.00000000000E+00  0.00000000000E+00  0.30532401491E+04  0.30532401491E+04  0.50400001928E-02 0. -1.
       -1   -1    0    0    0  501  0.00000000000E+00  0.00000000000E+00 -0.10033585869E+04  0.10033585869E+04  0.50400001928E-02 0.  1.
    10030    2    1    2    0    0  0.00000000000E+00  0.00000000000E+00  0.20498815622E+04  0.40565987360E+04  0.35005683661E+04 0.  0.
        1    1    3    3  502    0  0.42652091954E+03 -0.15532777757E+03  0.29838425034E+04  0.30181721122E+04  0.50400001928E-02 0. -1.
       -1    1    3    3    0  502 -0.42652091954E+03  0.15532777757E+03 -0.93396094122E+03  0.10384266238E+04  0.50400001928E-02 0.  1.
</event>
<event>
 5   0  0.3700096E-08  0.3501189E+04  0.7818609E-02  0.8113508E-01
       -2   -1    0    0    0  501  0.00000000000E+00  0.00000000000E+00  0.13863614603E+04  0.13863614603E+04  0.25500000920E-02 0.  1.
        2   -1    0    0  501    0  0.00000000000E+00  0.00000000000E+00 -0.22105213571E+04  0.22105213571E+04  0.25500000920E-02 0. -1.
    10030    2    1    2    0    0  0.00000000000E+00  0.00000000000E+00 -0.82415989677E+03  0.35968828174E+04  0.35011892932E+04 0.  0.
        4    1    3    3  502    0  0.45911653266E+03 -0.10272572362E+04  0.96566901876E+03  0.14827554372E+04  0.12699999809E+01 0.  1.
       -4    1    3    3    0  502 -0.45911653266E+03  0.10272572362E+04 -0.17898289155E+04  0.21141273802E+04  0.12699999809E+01 0. -1.
</event>
<event>
 5   0  0.3554451E-08  0.3498451E+04  0.7818609E-02  0.8114157E-01
        2   -1    0    0  501    0  0.00000000000E+00  0.00000000000E+00  0.20937266241E+04  0.20937266241E+04  0.25500000920E-02 0. -1.
       -2   -1    0    0    0  501  0.00000000000E+00  0.00000000000E+00 -0.14614080657E+04  0.14614080657E+04  0.25500000920E-02 0.  1.
    10030    2    1    2    0    0  0.00000000000E+00  0.00000000000E+00  0.63231855840E+03  0.35551346899E+04  0.34984505004E+04 0.  0.
        5    1    3    3  502    0 -0.15226786464E+02 -0.45089198500E+03  0.20335812874E+04  0.20830291356E+04  0.46999998093E+01 0. -1.
       -5    1    3    3    0  502  0.15226786464E+02  0.45089198500E+03 -0.14012627290E+04  0.14721055543E+04  0.46999998093E+01 0.  1.
</event>
<event>
 5   0  0.3554451E-08  0.3500286E+04  0.7818609E-02  0.8113722E-01
       -2   -1    0    0    0  501  0.00000000000E+00  0.00000000000E+00  0.31982844027E+04  0.31982844027E+04  0.25500000920E-02 0.  1.
        2   -1    0    0  501    0  0.00000000000E+00  0.00000000000E+00 -0.95770084634E+03  0.95770084634E+03  0.25500000920E-02 0. -1.
    10030    2    1    2    0    0  0.00000000000E+00  0.00000000000E+00  0.22405835563E+04  0.41559852490E+04  0.35002855194E+04 0.  0.
        5    1    3    3  502    0 -0.10748979969E+04  0.11411049678E+04  0.19642330367E+03  0.15799146988E+04  0.46999998093E+01 0. -1.
       -5    1    3    3    0  502  0.10748979969E+04 -0.11411049678E+04  0.20441602527E+04  0.25760705502E+04  0.46999998093E+01 0.  1.
</event>
<event>
 5   0  0.1121462E-08  0.3500056E+04  0.7818609E-02  0.8113777E-01
       -1   -1    0    0    0  501  0.00000000000E+00  0.00000000000E+00  0.15929636334E+04  0.15929636334E+04  0.50400001928E-02 0. -1.
        1   -1    0    0  501    0  0.00000000000E+00  0.00000000000E+00 -0.19225788664E+04  0.19225788664E+04  0.50400001928E-02 0.  1.
    10030    2    1    2    0    0  0.00000000000E+00  0.00000000000E+00 -0.32961523300E+03  0.35155424998E+04  0.35000561233E+04 0.  0.
        4    1    3    3  502    0 -0.60622727261E+03  0.10591898511E+04 -0.14246307628E+04  0.18758915400E+04  0.12699999809E+01 0.  1.
       -4    1    3    3    0  502  0.60622727261E+03 -0.10591898511E+04  0.10950155298E+04  0.16396509598E+04  0.12699999809E+01 0. -1.
</event>
<event>
 5   0  0.1121462E-08  0.3503026E+04  0.7818609E-02  0.8113073E-01
       -1   -1    0    0    0  501  0.00000000000E+00  0.00000000000E+00  0.24409094968E+04  0.24409094968E+04  0.50400001928E-02 0. -1.
        1   -1    0    0  501    0  0.00000000000E+00  0.00000000000E+00 -0.12568256608E+04  0.12568256608E+04  0.50400001928E-02 0.  1.
    10030    2    1    2    0    0  0.00000000000E+00  0.00000000000E+00  0.11840838361E+04  0.36977351576E+04  0.35030259441E+04 0.  0.
        4    1    3    3  502    0  0.15460763592E+04 -0.41249808656E+01  0.14608496658E+04  0.21270760407E+04  0.12699999809E+01 0. -1.
       -4    1    3    3    0  502 -0.15460763592E+04  0.41249808656E+01 -0.27676582975E+03  0.15706591169E+04  0.12699999809E+01 0.  1.
</event>
<event>
 5   0  0.1121462E-08  0.3500667E+04  0.7818609E-02  0.8113632E-01
       -1   -1    0    0    0  501  0.00000000000E+00  0.00000000000E+00  0.14083186326E+04  0.14083186326E+04  0.50400001928E-02 0.  1.
        1   -1    0    0  501    0  0.00000000000E+00  0.00000000000E+00 -0.21754078102E+04  0.21754078102E+04  0.50400001928E-02 0. -1.
    10030    2    1    2    0    0  0.00000000000E+00  0.00000000000E+00 -0.76708917764E+03  0.35837264428E+04  0.35006669950E+04 0.  0.
        1    1    3    3  502    0  0.56554985958E+03 -0.63218078200E+03  0.11838503256E+04  0.14563656059E+04  0.50400001928E-02 0.  1.
       -1    1    3    3    0  502 -0.56554985958E+03  0.63218078200E+03 -0.19509395032E+04  0.21273608368E+04  0.50400001928E-02 0. -1.
</event>
<event>
 5   0  0.3554451E-08  0.3499830E+04  0.7818609E-02  0.8113830E-01
       -2   -1    0    0    0  501  0.00000000000E+00  0.00000000000E+00  0.12419779065E+04  0.12419779065E+04  0.25500000920E-02 0. -1.
        2   -1    0    0  501    0  0.00000000000E+00  0.00000000000E+00 -0.24655851294E+04  0.24655851295E+04  0.25500000920E-02 0.  1.
    10030    2    1    2    0    0  0.00000000000E+00  0.00000000000E+00 -0.12236072229E+04  0.37075630360E+04  0.34998298572E+04 0.  0.
        5    1    3    3  502    0  0.26368790088E+03  0.16613208472E+04 -0.10082320457E+03  0.16851426275E+04  0.46999998093E+01 0. -1.
       -5    1    3    3    0  502 -0.26368790088E+03 -0.16613208472E+04 -0.11227840184E+04  0.20224204084E+04  0.46999998093E+01 0.  1.
</event>
<event>
 5   0  0.3628017E-08  0.3499589E+04  0.7818609E-02  0.8113887E-01
        2   -1    0    0  501    0  0.00000000000E+00  0.00000000000E+00  0.27986010443E+04  0.27986010443E+04  0.25500000920E-02 0. -1.
       -2   -1    0    0    0  501  0.00000000000E+00  0.00000000000E+00 -0.10940398784E+04  0.10940398784E+04  0.25500000920E-02 0.  1.
    10030    2    1    2    0    0  0.00000000000E+00  0.00000000000E+00  0.17045611659E+04  0.38926409227E+04  0.34995892022E+04 0.  0.
        1    1    3    3  502    0 -0.63631458128E+03  0.14977023855E+04  0.15677779979E+04  0.22596319463E+04  0.50400001928E-02 0. -1.
       -1    1    3    3    0  502  0.63631458128E+03 -0.14977023855E+04  0.13678316798E+03  0.16330089764E+04  0.50400001928E-02 0.  1.
</event>
<event>
 5   0  0.3628017E-08  0.3501045E+04  0.7818609E-02  0.8113542E-01
        2   -1    0    0  501    0  0.00000000000E+00  0.00000000000E+00  0.22038505271E+04  0.22038505271E+04  0.25500000920E-02 0.  1.
       -2   -1    0    0    0  501  0.00000000000E+00  0.00000000000E+00 -0.13904432369E+04  0.13904432369E+04  0.25500000920E-02 0. -1.
    10030    2    1    2    0    0  0.00000000000E+00  0.00000000000E+00  0.81340729015E+03  0.35942937640E+04  0.35010450214E+04 0.  0.
        1    1    3    3  502    0 -0.90141347176E+03 -0.14172807045E+04 -0.99478429605E+02  0.16825952575E+04  0.50400001928E-02 0. -1.
       -1    1    3    3    0  502  0.90141347176E+03  0.14172807045E+04  0.91288571975E+03  0.19116985065E+04  0.50400001928E-02 0.  1.
</event>
<event>
 5   0  0.3628017E-08  0.3499543E+04  0.7818609E-02  0.8113898E-01
        2   -1    0    0  501    0  0.00000000000E+00  0.00000000000E+00  0.23252536895E+04  0.23252536895E+04  0.25500000920E-02 0. -1.
       -2   -1    0    0    0  501  0.00000000000E+00  0.00000000000E+00 -0.13167167496E+04  0.13167167496E+04  0.25500000920E-02 0.  1.
    10030    2    1    2    0    0  0.00000000000E+00  0.00000000000E+00  0.10085369399E+04  0.36419704391E+04  0.34995431016E+04 0.  0.
        1    1    3    3  502    0  0.30893421383E+03  0.16920101186E+04  0.83885256379E+03  0.19136384752E+04  0.50400001928E-02 0.  1.
       -1    1    3    3    0  502 -0.30893421383E+03 -0.16920101186E+04  0.16968437608E+03  0.17283319639E+04  0.50400001928E-02 0. -1.
</event>
<event>
 5   0  0.1121462E-08  0.3500109E+04  0.7818609E-02  0.8113764E-01
        1   -1    0    0  501    0  0.00000000000E+00  0.00000000000E+00  0.13828308305E+04  0.13828308305E+04  0.50400001928E-02 0.  1.
       -1   -1    0    0    0  501  0.00000000000E+00  0.00000000000E+00 -0.22147976911E+04  0.22147976911E+04  0.50400001928E-02 0. -1.
    10030    2    1    2    0    0  0.00000000000E+00  0.00000000000E+00 -0.83196686062E+03  0.35976285216E+04  0.35001088730E+04 0.  0.
        2    1    3    3  502    0  0.14019965479E+04 -0.47319470364E+03 -0.13764613729E+04  0.20209288604E+04  0.25500000920E-02 0. -1.
       -2    1    3    3    0  502 -0.14019965479E+04  0.47319470364E+03  0.54449451229E+03  0.15766996612E+04  0.25500000920E-02 0.  1.
</event>
<event>
 5   0  0.1129219E-08  0.3498365E+04  0.7818609E-02  0.8114177E-01
        1   -1    0    0  501    0  0.00000000000E+00  0.00000000000E+00  0.13481794013E+04  0.13481794013E+04  0.50400001928E-02 0. -1.
       -1   -1    0    0    0  501  0.00000000000E+00  0.00000000000E+00 -0.22694606558E+04  0.22694606558E+04  0.50400001928E-02 0.  1.
    10030    2    1    2    0    0  0.00000000000E+00  0.00000000000E+00 -0.92128125451E+03  0.36176400572E+04  0.34983653945E+04 0.  0.
        5    1    3    3  502    0  0.10588096548E+04  0.15747451778E+03 -0.18911867656E+04  0.21731280637E+04  0.46999998093E+01 0.  1.
       -5    1    3    3    0  502 -0.10588096548E+04 -0.15747451778E+03  0.96990551110E+03  0.14445119935E+04  0.46999998093E+01 0. -1.
</event>
<event>
 5   0  0.3554451E-08  0.3498402E+04  0.7818609E-02  0.8114169E-01
        2   -1    0    0  501    0  0.00000000000E+00  0.00000000000E+00  0.19408463183E+04  0.19408463183E+04  0.25500000920E-02 0.  1.
       -2   -1    0    0    0  501  0.00000000000E+00  0.00000000000E+00 -0.15764789685E+04  0.15764789685E+04  0.25500000920E-02 0. -1.
    10030    2    1    2    0    0  0.00000000000E+00  0.00000000000E+00  0.36436734980E+03  0.35173252869E+04  0.34984015790E+04 0.  0.
        5    1    3    3  502    0 -0.12802796867E+04 -0.11182484148E+04  0.59682902405E+03  0.18016166538E+04  0.46999998093E+01 0.  1.
       -5    1    3    3    0  502  0.12802796867E+04  0.11182484148E+04 -0.23246167425E+03  0.17157086330E+04  0.46999998093E+01 0. -1.
</event>
<event>
 5   0  0.1121462E-08  0.3500457E+04  0.7818609E-02  0.8113682E-01
       -1   -1    0    0    0  501  0.00000000000E+00  0.00000000000E+00  0.23291338986E+04  0.23291338986E+04  0.50400001928E-02 0.  1.
        1   -1    0    0  501    0  0.00000000000E+00  0.00000000000E+00 -0.13152094680E+04  0.13152094681E+04  0.50400001928E-02 0. -1.
    10030    2    1    2    0    0  0.00000000000E+00  0.00000000000E+00  0.10139244305E+04  0.36443433666E+04  0.35004565164E+04 0.  0.
        4    1    3    3  502    0  0.34024593880E+03 -0.14042437636E+04 -0.52137857507E+03  0.15360680577E+04  0.12699999809E+01 0. -1.
       -4    1    3    3    0  502 -0.34024593880E+03  0.14042437636E+04  0.15353030056E+04  0.21082753089E+04  0.12699999809E+01 0.  1.
</event>
<event>
 5   0  0.3553585E-08  0.3499537E+04  0.7818609E-02  0.8113900E-01
        2   -1    0    0  501    0  0.00000000000E+00  0.00000000000E+00  0.25396484886E+04  0.25396484886E+04  0.25500000920E-02 0.  1.
       -2   -1    0    0    0  501  0.00000000000E+00  0.00000000000E+00 -0.12055568178E+04  0.12055568178E+04  0.25500000920E-02 0. -1.
    10030    2    1    2    0    0  0.00000000000E+00  0.00000000000E+00  0.13340916709E+04  0.37452053064E+04  0.34995374267E+04 0.  0.
        2    1    3    3  502    0 -0.16703352532E+04 -0.47930927205E+03  0.44789426885E+03  0.17945379663E+04  0.25500000920E-02 0.  1.
       -2    1    3    3    0  502  0.16703352532E+04  0.47930927205E+03  0.88619740200E+03  0.19506673401E+04  0.25500000920E-02 0. -1.
</event>
<event>
 5   0  0.1121462E-08  0.3498530E+04  0.7818609E-02  0.8114138E-01
       -1   -1    0    0    0  501  0.00000000000E+00  0.00000000000E+00  0.19103944668E+04  0.19103944668E+04  0.50400001928E-02 0. -1.
        1   -1    0    0  501    0  0.00000000000E+00  0.00000000000E+00 -0.16017254247E+04  0.16017254247E+04  0.50400001928E-02 0.  1.
    10030    2    1    2    0    0  0.00000000000E+00  0.00000000000E+00  0.30866904216E+03  0.35121198915E+04  0.34985296275E+04 0.  0.
        1    1    3    3  502    0 -0.11619163986E+04  0.53985341103E+03 -0.10412730157E+04  0.16509818036E+04  0.50400001928E-02 0.  1.
       -1    1    3    3    0  502  0.11619163986E+04 -0.53985341103E+03  0.13499420578E+04  0.18611380879E+04  0.50400001928E-02 0. -1.
</event>
<event>
 5   0  0.3467834E-08  0.3502723E+04  0.7818609E-02  0.8113145E-01
        2   -1    0    0  501    0  0.00000000000E+00  0.00000000000E+00  0.19642664895E+04  0.19642664895E+04  0.25500000920E-02 0. -1.
       -2   -1    0    0    0  501  0.00000000000E+00  0.00000000000E+00 -0.15615331753E+04  0.15615331753E+04  0.25500000920E-02 0.  1.
    10030    2    1    2    0    0  0.00000000000E+00  0.00000000000E+00  0.40273331420E+03  0.35257996648E+04  0.35027231055E+04 0.  0.
        3    1    3    3  502    0  0.20935233200E+03  0.60829928615E+03 -0.14382943770E+04  0.15756100867E+04  0.10100000352E+00 0.  1.
       -3    1    3    3    0  502 -0.20935233200E+03 -0.60829928615E+03  0.18410276912E+04  0.19501895780E+04  0.10100000352E+00 0. -1.
</event>
<event>
 5   0  0.3554451E-08  0.3500589E+04  0.7818609E-02  0.8113650E-01
       -2   -1    0    0    0  501  0.00000000000E+00  0.00000000000E+00  0.11244206505E+04  0.11244206505E+04  0.25500000920E-02 0. -1.
        2   -1    0    0  501    0  0.00000000000E+00  0.00000000000E+00 -0.27245420030E+04  0.27245420030E+04  0.25500000920E-02 0.  1.
    10030    2    1    2    0    0  0.00000000000E+00  0.00000000000E+00 -0.16001213525E+04  0.38489626535E+04  0.35005892597E+04 0.  0.
        5    1    3    3  502    0 -0.94172755021E+02 -0.36997927343E+01 -0.27217431737E+04  0.27233784514E+04  0.46999998093E+01 0.  1.
       -5    1    3    3    0  502  0.94172755021E+02  0.36997927343E+01  0.11216218211E+04  0.11255842021E+04  0.46999998093E+01 0. -1.
</event>
<event>
 5   0  0.1121462E-08  0.3498647E+04  0.7818609E-02  0.8114111E-01
        1   -1    0    0  501    0  0.00000000000E+00  0.00000000000E+00  0.12885680154E+04  0.12885680155E+04  0.50400001928E-02 0. -1.
       -1   -1    0    0    0  501  0.00000000000E+00  0.00000000000E+00 -0.23748320966E+04  0.23748320966E+04  0.50400001928E-02 0.  1.
    10030    2    1    2    0    0  0.00000000000E+00  0.00000000000E+00 -0.10862640812E+04  0.36634001121E+04  0.34986469852E+04 0.  0.
        1    1    3    3  502    0 -0.15304392897E+04 -0.30320756768E+03 -0.13715609445E+04  0.20773441393E+04  0.50400001928E-02 0.  1.
       -1    1    3    3    0  502  0.15304392897E+04  0.30320756768E+03  0.28529686331E+03  0.15860559728E+04  0.50400001928E-02 0. -1.
</event>
<event>
 5   0  0.1121462E-08  0.3500835E+04  0.7818609E-02  0.8113592E-01
        1   -1    0    0  501    0  0.00000000000E+00  0.00000000000E+00  0.19527795088E+04  0.19527795088E+04  0.50400001928E-02 0. -1.
       -1   -1    0    0    0  501  0.00000000000E+00  0.00000000000E+00 -0.15690256414E+04  0.15690256414E+04  0.50400001928E-02 0.  1.
    10030    2    1    2    0    0  0.00000000000E+00  0.00000000000E+00  0.38375386739E+03  0.35218051502E+04  0.35008348269E+04 0.  0.
        4    1    3    3  502    0 -0.14251907583E+04 -0.60322252979E+02 -0.82867115188E+03  0.16496984460E+04  0.12699999809E+01 0.  1.
       -4    1    3    3    0  502  0.14251907583E+04  0.60322252979E+02  0.12124250193E+04  0.18721067042E+04  0.12699999809E+01 0. -1.
</event>
<event>
 5   0  0.1121462E-08  0.3501584E+04  0.7818609E-02  0.8113415E-01
       -3   -1    0    0    0  501  0.00000000000E+00  0.00000000000E+00  0.10361266123E+04  0.10361266173E+04  0.10100000352E+00 0.  1.
        3   -1    0    0  501    0  0.00000000000E+00  0.00000000000E+00 -0.29583957688E+04  0.29583957705E+04  0.10100000352E+00 0. -1.
    10030    2    1    2    0    0  0.00000000000E+00  0.00000000000E+00 -0.19222691564E+04  0.39945223878E+04  0.35015839839E+04 0.  0.
        3    1    3    3  502    0 -0.46962777560E+03  0.15037357183E+04 -0.89727264546E+02  0.15779170923E+04  0.10100000352E+00 0.  1.
       -3    1    3    3    0  502  0.46962777560E+03 -0.15037357183E+04 -0.18325418919E+04  0.24166052954E+04  0.10100000352E+00 0. -1.
</event>
<event>
 5   0  0.1129219E-08  0.3499922E+04  0.7818609E-02  0.8113808E-01
        1   -1    0    0  501    0  0.00000000000E+00  0.00000000000E+00  0.16704910767E+04  0.16704910767E+04  0.50400001928E-02 0.  1.
       -1   -1    0    0    0  501  0.00000000000E+00  0.00000000000E+00 -0.18332119103E+04  0.18332119103E+04  0.50400001928E-02 0. -1.
    10030    2    1    2    0    0  0.00000000000E+00  0.00000000000E+00 -0.16272083363E+03  0.35037029871E+04  0.34999223637E+04 0.  0.
        5    1    3    3  502    0 -0.17450061789E+04 -0.11227407443E+03 -0.14991808352E+03  0.17550354851E+04  0.46999998093E+01 0. -1.
       -5    1    3    3    0  502  0.17450061789E+04  0.11227407443E+03 -0.12802750111E+02  0.17486675020E+04  0.46999998093E+01 0.  1.
</event>
<event>
 5   0  0.3554451E-08  0.3498999E+04  0.7818609E-02  0.8114027E-01
        2   -1    0    0  501    0  0.00000000000E+00  0.00000000000E+00  0.15008954007E+04  0.15008954007E+04  0.25500000920E-02 0. -1.
       -2   -1    0    0    0  501  0.00000000000E+00  0.00000000000E+00 -0.20392817835E+04  0.20392817835E+04  0.25500000920E-02 0.  1.
    10030    2    1    2    0    0  0.00000000000E+00  0.00000000000E+00 -0.53838638283E+03  0.35401771842E+04  0.34989990852E+04 0.  0.
        5    1    3    3  502    0  0.29978614772E+03  0.15464898421E+04  0.50083112820E+03  0.16529841121E+04  0.46999998093E+01 0. -1.
       -5    1    3    3    0  502 -0.29978614772E+03 -0.15464898421E+04 -0.10392175110E+04  0.18871930721E+04  0.46999998093E+01 0.  1.
</event>
<event>
 5   0  0.3554451E-08  0.3499809E+04  0.7818609E-02  0.8113835E-01
       -2   -1    0    0    0  501  0.00000000000E+00  0.00000000000E+00  0.12243112718E+04  0.12243112718E+04  0.25500000920E-02 0.  1.
        2   -1    0    0  501    0  0.00000000000E+00  0.00000000000E+00 -0.25011340049E+04  0.25011340049E+04  0.25500000920E-02 0. -1.
    10030    2    1    2    0    0  0.00000000000E+00  0.00000000000E+00 -0.12768227331E+04  0.37254452767E+04  0.34998094545E+04 0.  0.
        5    1    3    3  502    0 -0.14590760062E+04 -0.96443010815E+03 -0.69783362633E+03  0.18830884434E+04  0.46999998093E+01 0. -1.
       -5    1    3    3    0  502  0.14590760062E+04  0.96443010815E+03 -0.57898910677E+03  0.18423568333E+04  0.46999998093E+01 0.  1.
</event>
<event>
 5   0  0.3467834E-08  0.3505488E+04  0.7818609E-02  0.8112491E-01
        2   -1    0    0  501    0  0.00000000000E+00  0.00000000000E+00  0.25074309664E+04  0.25074309664E+04  0.25500000920E-02 0. -1.
       -2   -1    0    0    0  501  0.00000000000E+00  0.00000000000E+00 -0.12252026369E+04  0.12252026369E+04  0.25500000920E-02 0.  1.
    10030    2    1    2    0    0  0.00000000000E+00  0.00000000000E+00  0.12822283295E+04  0.37326336034E+04  0.35054877162E+04 0.  0.
        3    1    3    3  502    0  0.43310989532E+03  0.16653688096E+04  0.28624172364E+03  0.17444115879E+04  0.10100000352E+00 0.  1.
       -3    1    3    3    0  502 -0.43310989532E+03 -0.16653688096E+04  0.99598660586E+03  0.19882220155E+04  0.10100000352E+00 0. -1.
</event>
<event>
 5   0  0.3554451E-08  0.3502042E+04  0.7818609E-02  0.8113306E-01
       -2   -1    0    0    0  501  0.00000000000E+00  0.00000000000E+00  0.13033095702E+04  0.13033095702E+04  0.25500000920E-02 0.  1.
        2   -1    0    0  501    0  0.00000000000E+00  0.00000000000E+00 -0.23525292550E+04  0.23525292550E+04  0.25500000920E-02 0. -1.
    10030    2    1    2    0    0  0.00000000000E+00  0.00000000000E+00 -0.10492196848E+04  0.36558388251E+04  0.35020416286E+04 0.  0.
        5    1    3    3  502    0  0.11811619083E+04 -0.10624497821E+04 -0.12932250424E+04  0.20485107013E+04  0.46999998093E+01 0. -1.
       -5    1    3    3    0  502 -0.11811619083E+04  0.10624497821E+04  0.24400535756E+03  0.16073281238E+04  0.46999998093E+01 0.  1.
</event>
<event>
 5   0  0.1121462E-08  0.3518870E+04  0.7818609E-02  0.8109332E-01
        1   -1    0    0  501    0  0.00000000000E+00  0.00000000000E+00  0.23667784248E+04  0.23667784248E+04  0.50400001928E-02 0.  1.
       -1   -1    0    0    0  501  0.00000000000E+00  0.00000000000E+00 -0.13079431967E+04  0.13079431967E+04  0.50400001928E-02 0. -1.
    10030    2    1    2    0    0  0.00000000000E+00  0.00000000000E+00  0.10588352281E+04  0.36747216214E+04  0.35188701247E+04 0.  0.
        2    1    3    3  502    0  0.10301198181E+04  0.72513032228E+03 -0.75325430435E+03  0.14677713960E+04  0.25500000920E-02 0. -1.
       -2    1    3    3    0  502 -0.10301198181E+04 -0.72513032228E+03  0.18120895325E+04  0.22069502254E+04  0.25500000920E-02 0.  1.
</event>
<event>
 5   0  0.3467834E-08  0.3501260E+04  0.7818609E-02  0.8113491E-01
        2   -1    0    0  501    0  0.00000000000E+00  0.00000000000E+00  0.21875296222E+04  0.21875296222E+04  0.25500000920E-02 0.  1.
       -2   -1    0    0    0  501  0.00000000000E+00  0.00000000000E+00 -0.14009891894E+04  0.14009891894E+04  0.25500000920E-02 0. -1.
    10030    2    1    2    0    0  0.00000000000E+00  0.00000000000E+00  0.78654043271E+03  0.35885188116E+04  0.35012599745E+04 0.  0.
        3    1    3    3  502    0 -0.77717277405E+03 -0.12847634068E+04  0.13157518343E+04  0.19964512094E+04  0.10100000352E+00 0.  1.
       -3    1    3    3    0  502  0.77717277405E+03  0.12847634068E+04 -0.52921140155E+03  0.15920676022E+04  0.10100000352E+00 0. -1.
</event>
<event>
 5   0  0.3700096E-08  0.3501075E+04  0.7818609E-02  0.8113535E-01
        2   -1    0    0  501    0  0.00000000000E+00  0.00000000000E+00  0.15326773232E+04  0.15326773232E+04  0.25500000920E-02 0. -1.
       -2   -1    0    0    0  501  0.00000000000E+00  0.00000000000E+00 -0.19993651132E+04  0.19993651132E+04  0.25500000920E-02 0.  1.
    10030    2    1    2    0    0  0.00000000000E+00  0.00000000000E+00 -0.46668779001E+03  0.35320424363E+04  0.35010750176E+04 0.  0.
        4    1    3    3  502    0 -0.26110747213E+03  0.49395950288E+03 -0.19069954001E+04  0.19871603285E+04  0.12699999809E+01 0.  1.
       -4    1    3    3    0  502  0.26110747213E+03 -0.49395950288E+03  0.14403076101E+04  0.15448821078E+04  0.12699999809E+01 0. -1.
</event>
<event>
 5   0  0.3467834E-08  0.3499520E+04  0.7818609E-02  0.8113904E-01
       -2   -1    0    0    0  501  0.00000000000E+00  0.00000000000E+00  0.14718447917E+04  0.14718447917E+04  0.25500000920E-02 0.  1.
        2   -1    0    0  501    0  0.00000000000E+00  0.00000000000E+00 -0.20801511915E+04  0.20801511915E+04  0.25500000920E-02 0. -1.
    10030    2    1    2    0    0  0.00000000000E+00  0.00000000000E+00 -0.60830639980E+03  0.35519959831E+04  0.34995197939E+04 0.  0.
        3    1    3    3  502    0 -0.69461257277E+03  0.16051817314E+04 -0.25275123316E+03  0.17671950128E+04  0.10100000352E+00 0. -1.
       -3    1    3    3    0  502  0.69461257277E+03 -0.16051817314E+04 -0.35555516664E+03  0.17848009704E+04  0.10100000352E+00 0.  1.
</event>
<event>
 5   0  0.1121462E-08  0.3494290E+04  0.7818609E-02  0.8115144E-01
        1   -1    0    0  501    0  0.00000000000E+00  0.00000000000E+00  0.10153868165E+04  0.10153868165E+04  0.50400001928E-02 0. -1.
       -1   -1    0    0    0  501  0.00000000000E+00  0.00000000000E+00 -0.30062589121E+04  0.30062589121E+04  0.50400001928E-02 0.  1.
    10030    2    1    2    0    0  0.00000000000E+00  0.00000000000E+00 -0.19908720955E+04  0.40216457286E+04  0.34942900088E+04 0.  0.
        2    1    3    3  502    0 -0.40134669591E+02  0.10371656601E+04  0.62208355449E+03  0.12100873303E+04  0.25500000920E-02 0. -1.
       -2    1    3    3    0  502  0.40134669591E+02 -0.10371656601E+04 -0.26129556500E+04  0.28115583983E+04  0.25500000920E-02 0.  1.
</event>
<event>
 5   0  0.3553585E-08  0.3500594E+04  0.7818609E-02  0.8113649E-01
        2   -1    0    0  501    0  0.00000000000E+00  0.00000000000E+00  0.21106156582E+04  0.21106156582E+04  0.25500000920E-02 0. -1.
       -2   -1    0    0    0  501  0.00000000000E+00  0.00000000000E+00 -0.14514909156E+04  0.14514909156E+04  0.25500000920E-02 0.  1.
    10030    2    1    2    0    0  0.00000000000E+00  0.00000000000E+00  0.65912474255E+03  0.35621065738E+04  0.35005939234E+04 0.  0.
        2    1    3    3  502    0 -0.54948682040E+03  0.82567858291E+02 -0.13593578154E+04  0.14685390316E+04  0.25500000920E-02 0.  1.
       -2    1    3    3    0  502  0.54948682040E+03 -0.82567858291E+02  0.20184825579E+04  0.20935675422E+04  0.25500000920E-02 0. -1.
</event>
<event>
 5   0  0.1121462E-08  0.3499815E+04  0.7818609E-02  0.8113834E-01
       -1   -1    0    0    0  501  0.00000000000E+00  0.00000000000E+00  0.17911976750E+04  0.17911976750E+04  0.50400001928E-02 0.  1.
        1   -1    0    0  501    0  0.00000000000E+00  0.00000000000E+00 -0.17095686661E+04  0.17095686661E+04  0.50400001928E-02 0. -1.
    10030    2    1    2    0    0  0.00000000000E+00  0.00000000000E+00  0.81629008868E+02  0.35007663411E+04  0.34998145208E+04 0.  0.
        4    1    3    3  502    0 -0.24640716596E+03 -0.14419548246E+04  0.10014004138E+04  0.17727816022E+04  0.12699999809E+01 0.  1.
       -4    1    3    3    0  502  0.24640716596E+03  0.14419548246E+04 -0.91977140489E+03  0.17279847389E+04  0.12699999809E+01 0. -1.
</event>
<event>
 5   0  0.1121462E-08  0.3497838E+04  0.7818609E-02  0.8114303E-01
        1   -1    0    0  501    0  0.00000000000E+00  0.00000000000E+00  0.24346355957E+04  0.24346355957E+04  0.50400001928E-02 0.  1.
       -1   -1    0    0    0  501  0.00000000000E+00  0.00000000000E+00 -0.12563346722E+04  0.12563346722E+04  0.50400001928E-02 0. -1.
    10030    2    1    2    0    0  0.00000000000E+00  0.00000000000E+00  0.11783009236E+04  0.36909702679E+04  0.34978376824E+04 0.  0.
        4    1    3    3  502    0 -0.12489200453E+04  0.49416616275E+03  0.17711390152E+04  0.22228217428E+04  0.12699999809E+01 0.  1.
       -4    1    3    3    0  502  0.12489200453E+04 -0.49416616275E+03 -0.59283809166E+03  0.14681485251E+04  0.12699999809E+01 0. -1.
</event>
<event>
 5   0  0.3700096E-08  0.3482859E+04  0.7818609E-02  0.8117864E-01
       -2   -1    0    0    0  501  0.00000000000E+00  0.00000000000E+00  0.22615479543E+04  0.22615479543E+04  0.25500000920E-02 0.  1.
        2   -1    0    0  501    0  0.00000000000E+00  0.00000000000E+00 -0.13409298866E+04  0.13409298866E+04  0.25500000920E-02 0. -1.
    10030    2    1    2    0    0  0.00000000000E+00  0.00000000000E+00  0.92061806770E+03  0.36024778409E+04  0.34828593092E+04 0.  0.
        4    1    3    3  502    0 -0.94473054330E+02  0.16177095761E+04 -0.19929670370E+03  0.16326757852E+04  0.12699999809E+01 0. -1.
       -4    1    3    3    0  502  0.94473054330E+02 -0.16177095761E+04  0.11199147714E+04  0.19698020557E+04  0.12699999809E+01 0.  1.
</event>
<event>
 5   0  0.1129219E-08  0.3499573E+04  0.7818609E-02  0.8113891E-01
       -1   -1    0    0    0  501  0.00000000000E+00  0.00000000000E+00  0.10350273342E+04  0.10350273342E+04  0.50400001928E-02 0. -1.
        1   -1    0    0  501    0  0.00000000000E+00  0.00000000000E+00 -0.29581363926E+04  0.29581363926E+04  0.50400001928E-02 0.  1.
    10030    2    1    2    0    0  0.00000000000E+00  0.00000000000E+00 -0.19231090584E+04  0.39931637268E+04  0.34995725594E+04 0.  0.
        5    1    3    3  502    0  0.14493500577E+03  0.16734501130E+03  0.10189756237E+04  0.10427578436E+04  0.46999998093E+01 0. -1.
       -5    1    3    3    0  502 -0.14493500577E+03 -0.16734501130E+03 -0.29420846821E+04  0.29504058832E+04  0.46999998093E+01 0.  1.
</event>
<event>
 5   0  0.1121462E-08  0.3495768E+04  0.7818609E-02  0.8114794E-01
        1   -1    0    0  501    0  0.00000000000E+00  0.00000000000E+00  0.23382695600E+04  0.23382695600E+04  0.50400001928E-02 0.  1.
       -1   -1    0    0    0  501  0.00000000000E+00  0.00000000000E+00 -0.13065641181E+04  0.13065641181E+04  0.50400001928E-02 0. -1.
    10030    2    1    2    0    0  0.00000000000E+00  0.00000000000E+00  0.10317054419E+04  0.36448336781E+04  0.34957683593E+04 0.  0.
        2    1    3    3  502    0 -0.91647683776E+03 -0.13325809914E+04  0.12069890420E+04  0.20180496625E+04  0.25500000920E-02 0.  1.
       -2    1    3    3    0  502  0.91647683776E+03  0.13325809914E+04 -0.17528360010E+03  0.16267840156E+04  0.25500000920E-02 0. -1.
</event>
<event>
 5   0  0.3467834E-08  0.3500094E+04  0.7818609E-02  0.8113768E-01
       -2   -1    0    0    0  501  0.00000000000E+00  0.00000000000E+00  0.18557916682E+04  0.18557916682E+04  0.25500000920E-02 0. -1.
        2   -1    0    0  501    0  0.00000000000E+00  0.00000000000E+00 -0.16503275506E+04  0.16503275506E+04  0.25500000920E-02 0.  1.
    10030    2    1    2    0    0  0.00000000000E+00  0.00000000000E+00  0.20546411764E+03  0.35061192188E+04  0.35000937806E+04 0.  0.
        3    1    3    3  502    0  0.11930564282E+03  0.10266677391E+04 -0.13119255778E+04  0.16701584401E+04  0.10100000352E+00 0.  1.
       -3    1    3    3    0  502 -0.11930564282E+03 -0.10266677391E+04  0.15173896955E+04  0.18359607788E+04  0.10100000352E+00 0. -1.
</event>
<event>
 5   0  0.3467834E-08  0.3502570E+04  0.7818609E-02  0.8113181E-01
       -2   -1    0    0    0  501  0.00000000000E+00  0.00000000000E+00  0.10947435601E+04  0.10947435601E+04  0.25500000920E-02 0. -1.
        2   -1    0    0  501    0  0.00000000000E+00  0.00000000000E+00 -0.28015677897E+04  0.28015677897E+04  0.25500000920E-02 0.  1.
    10030    2    1    2    0    0  0.00000000000E+00  0.00000000000E+00 -0.17068242296E+04  0.38963113498E+04  0.35025695116E+04 0.  0.
        3    1    3    3  502    0 -0.91290890236E+03  0.34981546720E+03 -0.24697573448E+04  0.26562143884E+04  0.10100000352E+00 0.  1.
       -3    1    3    3    0  502  0.91290890236E+03 -0.34981546720E+03  0.76293311515E+03  0.12400969613E+04  0.10100000352E+00 0. -1.
</event>
<event>
 5   0  0.3700096E-08  0.3500012E+04  0.7818609E-02  0.8113787E-01
        2   -1    0    0  501    0  0.00000000000E+00  0.00000000000E+00  0.20310427614E+04  0.20310427614E+04  0.25500000920E-02 0.  1.
       -2   -1    0    0    0  501  0.00000000000E+00  0.00000000000E+00 -0.15078563100E+04  0.15078563100E+04  0.25500000920E-02 0. -1.
    10030    2    1    2    0    0  0.00000000000E+00  0.00000000000E+00  0.52318645139E+03  0.35388990714E+04  0.35000117963E+04 0.  0.
        4    1    3    3  502    0  0.19075598513E+01 -0.25034416692E+03 -0.14896559567E+04  0.15105470277E+04  0.12699999809E+01 0. -1.
       -4    1    3    3    0  502 -0.19075598513E+01  0.25034416692E+03  0.20128424080E+04  0.20283520437E+04  0.12699999809E+01 0.  1.
</event>
<event>
 5   0  0.1121462E-08  0.3499225E+04  0.7818609E-02  0.8113974E-01
       -1   -1    0    0    0  501  0.00000000000E+00  0.00000000000E+00  0.15020499431E+04  0.15020499431E+04  0.50400001928E-02 0. -1.
        1   -1    0    0  501    0  0.00000000000E+00  0.00000000000E+00 -0.20379769453E+04  0.20379769454E+04  0.50400001928E-02 0.  1.
    10030    2    1    2    0    0  0.00000000000E+00  0.00000000000E+00 -0.53592700227E+03  0.35400268884E+04  0.34992245740E+04 0.  0.
        1    1    3    3  502    0 -0.15294574932E+04 -0.78334320399E+03 -0.60085412326E+03  0.18204099748E+04  0.50400001928E-02 0.  1.
       -1    1    3    3    0  502  0.15294574932E+04  0.78334320399E+03  0.64927120993E+02  0.17196169137E+04  0.50400001928E-02 0. -1.
</event>
<event>
 5   0  0.3700096E-08  0.3499022E+04  0.7818609E-02  0.8114022E-01
       -2   -1    0    0    0  501  0.00000000000E+00  0.00000000000E+00  0.14052767381E+04  0.14052767381E+04  0.25500000920E-02 0.  1.
        2   -1    0    0  501    0  0.00000000000E+00  0.00000000000E+00 -0.21780680348E+04  0.21780680348E+04  0.25500000920E-02 0. -1.
    10030    2    1    2    0    0  0.00000000000E+00  0.00000000000E+00 -0.77279129668E+03  0.35833447729E+04  0.34990217738E+04 0.  0.
        4    1    3    3  502    0  0.61231213951E+03 -0.10839710731E+04 -0.16451909405E+04  0.20631466954E+04  0.12699999809E+01 0. -1.
       -4    1    3    3    0  502 -0.61231213951E+03  0.10839710731E+04  0.87239964378E+03  0.15201980775E+04  0.12699999809E+01 0.  1.
</event>
<event>
 5   0  0.1140808E-08  0.3501210E+04  0.7818609E-02  0.8113503E-01
       -1   -1    0    0    0  501  0.00000000000E+00  0.00000000000E+00  0.90059561523E+03  0.90059561524E+03  0.50400001928E-02 0.  1.
        1   -1    0    0  501    0  0.00000000000E+00  0.00000000000E+00 -0.34028796528E+04  0.34028796528E+04  0.50400001928E-02 0. -1.
    10030    2    1    2    0    0  0.00000000000E+00  0.00000000000E+00 -0.25022840376E+04  0.43034752681E+04  0.35012103590E+04 0.  0.
        3    1    3    3  502    0  0.66624760949E+03  0.11441334863E+03 -0.32359802037E+04  0.33058348689E+04  0.10100000352E+00 0. -1.
       -3    1    3    3    0  502 -0.66624760949E+03 -0.11441334863E+03  0.73369616616E+03  0.99764039911E+03  0.10100000352E+00 0.  1.
</event>
<event>
 5   0  0.3467834E-08  0.3500656E+04  0.7818609E-02  0.8113635E-01
       -2   -1    0    0    0  501  0.00000000000E+00  0.00000000000E+00  0.11241013436E+04  0.11241013436E+04  0.25500000920E-02 0. -1.
        2   -1    0    0  501    0  0.00000000000E+00  0.00000000000E+00 -0.27254191170E+04  0.27254191170E+04  0.25500000920E-02 0.  1.
    10030    2    1    2    0    0  0.00000000000E+00  0.00000000000E+00 -0.16013177734E+04  0.38495204606E+04  0.35006555337E+04 0.  0.
        3    1    3    3  502    0  0.82097001742E+02 -0.13041981102E+03 -0.27179442756E+04  0.27223097436E+04  0.10100000352E+00 0.  1.
       -3    1    3    3    0  502 -0.82097001742E+02  0.13041981102E+03  0.11166265022E+04  0.11272107170E+04  0.10100000352E+00 0. -1.
</event>
<event>
 5   0  0.3554451E-08  0.3497315E+04  0.7818609E-02  0.8114427E-01
        2   -1    0    0  501    0  0.00000000000E+00  0.00000000000E+00  0.20380308624E+04  0.20380308624E+04  0.25500000920E-02 0. -1.
       -2   -1    0    0    0  501  0.00000000000E+00  0.00000000000E+00 -0.15003712138E+04  0.15003712138E+04  0.25500000920E-02 0.  1.
    10030    2    1    2    0    0  0.00000000000E+00  0.00000000000E+00  0.53765964855E+03  0.35384020762E+04  0.34973148779E+04 0.  0.
        5    1    3    3  502    0 -0.10024114698E+04  0.14007114890E+04 -0.36307999737E+02  0.17228353929E+04  0.46999998093E+01 0. -1.
       -5    1    3    3    0  502  0.10024114698E+04 -0.14007114890E+04  0.57396764829E+03  0.18155666833E+04  0.46999998093E+01 0.  1.
</event>
<event>
 5   0  0.1121462E-08  0.3503447E+04  0.7818609E-02  0.8112974E-01
       -1   -1    0    0    0  501  0.00000000000E+00  0.00000000000E+00  0.26448553033E+04  0.26448553033E+04  0.50400001928E-02 0. -1.
        1   -1    0    0  501    0  0.00000000000E+00  0.00000000000E+00 -0.11601902647E+04  0.11601902647E+04  0.50400001928E-02 0.  1.
    10030    2    1    2    0    0  0.00000000000E+00  0.00000000000E+00  0.14846650385E+04  0.38050455680E+04  0.35034470879E+04 0.  0.
        1    1    3    3  502    0  0.71224200778E+03  0.13509727479E+04 -0.18950117648E+03  0.15389368860E+04  0.50400001928E-02 0.  1.
       -1    1    3    3    0  502 -0.71224200778E+03 -0.13509727479E+04  0.16741662150E+04  0.22661086820E+04  0.50400001928E-02 0. -1.
</event>
<event>
 5   0  0.1121462E-08  0.3500333E+04  0.7818609E-02  0.8113711E-01
       -1   -1    0    0    0  501  0.00000000000E+00  0.00000000000E+00  0.17524359430E+04  0.17524359430E+04  0.50400001928E-02 0. -1.
        1   -1    0    0  501    0  0.00000000000E+00  0.00000000000E+00 -0.17479003563E+04  0.17479003563E+04  0.50400001928E-02 0.  1.
    10030    2    1    2    0    0  0.00000000000E+00  0.00000000000E+00  0.45355867047E+01  0.35003362993E+04  0.35003333608E+04 0.  0.
        1    1    3    3  502    0 -0.52857269056E+03  0.10299930610E+03  0.16675275685E+04  0.17523259224E+04  0.50400001928E-02 0. -1.
       -1    1    3    3    0  502  0.52857269056E+03 -0.10299930610E+03 -0.16629919818E+04  0.17480103770E+04  0.50400001928E-02 0.  1.
</event>
<event>
 5   0  0.3628017E-08  0.3500414E+04  0.7818609E-02  0.8113692E-01
       -2   -1    0    0    0  501  0.00000000000E+00  0.00000000000E+00  0.10745546356E+04  0.10745546356E+04  0.25500000920E-02 0.  1.
        2   -1    0    0  501    0  0.00000000000E+00  0.00000000000E+00 -0.28506930227E+04  0.28506930227E+04  0.25500000920E-02 0. -1.
    10030    2    1    2    0    0  0.00000000000E+00  0.00000000000E+00 -0.17761383871E+04  0.39252476583E+04  0.35004144911E+04 0.  0.
        1    1    3    3  502    0 -0.34929918877E+02 -0.58879044420E+03 -0.27358863211E+04  0.27987440484E+04  0.50400001928E-02 0. -1.
       -1    1    3    3    0  502  0.34929918877E+02  0.58879044420E+03  0.95974793400E+03  0.11265036100E+04  0.50400001928E-02 0.  1.
</event>
<event>
 5   0  0.1121462E-08  0.3492394E+04  0.7818609E-02  0.8115595E-01
       -1   -1    0    0    0  501  0.00000000000E+00  0.00000000000E+00  0.10577516779E+04  0.10577516779E+04  0.50400001928E-02 0. -1.
        1   -1    0    0  501    0  0.00000000000E+00  0.00000000000E+00 -0.28827222974E+04  0.28827222974E+04  0.50400001928E-02 0.  1.
    10030    2    1    2    0    0  0.00000000000E+00  0.00000000000E+00 -0.18249706195E+04  0.39404739753E+04  0.34923942200E+04 0.  0.
        4    1    3    3  502    0 -0.16171003520E+04  0.50296343998E+03 -0.43217199332E+03  0.17477871767E+04  0.12699999809E+01 0.  1.
       -4    1    3    3    0  502  0.16171003520E+04 -0.50296343998E+03 -0.13927986262E+04  0.21926867985E+04  0.12699999809E+01 0. -1.
</event>
<event>
 5   0  0.3554451E-08  0.3502130E+04  0.7818609E-02  0.8113285E-01
       -2   -1    0    0    0  501  0.00000000000E+00  0.00000000000E+00  0.10287680978E+04  0.10287680978E+04  0.25500000920E-02 0. -1.
        2   -1    0    0  501    0  0.00000000000E+00  0.00000000000E+00 -0.29804854686E+04  0.29804854686E+04  0.25500000920E-02 0.  1.
    10030    2    1    2    0    0  0.00000000000E+00  0.00000000000E+00 -0.19517173708E+04  0.40092535664E+04  0.35021298469E+04 0.  0.
        5    1    3    3  502    0  0.15524043228E+04  0.39307227933E+03 -0.17867659588E+04  0.23993790196E+04  0.46999998093E+01 0.  1.
       -5    1    3    3    0  502 -0.15524043228E+04 -0.39307227933E+03 -0.16495141192E+03  0.16098745468E+04  0.46999998093E+01 0. -1.
</event>
<event>
 5   0  0.1121462E-08  0.3498596E+04  0.7818609E-02  0.8114123E-01
        1   -1    0    0  501    0  0.00000000000E+00  0.00000000000E+00  0.18220446032E+04  0.18220446033E+04  0.50400001928E-02 0.  1.
       -1   -1    0    0    0  501  0.00000000000E+00  0.00000000000E+00 -0.16794561947E+04  0.16794561947E+04  0.50400001928E-02 0. -1.
    10030    2    1    2    0    0  0.00000000000E+00  0.00000000000E+00  0.14258840850E+03  0.35015007980E+04  0.34985963448E+04 0.  0.
        2    1    3    3  502    0 -0.26616466622E+03  0.82731911020E+03 -0.14481043062E+04  0.16888773257E+04  0.25500000920E-02 0. -1.
       -2    1    3    3    0  502  0.26616466622E+03 -0.82731911020E+03  0.15906927147E+04  0.18126234723E+04  0.25500000920E-02 0.  1.
</event>
<event>
 5   0  0.1129219E-08  0.3498246E+04  0.7818609E-02  0.8114206E-01
        1   -1    0    0  501    0  0.00000000000E+00  0.00000000000E+00  0.11284233616E+04  0.11284233616E+04  0.50400001928E-02 0. -1.
       -1   -1    0    0    0  501  0.00000000000E+00  0.00000000000E+00 -0.27112438045E+04  0.27112438045E+04  0.50400001928E-02 0.  1.
    10030    2    1    2    0    0  0.00000000000E+00  0.00000000000E+00 -0.15828204429E+04  0.38396671660E+04  0.34982457592E+04 0.  0.
        5    1    3    3  502    0 -0.67972934154E+03 -0.60688608859E+03  0.84730969851E+03  0.12443064403E+04  0.46999998093E+01 0. -1.
       -5    1    3    3    0  502  0.67972934154E+03  0.60688608859E+03 -0.24301301414E+04  0.25953607257E+04  0.46999998093E+01 0.  1.
</event>
<event>
 5   0  0.1140808E-08  0.3500689E+04  0.7818609E-02  0.8113627E-01
        1   -1    0    0  501    0  0.00000000000E+00  0.00000000000E+00  0.10224989046E+04  0.10224989046E+04  0.50400001928E-02 0.  1.
       -1   -1    0    0    0  501  0.00000000000E+00  0.00000000000E+00 -0.29962924331E+04  0.29962924331E+04  0.50400001928E-02 0. -1.
    10030    2    1    2    0    0  0.00000000000E+00  0.00000000000E+00 -0.19737935286E+04  0.40187913377E+04  0.35006889212E+04 0.  0.
        3    1    3    3  502    0 -0.15806729995E+04 -0.13308819465E+03 -0.13748052033E+03  0.15922124552E+04  0.10100000352E+00 0.  1.
       -3    1    3    3    0  502  0.15806729995E+04  0.13308819465E+03 -0.18363130082E+04  0.24265788825E+04  0.10100000352E+00 0. -1.
</event>
<event>
 5   0  0.3554451E-08  0.3499179E+04  0.7818609E-02  0.8113985E-01
       -2   -1    0    0    0  501  0.00000000000E+00  0.00000000000E+00  0.11999924547E+04  0.11999924547E+04  0.25500000920E-02 0.  1.
        2   -1    0    0  501    0  0.00000000000E+00  0.00000000000E+00 -0.25509023115E+04  0.25509023115E+04  0.25500000920E-02 0. -1.
    10030    2    1    2    0    0  0.00000000000E+00  0.00000000000E+00 -0.13509098567E+04  0.37508947662E+04  0.34991790617E+04 0.  0.
        5    1    3    3  502    0  0.14948825052E+04  0.54903696045E+03  0.10118160530E+03  0.15957365370E+04  0.46999998093E+01 0. -1.
       -5    1    3    3    0  502 -0.14948825052E+04 -0.54903696045E+03 -0.14520914620E+04  0.21551582291E+04  0.46999998093E+01 0.  1.
</event>
<event>
 5   0  0.1121462E-08  0.3508267E+04  0.7818609E-02  0.8111834E-01
       -1   -1    0    0    0  501  0.00000000000E+00  0.00000000000E+00  0.16904831060E+04  0.16904831060E+04  0.50400001928E-02 0.  1.
        1   -1    0    0  501    0  0.00000000000E+00  0.00000000000E+00 -0.18201803825E+04  0.18201803825E+04  0.50400001928E-02 0. -1.
    10030    2    1    2    0    0  0.00000000000E+00  0.00000000000E+00 -0.12969727645E+03  0.35106634885E+04  0.35082669149E+04 0.  0.
        2    1    3    3  502    0 -0.55691926699E+03 -0.15684878623E+04 -0.61900572130E+03  0.17758044169E+04  0.25500000920E-02 0. -1.
       -2    1    3    3    0  502  0.55691926699E+03  0.15684878623E+04  0.48930844485E+03  0.17348590716E+04  0.25500000920E-02 0.  1.
</event>
<event>
 5   0  0.1140808E-08  0.3500267E+04  0.7818609E-02  0.8113727E-01
       -1   -1    0    0    0  501  0.00000000000E+00  0.00000000000E+00  0.21207513719E+04  0.21207513719E+04  0.50400001928E-02 0.  1.
        1   -1    0    0  501    0  0.00000000000E+00  0.00000000000E+00 -0.14442838296E+04  0.14442838297E+04  0.50400001928E-02 0. -1.
    10030    2    1    2    0    0  0.00000000000E+00  0.00000000000E+00  0.67646754228E+03  0.35650352016E+04  0.35002667974E+04 0.  0.
        3    1    3    3  502    0  0.41271576942E+03 -0.25259972635E+03 -0.13747994668E+04  0.14574685287E+04  0.10100000352E+00 0. -1.
       -3    1    3    3    0  502 -0.41271576942E+03  0.25259972635E+03  0.20512670090E+04  0.21075666729E+04  0.10100000352E+00 0.  1.
</event>
<event>
 5   0  0.3467834E-08  0.3499269E+04  0.7818609E-02  0.8113963E-01
       -2   -1    0    0    0  501  0.00000000000E+00  0.00000000000E+00  0.13165074787E+04  0.13165074787E+04  0.25500000920E-02 0.  1.
        2   -1    0    0  501    0  0.00000000000E+00  0.00000000000E+00 -0.23252587569E+04  0.23252587569E+04  0.25500000920E-02 0. -1.
    10030    2    1    2    0    0  0.00000000000E+00  0.00000000000E+00 -0.10087512781E+04  0.36417662356E+04  0.34992688056E+04 0.  0.
        3    1    3    3  502    0  0.52828550724E+03  0.15302276236E+04  0.18638348959E+03  0.16295462475E+04  0.10100000352E+00 0.  1.
       -3    1    3    3    0  502 -0.52828550724E+03 -0.15302276236E+04 -0.11951347677E+04  0.20122199881E+04  0.10100000352E+00 0. -1.
</event>
<event>
 5   0  0.3554451E-08  0.3496043E+04  0.7818609E-02  0.8114728E-01
        2   -1    0    0  501    0  0.00000000000E+00  0.00000000000E+00  0.18538325651E+04  0.18538325651E+04  0.25500000920E-02 0.  1.
       -2   -1    0    0    0  501  0.00000000000E+00  0.00000000000E+00 -0.16482495537E+04  0.16482495537E+04  0.25500000920E-02 0. -1.
    10030    2    1    2    0    0  0.00000000000E+00  0.00000000000E+00  0.20558301135E+03  0.35020821188E+04  0.34960427332E+04 0.  0.
        5    1    3    3  502    0 -0.13738013096E+04  0.81686374049E+02  0.11824074200E+04  0.18144178402E+04  0.46999998093E+01 0.  1.
       -5    1    3    3    0  502  0.13738013096E+04 -0.81686374049E+02 -0.97682440866E+03  0.16876642786E+04  0.46999998093E+01 0. -1.
</event>
<event>
 5   0  0.3628017E-08  0.3498438E+04  0.7818609E-02  0.8114160E-01
       -2   -1    0    0    0  501  0.00000000000E+00  0.00000000000E+00  0.14206660192E+04  0.14206660192E+04  0.25500000920E-02 0. -1.
        2   -1    0    0  501    0  0.00000000000E+00  0.00000000000E+00 -0.21537554428E+04  0.21537554428E+04  0.25500000920E-02 0.  1.
    10030    2    1    2    0    0  0.00000000000E+00  0.00000000000E+00 -0.73308942354E+03  0.35744214620E+04  0.34984380350E+04 0.  0.
        1    1    3    3  502    0  0.12171337509E+04  0.76062926222E+03  0.65507017245E+03  0.15776844973E+04  0.50400001928E-02 0. -1.
       -1    1    3    3    0  502 -0.12171337509E+04 -0.76062926222E+03 -0.13881595960E+04  0.19967369647E+04  0.50400001928E-02 0.  1.
</event>
<event>
 5   0  0.1121462E-08  0.3499202E+04  0.7818609E-02  0.8113979E-01
        1   -1    0    0  501    0  0.00000000000E+00  0.00000000000E+00  0.25686482868E+04  0.25686482868E+04  0.50400001928E-02 0.  1.
       -1   -1    0    0    0  501  0.00000000000E+00  0.00000000000E+00 -0.11917177788E+04  0.11917177788E+04  0.50400001928E-02 0. -1.
    10030    2    1    2    0    0  0.00000000000E+00  0.00000000000E+00  0.13769305080E+04  0.37603660656E+04  0.34992020981E+04 0.  0.
        4    1    3    3  502    0  0.10927770811E+04  0.33691218832E+02  0.21563578103E+04  0.24176801828E+04  0.12699999809E+01 0.  1.
       -4    1    3    3    0  502 -0.10927770811E+04 -0.33691218832E+02 -0.77942730236E+03  0.13426858828E+04  0.12699999809E+01 0. -1.
</event>
<event>
 5   0  0.1129219E-08  0.3502247E+04  0.7818609E-02  0.8113258E-01
        1   -1    0    0  501    0  0.00000000000E+00  0.00000000000E+00  0.21471706298E+04  0.21471706298E+04  0.50400001928E-02 0. -1.
       -1   -1    0    0    0  501  0.00000000000E+00  0.00000000000E+00 -0.14281277816E+04  0.14281277816E+04  0.50400001928E-02 0.  1.
    10030    2    1    2    0    0  0.00000000000E+00  0.00000000000E+00  0.71904284821E+03  0.35752984115E+04  0.35022472948E+04 0.  0.
        5    1    3    3  502    0  0.85484867790E+03  0.13036395084E+04  0.11737605747E+04  0.19514041628E+04  0.46999998093E+01 0. -1.
       -5    1    3    3    0  502 -0.85484867790E+03 -0.13036395084E+04 -0.45471772646E+03  0.16238942487E+04  0.46999998093E+01 0.  1.
</event>
<event>
 5   0  0.1140808E-08  0.3499894E+04  0.7818609E-02  0.8113815E-01
        1   -1    0    0  501    0  0.00000000000E+00  0.00000000000E+00  0.24927961115E+04  0.24927961115E+04  0.50400001928E-02 0. -1.
       -1   -1    0    0    0  501  0.00000000000E+00  0.00000000000E+00 -0.12284656464E+04  0.12284656464E+04  0.50400001928E-02 0.  1.
    10030    2    1    2    0    0  0.00000000000E+00  0.00000000000E+00  0.12643304651E+04  0.37212617579E+04  0.34998939335E+04 0.  0.
        3    1    3    3  502    0 -0.55402918299E+03  0.16548243593E+04  0.77047920858E+03  0.19076242336E+04  0.10100000352E+00 0. -1.
       -3    1    3    3    0  502  0.55402918299E+03 -0.16548243593E+04  0.49385125649E+03  0.18136375243E+04  0.10100000352E+00 0.  1.
</event>
<event>
 5   0  0.3553585E-08  0.3500546E+04  0.7818609E-02  0.8113661E-01
        2   -1    0    0  501    0  0.00000000000E+00  0.00000000000E+00  0.15349752236E+04  0.15349752236E+04  0.25500000920E-02 0. -1.
       -2   -1    0    0    0  501  0.00000000000E+00  0.00000000000E+00 -0.19957689984E+04  0.19957689984E+04  0.25500000920E-02 0.  1.
    10030    2    1    2    0    0  0.00000000000E+00  0.00000000000E+00 -0.46079377480E+03  0.35307442221E+04  0.35005462229E+04 0.  0.
        2    1    3    3  502    0 -0.14702236558E+04  0.79514040331E+03  0.29336119483E+03  0.16970169857E+04  0.25500000920E-02 0.  1.
       -2    1    3    3    0  502  0.14702236558E+04 -0.79514040331E+03 -0.75415496963E+03  0.18337272364E+04  0.25500000920E-02 0. -1.
</event>
<event>
 5   0  0.1140808E-08  0.3504171E+04  0.7818609E-02  0.8112802E-01
       -1   -1    0    0    0  501  0.00000000000E+00  0.00000000000E+00  0.13746423415E+04  0.13746423415E+04  0.50400001928E-02 0. -1.
        1   -1    0    0  501    0  0.00000000000E+00  0.00000000000E+00 -0.22331648135E+04  0.22331648135E+04  0.50400001928E-02 0.  1.
    10030    2    1    2    0    0  0.00000000000E+00  0.00000000000E+00 -0.85852247203E+03  0.36078071551E+04  0.35041706056E+04 0.  0.
        3    1    3    3  502    0 -0.17018580370E+04 -0.35363358973E+03 -0.20269525546E+03  0.17499893916E+04  0.10100000352E+00 0. -1.
       -3    1    3    3    0  502  0.17018580370E+04  0.35363358973E+03 -0.65582721657E+03  0.18578177634E+04  0.10100000352E+00 0.  1.
</event>
<event>
 5   0  0.1121462E-08  0.3501085E+04  0.7818609E-02  0.8113533E-01
        1   -1    0    0  501    0  0.00000000000E+00  0.00000000000E+00  0.11598092688E+04  0.11598092688E+04  0.50400001928E-02 0.  1.
       -1   -1    0    0    0  501  0.00000000000E+00  0.00000000000E+00 -0.26421576973E+04  0.26421576973E+04  0.50400001928E-02 0. -1.
    10030    2    1    2    0    0  0.00000000000E+00  0.00000000000E+00 -0.14823484285E+04  0.38019669661E+04  0.35010849673E+04 0.  0.
        2    1    3    3  502    0  0.95973582479E+03 -0.19375857755E+03 -0.23170083745E+04  0.25153852682E+04  0.25500000920E-02 0. -1.
       -2    1    3    3    0  502 -0.95973582479E+03  0.19375857755E+03  0.83465994608E+03  0.12865816979E+04  0.25500000920E-02 0.  1.
</event>
<event>
 5   0  0.1121462E-08  0.3492858E+04  0.7818609E-02  0.8115484E-01
        1   -1    0    0  501    0  0.00000000000E+00  0.00000000000E+00  0.30492815863E+04  0.30492815863E+04  0.50400001928E-02 0.  1.
       -1   -1    0    0    0  501  0.00000000000E+00  0.00000000000E+00 -0.10002405257E+04  0.10002405257E+04  0.50400001928E-02 0. -1.
    10030    2    1    2    0    0  0.00000000000E+00  0.00000000000E+00  0.20490410606E+04  0.40495221120E+04  0.34928584379E+04 0.  0.
        4    1    3    3  502    0 -0.53405327034E+03 -0.80894006870E+03  0.27087717649E+04  0.28769850569E+04  0.12699999809E+01 0.  1.
       -4    1    3    3    0  502  0.53405327034E+03  0.80894006870E+03 -0.65973070431E+03  0.11725370550E+04  0.12699999809E+01 0. -1.
</event>
<event>
 5   0  0.3467834E-08  0.3501571E+04  0.7818609E-02  0.8113418E-01
        2   -1    0    0  501    0  0.00000000000E+00  0.00000000000E+00  0.28672620349E+04  0.28672620349E+04  0.25500000920E-02 0. -1.
       -2   -1    0    0    0  501  0.00000000000E+00  0.00000000000E+00 -0.10690512822E+04  0.10690512822E+04  0.25500000920E-02 0.  1.
    10030    2    1    2    0    0  0.00000000000E+00  0.00000000000E+00  0.17982107527E+04  0.39363133172E+04  0.35015711644E+04 0.  0.
        3    1    3    3  502    0 -0.10448188267E+04  0.78795110168E+03 -0.40836951898E+03  0.13708679708E+04  0.10100000352E+00 0.  1.
       -3    1    3    3    0  502  0.10448188267E+04 -0.78795110168E+03  0.22065802717E+04  0.25654453463E+04  0.10100000352E+00 0. -1.
</event>
<event>
 5   0  0.3467834E-08  0.3499330E+04  0.7818609E-02  0.8113949E-01
       -2   -1    0    0    0  501  0.00000000000E+00  0.00000000000E+00  0.13703892867E+04  0.13703892867E+04  0.25500000920E-02 0. -1.
        2   -1    0    0  501    0  0.00000000000E+00  0.00000000000E+00 -0.22339105417E+04  0.22339105417E+04  0.25500000920E-02 0.  1.
    10030    2    1    2    0    0  0.00000000000E+00  0.00000000000E+00 -0.86352125496E+03  0.36042998284E+04  0.34993296923E+04 0.  0.
        3    1    3    3  502    0 -0.48718789762E+03 -0.16015722815E+04 -0.95588778576E+03  0.19277207499E+04  0.10100000352E+00 0.  1.
       -3    1    3    3    0  502  0.48718789762E+03  0.16015722815E+04  0.92366530798E+02  0.16765790785E+04  0.10100000352E+00 0. -1.
</event>
<event>
 5   0  0.1121462E-08  0.3500177E+04  0.7818609E-02  0.8113748E-01
       -1   -1    0    0    0  501  0.00000000000E+00  0.00000000000E+00  0.25968132711E+04  0.25968132711E+04  0.50400001928E-02 0. -1.
        1   -1    0    0  501    0  0.00000000000E+00  0.00000000000E+00 -0.11794491771E+04  0.11794491771E+04  0.50400001928E-02 0.  1.
    10030    2    1    2    0    0  0.00000000000E+00  0.00000000000E+00  0.14173640940E+04  0.37762624481E+04  0.35001767244E+04 0.  0.
        2    1    3    3  502    0  0.28475113826E+03  0.25995504387E+03  0.25504211413E+04  0.25794006733E+04  0.25500000920E-02 0. -1.
       -2    1    3    3    0  502 -0.28475113826E+03 -0.25995504387E+03 -0.11330570473E+04  0.11968617748E+04  0.25500000920E-02 0.  1.
</event>
<event>
 5   0  0.1129219E-08  0.3499498E+04  0.7818609E-02  0.8113909E-01
        1   -1    0    0  501    0  0.00000000000E+00  0.00000000000E+00  0.17586329658E+04  0.17586329658E+04  0.50400001928E-02 0.  1.
       -1   -1    0    0    0  501  0.00000000000E+00  0.00000000000E+00 -0.17409100237E+04  0.17409100237E+04  0.50400001928E-02 0. -1.
    10030    2    1    2    0    0  0.00000000000E+00  0.00000000000E+00  0.17722942159E+02  0.34995429895E+04  0.34994981116E+04 0.  0.
        5    1    3    3  502    0  0.11151568065E+04 -0.79322829527E+03  0.10992028524E+04  0.17552933750E+04  0.46999998093E+01 0.  1.
       -5    1    3    3    0  502 -0.11151568065E+04  0.79322829527E+03 -0.10814799102E+04  0.17442496145E+04  0.46999998093E+01 0. -1.
</event>
<event>
 5   0  0.3554451E-08  0.3501243E+04  0.7818609E-02  0.8113495E-01
        2   -1    0    0  501    0  0.00000000000E+00  0.00000000000E+00  0.15411984364E+04  0.15411984364E+04  0.25500000920E-02 0. -1.
       -2   -1    0    0    0  501  0.00000000000E+00  0.00000000000E+00 -0.19885021094E+04  0.19885021094E+04  0.25500000920E-02 0.  1.
    10030    2    1    2    0    0  0.00000000000E+00  0.00000000000E+00 -0.44730367300E+03  0.35297005457E+04  0.35012434029E+04 0.  0.
        5    1    3    3  502    0  0.10467362389E+04 -0.62928200943E+03 -0.14880392027E+04  0.19250806113E+04  0.46999998093E+01 0.  1.
       -5    1    3    3    0  502 -0.10467362389E+04  0.62928200943E+03  0.10407355297E+04  0.16046199344E+04  0.46999998093E+01 0. -1.
</event>
<event>
 5   0  0.3628017E-08  0.3499132E+04  0.7818609E-02  0.8113996E-01
       -2   -1    0    0    0  501  0.00000000000E+00  0.00000000000E+00  0.12925217372E+04  0.12925217372E+04  0.25500000920E-02 0.  1.
        2   -1    0    0  501    0  0.00000000000E+00  0.00000000000E+00 -0.23682237796E+04  0.23682237797E+04  0.25500000920E-02 0. -1.
    10030    2    1    2    0    0  0.00000000000E+00  0.00000000000E+00 -0.10757020425E+04  0.36607455168E+04  0.34991317287E+04 0.  0.
        1    1    3    3  502    0 -0.64602399270E+03  0.16205164926E+04 -0.67648562656E+03  0.18711102332E+04  0.50400001928E-02 0.  1.
       -1    1    3    3    0  502  0.64602399270E+03 -0.16205164926E+04 -0.39921641590E+03  0.17896352837E+04  0.50400001928E-02 0. -1.
</event>
<event>
 5   0  0.1121462E-08  0.3499283E+04  0.7818609E-02  0.8113960E-01
       -3   -1    0    0    0  501  0.00000000000E+00  0.00000000000E+00  0.19460470107E+04  0.19460470133E+04  0.10100000352E+00 0.  1.
        3   -1    0    0  501    0  0.00000000000E+00  0.00000000000E+00 -0.15730579611E+04  0.15730579644E+04  0.10100000352E+00 0. -1.
    10030    2    1    2    0    0  0.00000000000E+00  0.00000000000E+00  0.37298904958E+03  0.35191049777E+04  0.34992826426E+04 0.  0.
        3    1    3    3  502    0 -0.11208417605E+04 -0.99471873266E+03  0.10946565840E+04  0.18558083566E+04  0.10100000352E+00 0.  1.
       -3    1    3    3    0  502  0.11208417605E+04  0.99471873266E+03 -0.72166753444E+03  0.16632966211E+04  0.10100000352E+00 0. -1.
</event>
<event>
 5   0  0.1121462E-08  0.3498541E+04  0.7818609E-02  0.8114136E-01
       -1   -1    0    0    0  501  0.00000000000E+00  0.00000000000E+00  0.16216876838E+04  0.16216876838E+04  0.50400001928E-02 0.  1.
        1   -1    0    0  501    0  0.00000000000E+00  0.00000000000E+00 -0.18868909105E+04  0.18868909105E+04  0.50400001928E-02 0. -1.
    10030    2    1    2    0    0  0.00000000000E+00  0.00000000000E+00 -0.26520322676E+03  0.35085785943E+04  0.34985412676E+04 0.  0.
        4    1    3    3  502    0 -0.57224703692E+03 -0.43630956831E+03 -0.17315766023E+04  0.18751511548E+04  0.12699999809E+01 0. -1.
       -4    1    3    3    0  502  0.57224703692E+03  0.43630956831E+03  0.14663733756E+04  0.16334274395E+04  0.12699999809E+01 0.  1.
</event>
<event>
 5   0  0.3700096E-08  0.3498964E+04  0.7818609E-02  0.8114036E-01
        2   -1    0    0  501    0  0.00000000000E+00  0.00000000000E+00  0.24930085883E+04  0.24930085883E+04  0.25500000920E-02 0. -1.
       -2   -1    0    0    0  501  0.00000000000E+00  0.00000000000E+00 -0.12277081401E+04  0.12277081401E+04  0.25500000920E-02 0.  1.
    10030    2    1    2    0    0  0.00000000000E+00  0.00000000000E+00  0.12653004482E+04  0.37207167285E+04  0.34989638108E+04 0.  0.
        4    1    3    3  502    0  0.12628918560E+04 -0.44171492579E+03  0.18313345061E+04  0.22679937393E+04  0.12699999809E+01 0. -1.
       -4    1    3    3    0  502 -0.12628918560E+04  0.44171492579E+03 -0.56603405786E+03  0.14527229891E+04  0.12699999809E+01 0.  1.
</event>
<event>
 5   0  0.3467834E-08  0.3499795E+04  0.7818609E-02  0.8113838E-01
        2   -1    0    0  501    0  0.00000000000E+00  0.00000000000E+00  0.21990576595E+04  0.21990576595E+04  0.25500000920E-02 0.  1.
       -2   -1    0    0    0  501  0.00000000000E+00  0.00000000000E+00 -0.13924790586E+04  0.13924790586E+04  0.25500000920E-02 0. -1.
    10030    2    1    2    0    0  0.00000000000E+00  0.00000000000E+00  0.80657860083E+03  0.35915367181E+04  0.34997952737E+04 0.  0.
        3    1    3    3  502    0 -0.50269685601E+03  0.99097282580E+02 -0.13137767717E+04  0.14101538272E+04  0.10100000352E+00 0. -1.
       -3    1    3    3    0  502  0.50269685601E+03 -0.99097282580E+02  0.21203553725E+04  0.21813828908E+04  0.10100000352E+00 0.  1.
</event>
<event>
 5   0  0.3554451E-08  0.3500918E+04  0.7818609E-02  0.8113572E-01
       -2   -1    0    0    0  501  0.00000000000E+00  0.00000000000E+00  0.14847700741E+04  0.14847700741E+04  0.25500000920E-02 0.  1.
        2   -1    0    0  501    0  0.00000000000E+00  0.00000000000E+00 -0.20636916195E+04  0.20636916195E+04  0.25500000920E-02 0. -1.
    10030    2    1    2    0    0  0.00000000000E+00  0.00000000000E+00 -0.57892154539E+03  0.35484616936E+04  0.35009184845E+04 0.  0.
        5    1    3    3  502    0  0.30547667887E+03  0.80462510168E+03 -0.18344136834E+04  0.20262855691E+04  0.46999998093E+01 0. -1.
       -5    1    3    3    0  502 -0.30547667887E+03 -0.80462510168E+03  0.12554921380E+04  0.15221761246E+04  0.46999998093E+01 0.  1.
</event>
<event>
 5   0  0.3554451E-08  0.3500375E+04  0.7818609E-02  0.8113701E-01
       -2   -1    0    0    0  501  0.00000000000E+00  0.00000000000E+00  0.17269088913E+04  0.17269088914E+04  0.25500000920E-02 0.  1.
        2   -1    0    0  501    0  0.00000000000E+00  0.00000000000E+00 -0.17737801774E+04  0.17737801774E+04  0.25500000920E-02 0. -1.
    10030    2    1    2    0    0  0.00000000000E+00  0.00000000000E+00 -0.46871286097E+02  0.35006890688E+04  0.35003752712E+04 0.  0.
        5    1    3    3  502    0  0.18215270622E+03 -0.15881473669E+04  0.68918911202E+03  0.17408030875E+04  0.46999998093E+01 0. -1.
       -5    1    3    3    0  502 -0.18215270622E+03  0.15881473669E+04 -0.73606039812E+03  0.17598859813E+04  0.46999998093E+01 0.  1.
</event>
<event>
 5   0  0.3554451E-08  0.3501599E+04  0.7818609E-02  0.8113411E-01
        2   -1    0    0  501    0  0.00000000000E+00  0.00000000000E+00  0.19712488407E+04  0.19712488407E+04  0.25500000920E-02 0.  1.
       -2   -1    0    0    0  501  0.00000000000E+00  0.00000000000E+00 -0.15550036199E+04  0.15550036199E+04  0.25500000920E-02 0. -1.
    10030    2    1    2    0    0  0.00000000000E+00  0.00000000000E+00  0.41624522074E+03  0.35262524606E+04  0.35015991107E+04 0.  0.
        5    1    3    3  502    0  0.70080608265E+03  0.12191770329E+04  0.12584206647E+04  0.18871053130E+04  0.46999998093E+01 0.  1.
       -5    1    3    3    0  502 -0.70080608265E+03 -0.12191770329E+04 -0.84217544398E+03  0.16391471476E+04  0.46999998093E+01 0. -1.
</event>
<event>
 5   0  0.1129219E-08  0.3499175E+04  0.7818609E-02  0.8113985E-01
       -1   -1    0    0    0  501  0.00000000000E+00  0.00000000000E+00  0.25774841484E+04  0.25774841484E+04  0.50400001928E-02 0. -1.
        1   -1    0    0  501    0  0.00000000000E+00  0.00000000000E+00 -0.11876141663E+04  0.11876141663E+04  0.50400001928E-02 0.  1.
    10030    2    1    2    0    0  0.00000000000E+00  0.00000000000E+00  0.13898699821E+04  0.37650983147E+04  0.34991751531E+04 0.  0.
        5    1    3    3  502    0  0.12112963484E+03 -0.21573770914E+03  0.25585585740E+04  0.25704978533E+04  0.46999998093E+01 0. -1.
       -5    1    3    3    0  502 -0.12112963484E+03  0.21573770914E+03 -0.11686885918E+04  0.11946004614E+04  0.46999998093E+01 0.  1.
</event>
<event>
 5   0  0.3628017E-08  0.3500369E+04  0.7818609E-02  0.8113703E-01
       -2   -1    0    0    0  501  0.00000000000E+00  0.00000000000E+00  0.20754658738E+04  0.20754658738E+04  0.25500000920E-02 0.  1.
        2   -1    0    0  501    0  0.00000000000E+00  0.00000000000E+00 -0.14758831141E+04  0.14758831141E+04  0.25500000920E-02 0. -1.
    10030    2    1    2    0    0  0.00000000000E+00  0.00000000000E+00  0.59958275971E+03  0.35513489880E+04  0.35003685732E+04 0.  0.
        1    1    3    3  502    0  0.94759089457E+03  0.67156801410E+03 -0.10285569075E+04  0.15514062695E+04  0.50400001928E-02 0. -1.
       -1    1    3    3    0  502 -0.94759089457E+03 -0.67156801410E+03  0.16281396672E+04  0.19999427185E+04  0.50400001928E-02 0.  1.
</event>
<event>
 5   0  0.1121462E-08  0.3502029E+04  0.7818609E-02  0.8113309E-01
        1   -1    0    0  501    0  0.00000000000E+00  0.00000000000E+00  0.16949767063E+04  0.16949767063E+04  0.50400001928E-02 0. -1.
       -1   -1    0    0    0  501  0.00000000000E+00  0.00000000000E+00 -0.18089046809E+04  0.18089046810E+04  0.50400001928E-02 0.  1.
    10030    2    1    2    0    0  0.00000000000E+00  0.00000000000E+00 -0.11392797464E+03  0.35038813873E+04  0.35020287253E+04 0.  0.
        2    1    3    3  502    0 -0.11782912065E+03  0.14070418807E+04 -0.10930796647E+04  0.17856297794E+04  0.25500000920E-02 0.  1.
       -2    1    3    3    0  502  0.11782912065E+03 -0.14070418807E+04  0.97915169010E+03  0.17182516079E+04  0.25500000920E-02 0. -1.
</event>
<event>
 5   0  0.1121462E-08  0.3498138E+04  0.7818609E-02  0.8114231E-01
        1   -1    0    0  501    0  0.00000000000E+00  0.00000000000E+00  0.12459124975E+04  0.12459124975E+04  0.50400001928E-02 0.  1.
       -1   -1    0    0    0  501  0.00000000000E+00  0.00000000000E+00 -0.24554236144E+04  0.24554236144E+04  0.50400001928E-02 0. -1.
    10030    2    1    2    0    0  0.00000000000E+00  0.00000000000E+00 -0.12095111170E+04  0.37013361119E+04  0.34981383437E+04 0.  0.
        4    1    3    3  502    0  0.10801492466E+04 -0.11223990604E+04  0.23689913879E+03  0.15756347485E+04  0.12699999809E+01 0.  1.
       -4    1    3    3    0  502 -0.10801492466E+04  0.11223990604E+04 -0.14464102557E+04  0.21257013634E+04  0.12699999809E+01 0. -1.
</event>
<event>
 5   0  0.1140808E-08  0.3500922E+04  0.7818609E-02  0.8113571E-01
       -1   -1    0    0    0  501  0.00000000000E+00  0.00000000000E+00  0.13609425114E+04  0.13609425114E+04  0.50400001928E-02 0.  1.
        1   -1    0    0  501    0  0.00000000000E+00  0.00000000000E+00 -0.22514643631E+04  0.22514643631E+04  0.50400001928E-02 0. -1.
    10030    2    1    2    0    0  0.00000000000E+00  0.00000000000E+00 -0.89052185170E+03  0.36124068745E+04  0.35009219156E+04 0.  0.
        3    1    3    3  502    0  0.40399833347E+03 -0.15188511557E+03 -0.21956991539E+04  0.22377172579E+04  0.10100000352E+00 0. -1.
       -3    1    3    3    0  502 -0.40399833347E+03  0.15188511557E+03  0.13051773022E+04  0.13746896166E+04  0.10100000352E+00 0.  1.
</event>
<event>
 5   0  0.3628017E-08  0.3498971E+04  0.7818609E-02  0.8114034E-01
        2   -1    0    0  501    0  0.00000000000E+00  0.00000000000E+00  0.22882779436E+04  0.22882779436E+04  0.25500000920E-02 0. -1.
       -2   -1    0    0    0  501  0.00000000000E+00  0.00000000000E+00 -0.13375557757E+04  0.13375557757E+04  0.25500000920E-02 0.  1.
    10030    2    1    2    0    0  0.00000000000E+00  0.00000000000E+00  0.95072216791E+03  0.36258337193E+04  0.34989709229E+04 0.  0.
        1    1    3    3  502    0  0.50181957885E+03  0.79612447823E+01  0.22120777491E+04  0.22682976522E+04  0.50400001928E-02 0. -1.
       -1    1    3    3    0  502 -0.50181957885E+03 -0.79612447823E+01 -0.12613555812E+04  0.13575360670E+04  0.50400001928E-02 0.  1.
</event>
<event>
 5   0  0.1121462E-08  0.3499689E+04  0.7818609E-02  0.8113864E-01
        1   -1    0    0  501    0  0.00000000000E+00  0.00000000000E+00  0.15644413094E+04  0.15644413094E+04  0.50400001928E-02 0. -1.
       -1   -1    0    0    0  501  0.00000000000E+00  0.00000000000E+00 -0.19572194407E+04  0.19572194407E+04  0.50400001928E-02 0.  1.
    10030    2    1    2    0    0  0.00000000000E+00  0.00000000000E+00 -0.39277813131E+03  0.35216607501E+04  0.34996885259E+04 0.  0.
        4    1    3    3  502    0 -0.49790481789E+03  0.15023226064E+04  0.55466873940E+03  0.16770633395E+04  0.12699999809E+01 0.  1.
       -4    1    3    3    0  502  0.49790481789E+03 -0.15023226064E+04 -0.94744687071E+03  0.18445974106E+04  0.12699999809E+01 0. -1.
</event>
<event>
 5   0  0.1121462E-08  0.3498799E+04  0.7818609E-02  0.8114075E-01
       -1   -1    0    0    0  501  0.00000000000E+00  0.00000000000E+00  0.11463373160E+04  0.11463373160E+04  0.50400001928E-02 0. -1.
        1   -1    0    0  501    0  0.00000000000E+00  0.00000000000E+00 -0.26697187591E+04  0.26697187591E+04  0.50400001928E-02 0.  1.
    10030    2    1    2    0    0  0.00000000000E+00  0.00000000000E+00 -0.15233814431E+04  0.38160560751E+04  0.34987987864E+04 0.  0.
        4    1    3    3  502    0 -0.13411070102E+04 -0.54216925184E+03 -0.18347081805E+04  0.23363799414E+04  0.12699999809E+01 0.  1.
       -4    1    3    3    0  502  0.13411070102E+04  0.54216925184E+03  0.31132673742E+03  0.14796761337E+04  0.12699999809E+01 0. -1.
</event>
<event>
 5   0  0.1129219E-08  0.3499793E+04  0.7818609E-02  0.8113839E-01
       -1   -1    0    0    0  501  0.00000000000E+00  0.00000000000E+00  0.31354369212E+04  0.31354369212E+04  0.50400001928E-02 0. -1.
        1   -1    0    0  501    0  0.00000000000E+00  0.00000000000E+00 -0.97662240712E+03  0.97662240713E+03  0.50400001928E-02 0.  1.
    10030    2    1    2    0    0  0.00000000000E+00  0.00000000000E+00  0.21588145141E+04  0.41120593284E+04  0.34997931101E+04 0.  0.
        5    1    3    3  502    0 -0.11812831798E+04  0.59327097795E+03  0.24266097723E+04  0.27633055352E+04  0.46999998093E+01 0. -1.
       -5    1    3    3    0  502  0.11812831798E+04 -0.59327097795E+03 -0.26779525814E+03  0.13487537931E+04  0.46999998093E+01 0.  1.
</event>
<event>
 5   0  0.3553585E-08  0.3499553E+04  0.7818609E-02  0.8113896E-01
       -2   -1    0    0    0  501  0.00000000000E+00  0.00000000000E+00  0.15725938058E+04  0.15725938058E+04  0.25500000920E-02 0.  1.
        2   -1    0    0  501    0  0.00000000000E+00  0.00000000000E+00 -0.19469222435E+04  0.19469222435E+04  0.25500000920E-02 0. -1.
    10030    2    1    2    0    0  0.00000000000E+00  0.00000000000E+00 -0.37432843767E+03  0.35195160493E+04  0.34995530346E+04 0.  0.
        2    1    3    3  502    0  0.10136112978E+04 -0.64981546027E+03 -0.14640722140E+04  0.18955673144E+04  0.25500000920E-02 0. -1.
       -2    1    3    3    0  502 -0.10136112978E+04  0.64981546027E+03  0.10897437764E+04  0.16239487349E+04  0.25500000920E-02 0.  1.
</event>
<event>
 5   0  0.3700096E-08  0.3485273E+04  0.7818609E-02  0.8117289E-01
       -2   -1    0    0    0  501  0.00000000000E+00  0.00000000000E+00  0.24687279635E+04  0.24687279635E+04  0.25500000920E-02 0.  1.
        2   -1    0    0  501    0  0.00000000000E+00  0.00000000000E+00 -0.12300997814E+04  0.12300997814E+04  0.25500000920E-02 0. -1.
    10030    2    1    2    0    0  0.00000000000E+00  0.00000000000E+00  0.12386281822E+04  0.36988277449E+04  0.34852728606E+04 0.  0.
        4    1    3    3  502    0 -0.20222653526E+03 -0.37869154382E+03  0.24117284627E+04  0.24496405140E+04  0.12699999809E+01 0.  1.
       -4    1    3    3    0  502  0.20222653526E+03  0.37869154382E+03 -0.11731002805E+04  0.12491872309E+04  0.12699999809E+01 0. -1.
</event>
<event>
 5   0  0.3554451E-08  0.3502256E+04  0.7818609E-02  0.8113256E-01
       -2   -1    0    0    0  501  0.00000000000E+00  0.00000000000E+00  0.15831183870E+04  0.15831183870E+04  0.25500000920E-02 0. -1.
        2   -1    0    0  501    0  0.00000000000E+00  0.00000000000E+00 -0.19369675362E+04  0.19369675362E+04  0.25500000920E-02 0.  1.
    10030    2    1    2    0    0  0.00000000000E+00  0.00000000000E+00 -0.35384914913E+03  0.35200859232E+04  0.35022557997E+04 0.  0.
        5    1    3    3  502    0 -0.66457639780E+03 -0.15581734608E+04 -0.62287307031E+03  0.18048709855E+04  0.46999998093E+01 0.  1.
       -5    1    3    3    0  502  0.66457639780E+03  0.15581734608E+04  0.26902392118E+03  0.17152149377E+04  0.46999998093E+01 0. -1.
</event>
<event>
 5   0  0.3467834E-08  0.3501142E+04  0.7818609E-02  0.8113519E-01
        2   -1    0    0  501    0  0.00000000000E+00  0.00000000000E+00  0.10473814272E+04  0.10473814272E+04  0.25500000920E-02 0.  1.
       -2   -1    0    0    0  501  0.00000000000E+00  0.00000000000E+00 -0.29258672163E+04  0.29258672163E+04  0.25500000920E-02 0. -1.
    10030    2    1    2    0    0  0.00000000000E+00  0.00000000000E+00 -0.18784857891E+04  0.39732486435E+04  0.35011420884E+04 0.  0.
        3    1    3    3  502    0 -0.35053469776E+03  0.58128617146E+03 -0.27704355860E+04  0.28523817300E+04  0.10100000352E+00 0. -1.
       -3    1    3    3    0  502  0.35053469776E+03 -0.58128617146E+03  0.89194979684E+03  0.11208669135E+04  0.10100000352E+00 0.  1.
</event>
<event>
 5   0  0.3554451E-08  0.3500536E+04  0.7818609E-02  0.8113663E-01
        2   -1    0    0  501    0  0.00000000000E+00  0.00000000000E+00  0.18553238468E+04  0.18553238468E+04  0.25500000920E-02 0.  1.
       -2   -1    0    0    0  501  0.00000000000E+00  0.00000000000E+00 -0.16511607420E+04  0.16511607420E+04  0.25500000920E-02 0. -1.
    10030    2    1    2    0    0  0.00000000000E+00  0.00000000000E+00  0.20416310479E+03  0.35064845888E+04  0.35005359015E+04 0.  0.
        5    1    3    3  502    0 -0.13839651428E+04 -0.10675700439E+04  0.19361788125E+03  0.17585719460E+04  0.46999998093E+01 0. -1.
       -5    1    3    3    0  502  0.13839651428E+04  0.10675700439E+04  0.10545223542E+02  0.17479126428E+04  0.46999998093E+01 0.  1.
</event>
<event>
 5   0  0.3553585E-08  0.3492578E+04  0.7818609E-02  0.8115551E-01
        2   -1    0    0  501    0  0.00000000000E+00  0.00000000000E+00  0.19918662989E+04  0.19918662989E+04  0.25500000920E-02 0. -1.
       -2   -1    0    0    0  501  0.00000000000E+00  0.00000000000E+00 -0.15309886956E+04  0.15309886956E+04  0.25500000920E-02 0.  1.
    10030    2    1    2    0    0  0.00000000000E+00  0.00000000000E+00  0.46087760329E+03  0.35228549944E+04  0.34925777223E+04 0.  0.
        2    1    3    3  502    0  0.70624609647E+03  0.21629298698E+03 -0.13656691394E+04  0.15526166311E+04  0.25500000920E-02 0.  1.
       -2    1    3    3    0  502 -0.70624609647E+03 -0.21629298698E+03  0.18265467427E+04  0.19702383633E+04  0.25500000920E-02 0. -1.
</event>
<event>
 5   0  0.1121462E-08  0.3481827E+04  0.7818609E-02  0.8118110E-01
       -1   -1    0    0    0  501  0.00000000000E+00  0.00000000000E+00  0.14966620719E+04  0.14966620719E+04  0.50400001928E-02 0. -1.
        1   -1    0    0  501    0  0.00000000000E+00  0.00000000000E+00 -0.20250257814E+04  0.20250257814E+04  0.50400001928E-02 0.  1.
    10030    2    1    2    0    0  0.00000000000E+00  0.00000000000E+00 -0.52836370948E+03  0.35216878532E+04  0.34818266939E+04 0.  0.
        1    1    3    3  502    0  0.11391541135E+04 -0.11168809531E+04  0.44070703047E+03  0.16550884702E+04  0.50400001928E-02 0. -1.
       -1    1    3    3    0  502 -0.11391541135E+04  0.11168809531E+04 -0.96907073995E+03  0.18665993830E+04  0.50400001928E-02 0.  1.
</event>
<event>
 5   0  0.1121462E-08  0.3500275E+04  0.7818609E-02  0.8113725E-01
        1   -1    0    0  501    0  0.00000000000E+00  0.00000000000E+00  0.17918375784E+04  0.17918375784E+04  0.50400001928E-02 0.  1.
       -1   -1    0    0    0  501  0.00000000000E+00  0.00000000000E+00 -0.17094081618E+04  0.17094081618E+04  0.50400001928E-02 0. -1.
    10030    2    1    2    0    0  0.00000000000E+00  0.00000000000E+00  0.82429416570E+02  0.35012457402E+04  0.35002752927E+04 0.  0.
        4    1    3    3  502    0 -0.98735289722E+03 -0.77499480342E+03 -0.11787534912E+04  0.17219013023E+04  0.12699999809E+01 0. -1.
       -4    1    3    3    0  502  0.98735289722E+03  0.77499480342E+03  0.12611829078E+04  0.17793444379E+04  0.12699999809E+01 0.  1.
</event>
<event>
 5   0  0.3628017E-08  0.3501425E+04  0.7818609E-02  0.8113452E-01
        2   -1    0    0  501    0  0.00000000000E+00  0.00000000000E+00  0.13746968852E+04  0.13746968852E+04  0.25500000920E-02 0.  1.
       -2   -1    0    0    0  501  0.00000000000E+00  0.00000000000E+00 -0.22295783996E+04  0.22295783996E+04  0.25500000920E-02 0. -1.
    10030    2    1    2    0    0  0.00000000000E+00  0.00000000000E+00 -0.85488151446E+03  0.36042752848E+04  0.35014251277E+04 0.  0.
        1    1    3    3  502    0 -0.98323884653E+02 -0.16853440022E+04 -0.90467791068E+03  0.19153313328E+04  0.50400001928E-02 0. -1.
       -1    1    3    3    0  502  0.98323884653E+02  0.16853440022E+04  0.49796396225E+02  0.16889439521E+04  0.50400001928E-02 0.  1.
</event>
<event>
 5   0  0.3700096E-08  0.3500481E+04  0.7818609E-02  0.8113676E-01
        2   -1    0    0  501    0  0.00000000000E+00  0.00000000000E+00  0.21344087182E+04  0.21344087182E+04  0.25500000920E-02 0. -1.
       -2   -1    0    0    0  501  0.00000000000E+00  0.00000000000E+00 -0.14352177358E+04  0.14352177358E+04  0.25500000920E-02 0.  1.
    10030    2    1    2    0    0  0.00000000000E+00  0.00000000000E+00  0.69919098235E+03  0.35696264540E+04  0.35004806800E+04 0.  0.
        4    1    3    3  502    0  0.30654211599E+02 -0.72602258671E+02 -0.14334070384E+04  0.14355724013E+04  0.12699999809E+01 0.  1.
       -4    1    3    3    0  502 -0.30654211599E+02  0.72602258671E+02  0.21325980208E+04  0.21340540527E+04  0.12699999809E+01 0. -1.
</event>
<event>
 5   0  0.1121462E-08  0.3496850E+04  0.7818609E-02  0.8114537E-01
        1   -1    0    0  501    0  0.00000000000E+00  0.00000000000E+00  0.10933386457E+04  0.10933386457E+04  0.50400001928E-02 0.  1.
       -1   -1    0    0    0  501  0.00000000000E+00  0.00000000000E+00 -0.27960142447E+04  0.27960142447E+04  0.50400001928E-02 0. -1.
    10030    2    1    2    0    0  0.00000000000E+00  0.00000000000E+00 -0.17026755990E+04  0.38893528904E+04  0.34968502557E+04 0.  0.
        2    1    3    3  502    0 -0.35304953839E+03  0.11949924701E+04  0.51284709535E+03  0.13474654442E+04  0.25500000920E-02 0.  1.
       -2    1    3    3    0  502  0.35304953839E+03 -0.11949924701E+04 -0.22155226943E+04  0.25418874462E+04  0.25500000920E-02 0. -1.
</event>
<event>
 5   0  0.1121462E-08  0.3500695E+04  0.7818609E-02  0.8113625E-01
        1   -1    0    0  501    0  0.00000000000E+00  0.00000000000E+00  0.19385829219E+04  0.19385829219E+04  0.50400001928E-02 0. -1.
       -1   -1    0    0    0  501  0.00000000000E+00  0.00000000000E+00 -0.15803899535E+04  0.15803899536E+04  0.50400001928E-02 0.  1.
    10030    2    1    2    0    0  0.00000000000E+00  0.00000000000E+00  0.35819296837E+03  0.35189728755E+04  0.35006953446E+04 0.  0.
        2    1    3    3  502    0 -0.10519925602E+04  0.12431830045E+04 -0.46575473675E+03  0.16938476331E+04  0.25500000920E-02 0.  1.
       -2    1    3    3    0  502  0.10519925602E+04 -0.12431830045E+04  0.82394770512E+03  0.18251252423E+04  0.25500000920E-02 0. -1.
</event>
<event>
 5   0  0.3553585E-08  0.3500897E+04  0.7818609E-02  0.8113577E-01
        2   -1    0    0  501    0  0.00000000000E+00  0.00000000000E+00  0.26781140571E+04  0.26781140571E+04  0.25500000920E-02 0. -1.
       -2   -1    0    0    0  501  0.00000000000E+00  0.00000000000E+00 -0.11441148695E+04  0.11441148695E+04  0.25500000920E-02 0.  1.
    10030    2    1    2    0    0  0.00000000000E+00  0.00000000000E+00  0.15339991876E+04  0.38222289266E+04  0.35008970936E+04 0.  0.
        2    1    3    3  502    0 -0.68736007451E+01 -0.70330055244E+03  0.25170576899E+04  0.26134762918E+04  0.25500000920E-02 0. -1.
       -2    1    3    3    0  502  0.68736007451E+01  0.70330055244E+03 -0.98305850227E+03  0.12087526349E+04  0.25500000920E-02 0.  1.
</event>
<event>
 5   0  0.3467834E-08  0.3495109E+04  0.7818609E-02  0.8114950E-01
        2   -1    0    0  501    0  0.00000000000E+00  0.00000000000E+00  0.15748853892E+04  0.15748853892E+04  0.25500000920E-02 0. -1.
       -2   -1    0    0    0  501  0.00000000000E+00  0.00000000000E+00 -0.19391545565E+04  0.19391545565E+04  0.25500000920E-02 0.  1.
    10030    2    1    2    0    0  0.00000000000E+00  0.00000000000E+00 -0.36426916735E+03  0.35140399457E+04  0.34951086841E+04 0.  0.
        3    1    3    3  502    0  0.27634483482E+03  0.95191285582E+03  0.12649114840E+04  0.16070176182E+04  0.10100000352E+00 0. -1.
       -3    1    3    3    0  502 -0.27634483482E+03 -0.95191285582E+03 -0.16291806513E+04  0.19070223275E+04  0.10100000352E+00 0.  1.
</event>
<event>
 5   0  0.3553585E-08  0.3496041E+04  0.7818609E-02  0.8114729E-01
        2   -1    0    0  501    0  0.00000000000E+00  0.00000000000E+00  0.16897797266E+04  0.16897797266E+04  0.25500000920E-02 0.  1.
       -2   -1    0    0    0  501  0.00000000000E+00  0.00000000000E+00 -0.18082681311E+04  0.18082681311E+04  0.25500000920E-02 0. -1.
    10030    2    1    2    0    0  0.00000000000E+00  0.00000000000E+00 -0.11848840449E+03  0.34980478577E+04  0.34960405193E+04 0.  0.
        2    1    3    3  502    0  0.16180661388E+03  0.22619911453E+03  0.16675008387E+04  0.16905343732E+04  0.25500000920E-02 0.  1.
       -2    1    3    3    0  502 -0.16180661388E+03 -0.22619911453E+03 -0.17859892432E+04  0.18075134845E+04  0.25500000920E-02 0. -1.
</event>
<event>
 5   0  0.3628017E-08  0.3499888E+04  0.7818609E-02  0.8113816E-01
        2   -1    0    0  501    0  0.00000000000E+00  0.00000000000E+00  0.14002108422E+04  0.14002108422E+04  0.25500000920E-02 0. -1.
       -2   -1    0    0    0  501  0.00000000000E+00  0.00000000000E+00 -0.21870308887E+04  0.21870308887E+04  0.25500000920E-02 0.  1.
    10030    2    1    2    0    0  0.00000000000E+00  0.00000000000E+00 -0.78682004652E+03  0.35872417309E+04  0.34998882054E+04 0.  0.
        1    1    3    3  502    0 -0.33513666823E+03 -0.11251333359E+04 -0.17235140437E+04  0.20853638216E+04  0.50400001928E-02 0.  1.
       -1    1    3    3    0  502  0.33513666823E+03  0.11251333359E+04  0.93669399716E+03  0.15018779092E+04  0.50400001928E-02 0. -1.
</event>
<event>
 5   0  0.1129219E-08  0.3498954E+04  0.7818609E-02  0.8114038E-01
        1   -1    0    0  501    0  0.00000000000E+00  0.00000000000E+00  0.17122309900E+04  0.17122309900E+04  0.50400001928E-02 0.  1.
       -1   -1    0    0    0  501  0.00000000000E+00  0.00000000000E+00 -0.17875334172E+04  0.17875334172E+04  0.50400001928E-02 0. -1.
    10030    2    1    2    0    0  0.00000000000E+00  0.00000000000E+00 -0.75302427184E+02  0.34997644073E+04  0.34989541939E+04 0.  0.
        5    1    3    3  502    0  0.16143416697E+04 -0.20077118644E+03 -0.68141498312E+03  0.17637337001E+04  0.46999998093E+01 0. -1.
       -5    1    3    3    0  502 -0.16143416697E+04  0.20077118644E+03  0.60611255594E+03  0.17360307072E+04  0.46999998093E+01 0.  1.
</event>
<event>
 5   0  0.3554451E-08  0.3501181E+04  0.7818609E-02  0.8113510E-01
       -2   -1    0    0    0  501  0.00000000000E+00  0.00000000000E+00  0.21442229426E+04  0.21442229426E+04  0.25500000920E-02 0. -1.
        2   -1    0    0  501    0  0.00000000000E+00  0.00000000000E+00 -0.14292200113E+04  0.14292200113E+04  0.25500000920E-02 0.  1.
    10030    2    1    2    0    0  0.00000000000E+00  0.00000000000E+00  0.71500293133E+03  0.35734429539E+04  0.35011805657E+04 0.  0.
        5    1    3    3  502    0 -0.79777454310E+03 -0.14229550786E+04  0.10056668707E+04  0.19164115743E+04  0.46999998093E+01 0. -1.
       -5    1    3    3    0  502  0.79777454310E+03  0.14229550786E+04 -0.29066393941E+03  0.16570313796E+04  0.46999998093E+01 0.  1.
</event>
<event>
 5   0  0.3700096E-08  0.3500293E+04  0.7818609E-02  0.8113720E-01
        2   -1    0    0  501    0  0.00000000000E+00  0.00000000000E+00  0.23159313268E+04  0.23159313268E+04  0.25500000920E-02 0.  1.
       -2   -1    0    0    0  501  0.00000000000E+00  0.00000000000E+00 -0.13225839424E+04  0.13225839424E+04  0.25500000920E-02 0. -1.
    10030    2    1    2    0    0  0.00000000000E+00  0.00000000000E+00  0.99334738444E+03  0.36385152693E+04  0.35002934646E+04 0.  0.
        4    1    3    3  502    0  0.12595383229E+04  0.57956315283E+03 -0.61352826534E+03  0.15161625178E+04  0.12699999809E+01 0. -1.
       -4    1    3    3    0  502 -0.12595383229E+04 -0.57956315283E+03  0.16068756498E+04  0.21223527515E+04  0.12699999809E+01 0.  1.
</event>
<event>
 5   0  0.3553585E-08  0.3499435E+04  0.7818609E-02  0.8113924E-01
        2   -1    0    0  501    0  0.00000000000E+00  0.00000000000E+00  0.23345734273E+04  0.23345734273E+04  0.25500000920E-02 0. -1.
       -2   -1    0    0    0  501  0.00000000000E+00  0.00000000000E+00 -0.13113792770E+04  0.13113792770E+04  0.25500000920E-02 0.  1.
    10030    2    1    2    0    0  0.00000000000E+00  0.00000000000E+00  0.10231941503E+04  0.36459527043E+04  0.34994349333E+04 0.  0.
        2    1    3    3  502    0 -0.12530466030E+04 -0.10886238321E+04  0.10881975056E+04  0.19847925454E+04  0.25500000920E-02 0. -1.
       -2    1    3    3    0  502  0.12530466030E+04  0.10886238321E+04 -0.65003355263E+02  0.16611601588E+04  0.25500000920E-02 0.  1.
</event>
<event>
 5   0  0.1129219E-08  0.3499743E+04  0.7818609E-02  0.8113851E-01
       -1   -1    0    0    0  501  0.00000000000E+00  0.00000000000E+00  0.16312217423E+04  0.16312217423E+04  0.50400001928E-02 0. -1.
        1   -1    0    0  501    0  0.00000000000E+00  0.00000000000E+00 -0.18771517570E+04  0.18771517570E+04  0.50400001928E-02 0.  1.
    10030    2    1    2    0    0  0.00000000000E+00  0.00000000000E+00 -0.24593001465E+03  0.35083734993E+04  0.34997432818E+04 0.  0.
        5    1    3    3  502    0 -0.57037493158E+03 -0.15999340359E+04  0.29868150266E+03  0.17246301667E+04  0.46999998093E+01 0. -1.
       -5    1    3    3    0  502  0.57037493158E+03  0.15999340359E+04 -0.54461151731E+03  0.17837433326E+04  0.46999998093E+01 0.  1.
</event>
<event>
 5   0  0.1129219E-08  0.3504260E+04  0.7818609E-02  0.8112781E-01
       -1   -1    0    0    0  501  0.00000000000E+00  0.00000000000E+00  0.14251812210E+04  0.14251812210E+04  0.50400001928E-02 0. -1.
        1   -1    0    0  501    0  0.00000000000E+00  0.00000000000E+00 -0.21540831179E+04  0.21540831179E+04  0.50400001928E-02 0.  1.
    10030    2    1    2    0    0  0.00000000000E+00  0.00000000000E+00 -0.72890189693E+03  0.35792643390E+04  0.35042595841E+04 0.  0.
        5    1    3    3  502    0 -0.16928820780E+04  0.18001412763E+03 -0.78766469110E+03  0.18758178408E+04  0.46999998093E+01 0. -1.
       -5    1    3    3    0  502  0.16928820780E+04 -0.18001412763E+03  0.58762794172E+02  0.17034464982E+04  0.46999998093E+01 0.  1.
</event>
<event>
 5   0  0.3628017E-08  0.3498736E+04  0.7818609E-02  0.8114090E-01
        2   -1    0    0  501    0  0.00000000000E+00  0.00000000000E+00  0.22220276610E+04  0.22220276610E+04  0.25500000920E-02 0.  1.
       -2   -1    0    0    0  501  0.00000000000E+00  0.00000000000E+00 -0.13772502072E+04  0.13772502072E+04  0.25500000920E-02 0. -1.
    10030    2    1    2    0    0  0.00000000000E+00  0.00000000000E+00  0.84477745372E+03  0.35992778682E+04  0.34987358040E+04 0.  0.
        1    1    3    3  502    0  0.13580146942E+04  0.16796084270E+02  0.15567089115E+04  0.20658723710E+04  0.50400001928E-02 0.  1.
       -1    1    3    3    0  502 -0.13580146942E+04 -0.16796084270E+02 -0.71193145774E+03  0.15334054972E+04  0.50400001928E-02 0. -1.
</event>
<event>
 5   0  0.3554451E-08  0.3498611E+04  0.7818609E-02  0.8114119E-01
       -2   -1    0    0    0  501  0.00000000000E+00  0.00000000000E+00  0.16700688988E+04  0.16700688988E+04  0.25500000920E-02 0. -1.
        2   -1    0    0  501    0  0.00000000000E+00  0.00000000000E+00 -0.18323019404E+04  0.18323019404E+04  0.25500000920E-02 0.  1.
    10030    2    1    2    0    0  0.00000000000E+00  0.00000000000E+00 -0.16223304154E+03  0.35023708392E+04  0.34986114296E+04 0.  0.
        5    1    3    3  502    0 -0.14367553896E+04  0.73956636200E+03 -0.75177964066E+03  0.17822511527E+04  0.46999998093E+01 0.  1.
       -5    1    3    3    0  502  0.14367553896E+04 -0.73956636200E+03  0.58954659912E+03  0.17201196865E+04  0.46999998093E+01 0. -1.
</event>
<event>
 5   0  0.3554451E-08  0.3500252E+04  0.7818609E-02  0.8113730E-01
       -2   -1    0    0    0  501  0.00000000000E+00  0.00000000000E+00  0.11139482560E+04  0.11139482560E+04  0.25500000920E-02 0.  1.
        2   -1    0    0  501    0  0.00000000000E+00  0.00000000000E+00 -0.27496259559E+04  0.27496259559E+04  0.25500000920E-02 0. -1.
    10030    2    1    2    0    0  0.00000000000E+00  0.00000000000E+00 -0.16356777000E+04  0.38635742119E+04  0.35002520127E+04 0.  0.
        5    1    3    3  502    0  0.14059670579E+04 -0.28169140435E+03 -0.19253983203E+04  0.24006820275E+04  0.46999998093E+01 0. -1.
       -5    1    3    3    0  502 -0.14059670579E+04  0.28169140435E+03  0.28972062034E+03  0.14628921844E+04  0.46999998093E+01 0.  1.
</event>
<event>
 5   0  0.1121462E-08  0.3500392E+04  0.7818609E-02  0.8113697E-01
        1   -1    0    0  501    0  0.00000000000E+00  0.00000000000E+00  0.13098427942E+04  0.13098427942E+04  0.50400001928E-02 0.  1.
       -1   -1    0    0    0  501  0.00000000000E+00  0.00000000000E+00 -0.23385902234E+04  0.23385902234E+04  0.50400001928E-02 0. -1.
    10030    2    1    2    0    0  0.00000000000E+00  0.00000000000E+00 -0.10287474293E+04  0.36484330176E+04  0.35003917225E+04 0.  0.
        4    1    3    3  502    0  0.52462932620E+03  0.11613392922E+04  0.73604710866E+03  0.14716357704E+04  0.12699999809E+01 0.  1.
       -4    1    3    3    0  502 -0.52462932620E+03 -0.11613392922E+04 -0.17647945379E+04  0.21767972472E+04  0.12699999809E+01 0. -1.
</event>
<event>
 5   0  0.1121462E-08  0.3498494E+04  0.7818609E-02  0.8114147E-01
        1   -1    0    0  501    0  0.00000000000E+00  0.00000000000E+00  0.15770729010E+04  0.15770729010E+04  0.50400001928E-02 0. -1.
       -1   -1    0    0    0  501  0.00000000000E+00  0.00000000000E+00 -0.19402178548E+04  0.19402178548E+04  0.50400001928E-02 0.  1.
    10030    2    1    2    0    0  0.00000000000E+00  0.00000000000E+00 -0.36314495378E+03  0.35172907558E+04  0.34984939621E+04 0.  0.
        4    1    3    3  502    0 -0.30944104280E+02  0.14744999629E+04  0.76409581811E+03  0.16610092445E+04  0.12699999809E+01 0. -1.
       -4    1    3    3    0  502  0.30944104280E+02 -0.14744999629E+04 -0.11272407719E+04  0.18562815112E+04  0.12699999809E+01 0.  1.
</event>
<event>
 5   0  0.1121462E-08  0.3500184E+04  0.7818609E-02  0.8113746E-01
       -1   -1    0    0    0  501  0.00000000000E+00  0.00000000000E+00  0.15495043219E+04  0.15495043219E+04  0.50400001928E-02 0.  1.
        1   -1    0    0  501    0  0.00000000000E+00  0.00000000000E+00 -0.19766460418E+04  0.19766460418E+04  0.50400001928E-02 0. -1.
    10030    2    1    2    0    0  0.00000000000E+00  0.00000000000E+00 -0.42714171994E+03  0.35261503637E+04  0.35001837578E+04 0.  0.
        2    1    3    3  502    0 -0.22194728667E+03  0.17338622042E+04 -0.12759817813E+03  0.17526608446E+04  0.25500000920E-02 0. -1.
       -2    1    3    3    0  502  0.22194728667E+03 -0.17338622042E+04 -0.29954354181E+03  0.17734895191E+04  0.25500000920E-02 0.  1.
</event>
<event>
 5   0  0.3628017E-08  0.3491452E+04  0.7818609E-02  0.8115819E-01
       -2   -1    0    0    0  501  0.00000000000E+00  0.00000000000E+00  0.12531772417E+04  0.12531772417E+04  0.25500000920E-02 0.  1.
        2   -1    0    0  501    0  0.00000000000E+00  0.00000000000E+00 -0.24318665361E+04  0.24318665361E+04  0.25500000920E-02 0. -1.
    10030    2    1    2    0    0  0.00000000000E+00  0.00000000000E+00 -0.11786892944E+04  0.36850437777E+04  0.34914523040E+04 0.  0.
        1    1    3    3  502    0  0.20946211386E+02  0.41614957294E+03 -0.23786127952E+04  0.24148329218E+04  0.50400001928E-02 0. -1.
       -1    1    3    3    0  502 -0.20946211386E+02 -0.41614957294E+03  0.11999235008E+04  0.12702108560E+04  0.50400001928E-02 0.  1.
</event>
<event>
 5   0  0.3554451E-08  0.3496373E+04  0.7818609E-02  0.8114650E-01
       -2   -1    0    0    0  501  0.00000000000E+00  0.00000000000E+00  0.18348273247E+04  0.18348273247E+04  0.25500000920E-02 0. -1.
        2   -1    0    0  501    0  0.00000000000E+00  0.00000000000E+00 -0.16656368330E+04  0.16656368330E+04  0.25500000920E-02 0.  1.
    10030    2    1    2    0    0  0.00000000000E+00  0.00000000000E+00  0.16919049177E+03  0.35004641577E+04  0.34963729631E+04 0.  0.
        5    1    3    3  502    0  0.14201395546E+04  0.98569251455E+03  0.34518387945E+03  0.17628272997E+04  0.46999998093E+01 0. -1.
       -5    1    3    3    0  502 -0.14201395546E+04 -0.98569251455E+03 -0.17599338768E+03  0.17376368580E+04  0.46999998093E+01 0.  1.
</event>
<event>
 5   0  0.3467834E-08  0.3483671E+04  0.7818609E-02  0.8117671E-01
        2   -1    0    0  501    0  0.00000000000E+00  0.00000000000E+00  0.21689648783E+04  0.21689648783E+04  0.25500000920E-02 0.  1.
       -2   -1    0    0    0  501  0.00000000000E+00  0.00000000000E+00 -0.13988198991E+04  0.13988198991E+04  0.25500000920E-02 0. -1.
    10030    2    1    2    0    0  0.00000000000E+00  0.00000000000E+00  0.77014497922E+03  0.35677847774E+04  0.34836711855E+04 0.  0.
        3    1    3    3  502    0 -0.17284031528E+04  0.18187106656E+03  0.26591604151E+03  0.17581711790E+04  0.10100000352E+00 0. -1.
       -3    1    3    3    0  502  0.17284031528E+04 -0.18187106656E+03  0.50422893771E+03  0.18096135983E+04  0.10100000352E+00 0.  1.
</event>
<event>
 5   0  0.1121462E-08  0.3498137E+04  0.7818609E-02  0.8114231E-01
        1   -1    0    0  501    0  0.00000000000E+00  0.00000000000E+00  0.18607210054E+04  0.18607210054E+04  0.50400001928E-02 0. -1.
       -1   -1    0    0    0  501  0.00000000000E+00  0.00000000000E+00 -0.16441161260E+04  0.16441161260E+04  0.50400001928E-02 0.  1.
    10030    2    1    2    0    0  0.00000000000E+00  0.00000000000E+00  0.21660487936E+03  0.35048371314E+04  0.34981374536E+04 0.  0.
        1    1    3    3  502    0 -0.10443256359E+04  0.39138895994E+03 -0.12416607549E+04  0.16689885506E+04  0.50400001928E-02 0.  1.
       -1    1    3    3    0  502  0.10443256359E+04 -0.39138895994E+03  0.14582656342E+04  0.18358485808E+04  0.50400001928E-02 0. -1.
</event>
<event>
 5   0  0.3628017E-08  0.3498805E+04  0.7818609E-02  0.8114073E-01
       -2   -1    0    0    0  501  0.00000000000E+00  0.00000000000E+00  0.18031403317E+04  0.18031403317E+04  0.25500000920E-02 0. -1.
        2   -1    0    0  501    0  0.00000000000E+00  0.00000000000E+00 -0.16972657051E+04  0.16972657051E+04  0.25500000920E-02 0.  1.
    10030    2    1    2    0    0  0.00000000000E+00  0.00000000000E+00  0.10587462660E+03  0.35004060369E+04  0.34988045082E+04 0.  0.
        1    1    3    3  502    0 -0.29064328056E+03  0.14703082992E+04 -0.84976624686E+03  0.17228994995E+04  0.50400001928E-02 0.  1.
       -1    1    3    3    0  502  0.29064328056E+03 -0.14703082992E+04  0.95564087346E+03  0.17775065373E+04  0.50400001928E-02 0. -1.
</event>
<event>
 5   0  0.1121462E-08  0.3498676E+04  0.7818609E-02  0.8114104E-01
       -1   -1    0    0    0  501  0.00000000000E+00  0.00000000000E+00  0.16265629960E+04  0.16265629960E+04  0.50400001928E-02 0. -1.
        1   -1    0    0  501    0  0.00000000000E+00  0.00000000000E+00 -0.18813803712E+04  0.18813803712E+04  0.50400001928E-02 0.  1.
    10030    2    1    2    0    0  0.00000000000E+00  0.00000000000E+00 -0.25481737525E+03  0.35079433672E+04  0.34986761458E+04 0.  0.
        4    1    3    3  502    0  0.52611550985E+01  0.16495838449E+04  0.45639430662E+03  0.17115641727E+04  0.12699999809E+01 0. -1.
       -4    1    3    3    0  502 -0.52611550985E+01 -0.16495838449E+04 -0.71121168187E+03  0.17963791945E+04  0.12699999809E+01 0.  1.
</event>
<event>
 5   0  0.3467834E-08  0.3503827E+04  0.7818609E-02  0.8112884E-01
       -2   -1    0    0    0  501  0.00000000000E+00  0.00000000000E+00  0.15574831721E+04  0.15574831721E+04  0.25500000920E-02 0. -1.
        2   -1    0    0  501    0  0.00000000000E+00  0.00000000000E+00 -0.19706160658E+04  0.19706160658E+04  0.25500000920E-02 0.  1.
    10030    2    1    2    0    0  0.00000000000E+00  0.00000000000E+00 -0.41313289369E+03  0.35280992379E+04  0.35038272567E+04 0.  0.
        3    1    3    3  502    0  0.37778977070E+03  0.35171134127E+02  0.15156145800E+04  0.15623858949E+04  0.10100000352E+00 0. -1.
       -3    1    3    3    0  502 -0.37778977070E+03 -0.35171134127E+02 -0.19287474736E+04  0.19657133430E+04  0.10100000352E+00 0.  1.
</event>
<event>
 5   0  0.3700096E-08  0.3499448E+04  0.7818609E-02  0.8113921E-01
        2   -1    0    0  501    0  0.00000000000E+00  0.00000000000E+00  0.25650016757E+04  0.25650016757E+04  0.25500000920E-02 0. -1.
       -2   -1    0    0    0  501  0.00000000000E+00  0.00000000000E+00 -0.11935794539E+04  0.11935794539E+04  0.25500000920E-02 0.  1.
    10030    2    1    2    0    0  0.00000000000E+00  0.00000000000E+00  0.13714222217E+04  0.37585811296E+04  0.34994475560E+04 0.  0.
        4    1    3    3  502    0  0.23652647807E+03 -0.94597469563E+03 -0.87470213209E+03  0.13099306594E+04  0.12699999809E+01 0.  1.
       -4    1    3    3    0  502 -0.23652647807E+03  0.94597469563E+03  0.22461243538E+04  0.24486504702E+04  0.12699999809E+01 0. -1.
</event>
<event>
 5   0  0.1121462E-08  0.3502770E+04  0.7818609E-02  0.8113134E-01
        1   -1    0    0  501    0  0.00000000000E+00  0.00000000000E+00  0.13528793961E+04  0.13528793961E+04  0.50400001928E-02 0.  1.
       -1   -1    0    0    0  501  0.00000000000E+00  0.00000000000E+00 -0.22672750268E+04  0.22672750268E+04  0.50400001928E-02 0. -1.
    10030    2    1    2    0    0  0.00000000000E+00  0.00000000000E+00 -0.91439563062E+03  0.36201544229E+04  0.35027701433E+04 0.  0.
        1    1    3    3  502    0 -0.38296038387E+03 -0.14794033751E+04  0.42707812214E+03  0.15867226362E+04  0.50400001928E-02 0.  1.
       -1    1    3    3    0  502  0.38296038387E+03  0.14794033751E+04 -0.13414737528E+04  0.20334317867E+04  0.50400001928E-02 0. -1.
</event>
<event>
 5   0  0.3467834E-08  0.3502196E+04  0.7818609E-02  0.8113270E-01
        2   -1    0    0  501    0  0.00000000000E+00  0.00000000000E+00  0.17921637383E+04  0.17921637383E+04  0.25500000920E-02 0.  1.
       -2   -1    0    0    0  501  0.00000000000E+00  0.00000000000E+00 -0.17109737001E+04  0.17109737001E+04  0.25500000920E-02 0. -1.
    10030    2    1    2    0    0  0.00000000000E+00  0.00000000000E+00  0.81190038158E+02  0.35031374384E+04  0.35021964665E+04 0.  0.
        3    1    3    3  502    0 -0.21091031018E+03 -0.17326336126E+04  0.18149669423E+03  0.17548343097E+04  0.10100000352E+00 0. -1.
       -3    1    3    3    0  502  0.21091031018E+03  0.17326336126E+04 -0.10030665608E+03  0.17483031287E+04  0.10100000352E+00 0.  1.
</event>
<event>
 5   0  0.1129219E-08  0.3500709E+04  0.7818609E-02  0.8113622E-01
        1   -1    0    0  501    0  0.00000000000E+00  0.00000000000E+00  0.17071295387E+04  0.17071295387E+04  0.50400001928E-02 0.  1.
       -1   -1    0    0    0  501  0.00000000000E+00  0.00000000000E+00 -0.17946736232E+04  0.17946736232E+04  0.50400001928E-02 0. -1.
    10030    2    1    2    0    0  0.00000000000E+00  0.00000000000E+00 -0.87544084449E+02  0.35018031619E+04  0.35007087023E+04 0.  0.
        5    1    3    3  502    0  0.14805247907E+04 -0.64556852782E+03 -0.71852417041E+03  0.17677701925E+04  0.46999998093E+01 0. -1.
       -5    1    3    3    0  502 -0.14805247907E+04  0.64556852782E+03  0.63098008596E+03  0.17340329694E+04  0.46999998093E+01 0.  1.
</event>
<event>
 5   0  0.1129219E-08  0.3500662E+04  0.7818609E-02  0.8113633E-01
       -1   -1    0    0    0  501  0.00000000000E+00  0.00000000000E+00  0.22623370962E+04  0.22623370962E+04  0.50400001928E-02 0.  1.
        1   -1    0    0  501    0  0.00000000000E+00  0.00000000000E+00 -0.13542006359E+04  0.13542006359E+04  0.50400001928E-02 0. -1.
    10030    2    1    2    0    0  0.00000000000E+00  0.00000000000E+00  0.90813646033E+03  0.36165377321E+04  0.35006618427E+04 0.  0.
        5    1    3    3  502    0  0.11110639156E+04  0.11516511758E+04 -0.27854019334E+03  0.16243060624E+04  0.46999998093E+01 0. -1.
       -5    1    3    3    0  502 -0.11110639156E+04 -0.11516511758E+04  0.11866766537E+04  0.19922316696E+04  0.46999998093E+01 0.  1.
</event>
<event>
 5   0  0.1121462E-08  0.3504948E+04  0.7818609E-02  0.8112618E-01
       -1   -1    0    0    0  501  0.00000000000E+00  0.00000000000E+00  0.16128766658E+04  0.16128766658E+04  0.50400001928E-02 0.  1.
        1   -1    0    0  501    0  0.00000000000E+00  0.00000000000E+00 -0.19041533903E+04  0.19041533903E+04  0.50400001928E-02 0. -1.
    10030    2    1    2    0    0  0.00000000000E+00  0.00000000000E+00 -0.29127672452E+03  0.35170300562E+04  0.35049476866E+04 0.  0.
        1    1    3    3  502    0 -0.86256064452E+03 -0.12606262336E+04 -0.10076545565E+04  0.18299063013E+04  0.50400001928E-02 0. -1.
       -1    1    3    3    0  502  0.86256064452E+03  0.12606262336E+04  0.71637783197E+03  0.16871237549E+04  0.50400001928E-02 0.  1.
</event>
<event>
 5   0  0.1140808E-08  0.3499862E+04  0.7818609E-02  0.8113823E-01
        1   -1    0    0  501    0  0.00000000000E+00  0.00000000000E+00  0.15100656487E+04  0.15100656487E+04  0.50400001928E-02 0. -1.
       -1   -1    0    0    0  501  0.00000000000E+00  0.00000000000E+00 -0.20278976185E+04  0.20278976185E+04  0.50400001928E-02 0.  1.
    10030    2    1    2    0    0  0.00000000000E+00  0.00000000000E+00 -0.51783196974E+03  0.35379632672E+04  0.34998620160E+04 0.  0.
        3    1    3    3  502    0  0.14918227874E+04 -0.42556798123E+03 -0.10774314694E+04  0.18887831843E+04  0.10100000352E+00 0.  1.
       -3    1    3    3    0  502 -0.14918227874E+04  0.42556798123E+03  0.55959949971E+03  0.16491800829E+04  0.10100000352E+00 0. -1.
</event>
<event>
 5   0  0.1140808E-08  0.3499266E+04  0.7818609E-02  0.8113964E-01
        1   -1    0    0  501    0  0.00000000000E+00  0.00000000000E+00  0.18764342333E+04  0.18764342333E+04  0.50400001928E-02 0.  1.
       -1   -1    0    0    0  501  0.00000000000E+00  0.00000000000E+00 -0.16314001299E+04  0.16314001299E+04  0.50400001928E-02 0. -1.
    10030    2    1    2    0    0  0.00000000000E+00  0.00000000000E+00  0.24503410339E+03  0.35078343632E+04  0.34992656669E+04 0.  0.
        3    1    3    3  502    0  0.13212358300E+04 -0.18283603532E+03 -0.10125638669E+04  0.16746279375E+04  0.10100000352E+00 0. -1.
       -3    1    3    3    0  502 -0.13212358300E+04  0.18283603532E+03  0.12575979703E+04  0.18332064257E+04  0.10100000352E+00 0.  1.
</event>
<event>
 5   0  0.1121462E-08  0.3500312E+04  0.7818609E-02  0.8113716E-01
        1   -1    0    0  501    0  0.00000000000E+00  0.00000000000E+00  0.17488065381E+04  0.17488065382E+04  0.50400001928E-02 0.  1.
       -1   -1    0    0    0  501  0.00000000000E+00  0.00000000000E+00 -0.17515067948E+04  0.17515067948E+04  0.50400001928E-02 0. -1.
    10030    2    1    2    0    0  0.00000000000E+00  0.00000000000E+00 -0.27002566908E+01  0.35003133330E+04  0.35003122915E+04 0.  0.
        4    1    3    3  502    0 -0.15273471386E+03  0.87348366737E+03  0.15075384250E+04  0.17489926603E+04  0.12699999809E+01 0.  1.
       -4    1    3    3    0  502  0.15273471386E+03 -0.87348366737E+03 -0.15102386817E+04  0.17513206727E+04  0.12699999809E+01 0. -1.
</event>
<event>
 5   0  0.1140808E-08  0.3501337E+04  0.7818609E-02  0.8113473E-01
       -1   -1    0    0    0  501  0.00000000000E+00  0.00000000000E+00  0.18057433486E+04  0.18057433486E+04  0.50400001928E-02 0.  1.
        1   -1    0    0  501    0  0.00000000000E+00  0.00000000000E+00 -0.16972737085E+04  0.16972737085E+04  0.50400001928E-02 0. -1.
    10030    2    1    2    0    0  0.00000000000E+00  0.00000000000E+00  0.10846964016E+03  0.35030170571E+04  0.35013372930E+04 0.  0.
        3    1    3    3  502    0 -0.57487260264E+03  0.76999445165E+03  0.15183133582E+04  0.17968431842E+04  0.10100000352E+00 0.  1.
       -3    1    3    3    0  502  0.57487260264E+03 -0.76999445165E+03 -0.14098437180E+04  0.17061738728E+04  0.10100000352E+00 0. -1.
</event>
<event>
 5   0  0.1121462E-08  0.3499734E+04  0.7818609E-02  0.8113853E-01
       -1   -1    0    0    0  501  0.00000000000E+00  0.00000000000E+00  0.16714591054E+04  0.16714591054E+04  0.50400001928E-02 0. -1.
        1   -1    0    0  501    0  0.00000000000E+00  0.00000000000E+00 -0.18319527631E+04  0.18319527631E+04  0.50400001928E-02 0.  1.
    10030    2    1    2    0    0  0.00000000000E+00  0.00000000000E+00 -0.16049365769E+03  0.35034118684E+04  0.34997337764E+04 0.  0.
        1    1    3    3  502    0  0.46192776493E+03 -0.92521461397E+03 -0.14933375399E+04  0.18164405716E+04  0.50400001928E-02 0.  1.
       -1    1    3    3    0  502 -0.46192776493E+03  0.92521461397E+03  0.13328438822E+04  0.16869712968E+04  0.50400001928E-02 0. -1.
</event>
<event>
 5   0  0.1129219E-08  0.3497534E+04  0.7818609E-02  0.8114374E-01
       -1   -1    0    0    0  501  0.00000000000E+00  0.00000000000E+00  0.16083265029E+04  0.16083265029E+04  0.50400001928E-02 0.  1.
        1   -1    0    0  501    0  0.00000000000E+00  0.00000000000E+00 -0.19014713918E+04  0.19014713918E+04  0.50400001928E-02 0. -1.
    10030    2    1    2    0    0  0.00000000000E+00  0.00000000000E+00 -0.29314488884E+03  0.35097978947E+04  0.34975344653E+04 0.  0.
        5    1    3    3  502    0 -0.11702902481E+04 -0.96966237245E+03 -0.10146723148E+04  0.18274042732E+04  0.46999998093E+01 0. -1.
       -5    1    3    3    0  502  0.11702902481E+04  0.96966237245E+03  0.72152742591E+03  0.16823936215E+04  0.46999998093E+01 0.  1.
</event>
<event>
 5   0  0.3467834E-08  0.3500214E+04  0.7818609E-02  0.8113739E-01
       -2   -1    0    0    0  501  0.00000000000E+00  0.00000000000E+00  0.15147039942E+04  0.15147039942E+04  0.25500000920E-02 0.  1.
        2   -1    0    0  501    0  0.00000000000E+00  0.00000000000E+00 -0.20220940520E+04  0.20220940520E+04  0.25500000920E-02 0. -1.
    10030    2    1    2    0    0  0.00000000000E+00  0.00000000000E+00 -0.50739005783E+03  0.35367980462E+04  0.35002136719E+04 0.  0.
        3    1    3    3  502    0 -0.86351096240E+03  0.14657340290E+04 -0.66889922860E+03  0.18279643362E+04  0.10100000352E+00 0. -1.
       -3    1    3    3    0  502  0.86351096240E+03 -0.14657340290E+04  0.16150917077E+03  0.17088337100E+04  0.10100000352E+00 0.  1.
</event>
<event>
 5   0  0.3553585E-08  0.3500420E+04  0.7818609E-02  0.8113690E-01
        2   -1    0    0  501    0  0.00000000000E+00  0.00000000000E+00  0.17419271513E+04  0.17419271513E+04  0.25500000920E-02 0. -1.
       -2   -1    0    0    0  501  0.00000000000E+00  0.00000000000E+00 -0.17585319460E+04  0.17585319460E+04  0.25500000920E-02 0.  1.
    10030    2    1    2    0    0  0.00000000000E+00  0.00000000000E+00 -0.16604794747E+02  0.35004590973E+04  0.35004197138E+04 0.  0.
        2    1    3    3  502    0  0.14923107999E+04  0.44270471780E+03 -0.80847110438E+03  0.17540252328E+04  0.25500000920E-02 0.  1.
       -2    1    3    3    0  502 -0.14923107999E+04 -0.44270471780E+03  0.79186630964E+03  0.17464338645E+04  0.25500000920E-02 0. -1.
</event>
<event>
 5   0  0.1129219E-08  0.3500865E+04  0.7818609E-02  0.8113585E-01
        1   -1    0    0  501    0  0.00000000000E+00  0.00000000000E+00  0.17535229129E+04  0.17535229129E+04  0.50400001928E-02 0. -1.
       -1   -1    0    0    0  501  0.00000000000E+00  0.00000000000E+00 -0.17473473551E+04  0.17473473552E+04  0.50400001928E-02 0.  1.
    10030    2    1    2    0    0  0.00000000000E+00  0.00000000000E+00  0.61755577224E+01  0.35008702680E+04  0.35008648212E+04 0.  0.
        5    1    3    3  502    0 -0.87054980410E+03  0.14918596384E+04 -0.28061918696E+03  0.17499346731E+04  0.46999998093E+01 0. -1.
       -5    1    3    3    0  502  0.87054980410E+03 -0.14918596384E+04  0.28679474468E+03  0.17509355949E+04  0.46999998093E+01 0.  1.
</event>
<event>
 5   0  0.3467834E-08  0.3500964E+04  0.7818609E-02  0.8113562E-01
        2   -1    0    0  501    0  0.00000000000E+00  0.00000000000E+00  0.25046677582E+04  0.25046677582E+04  0.25500000920E-02 0.  1.
       -2   -1    0    0    0  501  0.00000000000E+00  0.00000000000E+00 -0.12233904646E+04  0.12233904646E+04  0.25500000920E-02 0. -1.
    10030    2    1    2    0    0  0.00000000000E+00  0.00000000000E+00  0.12812772937E+04  0.37280582228E+04  0.35009636687E+04 0.  0.
        3    1    3    3  502    0  0.12969755151E+04  0.58168718294E+03  0.17285136751E+04  0.22379153248E+04  0.10100000352E+00 0.  1.
       -3    1    3    3    0  502 -0.12969755151E+04 -0.58168718294E+03 -0.44723638146E+03  0.14901428980E+04  0.10100000352E+00 0. -1.
</event>
<event>
 5   0  0.3628017E-08  0.3500179E+04  0.7818609E-02  0.8113748E-01
       -2   -1    0    0    0  501  0.00000000000E+00  0.00000000000E+00  0.16610708376E+04  0.16610708376E+04  0.25500000920E-02 0.  1.
        2   -1    0    0  501    0  0.00000000000E+00  0.00000000000E+00 -0.18438786164E+04  0.18438786164E+04  0.25500000920E-02 0. -1.
    10030    2    1    2    0    0  0.00000000000E+00  0.00000000000E+00 -0.18280777875E+03  0.35049494540E+04  0.35001788513E+04 0.  0.
        1    1    3    3  502    0 -0.11236958306E+04  0.20691037716E+03  0.12360381322E+04  0.16832392842E+04  0.50400001928E-02 0.  1.
       -1    1    3    3    0  502  0.11236958306E+04 -0.20691037716E+03 -0.14188459109E+04  0.18217101698E+04  0.50400001928E-02 0. -1.
</event>
<event>
 5   0  0.3700096E-08  0.3499954E+04  0.7818609E-02  0.8113801E-01
       -2   -1    0    0    0  501  0.00000000000E+00  0.00000000000E+00  0.15598945607E+04  0.15598945607E+04  0.25500000920E-02 0.  1.
        2   -1    0    0  501    0  0.00000000000E+00  0.00000000000E+00 -0.19632226738E+04  0.19632226738E+04  0.25500000920E-02 0. -1.
    10030    2    1    2    0    0  0.00000000000E+00  0.00000000000E+00 -0.40332811305E+03  0.35231172345E+04  0.34999544971E+04 0.  0.
        4    1    3    3  502    0  0.54874658836E+03  0.12922414511E+04 -0.12532826532E+04  0.18819484073E+04  0.12699999809E+01 0. -1.
       -4    1    3    3    0  502 -0.54874658836E+03 -0.12922414511E+04  0.84995454014E+03  0.16411688272E+04  0.12699999809E+01 0.  1.
</event>
<event>
 5   0  0.3553585E-08  0.3505273E+04  0.7818609E-02  0.8112541E-01
       -2   -1    0    0    0  501  0.00000000000E+00  0.00000000000E+00  0.13710274750E+04  0.13710274750E+04  0.25500000920E-02 0. -1.
        2   -1    0    0  501    0  0.00000000000E+00  0.00000000000E+00 -0.22404615326E+04  0.22404615326E+04  0.25500000920E-02 0.  1.
    10030    2    1    2    0    0  0.00000000000E+00  0.00000000000E+00 -0.86943405758E+03  0.36114890076E+04  0.35052727813E+04 0.  0.
        2    1    3    3  502    0  0.10093729790E+03 -0.17493163785E+04 -0.47378962552E+03  0.18151508861E+04  0.25500000920E-02 0.  1.
       -2    1    3    3    0  502 -0.10093729790E+03  0.17493163785E+04 -0.39564443206E+03  0.17963381215E+04  0.25500000920E-02 0. -1.
</event>
<event>
 5   0  0.1129219E-08  0.3499503E+04  0.7818609E-02  0.8113908E-01
       -1   -1    0    0    0  501  0.00000000000E+00  0.00000000000E+00  0.22823094675E+04  0.22823094675E+04  0.50400001928E-02 0.  1.
        1   -1    0    0  501    0  0.00000000000E+00  0.00000000000E+00 -0.13414612892E+04  0.13414612892E+04  0.50400001928E-02 0. -1.
    10030    2    1    2    0    0  0.00000000000E+00  0.00000000000E+00  0.94084817826E+03  0.36237707567E+04  0.34995027079E+04 0.  0.
        5    1    3    3  502    0 -0.33988049197E+03  0.17012545859E+04  0.70615178473E+03  0.18730879179E+04  0.46999998093E+01 0.  1.
       -5    1    3    3    0  502  0.33988049197E+03 -0.17012545859E+04  0.23469639352E+03  0.17506828388E+04  0.46999998093E+01 0. -1.
</event>
<event>
 5   0  0.3553585E-08  0.3501648E+04  0.7818609E-02  0.8113399E-01
       -2   -1    0    0    0  501  0.00000000000E+00  0.00000000000E+00  0.16469071873E+04  0.16469071873E+04  0.25500000920E-02 0. -1.
        2   -1    0    0  501    0  0.00000000000E+00  0.00000000000E+00 -0.18612980076E+04  0.18612980076E+04  0.25500000920E-02 0.  1.
    10030    2    1    2    0    0  0.00000000000E+00  0.00000000000E+00 -0.21439082036E+03  0.35082051949E+04  0.35016482213E+04 0.  0.
        2    1    3    3  502    0 -0.12969663013E+04  0.10472197261E+03  0.10664488967E+04  0.16823797216E+04  0.25500000920E-02 0. -1.
       -2    1    3    3    0  502  0.12969663013E+04 -0.10472197261E+03 -0.12808397171E+04  0.18258254733E+04  0.25500000920E-02 0.  1.
</event>
<event>
 5   0  0.1129219E-08  0.3499277E+04  0.7818609E-02  0.8113961E-01
       -1   -1    0    0    0  501  0.00000000000E+00  0.00000000000E+00  0.17025329740E+04  0.17025329740E+04  0.50400001928E-02 0. -1.
        1   -1    0    0  501    0  0.00000000000E+00  0.00000000000E+00 -0.17980476972E+04  0.17980476972E+04  0.50400001928E-02 0.  1.
    10030    2    1    2    0    0  0.00000000000E+00  0.00000000000E+00 -0.95514723209E+02  0.35005806712E+04  0.34992773502E+04 0.  0.
        5    1    3    3  502    0  0.10305517695E+04 -0.10191845536E+04 -0.10281424248E+04  0.17770405284E+04  0.46999998093E+01 0.  1.
       -5    1    3    3    0  502 -0.10305517695E+04  0.10191845536E+04  0.93262770160E+03  0.17235401428E+04  0.46999998093E+01 0. -1.
</event>
<event>
 5   0  0.1121462E-08  0.3499779E+04  0.7818609E-02  0.8113842E-01
       -1   -1    0    0    0  501  0.00000000000E+00  0.00000000000E+00  0.14170755997E+04  0.14170755997E+04  0.50400001928E-02 0. -1.
        1   -1    0    0  501    0  0.00000000000E+00  0.00000000000E+00 -0.21608674611E+04  0.21608674611E+04  0.50400001928E-02 0.  1.
    10030    2    1    2    0    0  0.00000000000E+00  0.00000000000E+00 -0.74379186148E+03  0.35779430608E+04  0.34997785949E+04 0.  0.
        4    1    3    3  502    0 -0.43820144951E+03 -0.10723582800E+04 -0.17127284001E+04  0.20677071786E+04  0.12699999809E+01 0.  1.
       -4    1    3    3    0  502  0.43820144951E+03  0.10723582800E+04  0.96893653864E+03  0.15102358822E+04  0.12699999809E+01 0. -1.
</event>
<event>
 5   0  0.1121462E-08  0.3498252E+04  0.7818609E-02  0.8114204E-01
        1   -1    0    0  501    0  0.00000000000E+00  0.00000000000E+00  0.12196313150E+04  0.12196313150E+04  0.50400001928E-02 0.  1.
       -1   -1    0    0    0  501  0.00000000000E+00  0.00000000000E+00 -0.25084966506E+04  0.25084966506E+04  0.50400001928E-02 0. -1.
    10030    2    1    2    0    0  0.00000000000E+00  0.00000000000E+00 -0.12888653356E+04  0.37281279656E+04  0.34982516025E+04 0.  0.
        2    1    3    3  502    0  0.91005459985E+03  0.47773725420E+03 -0.21527099815E+04  0.23854962845E+04  0.25500000920E-02 0. -1.
       -2    1    3    3    0  502 -0.91005459985E+03 -0.47773725420E+03  0.86384464594E+03  0.13426316811E+04  0.25500000920E-02 0.  1.
</event>
<event>
 5   0  0.1121462E-08  0.3503472E+04  0.7818609E-02  0.8112968E-01
       -1   -1    0    0    0  501  0.00000000000E+00  0.00000000000E+00  0.16391907056E+04  0.16391907056E+04  0.50400001928E-02 0. -1.
        1   -1    0    0  501    0  0.00000000000E+00  0.00000000000E+00 -0.18720082203E+04  0.18720082203E+04  0.50400001928E-02 0.  1.
    10030    2    1    2    0    0  0.00000000000E+00  0.00000000000E+00 -0.23281751475E+03  0.35111989259E+04  0.35034716928E+04 0.  0.
        4    1    3    3  502    0 -0.16743134959E+04  0.47236065972E+03 -0.32210907379E+03  0.17692388600E+04  0.12699999809E+01 0.  1.
       -4    1    3    3    0  502  0.16743134959E+04 -0.47236065972E+03  0.89291559034E+02  0.17419600658E+04  0.12699999809E+01 0. -1.
</event>
<event>
 5   0  0.3628017E-08  0.3498609E+04  0.7818609E-02  0.8114120E-01
        2   -1    0    0  501    0  0.00000000000E+00  0.00000000000E+00  0.22573431467E+04  0.22573431467E+04  0.25500000920E-02 0. -1.
       -2   -1    0    0    0  501  0.00000000000E+00  0.00000000000E+00 -0.13556051139E+04  0.13556051139E+04  0.25500000920E-02 0.  1.
    10030    2    1    2    0    0  0.00000000000E+00  0.00000000000E+00  0.90173803287E+03  0.36129482606E+04  0.34986088169E+04 0.  0.
        1    1    3    3  502    0  0.22191465786E+03 -0.10212117920E+04 -0.99781268626E+03  0.14449047707E+04  0.50400001928E-02 0.  1.
       -1    1    3    3    0  502 -0.22191465786E+03  0.10212117920E+04  0.18995507191E+04  0.21680434899E+04  0.50400001928E-02 0. -1.
</event>
<event>
 5   0  0.3700096E-08  0.3499459E+04  0.7818609E-02  0.8113918E-01
        2   -1    0    0  501    0  0.00000000000E+00  0.00000000000E+00  0.18477946847E+04  0.18477946848E+04  0.25500000920E-02 0. -1.
       -2   -1    0    0    0  501  0.00000000000E+00  0.00000000000E+00 -0.16568684829E+04  0.16568684829E+04  0.25500000920E-02 0.  1.
    10030    2    1    2    0    0  0.00000000000E+00  0.00000000000E+00  0.19092620188E+03  0.35046631676E+04  0.34994586873E+04 0.  0.
        4    1    3    3  502    0 -0.14661363421E+04 -0.17917807144E+02  0.10516995188E+04  0.18044252027E+04  0.12699999809E+01 0.  1.
       -4    1    3    3    0  502  0.14661363421E+04  0.17917807144E+02 -0.86077331688E+03  0.17002379649E+04  0.12699999809E+01 0. -1.
</event>
<event>
 5   0  0.1140808E-08  0.3496819E+04  0.7818609E-02  0.8114544E-01
        1   -1    0    0  501    0  0.00000000000E+00  0.00000000000E+00  0.11665019151E+04  0.11665019151E+04  0.50400001928E-02 0.  1.
       -1   -1    0    0    0  501  0.00000000000E+00  0.00000000000E+00 -0.26206008505E+04  0.26206008505E+04  0.50400001928E-02 0. -1.
    10030    2    1    2    0    0  0.00000000000E+00  0.00000000000E+00 -0.14540989354E+04  0.37871027656E+04  0.34968190750E+04 0.  0.
        3    1    3    3  502    0  0.15329070166E+04  0.46806717360E+03 -0.14836452327E+04  0.21840544836E+04  0.10100000352E+00 0. -1.
       -3    1    3    3    0  502 -0.15329070166E+04 -0.46806717360E+03  0.29546297251E+02  0.16030482820E+04  0.10100000352E+00 0.  1.
</event>
<event>
 5   0  0.3467834E-08  0.3499738E+04  0.7818609E-02  0.8113852E-01
        2   -1    0    0  501    0  0.00000000000E+00  0.00000000000E+00  0.20646714231E+04  0.20646714231E+04  0.25500000920E-02 0.  1.
       -2   -1    0    0    0  501  0.00000000000E+00  0.00000000000E+00 -0.14830646477E+04  0.14830646477E+04  0.25500000920E-02 0. -1.
    10030    2    1    2    0    0  0.00000000000E+00  0.00000000000E+00  0.58160677543E+03  0.35477360708E+04  0.34997378169E+04 0.  0.
        3    1    3    3  502    0 -0.16689281532E+04 -0.43043811350E+03 -0.15739406868E+02  0.17236141939E+04  0.10100000352E+00 0. -1.
       -3    1    3    3    0  502  0.16689281532E+04  0.43043811350E+03  0.59734618230E+03  0.18241218769E+04  0.10100000352E+00 0.  1.
</event>
<event>
 5   0  0.1140808E-08  0.3483080E+04  0.7818609E-02  0.8117812E-01
       -1   -1    0    0    0  501  0.00000000000E+00  0.00000000000E+00  0.23298053625E+04  0.23298053625E+04  0.50400001928E-02 0. -1.
        1   -1    0    0  501    0  0.00000000000E+00  0.00000000000E+00 -0.13018088917E+04  0.13018088917E+04  0.50400001928E-02 0.  1.
    10030    2    1    2    0    0  0.00000000000E+00  0.00000000000E+00  0.10279964708E+04  0.36316142542E+04  0.34830798652E+04 0.  0.
        3    1    3    3  502    0  0.85767984592E+03 -0.77386293534E+03 -0.84483716190E+03  0.14311633034E+04  0.10100000352E+00 0.  1.
       -3    1    3    3    0  502 -0.85767984592E+03  0.77386293534E+03  0.18728336327E+04  0.22004509508E+04  0.10100000352E+00 0. -1.
</event>
<event>
 5   0  0.1121462E-08  0.3490252E+04  0.7818609E-02  0.8116104E-01
       -1   -1    0    0    0  501  0.00000000000E+00  0.00000000000E+00  0.23732842869E+04  0.23732842869E+04  0.50400001928E-02 0. -1.
        1   -1    0    0  501    0  0.00000000000E+00  0.00000000000E+00 -0.12832275978E+04  0.12832275978E+04  0.50400001928E-02 0.  1.
    10030    2    1    2    0    0  0.00000000000E+00  0.00000000000E+00  0.10900566891E+04  0.36565118847E+04  0.34902515064E+04 0.  0.
        2    1    3    3  502    0  0.75063619970E+03  0.15245415416E+04  0.12888842643E+03  0.17041988859E+04  0.25500000920E-02 0.  1.
       -2    1    3    3    0  502 -0.75063619970E+03 -0.15245415416E+04  0.96116826269E+03  0.19523129988E+04  0.25500000920E-02 0. -1.
</event>
<event>
 5   0  0.3553585E-08  0.3500811E+04  0.7818609E-02  0.8113598E-01
       -2   -1    0    0    0  501  0.00000000000E+00  0.00000000000E+00  0.15993362806E+04  0.15993362806E+04  0.25500000920E-02 0. -1.
        2   -1    0    0  501    0  0.00000000000E+00  0.00000000000E+00 -0.19157448639E+04  0.19157448639E+04  0.25500000920E-02 0.  1.
    10030    2    1    2    0    0  0.00000000000E+00  0.00000000000E+00 -0.31640858337E+03  0.35150811445E+04  0.35008114860E+04 0.  0.
        2    1    3    3  502    0 -0.44345289966E+03  0.10708873463E+04 -0.14752176873E+04  0.18760909913E+04  0.25500000920E-02 0.  1.
       -2    1    3    3    0  502  0.44345289966E+03 -0.10708873463E+04  0.11588091039E+04  0.16389901532E+04  0.25500000920E-02 0. -1.
</event>
<event>
 5   0  0.1121462E-08  0.3500036E+04  0.7818609E-02  0.8113781E-01
        3   -1    0    0  501    0  0.00000000000E+00  0.00000000000E+00  0.10755097881E+04  0.10755097929E+04  0.10100000352E+00 0.  1.
       -3   -1    0    0    0  501  0.00000000000E+00  0.00000000000E+00 -0.28475454552E+04  0.28475454570E+04  0.10100000352E+00 0. -1.
    10030    2    1    2    0    0  0.00000000000E+00  0.00000000000E+00 -0.17720356671E+04  0.39230552499E+04  0.35000360124E+04 0.  0.
        1    1    3    3  502    0  0.56777883090E+03 -0.97780923943E+03  0.61111036455E+03  0.12852780194E+04  0.50400001928E-02 0.  1.
       -1    1    3    3    0  502 -0.56777883090E+03  0.97780923943E+03 -0.23831460317E+04  0.26377772305E+04  0.50400001928E-02 0. -1.
</event>
<event>
 5   0  0.1121462E-08  0.3500455E+04  0.7818609E-02  0.8113682E-01
       -1   -1    0    0    0  501  0.00000000000E+00  0.00000000000E+00  0.17835286911E+04  0.17835286911E+04  0.50400001928E-02 0.  1.
        1   -1    0    0  501    0  0.00000000000E+00  0.00000000000E+00 -0.17175481813E+04  0.17175481813E+04  0.50400001928E-02 0. -1.
    10030    2    1    2    0    0  0.00000000000E+00  0.00000000000E+00  0.65980509827E+02  0.35010768724E+04  0.35004550902E+04 0.  0.
        1    1    3    3  502    0  0.84623669851E+03  0.14195703880E+04 -0.54330635212E+03  0.17396776795E+04  0.50400001928E-02 0. -1.
       -1    1    3    3    0  502 -0.84623669851E+03 -0.14195703880E+04  0.60928686195E+03  0.17613991928E+04  0.50400001928E-02 0.  1.
</event>
<event>
 5   0  0.3700096E-08  0.3499979E+04  0.7818609E-02  0.8113795E-01
        2   -1    0    0  501    0  0.00000000000E+00  0.00000000000E+00  0.22928253503E+04  0.22928253503E+04  0.25500000920E-02 0. -1.
       -2   -1    0    0    0  501  0.00000000000E+00  0.00000000000E+00 -0.13356721704E+04  0.13356721704E+04  0.25500000920E-02 0.  1.
    10030    2    1    2    0    0  0.00000000000E+00  0.00000000000E+00  0.95715317991E+03  0.36284975207E+04  0.34999788639E+04 0.  0.
        4    1    3    3  502    0 -0.15689114784E+04 -0.75343349831E+03  0.28934714277E+03  0.17643323511E+04  0.12699999809E+01 0.  1.
       -4    1    3    3    0  502  0.15689114784E+04  0.75343349831E+03  0.66780603714E+03  0.18641651696E+04  0.12699999809E+01 0. -1.
</event>
<event>
 5   0  0.1121462E-08  0.3503562E+04  0.7818609E-02  0.8112946E-01
       -1   -1    0    0    0  501  0.00000000000E+00  0.00000000000E+00  0.12875570436E+04  0.12875570436E+04  0.50400001928E-02 0.  1.
        1   -1    0    0  501    0  0.00000000000E+00  0.00000000000E+00 -0.23833790435E+04  0.23833790435E+04  0.50400001928E-02 0. -1.
    10030    2    1    2    0    0  0.00000000000E+00  0.00000000000E+00 -0.10958219999E+04  0.36709360871E+04  0.35035618876E+04 0.  0.
        1    1    3    3  502    0  0.72813629434E+03  0.14520228865E+04  0.13930605504E+03  0.16303248458E+04  0.50400001928E-02 0.  1.
       -1    1    3    3    0  502 -0.72813629434E+03 -0.14520228865E+04 -0.12351280549E+04  0.20406112413E+04  0.50400001928E-02 0. -1.
</event>
<event>
 5   0  0.3700096E-08  0.3508471E+04  0.7818609E-02  0.8111785E-01
       -2   -1    0    0    0  501  0.00000000000E+00  0.00000000000E+00  0.27577998065E+04  0.27577998065E+04  0.25500000920E-02 0. -1.
        2   -1    0    0  501    0  0.00000000000E+00  0.00000000000E+00 -0.11158686261E+04  0.11158686261E+04  0.25500000920E-02 0.  1.
    10030    2    1    2    0    0  0.00000000000E+00  0.00000000000E+00  0.16419311804E+04  0.38736684326E+04  0.35084710523E+04 0.  0.
        4    1    3    3  502    0  0.67372705125E+03  0.10819081248E+04 -0.50986723874E+03  0.13727343312E+04  0.12699999809E+01 0.  1.
       -4    1    3    3    0  502 -0.67372705125E+03 -0.10819081248E+04  0.21517984191E+04  0.25009341014E+04  0.12699999809E+01 0. -1.
</event>
<event>
 5   0  0.3554451E-08  0.3499326E+04  0.7818609E-02  0.8113950E-01
       -2   -1    0    0    0  501  0.00000000000E+00  0.00000000000E+00  0.18075190387E+04  0.18075190387E+04  0.25500000920E-02 0. -1.
        2   -1    0    0  501    0  0.00000000000E+00  0.00000000000E+00 -0.16936588207E+04  0.16936588207E+04  0.25500000920E-02 0.  1.
    10030    2    1    2    0    0  0.00000000000E+00  0.00000000000E+00  0.11386021799E+03  0.35011778594E+04  0.34993259714E+04 0.  0.
        5    1    3    3  502    0 -0.98542714713E+03 -0.33148303657E+02 -0.13892181469E+04  0.17035593978E+04  0.46999998093E+01 0.  1.
       -5    1    3    3    0  502  0.98542714713E+03  0.33148303657E+02  0.15030783649E+04  0.17976184615E+04  0.46999998093E+01 0. -1.
</event>
<event>
 5   0  0.1121462E-08  0.3501036E+04  0.7818609E-02  0.8113544E-01
        1   -1    0    0  501    0  0.00000000000E+00  0.00000000000E+00  0.12821138291E+04  0.12821138291E+04  0.50400001928E-02 0. -1.
       -1   -1    0    0    0  501  0.00000000000E+00  0.00000000000E+00 -0.23900482274E+04  0.23900482274E+04  0.50400001928E-02 0.  1.
    10030    2    1    2    0    0  0.00000000000E+00  0.00000000000E+00 -0.11079343983E+04  0.36721620565E+04  0.35010363521E+04 0.  0.
        4    1    3    3  502    0 -0.13407828357E+04  0.10066613923E+04 -0.26133705285E+02  0.16768274672E+04  0.12699999809E+01 0. -1.
       -4    1    3    3    0  502  0.13407828357E+04 -0.10066613923E+04 -0.10818006930E+04  0.19953345894E+04  0.12699999809E+01 0.  1.
</event>
<event>
 5   0  0.3554451E-08  0.3498011E+04  0.7818609E-02  0.8114261E-01
       -2   -1    0    0    0  501  0.00000000000E+00  0.00000000000E+00  0.17970509951E+04  0.17970509951E+04  0.25500000920E-02 0. -1.
        2   -1    0    0  501    0  0.00000000000E+00  0.00000000000E+00 -0.17022445506E+04  0.17022445506E+04  0.25500000920E-02 0.  1.
    10030    2    1    2    0    0  0.00000000000E+00  0.00000000000E+00  0.94806444528E+02  0.34992955457E+04  0.34980110140E+04 0.  0.
        5    1    3    3  502    0  0.42465891467E+03  0.72442644617E+03 -0.14873926555E+04  0.17080655348E+04  0.46999998093E+01 0.  1.
       -5    1    3    3    0  502 -0.42465891467E+03 -0.72442644617E+03  0.15821991000E+04  0.17912300109E+04  0.46999998093E+01 0. -1.
</event>
<event>
 5   0  0.1121462E-08  0.3500234E+04  0.7818609E-02  0.8113735E-01
       -1   -1    0    0    0  501  0.00000000000E+00  0.00000000000E+00  0.12471656095E+04  0.12471656095E+04  0.50400001928E-02 0.  1.
        1   -1    0    0  501    0  0.00000000000E+00  0.00000000000E+00 -0.24558957818E+04  0.24558957818E+04  0.50400001928E-02 0. -1.
    10030    2    1    2    0    0  0.00000000000E+00  0.00000000000E+00 -0.12087301724E+04  0.37030613913E+04  0.35002335691E+04 0.  0.
        2    1    3    3  502    0  0.15441009826E+04  0.23562993253E+03  0.23076957664E+03  0.15789312547E+04  0.25500000920E-02 0.  1.
       -2    1    3    3    0  502 -0.15441009826E+04 -0.23562993253E+03 -0.14394997490E+04  0.21241301366E+04  0.25500000920E-02 0. -1.
</event>
<event>
 5   0  0.3553585E-08  0.3500036E+04  0.7818609E-02  0.8113781E-01
       -2   -1    0    0    0  501  0.00000000000E+00  0.00000000000E+00  0.16193144462E+04  0.16193144462E+04  0.25500000920E-02 0. -1.
        2   -1    0    0  501    0  0.00000000000E+00  0.00000000000E+00 -0.18912717356E+04  0.18912717356E+04  0.25500000920E-02 0.  1.
    10030    2    1    2    0    0  0.00000000000E+00  0.00000000000E+00 -0.27195728944E+03  0.35105861818E+04  0.35000363673E+04 0.  0.
        2    1    3    3  502    0  0.89869466602E+03 -0.20503056470E+03  0.13560783946E+04  0.16397067566E+04  0.25500000920E-02 0. -1.
       -2    1    3    3    0  502 -0.89869466602E+03  0.20503056470E+03 -0.16280356840E+04  0.18708794252E+04  0.25500000920E-02 0.  1.
</event>
<event>
 5   0  0.1129219E-08  0.3499397E+04  0.7818609E-02  0.8113933E-01
        1   -1    0    0  501    0  0.00000000000E+00  0.00000000000E+00  0.20466325208E+04  0.20466325208E+04  0.50400001928E-02 0. -1.
       -1   -1    0    0    0  501  0.00000000000E+00  0.00000000000E+00 -0.14958445843E+04  0.14958445843E+04  0.50400001928E-02 0.  1.
    10030    2    1    2    0    0  0.00000000000E+00  0.00000000000E+00  0.55078793645E+03  0.35424771051E+04  0.34993966179E+04 0.  0.
        5    1    3    3  502    0 -0.10840485163E+04 -0.64507890436E+03 -0.95202367189E+03  0.15803984119E+04  0.46999998093E+01 0.  1.
       -5    1    3    3    0  502  0.10840485163E+04  0.64507890436E+03  0.15028116083E+04  0.19620786933E+04  0.46999998093E+01 0. -1.
</event>
</LesHouchesEvents>
