<LesHouchesEvents version="3.0">
<header>
<!--
#*********************************************************************
#                                                                    *
#                        MadGraph5_aMC@NLO                           *
#                                                                    *
#                           Going Beyond                             *
#                                                                    *
#                   http://madgraph.hep.uiuc.edu                     *
#                   http://madgraph.phys.ucl.ac.be                   *
#                   http://amcatnlo.cern.ch                          *
#                                                                    *
#                     The MadGraph5_aMC@NLO team                     *
#                                                                    *
#....................................................................*
#                                                                    *
# This file contains all the information necessary to reproduce      *
# the events generated:                                              *
#                                                                    *
# 1. software version                                                *
# 2. proc_card          : code generation info including model       *
# 3. param_card         : model primary parameters in the LH format  *
# 4. run_card           : running parameters (collider and cuts)     *
# 5. pythia_card        : present only if pythia has been run        *
# 6. pgs_card           : present only if pgs has been run           *
# 7. delphes_cards      : present only if delphes has been run       *
#                                                                    *
#                                                                    *
#*********************************************************************
-->
<MGVersion>
#5.2.2.3
</MGVersion>
<MG5ProcCard>
#************************************************************
#*                     MadGraph5_aMC@NLO                    *
#*                                                          *
#*                *                       *                 *
#*                  *        * *        *                   *
#*                    * * * * 5 * * * *                     *
#*                  *        * *        *                   *
#*                *                       *                 *
#*                                                          *
#*                                                          *
#*         VERSION 2.2.3                 2015-02-10         *
#*                                                          *
#*    The MadGraph5_aMC@NLO Development Team - Find us at   *
#*    https://server06.fynu.ucl.ac.be/projects/madgraph     *
#*                                                          *
#************************************************************
#*                                                          *
#*               Command File for MadGraph5_aMC@NLO         *
#*                                                          *
#*     run as ./bin/mg5_aMC  filename                       *
#*                                                          *
#************************************************************
set group_subprocesses Auto
set ignore_six_quark_processes False
set loop_optimized_output True
set gauge unitary
set complex_mass_scheme False
import model sm
define p = g u c d s u~ c~ d~ s~
define j = g u c d s u~ c~ d~ s~
define l+ = e+ mu+
define l- = e- mu-
define vl = ve vm vt
define vl~ = ve~ vm~ vt~
import model Zprime_UFO
generate p p > zph, zph > j j
add process p p > zph, zph > b b~
output Dijet_signal
</MG5ProcCard>
<MGProcCard>
#*********************************************************************
#                        MadGraph/MadEvent                           *
#                   http://madgraph.hep.uiuc.edu                     *
#                                                                    *
#                          proc_card.dat                             *
#*********************************************************************
#                                                                    *
#            This Files is generated by MADGRAPH 5                   *
#                                                                    *
# WARNING: This Files is generated for MADEVENT (compatibility issue)*
#          This files is NOT a valid MG4 proc_card.dat               *
#          Running this in MG4 will NEVER reproduce the result of MG5*
#                                                                    *
#*********************************************************************
#*********************************************************************
# Process(es) requested : mg2 input                                  *
#*********************************************************************
# Begin PROCESS # This is TAG. Do not modify this line
p p > zph , zph > j j           #Process
# Be carefull the coupling are here in MG5 convention
          
end_coup           # End the couplings input

done               # this tells MG there are no more procs
# End PROCESS  # This is TAG. Do not modify this line
#*********************************************************************
# Model information                                                  *
#*********************************************************************
# Begin MODEL  # This is TAG. Do not modify this line
Zprime_UFO
# End   MODEL  # This is TAG. Do not modify this line
#*********************************************************************
# Start multiparticle definitions                                    *
#*********************************************************************
# Begin MULTIPARTICLES # This is TAG. Do not modify this line

# End  MULTIPARTICLES # This is TAG. Do not modify this line
</MGProcCard>
<MGRunCard>
#*********************************************************************
#                       MadGraph5_aMC@NLO                            *
#                                                                    *
#                     run_card.dat MadEvent                          *
#                                                                    *
#  This file is used to set the parameters of the run.               *
#                                                                    *
#  Some notation/conventions:                                        *
#                                                                    *
#   Lines starting with a '# ' are info or comments                  *
#                                                                    *
#   mind the format:   value    = variable     ! comment             *
#*********************************************************************
#
#*******************                                                 
# Running parameters
#*******************                                                 
#                                                                    
#*********************************************************************
# Tag name for the run (one word)                                    *
#*********************************************************************
  tag_1     = run_tag ! name of the run 
#*********************************************************************
# Run to generate the grid pack                                      *
#*********************************************************************
  .false.     = gridpack  !True = setting up the grid pack
#*********************************************************************
# Number of events and rnd seed                                      *
# Warning: Do not generate more than 1M events in a single run       *
# If you want to run Pythia, avoid more than 50k events in a run.    *
#*********************************************************************
  2000 = nevents ! Number of unweighted events requested 
 579 = iseed   ! rnd seed (0=assigned automatically=default))
#*********************************************************************
# Collider type and energy                                           *
# lpp: 0=No PDF, 1=proton, -1=antiproton, 2=photon from proton,      *
#                                         3=photon from electron     *
#*********************************************************************
        1     = lpp1    ! beam 1 type 
        1     = lpp2    ! beam 2 type
     4000     = ebeam1  ! beam 1 total energy in GeV
     4000     = ebeam2  ! beam 2 total energy in GeV
#*********************************************************************
# Beam polarization from -100 (left-handed) to 100 (right-handed)    *
#*********************************************************************
        0     = polbeam1 ! beam polarization for beam 1
        0     = polbeam2 ! beam polarization for beam 2
#*********************************************************************
# PDF CHOICE: this automatically fixes also alpha_s and its evol.    *
#*********************************************************************
 'nn23lo1'    = pdlabel     ! PDF set                                     
 230000    = lhaid     ! if pdlabel=lhapdf, this is the lhapdf number
#*********************************************************************
# Renormalization and factorization scales                           *
#*********************************************************************
 F        = fixed_ren_scale  ! if .true. use fixed ren scale
 F        = fixed_fac_scale  ! if .true. use fixed fac scale
 91.1880  = scale            ! fixed ren scale
 91.1880  = dsqrt_q2fact1    ! fixed fact scale for pdf1
 91.1880  = dsqrt_q2fact2    ! fixed fact scale for pdf2
 1        = scalefact        ! scale factor for event-by-event scales
#*********************************************************************
# Matching - Warning! ickkw > 1 is still beta
#*********************************************************************
 0        = ickkw            ! 0 no matching, 1 MLM, 2 CKKW matching
 1        = highestmult      ! for ickkw=2, highest mult group
 1        = ktscheme         ! for ickkw=1, 1 Durham kT, 2 Pythia pTE
 1        = alpsfact         ! scale factor for QCD emission vx
 F        = chcluster        ! cluster only according to channel diag
 T        = pdfwgt           ! for ickkw=1, perform pdf reweighting
 5        = asrwgtflavor     ! highest quark flavor for a_s reweight
 T        = clusinfo         ! include clustering tag in output
 3.0      = lhe_version       ! Change the way clustering information pass to shower.        
#*********************************************************************
#**********************************************************
#
#**********************************************************
# Automatic ptj and mjj cuts if xqcut > 0
# (turn off for VBF and single top processes)
#**********************************************************
   T  = auto_ptj_mjj  ! Automatic setting of ptj and mjj
#**********************************************************
#                                                                    
#**********************************
# BW cutoff (M+/-bwcutoff*Gamma)
#**********************************
  15  = bwcutoff      ! (M+/-bwcutoff*Gamma)
#**********************************************************
# Apply pt/E/eta/dr/mij cuts on decay products or not
# (note that etmiss/ptll/ptheavy/ht/sorted cuts always apply)
#**********************************************************
   T  = cut_decays    ! Cut decay products 
#*************************************************************
# Number of helicities to sum per event (0 = all helicities)
# 0 gives more stable result, but longer run time (needed for
# long decay chains e.g.).
# Use >=2 if most helicities contribute, e.g. pure QCD.
#*************************************************************
   0  = nhel          ! Number of helicities used per event
#*******************                                                 
# Standard Cuts
#*******************                                                 
#                                                                    
#*********************************************************************
# Minimum and maximum pt's (for max, -1 means no cut)                *
#*********************************************************************
 20  = ptj       ! minimum pt for the jets 
  0  = ptb       ! minimum pt for the b 
 10  = pta       ! minimum pt for the photons 
 10  = ptl       ! minimum pt for the charged leptons 
  0  = misset    ! minimum missing Et (sum of neutrino's momenta)
  0  = ptheavy   ! minimum pt for one heavy final state
 1.0 = ptonium   ! minimum pt for the quarkonium states
 -1  = ptjmax    ! maximum pt for the jets
 -1  = ptbmax    ! maximum pt for the b
 -1  = ptamax    ! maximum pt for the photons
 -1  = ptlmax    ! maximum pt for the charged leptons
 -1  = missetmax ! maximum missing Et (sum of neutrino's momenta)
#*********************************************************************
# Minimum and maximum E's (in the center of mass frame)              *
#*********************************************************************
  0  = ej     ! minimum E for the jets 
  0  = eb     ! minimum E for the b 
  0  = ea     ! minimum E for the photons 
  0  = el     ! minimum E for the charged leptons 
 -1   = ejmax ! maximum E for the jets
 -1   = ebmax ! maximum E for the b
 -1   = eamax ! maximum E for the photons
 -1   = elmax ! maximum E for the charged leptons
#*********************************************************************
# Maximum and minimum absolute rapidity (for max, -1 means no cut)   *
#*********************************************************************
   5  = etaj    ! max rap for the jets 
  -1  = etab    ! max rap for the b
 2.5  = etaa    ! max rap for the photons 
 2.5  = etal    ! max rap for the charged leptons 
 0.6  = etaonium ! max rap for the quarkonium states
   0  = etajmin ! min rap for the jets
   0  = etabmin ! min rap for the b
   0  = etaamin ! min rap for the photons
   0  = etalmin ! main rap for the charged leptons
#*********************************************************************
# Minimum and maximum DeltaR distance                                *
#*********************************************************************
 0.4 = drjj    ! min distance between jets 
 0   = drbb    ! min distance between b's 
 0.4 = drll    ! min distance between leptons 
 0.4 = draa    ! min distance between gammas 
 0   = drbj    ! min distance between b and jet 
 0.4 = draj    ! min distance between gamma and jet 
 0.4 = drjl    ! min distance between jet and lepton 
 0   = drab    ! min distance between gamma and b 
 0   = drbl    ! min distance between b and lepton 
 0.4 = dral    ! min distance between gamma and lepton 
 -1  = drjjmax ! max distance between jets
 -1  = drbbmax ! max distance between b's
 -1  = drllmax ! max distance between leptons
 -1  = draamax ! max distance between gammas
 -1  = drbjmax ! max distance between b and jet
 -1  = drajmax ! max distance between gamma and jet
 -1  = drjlmax ! max distance between jet and lepton
 -1  = drabmax ! max distance between gamma and b
 -1  = drblmax ! max distance between b and lepton
 -1  = dralmax ! maxdistance between gamma and lepton
#*********************************************************************
# Minimum and maximum invariant mass for pairs                       *
# WARNING: for four lepton final state mmll cut require to have      *
#          different lepton masses for each flavor!                  *           
#*********************************************************************
 0   = mmjj    ! min invariant mass of a jet pair 
 0   = mmbb    ! min invariant mass of a b pair 
 0   = mmaa    ! min invariant mass of gamma gamma pair
 0   = mmll    ! min invariant mass of l+l- (same flavour) lepton pair
 -1  = mmjjmax ! max invariant mass of a jet pair
 -1  = mmbbmax ! max invariant mass of a b pair
 -1  = mmaamax ! max invariant mass of gamma gamma pair
 -1  = mmllmax ! max invariant mass of l+l- (same flavour) lepton pair
#*********************************************************************
# Minimum and maximum invariant mass for all letpons                 *
#*********************************************************************
 0   = mmnl    ! min invariant mass for all letpons (l+- and vl) 
 -1  = mmnlmax ! max invariant mass for all letpons (l+- and vl) 
#*********************************************************************
# Minimum and maximum pt for 4-momenta sum of leptons                *
#*********************************************************************
 0   = ptllmin  ! Minimum pt for 4-momenta sum of leptons(l and vl)
 -1  = ptllmax  ! Maximum pt for 4-momenta sum of leptons(l and vl)
#*********************************************************************
# Inclusive cuts                                                     *
#*********************************************************************
 0  = xptj ! minimum pt for at least one jet  
 0  = xptb ! minimum pt for at least one b 
 0  = xpta ! minimum pt for at least one photon 
 0  = xptl ! minimum pt for at least one charged lepton 
#*********************************************************************
# Control the pt's of the jets sorted by pt                          *
#*********************************************************************
 0   = ptj1min ! minimum pt for the leading jet in pt
 0   = ptj2min ! minimum pt for the second jet in pt
 0   = ptj3min ! minimum pt for the third jet in pt
 0   = ptj4min ! minimum pt for the fourth jet in pt
 -1  = ptj1max ! maximum pt for the leading jet in pt 
 -1  = ptj2max ! maximum pt for the second jet in pt
 -1  = ptj3max ! maximum pt for the third jet in pt
 -1  = ptj4max ! maximum pt for the fourth jet in pt
 0   = cutuse  ! reject event if fails any (0) / all (1) jet pt cuts
#*********************************************************************
# Control the pt's of leptons sorted by pt                           *
#*********************************************************************
 0   = ptl1min ! minimum pt for the leading lepton in pt
 0   = ptl2min ! minimum pt for the second lepton in pt
 0   = ptl3min ! minimum pt for the third lepton in pt
 0   = ptl4min ! minimum pt for the fourth lepton in pt
 -1  = ptl1max ! maximum pt for the leading lepton in pt 
 -1  = ptl2max ! maximum pt for the second lepton in pt
 -1  = ptl3max ! maximum pt for the third lepton in pt
 -1  = ptl4max ! maximum pt for the fourth lepton in pt
#*********************************************************************
# Control the Ht(k)=Sum of k leading jets                            *
#*********************************************************************
 0   = htjmin ! minimum jet HT=Sum(jet pt)
 -1  = htjmax ! maximum jet HT=Sum(jet pt)
 0   = ihtmin  !inclusive Ht for all partons (including b)
 -1  = ihtmax  !inclusive Ht for all partons (including b)
 0   = ht2min ! minimum Ht for the two leading jets
 0   = ht3min ! minimum Ht for the three leading jets
 0   = ht4min ! minimum Ht for the four leading jets
 -1  = ht2max ! maximum Ht for the two leading jets
 -1  = ht3max ! maximum Ht for the three leading jets
 -1  = ht4max ! maximum Ht for the four leading jets
#***********************************************************************
# Photon-isolation cuts, according to hep-ph/9801442                   *
# When ptgmin=0, all the other parameters are ignored                  *
# When ptgmin>0, pta and draj are not going to be used                 *
#***********************************************************************
   0 = ptgmin ! Min photon transverse momentum
 0.4 = R0gamma ! Radius of isolation code
 1.0 = xn ! n parameter of eq.(3.4) in hep-ph/9801442
 1.0 = epsgamma ! epsilon_gamma parameter of eq.(3.4) in hep-ph/9801442
 .true. = isoEM ! isolate photons from EM energy (photons and leptons)
#*********************************************************************
# WBF cuts                                                           *
#*********************************************************************
 0   = xetamin ! minimum rapidity for two jets in the WBF case  
 0   = deltaeta ! minimum rapidity for two jets in the WBF case 
#*********************************************************************
# KT DURHAM CUT                                                      *
#*********************************************************************
 -1    =  ktdurham        
 0.4  =  dparameter 
#*********************************************************************
# maximal pdg code for quark to be considered as a light jet         *
# (otherwise b cuts are applied)                                     *
#*********************************************************************
 4 = maxjetflavor    ! Maximum jet pdg code
#*********************************************************************
# Jet measure cuts                                                   *
#*********************************************************************
 0   = xqcut   ! minimum kt jet measure between partons
#*********************************************************************
#
#*********************************************************************
# Store info for systematics studies                                 *
# WARNING: If use_syst is T, matched Pythia output is                *
#          meaningful ONLY if plotted taking matchscale              *
#          reweighting into account!                                 *
#*********************************************************************
   F  = use_syst      ! Enable systematics studies
#
#**************************************
# Parameter of the systematics study
#  will be used by SysCalc (if installed)
#**************************************                                  
#
0.5 1 2 = sys_scalefact  # factorization/renormalization scale factor
0.5 1 2 = sys_alpsfact  # \alpha_s emission scale factors
30 50 = sys_matchscale # variation of merging scale
# PDF sets and number of members (0 or none for all members).
CT10nlo.LHgrid = sys_pdf # matching scales
# MSTW2008nlo68cl.LHgrid 1  = sys_pdf
</MGRunCard>
<slha>
######################################################################
## PARAM_CARD AUTOMATICALY GENERATED BY MG5 FOLLOWING UFO MODEL   ####
######################################################################
##                                                                  ##
##  Width set on Auto will be computed following the information    ##
##        present in the decay.py files of the model.               ##
##        See  arXiv:1402.1178 for more details.                    ##
##                                                                  ##
######################################################################

###################################
## INFORMATION FOR CKMBLOCK
###################################
Block ckmblock 
    1 2.277360e-01 # cabi 

###################################
## INFORMATION FOR FRBLOCK
###################################
Block frblock 
    1 2.000000e-01 # gz 

###################################
## INFORMATION FOR MASS
###################################
Block mass 
    1 5.040000e-03 # MD 
    2 2.550000e-03 # MU 
    3 1.010000e-01 # MS 
    4 1.270000e+00 # MC 
    5 4.700000e+00 # MB 
    6 1.720000e+02 # MT 
   11 5.110000e-04 # Me 
   13 1.056600e-01 # MM 
   15 1.777000e+00 # MTA 
   23 9.118760e+01 # MZ 
   25 1.200000e+02 # MH 
  10030 1.400000e+03 # MZph 
  10031 3.000000e+02 # MZpl 
## Dependent parameters, given by model restrictions.
## Those values should be edited following the 
## analytical expression. MG5 ignores those values 
## but they are important for interfacing the output of MG5
## to external program such as Pythia.
  12 0.000000 # ve : 0.0 
  14 0.000000 # vm : 0.0 
  16 0.000000 # vt : 0.0 
  21 0.000000 # g : 0.0 
  22 0.000000 # a : 0.0 
  24 79.824360 # w+ : cmath.sqrt(MZ__exp__2/2. + cmath.sqrt(MZ__exp__4/4. - (aEW*cmath.pi*MZ__exp__2)/(Gf*sqrt__2))) 

###################################
## INFORMATION FOR SMINPUTS
###################################
Block sminputs 
    1 1.279000e+02 # aEWM1 
    2 1.166370e-05 # Gf 
    3 1.184000e-01 # aS 

###################################
## INFORMATION FOR YUKAWA
###################################
Block yukawa 
    1 5.040000e-03 # ymdo 
    2 2.550000e-03 # ymup 
    3 1.010000e-01 # yms 
    4 1.270000e+00 # ymc 
    5 4.700000e+00 # ymb 
    6 1.720000e+02 # ymt 
   11 5.110000e-04 # yme 
   13 1.056600e-01 # ymm 
   15 1.777000e+00 # ymtau 

###################################
## INFORMATION FOR DECAY
###################################
DECAY   6 1.508336e+00 # WT 
DECAY  23 2.495200e+00 # WZ 
DECAY  24 2.085000e+00 # WW 
DECAY  25 5.753088e-03 # WH 
## Dependent parameters, given by model restrictions.
## Those values should be edited following the 
## analytical expression. MG5 ignores those values 
## but they are important for interfacing the output of MG5
## to external program such as Pythia.
DECAY  1 0.000000 # d : 0.0 
DECAY  2 0.000000 # u : 0.0 
DECAY  3 0.000000 # s : 0.0 
DECAY  4 0.000000 # c : 0.0 
DECAY  5 0.000000 # b : 0.0 
DECAY  11 0.000000 # e- : 0.0 
DECAY  12 0.000000 # ve : 0.0 
DECAY  13 0.000000 # mu- : 0.0 
DECAY  14 0.000000 # vm : 0.0 
DECAY  15 0.000000 # ta- : 0.0 
DECAY  16 0.000000 # vt : 0.0 
DECAY  21 0.000000 # g : 0.0 
DECAY  22 0.000000 # a : 0.0 
DECAY  10030 0.308725 # zph : (gz__exp__2*MZph*(5 + cmath.sqrt(1 - (4*MT__exp__2)/MZph__exp__2)))/(144.*cmath.pi) 
DECAY  10031 0.132629 # zpl : (5*gz__exp__2*MZpl)/(144.*cmath.pi) 
#===========================================================
# QUANTUM NUMBERS OF NEW STATE(S) (NON SM PDG CODE)
#===========================================================

Block QNUMBERS 10030  # zph 
        1 0  # 3 times electric charge
        2 3  # number of spin states (2S+1)
        3 1  # colour rep (1: singlet, 3: triplet, 8: octet)
        4 0  # Particle/Antiparticle distinction (0=own anti)
Block QNUMBERS 10031  # zpl 
        1 0  # 3 times electric charge
        2 3  # number of spin states (2S+1)
        3 1  # colour rep (1: singlet, 3: triplet, 8: octet)
        4 0  # Particle/Antiparticle distinction (0=own anti)
</slha>
## END BANNER##
<MGGenerationInfo>
#  Number of Events        :         3989
#  Integrated weight (pb)  :  0.13288E-01
#  Max wgt                 :  0.46214E-05
#  Average wgt             :  0.33312E-05
</MGGenerationInfo>
</header>
<init>
     2212     2212  0.40000000000E+04  0.40000000000E+04 0 0  247000  247000 2   1
  0.13301240327E-01  0.26626504568E-04  0.46214500000E-05   0
</init>
<event>
 5   0  0.4460282E-05  0.1399367E+04  0.7818609E-02  0.8954277E-01
        2   -1    0    0  501    0  0.00000000000E+00  0.00000000000E+00  0.11482419818E+04  0.11482419818E+04  0.25500000920E-02 0. -1.
       -2   -1    0    0    0  501  0.00000000000E+00  0.00000000000E+00 -0.42635322814E+03  0.42635322814E+03  0.25500000920E-02 0.  1.
    10030    2    1    2    0    0  0.00000000000E+00  0.00000000000E+00  0.72188875362E+03  0.15745952099E+04  0.13993665361E+04 0.  0.
        1    1    3    3  502    0 -0.28224416420E+02  0.51287126152E+03  0.89554008863E+03  0.10323882985E+04  0.50400001928E-02 0. -1.
       -1    1    3    3    0  502  0.28224416420E+02 -0.51287126152E+03 -0.17365133500E+03  0.54220691138E+03  0.50400001928E-02 0.  1.
</event>
<event>
 5   0  0.4460282E-05  0.1399692E+04  0.7818609E-02  0.8954042E-01
       -2   -1    0    0    0  501  0.00000000000E+00  0.00000000000E+00  0.74020681588E+03  0.74020681589E+03  0.25500000920E-02 0. -1.
        2   -1    0    0  501    0  0.00000000000E+00  0.00000000000E+00 -0.66168562081E+03  0.66168562081E+03  0.25500000920E-02 0.  1.
    10030    2    1    2    0    0  0.00000000000E+00  0.00000000000E+00  0.78521195072E+02  0.14018924367E+04  0.13996916896E+04 0.  0.
        1    1    3    3  502    0  0.52810987717E+03  0.37078124377E+03 -0.23209976585E+03  0.68574709218E+03  0.50400001928E-02 0.  1.
       -1    1    3    3    0  502 -0.52810987717E+03 -0.37078124377E+03  0.31062096092E+03  0.71614534452E+03  0.50400001928E-02 0. -1.
</event>
<event>
 5   0  0.4441253E-05  0.1399511E+04  0.7818609E-02  0.8954173E-01
        2   -1    0    0  501    0  0.00000000000E+00  0.00000000000E+00  0.15950936367E+04  0.15950936367E+04  0.25500000920E-02 0.  1.
       -2   -1    0    0    0  501  0.00000000000E+00  0.00000000000E+00 -0.30697722507E+03  0.30697722508E+03  0.25500000920E-02 0. -1.
    10030    2    1    2    0    0  0.00000000000E+00  0.00000000000E+00  0.12881164116E+04  0.19020708618E+04  0.13995105121E+04 0.  0.
        3    1    3    3  502    0  0.17434630512E+03  0.70361094292E+02 -0.27200769836E+03  0.33065921410E+03  0.10100000352E+00 0. -1.
       -3    1    3    3    0  502 -0.17434630512E+03 -0.70361094292E+02  0.15601241100E+04  0.15714116477E+04  0.10100000352E+00 0.  1.
</event>
<event>
 5   0  0.4460282E-05  0.1399335E+04  0.7818609E-02  0.8954300E-01
        2   -1    0    0  501    0  0.00000000000E+00  0.00000000000E+00  0.99697772338E+03  0.99697772338E+03  0.25500000920E-02 0.  1.
       -2   -1    0    0    0  501  0.00000000000E+00  0.00000000000E+00 -0.49101870425E+03  0.49101870426E+03  0.25500000920E-02 0. -1.
    10030    2    1    2    0    0  0.00000000000E+00  0.00000000000E+00  0.50595901913E+03  0.14879964276E+04  0.13993351420E+04 0.  0.
        1    1    3    3  502    0 -0.63039448518E+03 -0.74366666207E+02 -0.59957480309E+02  0.63759117580E+03  0.50400001928E-02 0. -1.
       -1    1    3    3    0  502  0.63039448518E+03  0.74366666207E+02  0.56591649944E+03  0.85040525184E+03  0.50400001928E-02 0.  1.
</event>
<event>
 5   0  0.4441253E-05  0.1399731E+04  0.7818609E-02  0.8954014E-01
        2   -1    0    0  501    0  0.00000000000E+00  0.00000000000E+00  0.44185248381E+03  0.44185248382E+03  0.25500000920E-02 0. -1.
       -2   -1    0    0    0  501  0.00000000000E+00  0.00000000000E+00 -0.11085405882E+04  0.11085405882E+04  0.25500000920E-02 0.  1.
    10030    2    1    2    0    0  0.00000000000E+00  0.00000000000E+00 -0.66668810437E+03  0.15503930720E+04  0.13997305631E+04 0.  0.
        3    1    3    3  502    0  0.55986106009E+03 -0.38309619627E+03 -0.14276517186E+03  0.69324527167E+03  0.10100000352E+00 0. -1.
       -3    1    3    3    0  502 -0.55986106009E+03  0.38309619627E+03 -0.52392293251E+03  0.85714780033E+03  0.10100000352E+00 0.  1.
</event>
<event>
 5   0  0.2427569E-05  0.1400350E+04  0.7818609E-02  0.8953565E-01
        1   -1    0    0  501    0  0.00000000000E+00  0.00000000000E+00  0.13150165943E+04  0.13150165943E+04  0.50400001928E-02 0. -1.
       -1   -1    0    0    0  501  0.00000000000E+00  0.00000000000E+00 -0.37280545293E+03  0.37280545297E+03  0.50400001928E-02 0.  1.
    10030    2    1    2    0    0  0.00000000000E+00  0.00000000000E+00  0.94221114134E+03  0.16878220472E+04  0.14003504662E+04 0.  0.
        1    1    3    3  502    0 -0.32519540935E+03 -0.21781032270E+03  0.11708482243E+04  0.12345359271E+04  0.50400001928E-02 0. -1.
       -1    1    3    3    0  502  0.32519540935E+03  0.21781032270E+03 -0.22863708300E+03  0.45328612011E+03  0.50400001928E-02 0.  1.
</event>
<event>
 5   0  0.2467303E-05  0.1405162E+04  0.7818609E-02  0.8950091E-01
       -1   -1    0    0    0  501  0.00000000000E+00  0.00000000000E+00  0.28273859072E+03  0.28273859077E+03  0.50400001928E-02 0. -1.
        1   -1    0    0  501    0  0.00000000000E+00  0.00000000000E+00 -0.17458519545E+04  0.17458519545E+04  0.50400001928E-02 0.  1.
    10030    2    1    2    0    0  0.00000000000E+00  0.00000000000E+00 -0.14631133637E+04  0.20285905452E+04  0.14051615157E+04 0.  0.
        3    1    3    3  502    0  0.61669591014E+03  0.19125150802E+03 -0.11314527593E+04  0.13027188268E+04  0.10100000352E+00 0.  1.
       -3    1    3    3    0  502 -0.61669591014E+03 -0.19125150802E+03 -0.33166060441E+03  0.72587171844E+03  0.10100000352E+00 0. -1.
</event>
<event>
 5   0  0.4460282E-05  0.1395541E+04  0.7818609E-02  0.8957052E-01
       -2   -1    0    0    0  501  0.00000000000E+00  0.00000000000E+00  0.55174865785E+03  0.55174865786E+03  0.25500000920E-02 0. -1.
        2   -1    0    0  501    0  0.00000000000E+00  0.00000000000E+00 -0.88243799214E+03  0.88243799215E+03  0.25500000920E-02 0.  1.
    10030    2    1    2    0    0  0.00000000000E+00  0.00000000000E+00 -0.33068933429E+03  0.14341866500E+04  0.13955414402E+04 0.  0.
        1    1    3    3  502    0  0.89878330564E+01  0.38269930812E+03  0.43420099626E+03  0.57885235316E+03  0.50400001928E-02 0. -1.
       -1    1    3    3    0  502 -0.89878330564E+01 -0.38269930812E+03 -0.76489033055E+03  0.85533429685E+03  0.50400001928E-02 0.  1.
</event>
<event>
 5   0  0.2363419E-05  0.1401252E+04  0.7818609E-02  0.8952913E-01
        1   -1    0    0  501    0  0.00000000000E+00  0.00000000000E+00  0.15421199443E+04  0.15421199443E+04  0.50400001928E-02 0. -1.
       -1   -1    0    0    0  501  0.00000000000E+00  0.00000000000E+00 -0.31831276140E+03  0.31831276144E+03  0.50400001928E-02 0.  1.
    10030    2    1    2    0    0  0.00000000000E+00  0.00000000000E+00  0.12238071829E+04  0.18604327057E+04  0.14012515234E+04 0.  0.
        2    1    3    3  502    0  0.10086711072E+03  0.67144591315E+03  0.84133991905E+03  0.10811413634E+04  0.25500000920E-02 0. -1.
       -2    1    3    3    0  502 -0.10086711072E+03 -0.67144591315E+03  0.38246726384E+03  0.77929134232E+03  0.25500000920E-02 0.  1.
</event>
<event>
 5   0  0.4460282E-05  0.1400489E+04  0.7818609E-02  0.8953465E-01
        2   -1    0    0  501    0  0.00000000000E+00  0.00000000000E+00  0.49516242968E+03  0.49516242968E+03  0.25500000920E-02 0. -1.
       -2   -1    0    0    0  501  0.00000000000E+00  0.00000000000E+00 -0.99026591669E+03  0.99026591669E+03  0.25500000920E-02 0.  1.
    10030    2    1    2    0    0  0.00000000000E+00  0.00000000000E+00 -0.49510348701E+03  0.14854283464E+04  0.14004891679E+04 0.  0.
        1    1    3    3  502    0 -0.48969033181E+02  0.50629706200E+03 -0.75799625701E+03  0.91284884120E+03  0.50400001928E-02 0.  1.
       -1    1    3    3    0  502  0.48969033181E+02 -0.50629706200E+03  0.26289277000E+03  0.57257950518E+03  0.50400001928E-02 0. -1.
</event>
<event>
 5   0  0.1661000E-05  0.1399779E+04  0.7818609E-02  0.8953979E-01
        4   -1    0    0  501    0  0.00000000000E+00  0.00000000000E+00  0.60235608625E+03  0.60235742507E+03  0.12699999809E+01 0.  1.
       -4   -1    0    0    0  501  0.00000000000E+00  0.00000000000E+00 -0.81321282438E+03  0.81321381606E+03  0.12699999809E+01 0. -1.
    10030    2    1    2    0    0  0.00000000000E+00  0.00000000000E+00 -0.21085673813E+03  0.14155712411E+04  0.13997790450E+04 0.  0.
        3    1    3    3  502    0  0.21223637906E+03  0.27133190240E+03 -0.72154730553E+03  0.79955975773E+03  0.10100000352E+00 0. -1.
       -3    1    3    3    0  502 -0.21223637906E+03 -0.27133190240E+03  0.51069056740E+03  0.61601148341E+03  0.10100000352E+00 0.  1.
</event>
<event>
 5   0  0.4621450E-05  0.1400254E+04  0.7818609E-02  0.8953634E-01
       -2   -1    0    0    0  501  0.00000000000E+00  0.00000000000E+00  0.25270405752E+03  0.25270405753E+03  0.25500000920E-02 0. -1.
        2   -1    0    0  501    0  0.00000000000E+00  0.00000000000E+00 -0.19397318617E+04  0.19397318617E+04  0.25500000920E-02 0.  1.
    10030    2    1    2    0    0  0.00000000000E+00  0.00000000000E+00 -0.16870278042E+04  0.21924359192E+04  0.14002544225E+04 0.  0.
        5    1    3    3  502    0  0.21367020754E+02  0.40867724080E+02 -0.19373264587E+04  0.19378809607E+04  0.46999998093E+01 0.  1.
       -5    1    3    3    0  502 -0.21367020754E+02 -0.40867724080E+02  0.25029865451E+03  0.25455495850E+03  0.46999998093E+01 0. -1.
</event>
<event>
 5   0  0.2316714E-05  0.1400130E+04  0.7818609E-02  0.8953725E-01
       -1   -1    0    0    0  501  0.00000000000E+00  0.00000000000E+00  0.99088222054E+03  0.99088222056E+03  0.50400001928E-02 0. -1.
        1   -1    0    0  501    0  0.00000000000E+00  0.00000000000E+00 -0.49460035335E+03  0.49460035337E+03  0.50400001928E-02 0.  1.
    10030    2    1    2    0    0  0.00000000000E+00  0.00000000000E+00  0.49628186720E+03  0.14854825739E+04  0.14001295603E+04 0.  0.
        5    1    3    3  502    0 -0.46003247766E+03  0.46640476739E+02  0.80579003477E+03  0.92904514675E+03  0.46999998093E+01 0. -1.
       -5    1    3    3    0  502  0.46003247766E+03 -0.46640476739E+02 -0.30950816757E+03  0.55643742718E+03  0.46999998093E+01 0.  1.
</event>
<event>
 5   0  0.1661000E-05  0.1399679E+04  0.7818609E-02  0.8954051E-01
        3   -1    0    0  501    0  0.00000000000E+00  0.00000000000E+00  0.11050211626E+04  0.11050211672E+04  0.10100000352E+00 0.  1.
       -3   -1    0    0    0  501  0.00000000000E+00  0.00000000000E+00 -0.44322720931E+03  0.44322722082E+03  0.10100000352E+00 0. -1.
    10030    2    1    2    0    0  0.00000000000E+00  0.00000000000E+00  0.66179395326E+03  0.15482483880E+04  0.13996791898E+04 0.  0.
        5    1    3    3  502    0  0.64548676566E+03 -0.88603352943E+02  0.48343130428E+02  0.65334743212E+03  0.46999998093E+01 0. -1.
       -5    1    3    3    0  502 -0.64548676566E+03  0.88603352943E+02  0.61345082283E+03  0.89490095588E+03  0.46999998093E+01 0.  1.
</event>
<event>
 5   0  0.2427569E-05  0.1399155E+04  0.7818609E-02  0.8954430E-01
       -1   -1    0    0    0  501  0.00000000000E+00  0.00000000000E+00  0.54832778276E+03  0.54832778279E+03  0.50400001928E-02 0.  1.
        1   -1    0    0  501    0  0.00000000000E+00  0.00000000000E+00 -0.89254767694E+03  0.89254767695E+03  0.50400001928E-02 0. -1.
    10030    2    1    2    0    0  0.00000000000E+00  0.00000000000E+00 -0.34421989417E+03  0.14408754597E+04  0.13991550146E+04 0.  0.
        1    1    3    3  502    0  0.43500840050E+03  0.40003690041E+03 -0.55763472441E+03  0.81253819362E+03  0.50400001928E-02 0. -1.
       -1    1    3    3    0  502 -0.43500840050E+03 -0.40003690041E+03  0.21341483024E+03  0.62833726612E+03  0.50400001928E-02 0.  1.
</event>
<event>
 5   0  0.2467303E-05  0.1399118E+04  0.7818609E-02  0.8954457E-01
        1   -1    0    0  501    0  0.00000000000E+00  0.00000000000E+00  0.97507440453E+03  0.97507440454E+03  0.50400001928E-02 0. -1.
       -1   -1    0    0    0  501  0.00000000000E+00  0.00000000000E+00 -0.50189303702E+03  0.50189303705E+03  0.50400001928E-02 0.  1.
    10030    2    1    2    0    0  0.00000000000E+00  0.00000000000E+00  0.47318136751E+03  0.14769674416E+04  0.13991183713E+04 0.  0.
        3    1    3    3  502    0 -0.55989244380E+03 -0.35596098708E+03  0.24493210199E+01  0.66347101091E+03  0.10100000352E+00 0.  1.
       -3    1    3    3    0  502  0.55989244380E+03  0.35596098708E+03  0.47073204649E+03  0.81349643068E+03  0.10100000352E+00 0. -1.
</event>
<event>
 5   0  0.2467303E-05  0.1400173E+04  0.7818609E-02  0.8953693E-01
       -1   -1    0    0    0  501  0.00000000000E+00  0.00000000000E+00  0.52717829889E+03  0.52717829892E+03  0.50400001928E-02 0.  1.
        1   -1    0    0  501    0  0.00000000000E+00  0.00000000000E+00 -0.92970624802E+03  0.92970624804E+03  0.50400001928E-02 0. -1.
    10030    2    1    2    0    0  0.00000000000E+00  0.00000000000E+00 -0.40252794913E+03  0.14568845470E+04  0.14001727870E+04 0.  0.
        3    1    3    3  502    0  0.12008938019E+03 -0.60107808398E+03  0.15067332448E+03  0.63120423255E+03  0.10100000352E+00 0.  1.
       -3    1    3    3    0  502 -0.12008938019E+03  0.60107808398E+03 -0.55320127361E+03  0.82568031441E+03  0.10100000352E+00 0. -1.
</event>
<event>
 5   0  0.4460282E-05  0.1400314E+04  0.7818609E-02  0.8953591E-01
       -2   -1    0    0    0  501  0.00000000000E+00  0.00000000000E+00  0.28186820945E+03  0.28186820946E+03  0.25500000920E-02 0.  1.
        2   -1    0    0  501    0  0.00000000000E+00  0.00000000000E+00 -0.17391808546E+04  0.17391808546E+04  0.25500000920E-02 0. -1.
    10030    2    1    2    0    0  0.00000000000E+00  0.00000000000E+00 -0.14573126451E+04  0.20210490640E+04  0.14003139554E+04 0.  0.
        1    1    3    3  502    0  0.20707459667E+03 -0.16148920119E+03  0.20810109478E+03  0.33505927291E+03  0.50400001928E-02 0.  1.
       -1    1    3    3    0  502 -0.20707459667E+03  0.16148920119E+03 -0.16654137399E+04  0.16859897911E+04  0.50400001928E-02 0. -1.
</event>
<event>
 5   0  0.2428507E-05  0.1400345E+04  0.7818609E-02  0.8953569E-01
       -1   -1    0    0    0  501  0.00000000000E+00  0.00000000000E+00  0.57456657453E+03  0.57456657455E+03  0.50400001928E-02 0.  1.
        1   -1    0    0  501    0  0.00000000000E+00  0.00000000000E+00 -0.85323721546E+03  0.85323721547E+03  0.50400001928E-02 0. -1.
    10030    2    1    2    0    0  0.00000000000E+00  0.00000000000E+00 -0.27867064093E+03  0.14278037900E+04  0.14003450777E+04 0.  0.
        4    1    3    3  502    0 -0.49909651292E+03  0.42428477901E+03  0.11274743665E+03  0.66470181305E+03  0.12699999809E+01 0.  1.
       -4    1    3    3    0  502  0.49909651292E+03 -0.42428477901E+03 -0.39141807757E+03  0.76310197697E+03  0.12699999809E+01 0. -1.
</event>
<event>
 5   0  0.2427569E-05  0.1400323E+04  0.7818609E-02  0.8953585E-01
        1   -1    0    0  501    0  0.00000000000E+00  0.00000000000E+00  0.10511669210E+04  0.10511669210E+04  0.50400001928E-02 0.  1.
       -1   -1    0    0    0  501  0.00000000000E+00  0.00000000000E+00 -0.46636396385E+03  0.46636396388E+03  0.50400001928E-02 0. -1.
    10030    2    1    2    0    0  0.00000000000E+00  0.00000000000E+00  0.58480295714E+03  0.15175308849E+04  0.14003233512E+04 0.  0.
        1    1    3    3  502    0  0.14109326495E+03  0.67808221432E+03  0.18123065582E+03  0.71592412267E+03  0.50400001928E-02 0.  1.
       -1    1    3    3    0  502 -0.14109326495E+03 -0.67808221432E+03  0.40357230132E+03  0.80160676220E+03  0.50400001928E-02 0. -1.
</event>
<event>
 5   0  0.4243281E-05  0.1399920E+04  0.7818609E-02  0.8953876E-01
        2   -1    0    0  501    0  0.00000000000E+00  0.00000000000E+00  0.10836092807E+04  0.10836092807E+04  0.25500000920E-02 0. -1.
       -2   -1    0    0    0  501  0.00000000000E+00  0.00000000000E+00 -0.45214104910E+03  0.45214104911E+03  0.25500000920E-02 0.  1.
    10030    2    1    2    0    0  0.00000000000E+00  0.00000000000E+00  0.63146823164E+03  0.15357503298E+04  0.13999203363E+04 0.  0.
        2    1    3    3  502    0 -0.40450403374E+03  0.56101181166E+03  0.43381861229E+03  0.81642902600E+03  0.25500000920E-02 0. -1.
       -2    1    3    3    0  502  0.40450403374E+03 -0.56101181166E+03  0.19764961935E+03  0.71932130384E+03  0.25500000920E-02 0.  1.
</event>
<event>
 5   0  0.2467303E-05  0.1399795E+04  0.7818609E-02  0.8953967E-01
        1   -1    0    0  501    0  0.00000000000E+00  0.00000000000E+00  0.61477903111E+03  0.61477903113E+03  0.50400001928E-02 0.  1.
       -1   -1    0    0    0  501  0.00000000000E+00  0.00000000000E+00 -0.79680132440E+03  0.79680132441E+03  0.50400001928E-02 0. -1.
    10030    2    1    2    0    0  0.00000000000E+00  0.00000000000E+00 -0.18202229329E+03  0.14115803555E+04  0.13997953368E+04 0.  0.
        3    1    3    3  502    0 -0.38023629052E+03  0.38429243983E+03 -0.53927177901E+03  0.76359307080E+03  0.10100000352E+00 0. -1.
       -3    1    3    3    0  502  0.38023629052E+03 -0.38429243983E+03  0.35724948572E+03  0.64798728474E+03  0.10100000352E+00 0.  1.
</event>
<event>
 5   0  0.1661000E-05  0.1400000E+04  0.7818609E-02  0.8953818E-01
       -3   -1    0    0    0  501  0.00000000000E+00  0.00000000000E+00  0.10311954881E+04  0.10311954931E+04  0.10100000352E+00 0. -1.
        3   -1    0    0  501    0  0.00000000000E+00  0.00000000000E+00 -0.47517668413E+03  0.47517669487E+03  0.10100000352E+00 0.  1.
    10030    2    1    2    0    0  0.00000000000E+00  0.00000000000E+00  0.55601880399E+03  0.15063721879E+04  0.14000000922E+04 0.  0.
        5    1    3    3  502    0 -0.66522042116E+03  0.21684018712E+03  0.30058189108E+03  0.76151785187E+03  0.46999998093E+01 0.  1.
       -5    1    3    3    0  502  0.66522042116E+03 -0.21684018712E+03  0.25543691290E+03  0.74485433606E+03  0.46999998093E+01 0. -1.
</event>
<event>
 5   0  0.4441253E-05  0.1399780E+04  0.7818609E-02  0.8953978E-01
       -2   -1    0    0    0  501  0.00000000000E+00  0.00000000000E+00  0.64868513142E+03  0.64868513143E+03  0.25500000920E-02 0. -1.
        2   -1    0    0  501    0  0.00000000000E+00  0.00000000000E+00 -0.75513667288E+03  0.75513667288E+03  0.25500000920E-02 0.  1.
    10030    2    1    2    0    0  0.00000000000E+00  0.00000000000E+00 -0.10645154146E+03  0.14038218043E+04  0.13997798854E+04 0.  0.
        3    1    3    3  502    0 -0.63183706278E+03  0.40843688585E+02  0.24589649773E+03  0.67922851721E+03  0.10100000352E+00 0. -1.
       -3    1    3    3    0  502  0.63183706278E+03 -0.40843688585E+02 -0.35234803918E+03  0.72459328710E+03  0.10100000352E+00 0.  1.
</event>
<event>
 5   0  0.2427569E-05  0.1401012E+04  0.7818609E-02  0.8953086E-01
       -1   -1    0    0    0  501  0.00000000000E+00  0.00000000000E+00  0.74806801378E+03  0.74806801380E+03  0.50400001928E-02 0.  1.
        1   -1    0    0  501    0  0.00000000000E+00  0.00000000000E+00 -0.65596776548E+03  0.65596776550E+03  0.50400001928E-02 0. -1.
    10030    2    1    2    0    0  0.00000000000E+00  0.00000000000E+00  0.92100248300E+02  0.14040357793E+04  0.14010117822E+04 0.  0.
        1    1    3    3  502    0 -0.13098664235E+03 -0.31660416966E+03 -0.56626195888E+03  0.66185217898E+03  0.50400001928E-02 0. -1.
       -1    1    3    3    0  502  0.13098664235E+03  0.31660416966E+03  0.65836220718E+03  0.74218360032E+03  0.50400001928E-02 0.  1.
</event>
<event>
 5   0  0.4243281E-05  0.1400786E+04  0.7818609E-02  0.8953250E-01
       -2   -1    0    0    0  501  0.00000000000E+00  0.00000000000E+00  0.28168357451E+03  0.28168357452E+03  0.25500000920E-02 0.  1.
        2   -1    0    0  501    0  0.00000000000E+00  0.00000000000E+00 -0.17414943554E+04  0.17414943554E+04  0.25500000920E-02 0. -1.
    10030    2    1    2    0    0  0.00000000000E+00  0.00000000000E+00 -0.14598107809E+04  0.20231779300E+04  0.14007860008E+04 0.  0.
        2    1    3    3  502    0 -0.58590135387E+03 -0.29745985382E+03 -0.37971427082E+03  0.75891085680E+03  0.25500000920E-02 0. -1.
       -2    1    3    3    0  502  0.58590135387E+03  0.29745985382E+03 -0.10800965101E+04  0.12642670732E+04  0.25500000920E-02 0.  1.
</event>
<event>
 5   0  0.2363419E-05  0.1399561E+04  0.7818609E-02  0.8954137E-01
       -1   -1    0    0    0  501  0.00000000000E+00  0.00000000000E+00  0.33422126142E+03  0.33422126145E+03  0.50400001928E-02 0. -1.
        1   -1    0    0  501    0  0.00000000000E+00  0.00000000000E+00 -0.14651749050E+04  0.14651749050E+04  0.50400001928E-02 0.  1.
    10030    2    1    2    0    0  0.00000000000E+00  0.00000000000E+00 -0.11309536436E+04  0.17993961664E+04  0.13995607954E+04 0.  0.
        2    1    3    3  502    0  0.41575043498E+02 -0.43333251315E+03 -0.12698957246E+04  0.13424383422E+04  0.25500000920E-02 0.  1.
       -2    1    3    3    0  502 -0.41575043498E+02  0.43333251315E+03  0.13894208109E+03  0.45695782421E+03  0.25500000920E-02 0. -1.
</event>
<event>
 5   0  0.4441253E-05  0.1399970E+04  0.7818609E-02  0.8953840E-01
       -2   -1    0    0    0  501  0.00000000000E+00  0.00000000000E+00  0.13183793871E+04  0.13183793871E+04  0.25500000920E-02 0.  1.
        2   -1    0    0  501    0  0.00000000000E+00  0.00000000000E+00 -0.37165253493E+03  0.37165253494E+03  0.25500000920E-02 0. -1.
    10030    2    1    2    0    0  0.00000000000E+00  0.00000000000E+00  0.94672685213E+03  0.16900319220E+04  0.13999700586E+04 0.  0.
        3    1    3    3  502    0 -0.55945037154E+03 -0.26157217481E+03  0.87114045511E+03  0.10678438198E+04  0.10100000352E+00 0. -1.
       -3    1    3    3    0  502  0.55945037154E+03  0.26157217481E+03  0.75586397019E+02  0.62218810216E+03  0.10100000352E+00 0.  1.
</event>
<event>
 5   0  0.4621450E-05  0.1398974E+04  0.7818609E-02  0.8954562E-01
       -2   -1    0    0    0  501  0.00000000000E+00  0.00000000000E+00  0.35495182477E+03  0.35495182478E+03  0.25500000920E-02 0.  1.
        2   -1    0    0  501    0  0.00000000000E+00  0.00000000000E+00 -0.13784458862E+04  0.13784458862E+04  0.25500000920E-02 0. -1.
    10030    2    1    2    0    0  0.00000000000E+00  0.00000000000E+00 -0.10234940614E+04  0.17333977110E+04  0.13989737419E+04 0.  0.
        5    1    3    3  502    0 -0.45158521603E+03 -0.43382948851E+03 -0.89789052008E+03  0.10946993690E+04  0.46999998093E+01 0. -1.
       -5    1    3    3    0  502  0.45158521603E+03  0.43382948851E+03 -0.12560354134E+03  0.63869834197E+03  0.46999998093E+01 0.  1.
</event>
<event>
 5   0  0.2363419E-05  0.1400494E+04  0.7818609E-02  0.8953461E-01
       -1   -1    0    0    0  501  0.00000000000E+00  0.00000000000E+00  0.27790825553E+03  0.27790825557E+03  0.50400001928E-02 0. -1.
        1   -1    0    0  501    0  0.00000000000E+00  0.00000000000E+00 -0.17644157917E+04  0.17644157917E+04  0.50400001928E-02 0.  1.
    10030    2    1    2    0    0  0.00000000000E+00  0.00000000000E+00 -0.14865075361E+04  0.20423240472E+04  0.14004937911E+04 0.  0.
        2    1    3    3  502    0 -0.54440461312E+03 -0.34780848630E+03 -0.11372578266E+04  0.13079382593E+04  0.25500000920E-02 0.  1.
       -2    1    3    3    0  502  0.54440461312E+03  0.34780848630E+03 -0.34924970951E+03  0.73438578794E+03  0.25500000920E-02 0. -1.
</event>
<event>
 5   0  0.4441253E-05  0.1400252E+04  0.7818609E-02  0.8953636E-01
        2   -1    0    0  501    0  0.00000000000E+00  0.00000000000E+00  0.20052693608E+04  0.20052693608E+04  0.25500000920E-02 0.  1.
       -2   -1    0    0    0  501  0.00000000000E+00  0.00000000000E+00 -0.24444430847E+03  0.24444430849E+03  0.25500000920E-02 0. -1.
    10030    2    1    2    0    0  0.00000000000E+00  0.00000000000E+00  0.17608250523E+04  0.22497136693E+04  0.14002523804E+04 0.  0.
        3    1    3    3  502    0 -0.55919065812E+03 -0.39560040932E+03  0.11131426534E+04  0.13070120325E+04  0.10100000352E+00 0.  1.
       -3    1    3    3    0  502  0.55919065812E+03  0.39560040932E+03  0.64768239890E+03  0.94270163680E+03  0.10100000352E+00 0. -1.
</event>
<event>
 5   0  0.4460282E-05  0.1397111E+04  0.7818609E-02  0.8955913E-01
        2   -1    0    0  501    0  0.00000000000E+00  0.00000000000E+00  0.48914283439E+03  0.48914283440E+03  0.25500000920E-02 0.  1.
       -2   -1    0    0    0  501  0.00000000000E+00  0.00000000000E+00 -0.99762184040E+03  0.99762184040E+03  0.25500000920E-02 0. -1.
    10030    2    1    2    0    0  0.00000000000E+00  0.00000000000E+00 -0.50847900601E+03  0.14867646748E+04  0.13971106967E+04 0.  0.
        1    1    3    3  502    0  0.90026874984E+02  0.15484100069E+03 -0.97277087760E+03  0.98912271941E+03  0.50400001928E-02 0. -1.
       -1    1    3    3    0  502 -0.90026874984E+02 -0.15484100069E+03  0.46429187160E+03  0.49764195539E+03  0.50400001928E-02 0.  1.
</event>
<event>
 5   0  0.2316714E-05  0.1400611E+04  0.7818609E-02  0.8953376E-01
        1   -1    0    0  501    0  0.00000000000E+00  0.00000000000E+00  0.57785417378E+03  0.57785417380E+03  0.50400001928E-02 0. -1.
       -1   -1    0    0    0  501  0.00000000000E+00  0.00000000000E+00 -0.84870526617E+03  0.84870526619E+03  0.50400001928E-02 0.  1.
    10030    2    1    2    0    0  0.00000000000E+00  0.00000000000E+00 -0.27085109239E+03  0.14265594400E+04  0.14006111243E+04 0.  0.
        5    1    3    3  502    0  0.38680233237E+03 -0.55989422989E+03 -0.30373899438E+03  0.74523624422E+03  0.46999998093E+01 0.  1.
       -5    1    3    3    0  502 -0.38680233237E+03  0.55989422989E+03  0.32887901991E+02  0.68132319577E+03  0.46999998093E+01 0. -1.
</event>
<event>
 5   0  0.4441253E-05  0.1400417E+04  0.7818609E-02  0.8953517E-01
        2   -1    0    0  501    0  0.00000000000E+00  0.00000000000E+00  0.88878358146E+03  0.88878358146E+03  0.25500000920E-02 0.  1.
       -2   -1    0    0    0  501  0.00000000000E+00  0.00000000000E+00 -0.55164357693E+03  0.55164357694E+03  0.25500000920E-02 0. -1.
    10030    2    1    2    0    0  0.00000000000E+00  0.00000000000E+00  0.33714000452E+03  0.14404271584E+04  0.14004167294E+04 0.  0.
        3    1    3    3  502    0 -0.24691847634E+03  0.11217628781E+03 -0.49542733692E+03  0.56480130123E+03  0.10100000352E+00 0. -1.
       -3    1    3    3    0  502  0.24691847634E+03 -0.11217628781E+03  0.83256734144E+03  0.87562585717E+03  0.10100000352E+00 0.  1.
</event>
<event>
 5   0  0.2428507E-05  0.1398816E+04  0.7818609E-02  0.8954676E-01
        1   -1    0    0  501    0  0.00000000000E+00  0.00000000000E+00  0.82216488514E+03  0.82216488515E+03  0.50400001928E-02 0.  1.
       -1   -1    0    0    0  501  0.00000000000E+00  0.00000000000E+00 -0.59498028136E+03  0.59498028138E+03  0.50400001928E-02 0. -1.
    10030    2    1    2    0    0  0.00000000000E+00  0.00000000000E+00  0.22718460378E+03  0.14171451665E+04  0.13988164922E+04 0.  0.
        4    1    3    3  502    0  0.41401275402E+03  0.13042949026E+03  0.66918657889E+03  0.79764071027E+03  0.12699999809E+01 0.  1.
       -4    1    3    3    0  502 -0.41401275402E+03 -0.13042949026E+03 -0.44200197511E+03  0.61950445626E+03  0.12699999809E+01 0. -1.
</event>
<event>
 5   0  0.2427569E-05  0.1400156E+04  0.7818609E-02  0.8953706E-01
       -1   -1    0    0    0  501  0.00000000000E+00  0.00000000000E+00  0.97379783769E+03  0.97379783770E+03  0.50400001928E-02 0. -1.
        1   -1    0    0  501    0  0.00000000000E+00  0.00000000000E+00 -0.50329633276E+03  0.50329633278E+03  0.50400001928E-02 0.  1.
    10030    2    1    2    0    0  0.00000000000E+00  0.00000000000E+00  0.47050150493E+03  0.14770941705E+04  0.14001555350E+04 0.  0.
        1    1    3    3  502    0  0.48410089338E+02 -0.18639643491E+03  0.94530480668E+03  0.96472190047E+03  0.50400001928E-02 0. -1.
       -1    1    3    3    0  502 -0.48410089338E+02  0.18639643491E+03 -0.47480330175E+03  0.51237227001E+03  0.50400001928E-02 0.  1.
</event>
<event>
 5   0  0.2467303E-05  0.1398372E+04  0.7818609E-02  0.8954998E-01
        1   -1    0    0  501    0  0.00000000000E+00  0.00000000000E+00  0.16889421226E+04  0.16889421226E+04  0.50400001928E-02 0.  1.
       -1   -1    0    0    0  501  0.00000000000E+00  0.00000000000E+00 -0.28944805521E+03  0.28944805526E+03  0.50400001928E-02 0. -1.
    10030    2    1    2    0    0  0.00000000000E+00  0.00000000000E+00  0.13994940674E+04  0.19783901779E+04  0.13983719288E+04 0.  0.
        3    1    3    3  502    0  0.47952754870E+03  0.42720581353E+03  0.30866937958E+03  0.71255054078E+03  0.10100000352E+00 0. -1.
       -3    1    3    3    0  502 -0.47952754870E+03 -0.42720581353E+03  0.10908246878E+04  0.12658396371E+04  0.10100000352E+00 0.  1.
</event>
<event>
 5   0  0.4527503E-05  0.1400102E+04  0.7818609E-02  0.8953745E-01
        2   -1    0    0  501    0  0.00000000000E+00  0.00000000000E+00  0.45144953496E+03  0.45144953497E+03  0.25500000920E-02 0.  1.
       -2   -1    0    0    0  501  0.00000000000E+00  0.00000000000E+00 -0.10855500807E+04  0.10855500807E+04  0.25500000920E-02 0. -1.
    10030    2    1    2    0    0  0.00000000000E+00  0.00000000000E+00 -0.63410054574E+03  0.15369996157E+04  0.14001015379E+04 0.  0.
        4    1    3    3  502    0  0.39027453411E+03  0.40189701291E+03  0.14379923845E+03  0.57837293750E+03  0.12699999809E+01 0.  1.
       -4    1    3    3    0  502 -0.39027453411E+03 -0.40189701291E+03 -0.77789978419E+03  0.95862667817E+03  0.12699999809E+01 0. -1.
</event>
<event>
 5   0  0.4527503E-05  0.1399288E+04  0.7818609E-02  0.8954334E-01
       -2   -1    0    0    0  501  0.00000000000E+00  0.00000000000E+00  0.11895588598E+04  0.11895588599E+04  0.25500000920E-02 0. -1.
        2   -1    0    0  501    0  0.00000000000E+00  0.00000000000E+00 -0.41149860242E+03  0.41149860243E+03  0.25500000920E-02 0.  1.
    10030    2    1    2    0    0  0.00000000000E+00  0.00000000000E+00  0.77806025743E+03  0.16010574623E+04  0.13992881166E+04 0.  0.
        4    1    3    3  502    0 -0.62774265903E+03 -0.88603189832E+02  0.72765910791E+03  0.96509106380E+03  0.12699999809E+01 0.  1.
       -4    1    3    3    0  502  0.62774265903E+03  0.88603189832E+02  0.50401149522E+02  0.63596639847E+03  0.12699999809E+01 0. -1.
</event>
<event>
 5   0  0.2363419E-05  0.1403640E+04  0.7818609E-02  0.8951188E-01
        1   -1    0    0  501    0  0.00000000000E+00  0.00000000000E+00  0.13386623209E+04  0.13386623209E+04  0.50400001928E-02 0. -1.
       -1   -1    0    0    0  501  0.00000000000E+00  0.00000000000E+00 -0.36794298177E+03  0.36794298180E+03  0.50400001928E-02 0.  1.
    10030    2    1    2    0    0  0.00000000000E+00  0.00000000000E+00  0.97071933914E+03  0.17066053027E+04  0.14036401333E+04 0.  0.
        2    1    3    3  502    0  0.10676006044E+03 -0.56542891471E+03 -0.31667440339E+01  0.57542818524E+03  0.25500000920E-02 0.  1.
       -2    1    3    3    0  502 -0.10676006044E+03  0.56542891471E+03  0.97388608318E+03  0.11311771175E+04  0.25500000920E-02 0. -1.
</event>
<event>
 5   0  0.2467303E-05  0.1399815E+04  0.7818609E-02  0.8953953E-01
       -1   -1    0    0    0  501  0.00000000000E+00  0.00000000000E+00  0.51024772144E+03  0.51024772147E+03  0.50400001928E-02 0.  1.
        1   -1    0    0  501    0  0.00000000000E+00  0.00000000000E+00 -0.96006394205E+03  0.96006394206E+03  0.50400001928E-02 0. -1.
    10030    2    1    2    0    0  0.00000000000E+00  0.00000000000E+00 -0.44981622060E+03  0.14703116635E+04  0.13998149005E+04 0.  0.
        3    1    3    3  502    0  0.17122454566E+03  0.92159325326E+02 -0.93112234437E+03  0.95120976481E+03  0.10100000352E+00 0. -1.
       -3    1    3    3    0  502 -0.17122454566E+03 -0.92159325326E+02  0.48130612377E+03  0.51910189872E+03  0.10100000352E+00 0.  1.
</event>
<event>
 5   0  0.2316714E-05  0.1400688E+04  0.7818609E-02  0.8953320E-01
        1   -1    0    0  501    0  0.00000000000E+00  0.00000000000E+00  0.45885125294E+03  0.45885125297E+03  0.50400001928E-02 0.  1.
       -1   -1    0    0    0  501  0.00000000000E+00  0.00000000000E+00 -0.10689346615E+04  0.10689346616E+04  0.50400001928E-02 0. -1.
    10030    2    1    2    0    0  0.00000000000E+00  0.00000000000E+00 -0.61008340861E+03  0.15277859145E+04  0.14006884147E+04 0.  0.
        5    1    3    3  502    0  0.55237928237E+03  0.34327205717E+03 -0.21656502034E+02  0.65073010604E+03  0.46999998093E+01 0.  1.
       -5    1    3    3    0  502 -0.55237928237E+03 -0.34327205717E+03 -0.58842690657E+03  0.87705580849E+03  0.46999998093E+01 0. -1.
</event>
<event>
 5   0  0.4243281E-05  0.1400529E+04  0.7818609E-02  0.8953435E-01
        2   -1    0    0  501    0  0.00000000000E+00  0.00000000000E+00  0.11708826171E+04  0.11708826171E+04  0.25500000920E-02 0.  1.
       -2   -1    0    0    0  501  0.00000000000E+00  0.00000000000E+00 -0.41880425058E+03  0.41880425059E+03  0.25500000920E-02 0. -1.
    10030    2    1    2    0    0  0.00000000000E+00  0.00000000000E+00  0.75207836656E+03  0.15896868677E+04  0.14005293528E+04 0.  0.
        2    1    3    3  502    0  0.32934857192E+03 -0.48775438399E+02 -0.32321863296E+03  0.46402565653E+03  0.25500000920E-02 0. -1.
       -2    1    3    3    0  502 -0.32934857192E+03  0.48775438399E+02  0.10752969995E+04  0.11256612112E+04  0.25500000920E-02 0.  1.
</event>
<event>
 5   0  0.4441253E-05  0.1399766E+04  0.7818609E-02  0.8953988E-01
       -2   -1    0    0    0  501  0.00000000000E+00  0.00000000000E+00  0.28578558253E+03  0.28578558254E+03  0.25500000920E-02 0. -1.
        2   -1    0    0  501    0  0.00000000000E+00  0.00000000000E+00 -0.17139989853E+04  0.17139989853E+04  0.25500000920E-02 0.  1.
    10030    2    1    2    0    0  0.00000000000E+00  0.00000000000E+00 -0.14282134028E+04  0.19997845678E+04  0.13997659783E+04 0.  0.
        3    1    3    3  502    0  0.59326707917E+03 -0.10373858735E+03 -0.20475781573E+03  0.63612364760E+03  0.10100000352E+00 0. -1.
       -3    1    3    3    0  502 -0.59326707917E+03  0.10373858735E+03 -0.12234555870E+04  0.13636609202E+04  0.10100000352E+00 0.  1.
</event>
<event>
 5   0  0.4460282E-05  0.1397156E+04  0.7818609E-02  0.8955880E-01
        2   -1    0    0  501    0  0.00000000000E+00  0.00000000000E+00  0.51832774295E+03  0.51832774296E+03  0.25500000920E-02 0.  1.
       -2   -1    0    0    0  501  0.00000000000E+00  0.00000000000E+00 -0.94151092305E+03  0.94151092305E+03  0.25500000920E-02 0. -1.
    10030    2    1    2    0    0  0.00000000000E+00  0.00000000000E+00 -0.42318318010E+03  0.14598386660E+04  0.13971560138E+04 0.  0.
        1    1    3    3  502    0  0.51025182957E+02 -0.14438959215E+03 -0.92375645067E+03  0.93636419399E+03  0.50400001928E-02 0. -1.
       -1    1    3    3    0  502 -0.51025182957E+02  0.14438959215E+03  0.50057327057E+03  0.52347447202E+03  0.50400001928E-02 0.  1.
</event>
<event>
 5   0  0.4243281E-05  0.1397752E+04  0.7818609E-02  0.8955447E-01
        2   -1    0    0  501    0  0.00000000000E+00  0.00000000000E+00  0.11524748676E+04  0.11524748676E+04  0.25500000920E-02 0.  1.
       -2   -1    0    0    0  501  0.00000000000E+00  0.00000000000E+00 -0.42380759328E+03  0.42380759329E+03  0.25500000920E-02 0. -1.
    10030    2    1    2    0    0  0.00000000000E+00  0.00000000000E+00  0.72866727436E+03  0.15762824609E+04  0.13977519093E+04 0.  0.
        2    1    3    3  502    0 -0.22265977645E+03 -0.35312309887E+03  0.99641859322E+03  0.10803348147E+04  0.25500000920E-02 0.  1.
       -2    1    3    3    0  502  0.22265977645E+03  0.35312309887E+03 -0.26775131886E+03  0.49594764619E+03  0.25500000920E-02 0. -1.
</event>
<event>
 5   0  0.4441253E-05  0.1399875E+04  0.7818609E-02  0.8953909E-01
        2   -1    0    0  501    0  0.00000000000E+00  0.00000000000E+00  0.68816498663E+03  0.68816498663E+03  0.25500000920E-02 0. -1.
       -2   -1    0    0    0  501  0.00000000000E+00  0.00000000000E+00 -0.71191104393E+03  0.71191104393E+03  0.25500000920E-02 0.  1.
    10030    2    1    2    0    0  0.00000000000E+00  0.00000000000E+00 -0.23746057301E+02  0.14000760306E+04  0.13998746430E+04 0.  0.
        3    1    3    3  502    0 -0.46704392276E+03  0.51671360845E+03 -0.81087499408E+02  0.70121193066E+03  0.10100000352E+00 0. -1.
       -3    1    3    3    0  502  0.46704392276E+03 -0.51671360845E+03  0.57341442107E+02  0.69886409990E+03  0.10100000352E+00 0.  1.
</event>
<event>
 5   0  0.2467303E-05  0.1400418E+04  0.7818609E-02  0.8953516E-01
       -1   -1    0    0    0  501  0.00000000000E+00  0.00000000000E+00  0.52561754798E+03  0.52561754801E+03  0.50400001928E-02 0.  1.
        1   -1    0    0  501    0  0.00000000000E+00  0.00000000000E+00 -0.93279391716E+03  0.93279391718E+03  0.50400001928E-02 0. -1.
    10030    2    1    2    0    0  0.00000000000E+00  0.00000000000E+00 -0.40717636918E+03  0.14584114652E+04  0.14004182969E+04 0.  0.
        3    1    3    3  502    0 -0.71785990877E+02  0.68122677049E+03 -0.52423107545E+02  0.68700169848E+03  0.10100000352E+00 0.  1.
       -3    1    3    3    0  502  0.71785990877E+02 -0.68122677049E+03 -0.35475326164E+03  0.77140976670E+03  0.10100000352E+00 0. -1.
</event>
<event>
 5   0  0.4621450E-05  0.1401460E+04  0.7818609E-02  0.8952762E-01
        2   -1    0    0  501    0  0.00000000000E+00  0.00000000000E+00  0.53124072352E+03  0.53124072352E+03  0.25500000920E-02 0. -1.
       -2   -1    0    0    0  501  0.00000000000E+00  0.00000000000E+00 -0.92429429751E+03  0.92429429751E+03  0.25500000920E-02 0.  1.
    10030    2    1    2    0    0  0.00000000000E+00  0.00000000000E+00 -0.39305357399E+03  0.14555350210E+04  0.14014603403E+04 0.  0.
        5    1    3    3  502    0 -0.64024531974E+03  0.23894170793E+03 -0.35740172663E+03  0.77121027835E+03  0.46999998093E+01 0.  1.
       -5    1    3    3    0  502  0.64024531974E+03 -0.23894170793E+03 -0.35651847364E+02  0.68432474269E+03  0.46999998093E+01 0. -1.
</event>
<event>
 5   0  0.2316714E-05  0.1399541E+04  0.7818609E-02  0.8954151E-01
       -1   -1    0    0    0  501  0.00000000000E+00  0.00000000000E+00  0.16049018534E+04  0.16049018534E+04  0.50400001928E-02 0. -1.
        1   -1    0    0  501    0  0.00000000000E+00  0.00000000000E+00 -0.30511429240E+03  0.30511429244E+03  0.50400001928E-02 0.  1.
    10030    2    1    2    0    0  0.00000000000E+00  0.00000000000E+00  0.12997875610E+04  0.19100161459E+04  0.13995406295E+04 0.  0.
        5    1    3    3  502    0  0.35227576234E+03  0.37456464661E+03  0.12976224218E+04  0.13957947295E+04  0.46999998093E+01 0. -1.
       -5    1    3    3    0  502 -0.35227576234E+03 -0.37456464661E+03  0.21651391693E+01  0.51422141637E+03  0.46999998093E+01 0.  1.
</event>
<event>
 5   0  0.2467303E-05  0.1400092E+04  0.7818609E-02  0.8953752E-01
        1   -1    0    0  501    0  0.00000000000E+00  0.00000000000E+00  0.14831335542E+04  0.14831335542E+04  0.50400001928E-02 0. -1.
       -1   -1    0    0    0  501  0.00000000000E+00  0.00000000000E+00 -0.33042519444E+03  0.33042519448E+03  0.50400001928E-02 0.  1.
    10030    2    1    2    0    0  0.00000000000E+00  0.00000000000E+00  0.11527083598E+04  0.18135587487E+04  0.14000924156E+04 0.  0.
        3    1    3    3  502    0  0.44430819789E+03 -0.38564651823E+03  0.84933860716E+02  0.59442979622E+03  0.10100000352E+00 0.  1.
       -3    1    3    3    0  502 -0.44430819789E+03  0.38564651823E+03  0.10677744991E+04  0.12191289525E+04  0.10100000352E+00 0. -1.
</event>
<event>
 5   0  0.4441253E-05  0.1390002E+04  0.7818609E-02  0.8961087E-01
       -2   -1    0    0    0  501  0.00000000000E+00  0.00000000000E+00  0.29101833428E+03  0.29101833429E+03  0.25500000920E-02 0. -1.
        2   -1    0    0  501    0  0.00000000000E+00  0.00000000000E+00 -0.16597806326E+04  0.16597806326E+04  0.25500000920E-02 0.  1.
    10030    2    1    2    0    0  0.00000000000E+00  0.00000000000E+00 -0.13687622983E+04  0.19507989669E+04  0.13900022949E+04 0.  0.
        3    1    3    3  502    0 -0.22653915155E+02  0.66034076635E+03 -0.98690022171E+03  0.11876595410E+04  0.10100000352E+00 0. -1.
       -3    1    3    3    0  502  0.22653915155E+02 -0.66034076635E+03 -0.38186207660E+03  0.76313942587E+03  0.10100000352E+00 0.  1.
</event>
<event>
 5   0  0.2427569E-05  0.1402634E+04  0.7818609E-02  0.8951914E-01
       -1   -1    0    0    0  501  0.00000000000E+00  0.00000000000E+00  0.37172318218E+03  0.37172318222E+03  0.50400001928E-02 0. -1.
        1   -1    0    0  501    0  0.00000000000E+00  0.00000000000E+00 -0.13231496025E+04  0.13231496025E+04  0.50400001928E-02 0.  1.
    10030    2    1    2    0    0  0.00000000000E+00  0.00000000000E+00 -0.95142642034E+03  0.16948727847E+04  0.14026337808E+04 0.  0.
        1    1    3    3  502    0 -0.54234132876E+03 -0.35081984526E+03 -0.14559534594E+03  0.66212286284E+03  0.50400001928E-02 0. -1.
       -1    1    3    3    0  502  0.54234132876E+03  0.35081984526E+03 -0.80583107440E+03  0.10327499219E+04  0.50400001928E-02 0.  1.
</event>
<event>
 5   0  0.2467303E-05  0.1400156E+04  0.7818609E-02  0.8953706E-01
       -1   -1    0    0    0  501  0.00000000000E+00  0.00000000000E+00  0.23433222543E+03  0.23433222548E+03  0.50400001928E-02 0.  1.
        1   -1    0    0  501    0  0.00000000000E+00  0.00000000000E+00 -0.20915144474E+04  0.20915144474E+04  0.50400001928E-02 0. -1.
    10030    2    1    2    0    0  0.00000000000E+00  0.00000000000E+00 -0.18571822219E+04  0.23258466728E+04  0.14001560414E+04 0.  0.
        3    1    3    3  502    0  0.11239835051E+03  0.68122205431E+03 -0.11209698417E+04  0.13165372280E+04  0.10100000352E+00 0.  1.
       -3    1    3    3    0  502 -0.11239835051E+03 -0.68122205431E+03 -0.73621238024E+03  0.10093094449E+04  0.10100000352E+00 0. -1.
</event>
<event>
 5   0  0.2363419E-05  0.1400938E+04  0.7818609E-02  0.8953140E-01
        1   -1    0    0  501    0  0.00000000000E+00  0.00000000000E+00  0.48842744041E+03  0.48842744044E+03  0.50400001928E-02 0.  1.
       -1   -1    0    0    0  501  0.00000000000E+00  0.00000000000E+00 -0.10045650608E+04  0.10045650608E+04  0.50400001928E-02 0. -1.
    10030    2    1    2    0    0  0.00000000000E+00  0.00000000000E+00 -0.51613762036E+03  0.14929925012E+04  0.14009384589E+04 0.  0.
        2    1    3    3  502    0  0.14089240447E+03  0.39179352194E+03  0.34224253738E+03  0.53896455159E+03  0.25500000920E-02 0.  1.
       -2    1    3    3    0  502 -0.14089240447E+03 -0.39179352194E+03 -0.85838015774E+03  0.95402794963E+03  0.25500000920E-02 0. -1.
</event>
<event>
 5   0  0.2316714E-05  0.1400081E+04  0.7818609E-02  0.8953760E-01
       -1   -1    0    0    0  501  0.00000000000E+00  0.00000000000E+00  0.23476306131E+03  0.23476306136E+03  0.50400001928E-02 0.  1.
        1   -1    0    0  501    0  0.00000000000E+00  0.00000000000E+00 -0.20874534784E+04  0.20874534784E+04  0.50400001928E-02 0. -1.
    10030    2    1    2    0    0  0.00000000000E+00  0.00000000000E+00 -0.18526904171E+04  0.23222165397E+04  0.14000813819E+04 0.  0.
        5    1    3    3  502    0 -0.18019388779E+03 -0.53975767580E+03 -0.25010682754E+03  0.62159770026E+03  0.46999998093E+01 0.  1.
       -5    1    3    3    0  502  0.18019388779E+03  0.53975767580E+03 -0.16025835895E+04  0.17006188395E+04  0.46999998093E+01 0. -1.
</event>
<event>
 5   0  0.4527503E-05  0.1400359E+04  0.7818609E-02  0.8953559E-01
       -2   -1    0    0    0  501  0.00000000000E+00  0.00000000000E+00  0.25805422680E+03  0.25805422681E+03  0.25500000920E-02 0.  1.
        2   -1    0    0  501    0  0.00000000000E+00  0.00000000000E+00 -0.18997997534E+04  0.18997997534E+04  0.25500000920E-02 0. -1.
    10030    2    1    2    0    0  0.00000000000E+00  0.00000000000E+00 -0.16417455266E+04  0.21578539802E+04  0.14003590346E+04 0.  0.
        4    1    3    3  502    0 -0.11466470352E+03  0.68323622077E+03 -0.97718417291E+03  0.11978523483E+04  0.12699999809E+01 0. -1.
       -4    1    3    3    0  502  0.11466470352E+03 -0.68323622077E+03 -0.66456135371E+03  0.96000163196E+03  0.12699999809E+01 0.  1.
</event>
<event>
 5   0  0.4460282E-05  0.1399719E+04  0.7818609E-02  0.8954022E-01
        2   -1    0    0  501    0  0.00000000000E+00  0.00000000000E+00  0.10231144787E+04  0.10231144787E+04  0.25500000920E-02 0. -1.
       -2   -1    0    0    0  501  0.00000000000E+00  0.00000000000E+00 -0.47873766588E+03  0.47873766589E+03  0.25500000920E-02 0.  1.
    10030    2    1    2    0    0  0.00000000000E+00  0.00000000000E+00  0.54437681287E+03  0.15018521446E+04  0.13997191682E+04 0.  0.
        1    1    3    3  502    0  0.54682331794E+03 -0.21584973621E+02 -0.19590284094E+03  0.58125689264E+03  0.50400001928E-02 0.  1.
       -1    1    3    3    0  502 -0.54682331794E+03  0.21584973621E+02  0.74027965381E+03  0.92059525199E+03  0.50400001928E-02 0. -1.
</event>
<event>
 5   0  0.2428507E-05  0.1399410E+04  0.7818609E-02  0.8954246E-01
        1   -1    0    0  501    0  0.00000000000E+00  0.00000000000E+00  0.76054127477E+03  0.76054127479E+03  0.50400001928E-02 0.  1.
       -1   -1    0    0    0  501  0.00000000000E+00  0.00000000000E+00 -0.64373511698E+03  0.64373511700E+03  0.50400001928E-02 0. -1.
    10030    2    1    2    0    0  0.00000000000E+00  0.00000000000E+00  0.11680615780E+03  0.14042763918E+04  0.13994100564E+04 0.  0.
        4    1    3    3  502    0 -0.66100138878E+03  0.65884906497E+02  0.27898982320E+03  0.72048635742E+03  0.12699999809E+01 0. -1.
       -4    1    3    3    0  502  0.66100138878E+03 -0.65884906497E+02 -0.16218366540E+03  0.68379003437E+03  0.12699999809E+01 0.  1.
</event>
<event>
 5   0  0.4243281E-05  0.1398997E+04  0.7818609E-02  0.8954545E-01
       -2   -1    0    0    0  501  0.00000000000E+00  0.00000000000E+00  0.79577608129E+03  0.79577608130E+03  0.25500000920E-02 0.  1.
        2   -1    0    0  501    0  0.00000000000E+00  0.00000000000E+00 -0.61486879912E+03  0.61486879913E+03  0.25500000920E-02 0. -1.
    10030    2    1    2    0    0  0.00000000000E+00  0.00000000000E+00  0.18090728217E+03  0.14106448804E+04  0.13989966168E+04 0.  0.
        2    1    3    3  502    0  0.19648625259E+03  0.44918807775E+03  0.59352766646E+03  0.76983885815E+03  0.25500000920E-02 0.  1.
       -2    1    3    3    0  502 -0.19648625259E+03 -0.44918807775E+03 -0.41262038430E+03  0.64080602228E+03  0.25500000920E-02 0. -1.
</event>
<event>
 5   0  0.2316714E-05  0.1400490E+04  0.7818609E-02  0.8953464E-01
       -1   -1    0    0    0  501  0.00000000000E+00  0.00000000000E+00  0.47528652142E+03  0.47528652145E+03  0.50400001928E-02 0.  1.
        1   -1    0    0  501    0  0.00000000000E+00  0.00000000000E+00 -0.10316787533E+04  0.10316787533E+04  0.50400001928E-02 0. -1.
    10030    2    1    2    0    0  0.00000000000E+00  0.00000000000E+00 -0.55639223188E+03  0.15069652748E+04  0.14004899227E+04 0.  0.
        5    1    3    3  502    0 -0.27081092592E+03  0.54903046039E+02  0.41412352015E+03  0.49786873973E+03  0.46999998093E+01 0.  1.
       -5    1    3    3    0  502  0.27081092592E+03 -0.54903046039E+02 -0.97051575203E+03  0.10090965350E+04  0.46999998093E+01 0. -1.
</event>
<event>
 5   0  0.4243281E-05  0.1403674E+04  0.7818609E-02  0.8951163E-01
       -2   -1    0    0    0  501  0.00000000000E+00  0.00000000000E+00  0.76233550831E+03  0.76233550832E+03  0.25500000920E-02 0.  1.
        2   -1    0    0  501    0  0.00000000000E+00  0.00000000000E+00 -0.64613966583E+03  0.64613966584E+03  0.25500000920E-02 0. -1.
    10030    2    1    2    0    0  0.00000000000E+00  0.00000000000E+00  0.11619584248E+03  0.14084751742E+04  0.14036740513E+04 0.  0.
        2    1    3    3  502    0 -0.11302270287E+03 -0.66660763948E+03  0.24698453965E+03  0.71982028258E+03  0.25500000920E-02 0.  1.
       -2    1    3    3    0  502  0.11302270287E+03  0.66660763948E+03 -0.13078869717E+03  0.68865489158E+03  0.25500000920E-02 0. -1.
</event>
<event>
 5   0  0.2428507E-05  0.1399361E+04  0.7818609E-02  0.8954281E-01
       -1   -1    0    0    0  501  0.00000000000E+00  0.00000000000E+00  0.76489439416E+03  0.76489439418E+03  0.50400001928E-02 0.  1.
        1   -1    0    0  501    0  0.00000000000E+00  0.00000000000E+00 -0.64002647795E+03  0.64002647797E+03  0.50400001928E-02 0. -1.
    10030    2    1    2    0    0  0.00000000000E+00  0.00000000000E+00  0.12486791622E+03  0.14049208721E+04  0.13993608043E+04 0.  0.
        4    1    3    3  502    0 -0.34718382703E+03 -0.53033934874E+03  0.35984504117E+03  0.72889402599E+03  0.12699999809E+01 0.  1.
       -4    1    3    3    0  502  0.34718382703E+03  0.53033934874E+03 -0.23497712496E+03  0.67602684615E+03  0.12699999809E+01 0. -1.
</event>
<event>
 5   0  0.2363419E-05  0.1399958E+04  0.7818609E-02  0.8953849E-01
        1   -1    0    0  501    0  0.00000000000E+00  0.00000000000E+00  0.11868323668E+04  0.11868323668E+04  0.50400001928E-02 0. -1.
       -1   -1    0    0    0  501  0.00000000000E+00  0.00000000000E+00 -0.41283870587E+03  0.41283870590E+03  0.50400001928E-02 0.  1.
    10030    2    1    2    0    0  0.00000000000E+00  0.00000000000E+00  0.77399366095E+03  0.15996710727E+04  0.13999576257E+04 0.  0.
        2    1    3    3  502    0  0.11751802609E+02 -0.41485186130E+03 -0.25709090009E+03  0.48819658192E+03  0.25500000920E-02 0.  1.
       -2    1    3    3    0  502 -0.11751802609E+02  0.41485186130E+03  0.10310845610E+04  0.11114744908E+04  0.25500000920E-02 0. -1.
</event>
<event>
 5   0  0.2363419E-05  0.1400008E+04  0.7818609E-02  0.8953812E-01
        1   -1    0    0  501    0  0.00000000000E+00  0.00000000000E+00  0.86475992643E+03  0.86475992644E+03  0.50400001928E-02 0.  1.
       -1   -1    0    0    0  501  0.00000000000E+00  0.00000000000E+00 -0.56663804453E+03  0.56663804455E+03  0.50400001928E-02 0. -1.
    10030    2    1    2    0    0  0.00000000000E+00  0.00000000000E+00  0.29812188190E+03  0.14313979710E+04  0.14000083910E+04 0.  0.
        2    1    3    3  502    0 -0.48304007201E+03  0.29231636097E+03  0.57213734944E+03  0.80381447654E+03  0.25500000920E-02 0.  1.
       -2    1    3    3    0  502  0.48304007201E+03 -0.29231636097E+03 -0.27401546754E+03  0.62758349446E+03  0.25500000920E-02 0. -1.
</event>
<event>
 5   0  0.4243281E-05  0.1398556E+04  0.7818609E-02  0.8954865E-01
       -2   -1    0    0    0  501  0.00000000000E+00  0.00000000000E+00  0.40655167322E+03  0.40655167323E+03  0.25500000920E-02 0. -1.
        2   -1    0    0  501    0  0.00000000000E+00  0.00000000000E+00 -0.12027736558E+04  0.12027736558E+04  0.25500000920E-02 0.  1.
    10030    2    1    2    0    0  0.00000000000E+00  0.00000000000E+00 -0.79622198255E+03  0.16093253290E+04  0.13985558870E+04 0.  0.
        2    1    3    3  502    0  0.65043786555E+03  0.32700836260E+01 -0.10269218802E+03  0.65850269239E+03  0.25500000920E-02 0. -1.
       -2    1    3    3    0  502 -0.65043786555E+03 -0.32700836260E+01 -0.69352979453E+03  0.95082263661E+03  0.25500000920E-02 0.  1.
</event>
<event>
 5   0  0.2316714E-05  0.1398543E+04  0.7818609E-02  0.8954874E-01
       -1   -1    0    0    0  501  0.00000000000E+00  0.00000000000E+00  0.13041752385E+04  0.13041752385E+04  0.50400001928E-02 0. -1.
        1   -1    0    0  501    0  0.00000000000E+00  0.00000000000E+00 -0.37493457993E+03  0.37493457996E+03  0.50400001928E-02 0.  1.
    10030    2    1    2    0    0  0.00000000000E+00  0.00000000000E+00  0.92924065854E+03  0.16791098184E+04  0.13985426632E+04 0.  0.
        5    1    3    3  502    0 -0.60917224276E+03  0.31944988363E+03  0.61562709475E+03  0.92312396745E+03  0.46999998093E+01 0. -1.
       -5    1    3    3    0  502  0.60917224276E+03 -0.31944988363E+03  0.31361356378E+03  0.75598585098E+03  0.46999998093E+01 0.  1.
</event>
<event>
 5   0  0.4621450E-05  0.1400020E+04  0.7818609E-02  0.8953804E-01
       -2   -1    0    0    0  501  0.00000000000E+00  0.00000000000E+00  0.34093247730E+03  0.34093247731E+03  0.25500000920E-02 0. -1.
        2   -1    0    0  501    0  0.00000000000E+00  0.00000000000E+00 -0.14372755832E+04  0.14372755832E+04  0.25500000920E-02 0.  1.
    10030    2    1    2    0    0  0.00000000000E+00  0.00000000000E+00 -0.10963431059E+04  0.17782080605E+04  0.14000198929E+04 0.  0.
        5    1    3    3  502    0 -0.27672491047E+03 -0.58512319995E+03 -0.88671794013E+03  0.10978326970E+04  0.46999998093E+01 0.  1.
       -5    1    3    3    0  502  0.27672491047E+03  0.58512319995E+03 -0.20962516578E+03  0.68037536354E+03  0.46999998093E+01 0. -1.
</event>
<event>
 5   0  0.4621450E-05  0.1399997E+04  0.7818609E-02  0.8953821E-01
        2   -1    0    0  501    0  0.00000000000E+00  0.00000000000E+00  0.57541558064E+03  0.57541558065E+03  0.25500000920E-02 0. -1.
       -2   -1    0    0    0  501  0.00000000000E+00  0.00000000000E+00 -0.85155478581E+03  0.85155478582E+03  0.25500000920E-02 0.  1.
    10030    2    1    2    0    0  0.00000000000E+00  0.00000000000E+00 -0.27613920517E+03  0.14269703665E+04  0.13999969879E+04 0.  0.
        5    1    3    3  502    0 -0.66461769659E+03 -0.21515725785E+03 -0.92870284594E+02  0.70473846779E+03  0.46999998093E+01 0. -1.
       -5    1    3    3    0  502  0.66461769659E+03  0.21515725785E+03 -0.18326892057E+03  0.72223189868E+03  0.46999998093E+01 0.  1.
</event>
<event>
 5   0  0.4527503E-05  0.1399946E+04  0.7818609E-02  0.8953857E-01
        2   -1    0    0  501    0  0.00000000000E+00  0.00000000000E+00  0.18095067200E+04  0.18095067200E+04  0.25500000920E-02 0.  1.
       -2   -1    0    0    0  501  0.00000000000E+00  0.00000000000E+00 -0.27077124210E+03  0.27077124211E+03  0.25500000920E-02 0. -1.
    10030    2    1    2    0    0  0.00000000000E+00  0.00000000000E+00  0.15387354779E+04  0.20802779621E+04  0.13999462592E+04 0.  0.
        4    1    3    3  502    0 -0.52100391043E+03  0.18430972258E+03  0.13101331009E+03  0.56796236569E+03  0.12699999809E+01 0. -1.
       -4    1    3    3    0  502  0.52100391043E+03 -0.18430972258E+03  0.14077221678E+04  0.15123155964E+04  0.12699999809E+01 0.  1.
</event>
<event>
 5   0  0.2428507E-05  0.1400084E+04  0.7818609E-02  0.8953758E-01
       -1   -1    0    0    0  501  0.00000000000E+00  0.00000000000E+00  0.77922163633E+03  0.77922163634E+03  0.50400001928E-02 0. -1.
        1   -1    0    0  501    0  0.00000000000E+00  0.00000000000E+00 -0.62890816905E+03  0.62890816907E+03  0.50400001928E-02 0.  1.
    10030    2    1    2    0    0  0.00000000000E+00  0.00000000000E+00  0.15031346728E+03  0.14081298054E+04  0.14000840726E+04 0.  0.
        4    1    3    3  502    0 -0.36364511510E+03 -0.32111197219E+03 -0.43242811608E+03  0.64988180225E+03  0.12699999809E+01 0.  1.
       -4    1    3    3    0  502  0.36364511510E+03  0.32111197219E+03  0.58274158336E+03  0.75824800316E+03  0.12699999809E+01 0. -1.
</event>
<event>
 5   0  0.2363419E-05  0.1397463E+04  0.7818609E-02  0.8955657E-01
       -1   -1    0    0    0  501  0.00000000000E+00  0.00000000000E+00  0.85826660627E+03  0.85826660629E+03  0.50400001928E-02 0.  1.
        1   -1    0    0  501    0  0.00000000000E+00  0.00000000000E+00 -0.56885071400E+03  0.56885071402E+03  0.50400001928E-02 0. -1.
    10030    2    1    2    0    0  0.00000000000E+00  0.00000000000E+00  0.28941589228E+03  0.14271173203E+04  0.13974628035E+04 0.  0.
        2    1    3    3  502    0 -0.13352607987E+03  0.18693854484E+03  0.81859751830E+03  0.85022181254E+03  0.25500000920E-02 0.  1.
       -2    1    3    3    0  502  0.13352607987E+03 -0.18693854484E+03 -0.52918162602E+03  0.57689550776E+03  0.25500000920E-02 0. -1.
</event>
<event>
 5   0  0.4243281E-05  0.1399305E+04  0.7818609E-02  0.8954321E-01
       -2   -1    0    0    0  501  0.00000000000E+00  0.00000000000E+00  0.43961506250E+03  0.43961506251E+03  0.25500000920E-02 0. -1.
        2   -1    0    0  501    0  0.00000000000E+00  0.00000000000E+00 -0.11135057354E+04  0.11135057354E+04  0.25500000920E-02 0.  1.
    10030    2    1    2    0    0  0.00000000000E+00  0.00000000000E+00 -0.67389067291E+03  0.15531207979E+04  0.13993053898E+04 0.  0.
        2    1    3    3  502    0 -0.23405001372E+02  0.69911281362E+03 -0.32096194056E+03  0.76962529036E+03  0.25500000920E-02 0.  1.
       -2    1    3    3    0  502  0.23405001372E+02 -0.69911281362E+03 -0.35292873235E+03  0.78349550757E+03  0.25500000920E-02 0. -1.
</event>
<event>
 5   0  0.2363419E-05  0.1399896E+04  0.7818609E-02  0.8953893E-01
        1   -1    0    0  501    0  0.00000000000E+00  0.00000000000E+00  0.75473574464E+03  0.75473574466E+03  0.50400001928E-02 0. -1.
       -1   -1    0    0    0  501  0.00000000000E+00  0.00000000000E+00 -0.64913785735E+03  0.64913785737E+03  0.50400001928E-02 0.  1.
    10030    2    1    2    0    0  0.00000000000E+00  0.00000000000E+00  0.10559788729E+03  0.14038736020E+04  0.13998964878E+04 0.  0.
        2    1    3    3  502    0  0.35066980725E+03 -0.54676840710E+03  0.31431276648E+03  0.72160759413E+03  0.25500000920E-02 0. -1.
       -2    1    3    3    0  502 -0.35066980725E+03  0.54676840710E+03 -0.20871487919E+03  0.68226600789E+03  0.25500000920E-02 0.  1.
</event>
<event>
 5   0  0.4441253E-05  0.1399857E+04  0.7818609E-02  0.8953922E-01
        2   -1    0    0  501    0  0.00000000000E+00  0.00000000000E+00  0.16403406376E+04  0.16403406376E+04  0.25500000920E-02 0. -1.
       -2   -1    0    0    0  501  0.00000000000E+00  0.00000000000E+00 -0.29865751262E+03  0.29865751263E+03  0.25500000920E-02 0.  1.
    10030    2    1    2    0    0  0.00000000000E+00  0.00000000000E+00  0.13416831250E+04  0.19389981502E+04  0.13998572137E+04 0.  0.
        3    1    3    3  502    0 -0.50505962691E+03 -0.28982294554E+03  0.13291933246E+03  0.59728563154E+03  0.10100000352E+00 0.  1.
       -3    1    3    3    0  502  0.50505962691E+03  0.28982294554E+03  0.12087637925E+04  0.13417125187E+04  0.10100000352E+00 0. -1.
</event>
<event>
 5   0  0.4621450E-05  0.1396221E+04  0.7818609E-02  0.8956559E-01
       -2   -1    0    0    0  501  0.00000000000E+00  0.00000000000E+00  0.21873054330E+03  0.21873054332E+03  0.25500000920E-02 0.  1.
        2   -1    0    0  501    0  0.00000000000E+00  0.00000000000E+00 -0.22281203093E+04  0.22281203093E+04  0.25500000920E-02 0. -1.
    10030    2    1    2    0    0  0.00000000000E+00  0.00000000000E+00 -0.20093897660E+04  0.24468508526E+04  0.13962205640E+04 0.  0.
        5    1    3    3  502    0 -0.17941001319E+03  0.64773994926E+03 -0.67412611672E+03  0.95195751268E+03  0.46999998093E+01 0.  1.
       -5    1    3    3    0  502  0.17941001319E+03 -0.64773994926E+03 -0.13352636493E+04  0.14948933399E+04  0.46999998093E+01 0. -1.
</event>
<event>
 5   0  0.2316714E-05  0.1400320E+04  0.7818609E-02  0.8953587E-01
        1   -1    0    0  501    0  0.00000000000E+00  0.00000000000E+00  0.11617456473E+04  0.11617456473E+04  0.50400001928E-02 0.  1.
       -1   -1    0    0    0  501  0.00000000000E+00  0.00000000000E+00 -0.42197171859E+03  0.42197171862E+03  0.50400001928E-02 0. -1.
    10030    2    1    2    0    0  0.00000000000E+00  0.00000000000E+00  0.73977392873E+03  0.15837173659E+04  0.14003196883E+04 0.  0.
        5    1    3    3  502    0  0.33895281570E+03 -0.21745269195E+03  0.10176338025E+04  0.10944292259E+04  0.46999998093E+01 0.  1.
       -5    1    3    3    0  502 -0.33895281570E+03  0.21745269195E+03 -0.27785987380E+03  0.48928814003E+03  0.46999998093E+01 0. -1.
</event>
<event>
 5   0  0.2467303E-05  0.1400322E+04  0.7818609E-02  0.8953586E-01
        1   -1    0    0  501    0  0.00000000000E+00  0.00000000000E+00  0.11959713729E+04  0.11959713729E+04  0.50400001928E-02 0.  1.
       -1   -1    0    0    0  501  0.00000000000E+00  0.00000000000E+00 -0.40989701806E+03  0.40989701809E+03  0.50400001928E-02 0. -1.
    10030    2    1    2    0    0  0.00000000000E+00  0.00000000000E+00  0.78607435487E+03  0.16058683910E+04  0.14003215338E+04 0.  0.
        3    1    3    3  502    0 -0.21891746450E+03  0.45546926297E+03 -0.16270786883E+03  0.53089638024E+03  0.10100000352E+00 0. -1.
       -3    1    3    3    0  502  0.21891746450E+03 -0.45546926297E+03  0.94878222370E+03  0.10749720108E+04  0.10100000352E+00 0.  1.
</event>
<event>
 5   0  0.4441253E-05  0.1400088E+04  0.7818609E-02  0.8953755E-01
       -2   -1    0    0    0  501  0.00000000000E+00  0.00000000000E+00  0.47488056637E+03  0.47488056638E+03  0.25500000920E-02 0.  1.
        2   -1    0    0  501    0  0.00000000000E+00  0.00000000000E+00 -0.10319682516E+04  0.10319682516E+04  0.25500000920E-02 0. -1.
    10030    2    1    2    0    0  0.00000000000E+00  0.00000000000E+00 -0.55708768518E+03  0.15068488179E+04  0.14000880941E+04 0.  0.
        3    1    3    3  502    0 -0.27664667434E+03 -0.62355090371E+03 -0.44773320798E+03  0.81597435479E+03  0.10100000352E+00 0. -1.
       -3    1    3    3    0  502  0.27664667434E+03  0.62355090371E+03 -0.10935447720E+03  0.69087446314E+03  0.10100000352E+00 0.  1.
</event>
<event>
 5   0  0.4460282E-05  0.1400130E+04  0.7818609E-02  0.8953724E-01
       -2   -1    0    0    0  501  0.00000000000E+00  0.00000000000E+00  0.37744486971E+03  0.37744486972E+03  0.25500000920E-02 0. -1.
        2   -1    0    0  501    0  0.00000000000E+00  0.00000000000E+00 -0.12984442678E+04  0.12984442678E+04  0.25500000920E-02 0.  1.
    10030    2    1    2    0    0  0.00000000000E+00  0.00000000000E+00 -0.92099939808E+03  0.16758891375E+04  0.14001301761E+04 0.  0.
        1    1    3    3  502    0  0.63179940453E+03  0.14460573957E+03 -0.14379365558E+03  0.66389601813E+03  0.50400001928E-02 0. -1.
       -1    1    3    3    0  502 -0.63179940453E+03 -0.14460573957E+03 -0.77720574249E+03  0.10119931194E+04  0.50400001928E-02 0.  1.
</event>
<event>
 5   0  0.4460282E-05  0.1400420E+04  0.7818609E-02  0.8953515E-01
        2   -1    0    0  501    0  0.00000000000E+00  0.00000000000E+00  0.14596488976E+04  0.14596488976E+04  0.25500000920E-02 0.  1.
       -2   -1    0    0    0  501  0.00000000000E+00  0.00000000000E+00 -0.33589864855E+03  0.33589864856E+03  0.25500000920E-02 0. -1.
    10030    2    1    2    0    0  0.00000000000E+00  0.00000000000E+00  0.11237502490E+04  0.17955475461E+04  0.14004200685E+04 0.  0.
        1    1    3    3  502    0  0.54621010246E+03  0.42720329228E+03  0.68648765228E+03  0.97576299670E+03  0.50400001928E-02 0.  1.
       -1    1    3    3    0  502 -0.54621010246E+03 -0.42720329228E+03  0.43726259672E+03  0.81978454942E+03  0.50400001928E-02 0. -1.
</event>
<event>
 5   0  0.4243281E-05  0.1399543E+04  0.7818609E-02  0.8954149E-01
       -2   -1    0    0    0  501  0.00000000000E+00  0.00000000000E+00  0.43566752559E+03  0.43566752560E+03  0.25500000920E-02 0.  1.
        2   -1    0    0  501    0  0.00000000000E+00  0.00000000000E+00 -0.11239771598E+04  0.11239771598E+04  0.25500000920E-02 0. -1.
    10030    2    1    2    0    0  0.00000000000E+00  0.00000000000E+00 -0.68830963425E+03  0.15596446854E+04  0.13995432799E+04 0.  0.
        2    1    3    3  502    0 -0.29880005096E+03  0.62259380486E+03 -0.47011518730E+03  0.83541175814E+03  0.25500000920E-02 0. -1.
       -2    1    3    3    0  502  0.29880005096E+03 -0.62259380486E+03 -0.21819444695E+03  0.72423292730E+03  0.25500000920E-02 0.  1.
</event>
<event>
 5   0  0.2427569E-05  0.1400307E+04  0.7818609E-02  0.8953597E-01
        1   -1    0    0  501    0  0.00000000000E+00  0.00000000000E+00  0.74468600547E+03  0.74468600548E+03  0.50400001928E-02 0. -1.
       -1   -1    0    0    0  501  0.00000000000E+00  0.00000000000E+00 -0.65828384725E+03  0.65828384727E+03  0.50400001928E-02 0.  1.
    10030    2    1    2    0    0  0.00000000000E+00  0.00000000000E+00  0.86402158212E+02  0.14029698528E+04  0.14003067788E+04 0.  0.
        1    1    3    3  502    0 -0.51213612199E+03 -0.40990038978E+03  0.28843796675E+03  0.71658788552E+03  0.50400001928E-02 0.  1.
       -1    1    3    3    0  502  0.51213612199E+03  0.40990038978E+03 -0.20203580854E+03  0.68638196724E+03  0.50400001928E-02 0. -1.
</event>
<event>
 5   0  0.4460282E-05  0.1399954E+04  0.7818609E-02  0.8953852E-01
       -2   -1    0    0    0  501  0.00000000000E+00  0.00000000000E+00  0.24615219035E+03  0.24615219036E+03  0.25500000920E-02 0. -1.
        2   -1    0    0  501    0  0.00000000000E+00  0.00000000000E+00 -0.19905074461E+04  0.19905074461E+04  0.25500000920E-02 0.  1.
    10030    2    1    2    0    0  0.00000000000E+00  0.00000000000E+00 -0.17443552557E+04  0.22366596364E+04  0.13999539532E+04 0.  0.
        1    1    3    3  502    0  0.33418958742E+03 -0.63196251849E+02  0.10526444246E+03  0.35602956262E+03  0.50400001928E-02 0. -1.
       -1    1    3    3    0  502 -0.33418958742E+03  0.63196251849E+02 -0.18496196982E+04  0.18806300738E+04  0.50400001928E-02 0.  1.
</event>
<event>
 5   0  0.4527503E-05  0.1399373E+04  0.7818609E-02  0.8954273E-01
        2   -1    0    0  501    0  0.00000000000E+00  0.00000000000E+00  0.11296594296E+04  0.11296594296E+04  0.25500000920E-02 0. -1.
       -2   -1    0    0    0  501  0.00000000000E+00  0.00000000000E+00 -0.43337063373E+03  0.43337063373E+03  0.25500000920E-02 0.  1.
    10030    2    1    2    0    0  0.00000000000E+00  0.00000000000E+00  0.69628879583E+03  0.15630300633E+04  0.13993730352E+04 0.  0.
        4    1    3    3  502    0 -0.64509179895E+03  0.26802230578E+03  0.30374334913E+03  0.76173553187E+03  0.12699999809E+01 0. -1.
       -4    1    3    3    0  502  0.64509179895E+03 -0.26802230578E+03  0.39254544671E+03  0.80129453143E+03  0.12699999809E+01 0.  1.
</event>
<event>
 5   0  0.4441253E-05  0.1399810E+04  0.7818609E-02  0.8953956E-01
       -2   -1    0    0    0  501  0.00000000000E+00  0.00000000000E+00  0.44761465873E+03  0.44761465874E+03  0.25500000920E-02 0. -1.
        2   -1    0    0  501    0  0.00000000000E+00  0.00000000000E+00 -0.10943947710E+04  0.10943947710E+04  0.25500000920E-02 0.  1.
    10030    2    1    2    0    0  0.00000000000E+00  0.00000000000E+00 -0.64678011227E+03  0.15420094297E+04  0.13998101899E+04 0.  0.
        3    1    3    3  502    0  0.49197418692E+03  0.38395316814E+03 -0.67245248757E+03  0.91741538801E+03  0.10100000352E+00 0.  1.
       -3    1    3    3    0  502 -0.49197418692E+03 -0.38395316814E+03  0.25672375300E+02  0.62459404174E+03  0.10100000352E+00 0. -1.
</event>
<event>
 5   0  0.2316714E-05  0.1398682E+04  0.7818609E-02  0.8954773E-01
        1   -1    0    0  501    0  0.00000000000E+00  0.00000000000E+00  0.99453812996E+03  0.99453812998E+03  0.50400001928E-02 0.  1.
       -1   -1    0    0    0  501  0.00000000000E+00  0.00000000000E+00 -0.49176370449E+03  0.49176370451E+03  0.50400001928E-02 0. -1.
    10030    2    1    2    0    0  0.00000000000E+00  0.00000000000E+00  0.50277442548E+03  0.14863018345E+04  0.13986818867E+04 0.  0.
        5    1    3    3  502    0  0.49723361406E+03  0.11971031723E+03  0.75821840676E+03  0.91459776369E+03  0.46999998093E+01 0.  1.
       -5    1    3    3    0  502 -0.49723361406E+03 -0.11971031723E+03 -0.25544398128E+03  0.57170407080E+03  0.46999998093E+01 0. -1.
</event>
<event>
 5   0  0.2363419E-05  0.1401462E+04  0.7818609E-02  0.8952761E-01
       -1   -1    0    0    0  501  0.00000000000E+00  0.00000000000E+00  0.13134461957E+04  0.13134461957E+04  0.50400001928E-02 0.  1.
        1   -1    0    0  501    0  0.00000000000E+00  0.00000000000E+00 -0.37384372049E+03  0.37384372052E+03  0.50400001928E-02 0. -1.
    10030    2    1    2    0    0  0.00000000000E+00  0.00000000000E+00  0.93960247524E+03  0.16872899163E+04  0.14014615407E+04 0.  0.
        2    1    3    3  502    0 -0.22932029215E+02 -0.11497096653E+03 -0.36195272200E+03  0.38046547029E+03  0.25500000920E-02 0. -1.
       -2    1    3    3    0  502  0.22932029215E+02  0.11497096653E+03  0.13015551972E+04  0.13068244460E+04  0.25500000920E-02 0.  1.
</event>
<event>
 5   0  0.4460282E-05  0.1400356E+04  0.7818609E-02  0.8953561E-01
        2   -1    0    0  501    0  0.00000000000E+00  0.00000000000E+00  0.55563605844E+03  0.55563605844E+03  0.25500000920E-02 0.  1.
       -2   -1    0    0    0  501  0.00000000000E+00  0.00000000000E+00 -0.88232033922E+03  0.88232033923E+03  0.25500000920E-02 0. -1.
    10030    2    1    2    0    0  0.00000000000E+00  0.00000000000E+00 -0.32668428079E+03  0.14379563977E+04  0.14003556628E+04 0.  0.
        1    1    3    3  502    0 -0.24996188443E+03 -0.13301859108E+02  0.50812026252E+03  0.56643100580E+03  0.50400001928E-02 0.  1.
       -1    1    3    3    0  502  0.24996188443E+03  0.13301859108E+02 -0.83480454331E+03  0.87152539187E+03  0.50400001928E-02 0. -1.
</event>
<event>
 5   0  0.4527503E-05  0.1395404E+04  0.7818609E-02  0.8957152E-01
        2   -1    0    0  501    0  0.00000000000E+00  0.00000000000E+00  0.20825813105E+04  0.20825813105E+04  0.25500000920E-02 0. -1.
       -2   -1    0    0    0  501  0.00000000000E+00  0.00000000000E+00 -0.23374273826E+03  0.23374273827E+03  0.25500000920E-02 0.  1.
    10030    2    1    2    0    0  0.00000000000E+00  0.00000000000E+00  0.18488385722E+04  0.23163240487E+04  0.13954042542E+04 0.  0.
        4    1    3    3  502    0  0.22217661852E+03  0.13436319374E+03  0.19993942014E+04  0.20161832018E+04  0.12699999809E+01 0. -1.
       -4    1    3    3    0  502 -0.22217661852E+03 -0.13436319374E+03 -0.15055562917E+03  0.30014084698E+03  0.12699999809E+01 0.  1.
</event>
<event>
 5   0  0.4441253E-05  0.1399916E+04  0.7818609E-02  0.8953880E-01
        2   -1    0    0  501    0  0.00000000000E+00  0.00000000000E+00  0.45772109730E+03  0.45772109730E+03  0.25500000920E-02 0. -1.
       -2   -1    0    0    0  501  0.00000000000E+00  0.00000000000E+00 -0.10703920674E+04  0.10703920674E+04  0.25500000920E-02 0.  1.
    10030    2    1    2    0    0  0.00000000000E+00  0.00000000000E+00 -0.61267097005E+03  0.15281131647E+04  0.13999157569E+04 0.  0.
        3    1    3    3  502    0  0.67072539526E+03  0.15385654503E+03 -0.16656003411E+03  0.70801599379E+03  0.10100000352E+00 0. -1.
       -3    1    3    3    0  502 -0.67072539526E+03 -0.15385654503E+03 -0.44611093594E+03  0.82009717087E+03  0.10100000352E+00 0.  1.
</event>
<event>
 5   0  0.2427569E-05  0.1400316E+04  0.7818609E-02  0.8953590E-01
        1   -1    0    0  501    0  0.00000000000E+00  0.00000000000E+00  0.16030629973E+04  0.16030629973E+04  0.50400001928E-02 0.  1.
       -1   -1    0    0    0  501  0.00000000000E+00  0.00000000000E+00 -0.30580297376E+03  0.30580297381E+03  0.50400001928E-02 0. -1.
    10030    2    1    2    0    0  0.00000000000E+00  0.00000000000E+00  0.12972600235E+04  0.19088659711E+04  0.14003162953E+04 0.  0.
        1    1    3    3  502    0 -0.51492126163E+03 -0.45200246415E+03  0.45216685580E+03  0.82091716926E+03  0.50400001928E-02 0.  1.
       -1    1    3    3    0  502  0.51492126163E+03  0.45200246415E+03  0.84509316774E+03  0.10879488019E+04  0.50400001928E-02 0. -1.
</event>
<event>
 5   0  0.4243281E-05  0.1401116E+04  0.7818609E-02  0.8953011E-01
        2   -1    0    0  501    0  0.00000000000E+00  0.00000000000E+00  0.26448967389E+03  0.26448967390E+03  0.25500000920E-02 0. -1.
       -2   -1    0    0    0  501  0.00000000000E+00  0.00000000000E+00 -0.18555794117E+04  0.18555794117E+04  0.25500000920E-02 0.  1.
    10030    2    1    2    0    0  0.00000000000E+00  0.00000000000E+00 -0.15910897378E+04  0.21200690856E+04  0.14011161172E+04 0.  0.
        2    1    3    3  502    0 -0.63730848383E+03  0.24640305293E+03 -0.10294934898E+04  0.12356105429E+04  0.25500000920E-02 0. -1.
       -2    1    3    3    0  502  0.63730848383E+03 -0.24640305293E+03 -0.56159624798E+03  0.88445854273E+03  0.25500000920E-02 0.  1.
</event>
<event>
 5   0  0.2427569E-05  0.1400030E+04  0.7818609E-02  0.8953797E-01
        1   -1    0    0  501    0  0.00000000000E+00  0.00000000000E+00  0.91423518596E+03  0.91423518597E+03  0.50400001928E-02 0. -1.
       -1   -1    0    0    0  501  0.00000000000E+00  0.00000000000E+00 -0.53598995578E+03  0.53598995581E+03  0.50400001928E-02 0.  1.
    10030    2    1    2    0    0  0.00000000000E+00  0.00000000000E+00  0.37824523018E+03  0.14502251418E+04  0.14000298239E+04 0.  0.
        1    1    3    3  502    0 -0.45864851259E+03  0.51756072069E+02 -0.35603900152E+03  0.58292445456E+03  0.50400001928E-02 0.  1.
       -1    1    3    3    0  502  0.45864851259E+03 -0.51756072069E+02  0.73428423170E+03  0.86730068722E+03  0.50400001928E-02 0. -1.
</event>
<event>
 5   0  0.2363419E-05  0.1400373E+04  0.7818609E-02  0.8953549E-01
       -1   -1    0    0    0  501  0.00000000000E+00  0.00000000000E+00  0.40424743198E+03  0.40424743201E+03  0.50400001928E-02 0. -1.
        1   -1    0    0  501    0  0.00000000000E+00  0.00000000000E+00 -0.12127744392E+04  0.12127744392E+04  0.50400001928E-02 0.  1.
    10030    2    1    2    0    0  0.00000000000E+00  0.00000000000E+00 -0.80852700725E+03  0.16170218712E+04  0.14003727399E+04 0.  0.
        2    1    3    3  502    0 -0.41037056398E+03  0.40360479748E+03 -0.86464338577E+03  0.10387054524E+04  0.25500000920E-02 0.  1.
       -2    1    3    3    0  502  0.41037056398E+03 -0.40360479748E+03  0.56116378526E+02  0.57831641882E+03  0.25500000920E-02 0. -1.
</event>
<event>
 5   0  0.4621450E-05  0.1399830E+04  0.7818609E-02  0.8953941E-01
       -2   -1    0    0    0  501  0.00000000000E+00  0.00000000000E+00  0.47018868759E+03  0.47018868759E+03  0.25500000920E-02 0. -1.
        2   -1    0    0  501    0  0.00000000000E+00  0.00000000000E+00 -0.10418824036E+04  0.10418824036E+04  0.25500000920E-02 0.  1.
    10030    2    1    2    0    0  0.00000000000E+00  0.00000000000E+00 -0.57169371602E+03  0.15120710912E+04  0.13998304468E+04 0.  0.
        5    1    3    3  502    0 -0.38400967317E+03  0.37760340855E+03 -0.76869101348E+03  0.93859241816E+03  0.46999998093E+01 0.  1.
       -5    1    3    3    0  502  0.38400967317E+03 -0.37760340855E+03  0.19699729746E+03  0.57347867304E+03  0.46999998093E+01 0. -1.
</event>
<event>
 5   0  0.2427569E-05  0.1399820E+04  0.7818609E-02  0.8953949E-01
        1   -1    0    0  501    0  0.00000000000E+00  0.00000000000E+00  0.10718259616E+04  0.10718259616E+04  0.50400001928E-02 0.  1.
       -1   -1    0    0    0  501  0.00000000000E+00  0.00000000000E+00 -0.45704622295E+03  0.45704622298E+03  0.50400001928E-02 0. -1.
    10030    2    1    2    0    0  0.00000000000E+00  0.00000000000E+00  0.61477973864E+03  0.15288721846E+04  0.13998199991E+04 0.  0.
        1    1    3    3  502    0 -0.45674537909E+03 -0.19021064512E+03 -0.23330316432E+03  0.54701626789E+03  0.50400001928E-02 0. -1.
       -1    1    3    3    0  502  0.45674537909E+03  0.19021064512E+03  0.84808290296E+03  0.98185591670E+03  0.50400001928E-02 0.  1.
</event>
<event>
 5   0  0.4527503E-05  0.1399875E+04  0.7818609E-02  0.8953909E-01
       -2   -1    0    0    0  501  0.00000000000E+00  0.00000000000E+00  0.13879253941E+04  0.13879253941E+04  0.25500000920E-02 0.  1.
        2   -1    0    0  501    0  0.00000000000E+00  0.00000000000E+00 -0.35298166635E+03  0.35298166636E+03  0.25500000920E-02 0. -1.
    10030    2    1    2    0    0  0.00000000000E+00  0.00000000000E+00  0.10349437277E+04  0.17409070604E+04  0.13998745921E+04 0.  0.
        4    1    3    3  502    0  0.56009535895E+02 -0.31873492807E+03  0.12892975228E+04  0.13292925704E+04  0.12699999809E+01 0.  1.
       -4    1    3    3    0  502 -0.56009535895E+02  0.31873492807E+03 -0.25435379505E+03  0.41161449008E+03  0.12699999809E+01 0. -1.
</event>
<event>
 5   0  0.1661000E-05  0.1404565E+04  0.7818609E-02  0.8950521E-01
       -3   -1    0    0    0  501  0.00000000000E+00  0.00000000000E+00  0.93979930298E+03  0.93979930840E+03  0.10100000352E+00 0. -1.
        3   -1    0    0  501    0  0.00000000000E+00  0.00000000000E+00 -0.52479343539E+03  0.52479344511E+03  0.10100000352E+00 0.  1.
    10030    2    1    2    0    0  0.00000000000E+00  0.00000000000E+00  0.41500586759E+03  0.14645927535E+04  0.14045647239E+04 0.  0.
        2    1    3    3  502    0 -0.13776298657E+03 -0.24491805893E+03  0.87862200224E+03  0.92246415588E+03  0.25500000920E-02 0. -1.
       -2    1    3    3    0  502  0.13776298657E+03  0.24491805893E+03 -0.46361613465E+03  0.54212859763E+03  0.25500000920E-02 0.  1.
</event>
<event>
 5   0  0.4441253E-05  0.1399322E+04  0.7818609E-02  0.8954310E-01
       -2   -1    0    0    0  501  0.00000000000E+00  0.00000000000E+00  0.81052558742E+03  0.81052558742E+03  0.25500000920E-02 0. -1.
        2   -1    0    0  501    0  0.00000000000E+00  0.00000000000E+00 -0.60396019792E+03  0.60396019793E+03  0.25500000920E-02 0.  1.
    10030    2    1    2    0    0  0.00000000000E+00  0.00000000000E+00  0.20656538949E+03  0.14144857853E+04  0.13993215416E+04 0.  0.
        3    1    3    3  502    0  0.47751854555E+03  0.51023122448E+03  0.13778941709E+03  0.71228210524E+03  0.10100000352E+00 0.  1.
       -3    1    3    3    0  502 -0.47751854555E+03 -0.51023122448E+03  0.68775972405E+02  0.70220368011E+03  0.10100000352E+00 0. -1.
</event>
<event>
 5   0  0.4441253E-05  0.1400482E+04  0.7818609E-02  0.8953470E-01
        2   -1    0    0  501    0  0.00000000000E+00  0.00000000000E+00  0.96973434396E+03  0.96973434396E+03  0.25500000920E-02 0.  1.
       -2   -1    0    0    0  501  0.00000000000E+00  0.00000000000E+00 -0.50564107859E+03  0.50564107860E+03  0.25500000920E-02 0. -1.
    10030    2    1    2    0    0  0.00000000000E+00  0.00000000000E+00  0.46409326537E+03  0.14753754226E+04  0.14004820879E+04 0.  0.
        3    1    3    3  502    0 -0.34731572522E+03  0.33426482552E+03  0.76712194050E+03  0.90600069998E+03  0.10100000352E+00 0.  1.
       -3    1    3    3    0  502  0.34731572522E+03 -0.33426482552E+03 -0.30302867514E+03  0.56937472258E+03  0.10100000352E+00 0. -1.
</event>
<event>
 5   0  0.2467303E-05  0.1399867E+04  0.7818609E-02  0.8953915E-01
       -1   -1    0    0    0  501  0.00000000000E+00  0.00000000000E+00  0.50660365853E+03  0.50660365856E+03  0.50400001928E-02 0.  1.
        1   -1    0    0  501    0  0.00000000000E+00  0.00000000000E+00 -0.96704136097E+03  0.96704136098E+03  0.50400001928E-02 0. -1.
    10030    2    1    2    0    0  0.00000000000E+00  0.00000000000E+00 -0.46043770244E+03  0.14736450195E+04  0.13998666957E+04 0.  0.
        3    1    3    3  502    0  0.80258130923E+02  0.68591243128E+03 -0.35019684213E+03  0.77430941452E+03  0.10100000352E+00 0. -1.
       -3    1    3    3    0  502 -0.80258130923E+02 -0.68591243128E+03 -0.11024086031E+03  0.69933560502E+03  0.10100000352E+00 0.  1.
</event>
<event>
 5   0  0.4243281E-05  0.1399693E+04  0.7818609E-02  0.8954041E-01
        2   -1    0    0  501    0  0.00000000000E+00  0.00000000000E+00  0.14536354190E+04  0.14536354190E+04  0.25500000920E-02 0.  1.
       -2   -1    0    0    0  501  0.00000000000E+00  0.00000000000E+00 -0.33693813572E+03  0.33693813573E+03  0.25500000920E-02 0. -1.
    10030    2    1    2    0    0  0.00000000000E+00  0.00000000000E+00  0.11166972833E+04  0.17905735547E+04  0.13996931208E+04 0.  0.
        2    1    3    3  502    0 -0.31506856018E+02  0.40016237549E+03 -0.17504050868E+03  0.43790614110E+03  0.25500000920E-02 0. -1.
       -2    1    3    3    0  502  0.31506856018E+02 -0.40016237549E+03  0.12917377920E+04  0.13526674136E+04  0.25500000920E-02 0.  1.
</event>
<event>
 5   0  0.4527503E-05  0.1399430E+04  0.7818609E-02  0.8954231E-01
       -2   -1    0    0    0  501  0.00000000000E+00  0.00000000000E+00  0.39131472681E+03  0.39131472682E+03  0.25500000920E-02 0. -1.
        2   -1    0    0  501    0  0.00000000000E+00  0.00000000000E+00 -0.12511700342E+04  0.12511700342E+04  0.25500000920E-02 0.  1.
    10030    2    1    2    0    0  0.00000000000E+00  0.00000000000E+00 -0.85985530742E+03  0.16424847611E+04  0.13994302557E+04 0.  0.
        4    1    3    3  502    0 -0.42941558563E+03  0.55161990424E+03 -0.46547649994E+03  0.83985251612E+03  0.12699999809E+01 0. -1.
       -4    1    3    3    0  502  0.42941558563E+03 -0.55161990424E+03 -0.39437880748E+03  0.80263224494E+03  0.12699999809E+01 0.  1.
</event>
<event>
 5   0  0.4527503E-05  0.1398024E+04  0.7818609E-02  0.8955250E-01
        2   -1    0    0  501    0  0.00000000000E+00  0.00000000000E+00  0.12629307342E+04  0.12629307342E+04  0.25500000920E-02 0. -1.
       -2   -1    0    0    0  501  0.00000000000E+00  0.00000000000E+00 -0.38689208233E+03  0.38689208234E+03  0.25500000920E-02 0.  1.
    10030    2    1    2    0    0  0.00000000000E+00  0.00000000000E+00  0.87603865185E+03  0.16498228165E+04  0.13980241795E+04 0.  0.
        4    1    3    3  502    0 -0.39671777908E+03  0.57532393315E+03  0.45605859381E+03  0.83449007075E+03  0.12699999809E+01 0.  1.
       -4    1    3    3    0  502  0.39671777908E+03 -0.57532393315E+03  0.41998005804E+03  0.81533274578E+03  0.12699999809E+01 0. -1.
</event>
<event>
 5   0  0.2428507E-05  0.1400137E+04  0.7818609E-02  0.8953719E-01
       -1   -1    0    0    0  501  0.00000000000E+00  0.00000000000E+00  0.88160880722E+03  0.88160880724E+03  0.50400001928E-02 0. -1.
        1   -1    0    0  501    0  0.00000000000E+00  0.00000000000E+00 -0.55591077625E+03  0.55591077627E+03  0.50400001928E-02 0.  1.
    10030    2    1    2    0    0  0.00000000000E+00  0.00000000000E+00  0.32569803097E+03  0.14375195835E+04  0.14001369024E+04 0.  0.
        4    1    3    3  502    0  0.33447994171E+03  0.54476359836E+03  0.45586333812E+03  0.78514788763E+03  0.12699999809E+01 0. -1.
       -4    1    3    3    0  502 -0.33447994171E+03 -0.54476359836E+03 -0.13016530714E+03  0.65237169588E+03  0.12699999809E+01 0.  1.
</event>
<event>
 5   0  0.2467303E-05  0.1399962E+04  0.7818609E-02  0.8953846E-01
       -1   -1    0    0    0  501  0.00000000000E+00  0.00000000000E+00  0.95569045989E+03  0.95569045990E+03  0.50400001928E-02 0.  1.
        1   -1    0    0  501    0  0.00000000000E+00  0.00000000000E+00 -0.51269062493E+03  0.51269062496E+03  0.50400001928E-02 0. -1.
    10030    2    1    2    0    0  0.00000000000E+00  0.00000000000E+00  0.44299983496E+03  0.14683810849E+04  0.13999621983E+04 0.  0.
        3    1    3    3  502    0 -0.45703558200E+03  0.38971208653E+03 -0.15553489486E+03  0.62044189682E+03  0.10100000352E+00 0. -1.
       -3    1    3    3    0  502  0.45703558200E+03 -0.38971208653E+03  0.59853472982E+03  0.84793918804E+03  0.10100000352E+00 0.  1.
</event>
<event>
 5   0  0.2427569E-05  0.1397902E+04  0.7818609E-02  0.8955338E-01
        1   -1    0    0  501    0  0.00000000000E+00  0.00000000000E+00  0.20907366939E+04  0.20907366939E+04  0.50400001928E-02 0.  1.
       -1   -1    0    0    0  501  0.00000000000E+00  0.00000000000E+00 -0.23366537637E+03  0.23366537642E+03  0.50400001928E-02 0. -1.
    10030    2    1    2    0    0  0.00000000000E+00  0.00000000000E+00  0.18570713175E+04  0.23244020703E+04  0.13979023951E+04 0.  0.
        1    1    3    3  502    0 -0.17019704036E+03 -0.22868547375E+02  0.20551129222E+04  0.20622752304E+04  0.50400001928E-02 0.  1.
       -1    1    3    3    0  502  0.17019704036E+03  0.22868547375E+02 -0.19804160465E+03  0.26212683992E+03  0.50400001928E-02 0. -1.
</event>
<event>
 5   0  0.2428507E-05  0.1402141E+04  0.7818609E-02  0.8952270E-01
        1   -1    0    0  501    0  0.00000000000E+00  0.00000000000E+00  0.64528679588E+03  0.64528679590E+03  0.50400001928E-02 0.  1.
       -1   -1    0    0    0  501  0.00000000000E+00  0.00000000000E+00 -0.76167662880E+03  0.76167662882E+03  0.50400001928E-02 0. -1.
    10030    2    1    2    0    0  0.00000000000E+00  0.00000000000E+00 -0.11638983292E+03  0.14069634247E+04  0.14021410362E+04 0.  0.
        4    1    3    3  502    0 -0.25715680270E+03 -0.49580361771E+03  0.36699277129E+03  0.66830842848E+03  0.12699999809E+01 0.  1.
       -4    1    3    3    0  502  0.25715680270E+03  0.49580361771E+03 -0.48338260421E+03  0.73865499623E+03  0.12699999809E+01 0. -1.
</event>
<event>
 5   0  0.2427569E-05  0.1399961E+04  0.7818609E-02  0.8953847E-01
       -1   -1    0    0    0  501  0.00000000000E+00  0.00000000000E+00  0.88352247885E+03  0.88352247887E+03  0.50400001928E-02 0.  1.
        1   -1    0    0  501    0  0.00000000000E+00  0.00000000000E+00 -0.55456715290E+03  0.55456715292E+03  0.50400001928E-02 0. -1.
    10030    2    1    2    0    0  0.00000000000E+00  0.00000000000E+00  0.32895532595E+03  0.14380896318E+04  0.13999607789E+04 0.  0.
        1    1    3    3  502    0  0.40543184447E+03 -0.80466885184E+02 -0.41581743009E+03  0.58630541129E+03  0.50400001928E-02 0. -1.
       -1    1    3    3    0  502 -0.40543184447E+03  0.80466885184E+02  0.74477275604E+03  0.85178422050E+03  0.50400001928E-02 0.  1.
</event>
<event>
 5   0  0.4243281E-05  0.1400132E+04  0.7818609E-02  0.8953723E-01
       -2   -1    0    0    0  501  0.00000000000E+00  0.00000000000E+00  0.10251258607E+04  0.10251258607E+04  0.25500000920E-02 0.  1.
        2   -1    0    0  501    0  0.00000000000E+00  0.00000000000E+00 -0.47808055853E+03  0.47808055853E+03  0.25500000920E-02 0. -1.
    10030    2    1    2    0    0  0.00000000000E+00  0.00000000000E+00  0.54704530212E+03  0.15032064192E+04  0.14001324852E+04 0.  0.
        2    1    3    3  502    0 -0.54740321967E+03 -0.42208817697E+03  0.39251524268E+03  0.79490686863E+03  0.25500000920E-02 0.  1.
       -2    1    3    3    0  502  0.54740321967E+03  0.42208817697E+03  0.15453005944E+03  0.70829955056E+03  0.25500000920E-02 0. -1.
</event>
<event>
 5   0  0.2428507E-05  0.1400230E+04  0.7818609E-02  0.8953652E-01
        1   -1    0    0  501    0  0.00000000000E+00  0.00000000000E+00  0.52806708256E+03  0.52806708258E+03  0.50400001928E-02 0.  1.
       -1   -1    0    0    0  501  0.00000000000E+00  0.00000000000E+00 -0.92821707667E+03  0.92821707668E+03  0.50400001928E-02 0. -1.
    10030    2    1    2    0    0  0.00000000000E+00  0.00000000000E+00 -0.40014999411E+03  0.14562841593E+04  0.14002298150E+04 0.  0.
        4    1    3    3  502    0  0.88155587289E+02 -0.45467850643E+03  0.34597196240E+03  0.57810220848E+03  0.12699999809E+01 0.  1.
       -4    1    3    3    0  502 -0.88155587289E+02  0.45467850643E+03 -0.74612195652E+03  0.87818195078E+03  0.12699999809E+01 0. -1.
</event>
<event>
 5   0  0.4243281E-05  0.1399457E+04  0.7818609E-02  0.8954211E-01
        2   -1    0    0  501    0  0.00000000000E+00  0.00000000000E+00  0.17446690063E+04  0.17446690063E+04  0.25500000920E-02 0. -1.
       -2   -1    0    0    0  501  0.00000000000E+00  0.00000000000E+00 -0.28063785312E+03  0.28063785313E+03  0.25500000920E-02 0.  1.
    10030    2    1    2    0    0  0.00000000000E+00  0.00000000000E+00  0.14640311532E+04  0.20253068595E+04  0.13994572725E+04 0.  0.
        2    1    3    3  502    0 -0.14677372213E+03 -0.35020396933E+03  0.15825937727E+04  0.16275098756E+04  0.25500000920E-02 0. -1.
       -2    1    3    3    0  502  0.14677372213E+03  0.35020396933E+03 -0.11856261950E+03  0.39779698389E+03  0.25500000920E-02 0.  1.
</event>
<event>
 5   0  0.2427569E-05  0.1391959E+04  0.7818609E-02  0.8959659E-01
        1   -1    0    0  501    0  0.00000000000E+00  0.00000000000E+00  0.16248660856E+04  0.16248660856E+04  0.50400001928E-02 0.  1.
       -1   -1    0    0    0  501  0.00000000000E+00  0.00000000000E+00 -0.29810936699E+03  0.29810936703E+03  0.50400001928E-02 0. -1.
    10030    2    1    2    0    0  0.00000000000E+00  0.00000000000E+00  0.13267567187E+04  0.19229754527E+04  0.13919594826E+04 0.  0.
        1    1    3    3  502    0  0.30494207523E+03 -0.44233663974E+03  0.12745778391E+04  0.13831847455E+04  0.50400001928E-02 0.  1.
       -1    1    3    3    0  502 -0.30494207523E+03  0.44233663974E+03  0.52178879542E+02  0.53979070722E+03  0.50400001928E-02 0. -1.
</event>
<event>
 5   0  0.2467303E-05  0.1399901E+04  0.7818609E-02  0.8953890E-01
        1   -1    0    0  501    0  0.00000000000E+00  0.00000000000E+00  0.10153363084E+04  0.10153363084E+04  0.50400001928E-02 0. -1.
       -1   -1    0    0    0  501  0.00000000000E+00  0.00000000000E+00 -0.48253032922E+03  0.48253032925E+03  0.50400001928E-02 0.  1.
    10030    2    1    2    0    0  0.00000000000E+00  0.00000000000E+00  0.53280597920E+03  0.14978666377E+04  0.13999008011E+04 0.  0.
        3    1    3    3  502    0  0.45350249036E+03 -0.47520689688E+03  0.77321209669E+01  0.65692153222E+03  0.10100000352E+00 0.  1.
       -3    1    3    3    0  502 -0.45350249036E+03  0.47520689688E+03  0.52507385824E+03  0.84094510547E+03  0.10100000352E+00 0. -1.
</event>
<event>
 5   0  0.4243281E-05  0.1399905E+04  0.7818609E-02  0.8953887E-01
        2   -1    0    0  501    0  0.00000000000E+00  0.00000000000E+00  0.10278505218E+04  0.10278505218E+04  0.25500000920E-02 0. -1.
       -2   -1    0    0    0  501  0.00000000000E+00  0.00000000000E+00 -0.47665818208E+03  0.47665818209E+03  0.25500000920E-02 0.  1.
    10030    2    1    2    0    0  0.00000000000E+00  0.00000000000E+00  0.55119233975E+03  0.15045087039E+04  0.13999047985E+04 0.  0.
        2    1    3    3  502    0 -0.50461721914E+03 -0.43759169180E+03  0.50054025303E+03  0.83466494565E+03  0.25500000920E-02 0. -1.
       -2    1    3    3    0  502  0.50461721914E+03  0.43759169180E+03  0.50652086722E+02  0.66984375827E+03  0.25500000920E-02 0.  1.
</event>
<event>
 5   0  0.4441253E-05  0.1399742E+04  0.7818609E-02  0.8954005E-01
       -2   -1    0    0    0  501  0.00000000000E+00  0.00000000000E+00  0.33450261873E+03  0.33450261874E+03  0.25500000920E-02 0.  1.
        2   -1    0    0  501    0  0.00000000000E+00  0.00000000000E+00 -0.14643214512E+04  0.14643214512E+04  0.25500000920E-02 0. -1.
    10030    2    1    2    0    0  0.00000000000E+00  0.00000000000E+00 -0.11298188325E+04  0.17988240700E+04  0.13997419192E+04 0.  0.
        3    1    3    3  502    0  0.53400852797E+03 -0.31400947540E+01 -0.11462633752E+04  0.12645531637E+04  0.10100000352E+00 0. -1.
       -3    1    3    3    0  502 -0.53400852797E+03  0.31400947540E+01  0.16444542730E+02  0.53427090631E+03  0.10100000352E+00 0.  1.
</event>
<event>
 5   0  0.4621450E-05  0.1400478E+04  0.7818609E-02  0.8953473E-01
        2   -1    0    0  501    0  0.00000000000E+00  0.00000000000E+00  0.18302612045E+04  0.18302612045E+04  0.25500000920E-02 0. -1.
       -2   -1    0    0    0  501  0.00000000000E+00  0.00000000000E+00 -0.26790404723E+03  0.26790404725E+03  0.25500000920E-02 0.  1.
    10030    2    1    2    0    0  0.00000000000E+00  0.00000000000E+00  0.15623571572E+04  0.20981652517E+04  0.14004776102E+04 0.  0.
        5    1    3    3  502    0  0.50409510396E+03 -0.47181134114E+03  0.60649792840E+03  0.91901014283E+03  0.46999998093E+01 0.  1.
       -5    1    3    3    0  502 -0.50409510396E+03  0.47181134114E+03  0.95585922883E+03  0.11791551089E+04  0.46999998093E+01 0. -1.
</event>
<event>
 5   0  0.2428507E-05  0.1401786E+04  0.7818609E-02  0.8952527E-01
        1   -1    0    0  501    0  0.00000000000E+00  0.00000000000E+00  0.19696147556E+04  0.19696147556E+04  0.50400001928E-02 0. -1.
       -1   -1    0    0    0  501  0.00000000000E+00  0.00000000000E+00 -0.24941481745E+03  0.24941481750E+03  0.50400001928E-02 0.  1.
    10030    2    1    2    0    0  0.00000000000E+00  0.00000000000E+00  0.17201999382E+04  0.22190295731E+04  0.14017861531E+04 0.  0.
        4    1    3    3  502    0  0.13564310945E+03  0.48456610092E+03  0.87753990749E+02  0.51078932555E+03  0.12699999809E+01 0.  1.
       -4    1    3    3    0  502 -0.13564310945E+03 -0.48456610092E+03  0.16324459474E+04  0.17082402476E+04  0.12699999809E+01 0. -1.
</event>
<event>
 5   0  0.2427569E-05  0.1399460E+04  0.7818609E-02  0.8954210E-01
        1   -1    0    0  501    0  0.00000000000E+00  0.00000000000E+00  0.26266805287E+04  0.26266805287E+04  0.50400001928E-02 0.  1.
       -1   -1    0    0    0  501  0.00000000000E+00  0.00000000000E+00 -0.18640331185E+03  0.18640331192E+03  0.50400001928E-02 0. -1.
    10030    2    1    2    0    0  0.00000000000E+00  0.00000000000E+00  0.24402772169E+04  0.28130838407E+04  0.13994598241E+04 0.  0.
        1    1    3    3  502    0 -0.39565024682E+03  0.51780951956E+03  0.17324480073E+04  0.18509570266E+04  0.50400001928E-02 0.  1.
       -1    1    3    3    0  502  0.39565024682E+03 -0.51780951956E+03  0.70782920962E+03  0.96212681408E+03  0.50400001928E-02 0. -1.
</event>
<event>
 5   0  0.2467303E-05  0.1405317E+04  0.7818609E-02  0.8949979E-01
        1   -1    0    0  501    0  0.00000000000E+00  0.00000000000E+00  0.11673789890E+04  0.11673789890E+04  0.50400001928E-02 0. -1.
       -1   -1    0    0    0  501  0.00000000000E+00  0.00000000000E+00 -0.42293787968E+03  0.42293787971E+03  0.50400001928E-02 0.  1.
    10030    2    1    2    0    0  0.00000000000E+00  0.00000000000E+00  0.74444110935E+03  0.15903168687E+04  0.14053167535E+04 0.  0.
        3    1    3    3  502    0 -0.61939008204E+03 -0.98160628820E+02  0.73088034160E+03  0.96305018909E+03  0.10100000352E+00 0. -1.
       -3    1    3    3    0  502  0.61939008204E+03  0.98160628820E+02  0.13560767754E+02  0.62726667965E+03  0.10100000352E+00 0.  1.
</event>
<event>
 5   0  0.4441253E-05  0.1401088E+04  0.7818609E-02  0.8953031E-01
       -2   -1    0    0    0  501  0.00000000000E+00  0.00000000000E+00  0.34018290028E+03  0.34018290029E+03  0.25500000920E-02 0. -1.
        2   -1    0    0  501    0  0.00000000000E+00  0.00000000000E+00 -0.14426421161E+04  0.14426421161E+04  0.25500000920E-02 0.  1.
    10030    2    1    2    0    0  0.00000000000E+00  0.00000000000E+00 -0.11024592158E+04  0.17828250164E+04  0.14010884042E+04 0.  0.
        3    1    3    3  502    0  0.46746861349E+03 -0.17654584385E+03 -0.11759877267E+04  0.12777489907E+04  0.10100000352E+00 0.  1.
       -3    1    3    3    0  502 -0.46746861349E+03  0.17654584385E+03  0.73528510952E+02  0.50507602567E+03  0.10100000352E+00 0. -1.
</event>
<event>
 5   0  0.4243281E-05  0.1402366E+04  0.7818609E-02  0.8952107E-01
        2   -1    0    0  501    0  0.00000000000E+00  0.00000000000E+00  0.99587654405E+03  0.99587654405E+03  0.25500000920E-02 0.  1.
       -2   -1    0    0    0  501  0.00000000000E+00  0.00000000000E+00 -0.49369359023E+03  0.49369359023E+03  0.25500000920E-02 0. -1.
    10030    2    1    2    0    0  0.00000000000E+00  0.00000000000E+00  0.50218295382E+03  0.14895701343E+04  0.14023663807E+04 0.  0.
        2    1    3    3  502    0 -0.40945416148E+03 -0.19810794398E+02  0.85533532178E+03  0.94849548793E+03  0.25500000920E-02 0.  1.
       -2    1    3    3    0  502  0.40945416148E+03  0.19810794398E+02 -0.35315236796E+03  0.54107464636E+03  0.25500000920E-02 0. -1.
</event>
<event>
 5   0  0.2363419E-05  0.1399550E+04  0.7818609E-02  0.8954144E-01
        1   -1    0    0  501    0  0.00000000000E+00  0.00000000000E+00  0.12164742582E+04  0.12164742582E+04  0.50400001928E-02 0. -1.
       -1   -1    0    0    0  501  0.00000000000E+00  0.00000000000E+00 -0.40254452678E+03  0.40254452681E+03  0.50400001928E-02 0.  1.
    10030    2    1    2    0    0  0.00000000000E+00  0.00000000000E+00  0.81392973144E+03  0.16190187850E+04  0.13995500057E+04 0.  0.
        2    1    3    3  502    0 -0.28780555238E+03 -0.92775731638E+02 -0.32306227316E+03  0.44250266068E+03  0.25500000920E-02 0.  1.
       -2    1    3    3    0  502  0.28780555238E+03  0.92775731638E+02  0.11369920046E+04  0.11765161244E+04  0.25500000920E-02 0. -1.
</event>
<event>
 5   0  0.2363419E-05  0.1398685E+04  0.7818609E-02  0.8954771E-01
        1   -1    0    0  501    0  0.00000000000E+00  0.00000000000E+00  0.76082004024E+03  0.76082004025E+03  0.50400001928E-02 0.  1.
       -1   -1    0    0    0  501  0.00000000000E+00  0.00000000000E+00 -0.64283306946E+03  0.64283306948E+03  0.50400001928E-02 0. -1.
    10030    2    1    2    0    0  0.00000000000E+00  0.00000000000E+00  0.11798697078E+03  0.14036531097E+04  0.13986854997E+04 0.  0.
        2    1    3    3  502    0 -0.34856917929E+03  0.96764748972E+02 -0.54164402043E+03  0.65133872468E+03  0.25500000920E-02 0. -1.
       -2    1    3    3    0  502  0.34856917929E+03 -0.96764748972E+02  0.65963099121E+03  0.75231438505E+03  0.25500000920E-02 0.  1.
</event>
<event>
 5   0  0.4527503E-05  0.1400042E+04  0.7818609E-02  0.8953788E-01
        2   -1    0    0  501    0  0.00000000000E+00  0.00000000000E+00  0.99092854578E+03  0.99092854579E+03  0.25500000920E-02 0. -1.
       -2   -1    0    0    0  501  0.00000000000E+00  0.00000000000E+00 -0.49451530794E+03  0.49451530795E+03  0.25500000920E-02 0.  1.
    10030    2    1    2    0    0  0.00000000000E+00  0.00000000000E+00  0.49641323784E+03  0.14854438537E+04  0.14000419065E+04 0.  0.
        4    1    3    3  502    0  0.10806847914E+03  0.61040084598E+03 -0.96838095434E+02  0.62741311636E+03  0.12699999809E+01 0. -1.
       -4    1    3    3    0  502 -0.10806847914E+03 -0.61040084598E+03  0.59325133327E+03  0.85803073738E+03  0.12699999809E+01 0.  1.
</event>
<event>
 5   0  0.2467303E-05  0.1400423E+04  0.7818609E-02  0.8953513E-01
       -1   -1    0    0    0  501  0.00000000000E+00  0.00000000000E+00  0.29291530375E+03  0.29291530380E+03  0.50400001928E-02 0. -1.
        1   -1    0    0  501    0  0.00000000000E+00  0.00000000000E+00 -0.16738489454E+04  0.16738489454E+04  0.50400001928E-02 0.  1.
    10030    2    1    2    0    0  0.00000000000E+00  0.00000000000E+00 -0.13809336417E+04  0.19667642492E+04  0.14004227538E+04 0.  0.
        3    1    3    3  502    0 -0.17428747895E+02 -0.68768577807E+02 -0.16687887168E+04  0.16702959828E+04  0.10100000352E+00 0.  1.
       -3    1    3    3    0  502  0.17428747895E+02  0.68768577807E+02  0.28785507512E+03  0.29646826646E+03  0.10100000352E+00 0. -1.
</event>
<event>
 5   0  0.4460282E-05  0.1398621E+04  0.7818609E-02  0.8954818E-01
       -2   -1    0    0    0  501  0.00000000000E+00  0.00000000000E+00  0.23681518170E+03  0.23681518171E+03  0.25500000920E-02 0. -1.
        2   -1    0    0  501    0  0.00000000000E+00  0.00000000000E+00 -0.20650485980E+04  0.20650485980E+04  0.25500000920E-02 0.  1.
    10030    2    1    2    0    0  0.00000000000E+00  0.00000000000E+00 -0.18282334163E+04  0.23018637797E+04  0.13986205475E+04 0.  0.
        1    1    3    3  502    0  0.39649077559E+03  0.52060416346E+03 -0.13199389944E+04  0.14732523814E+04  0.50400001928E-02 0.  1.
       -1    1    3    3    0  502 -0.39649077559E+03 -0.52060416346E+03 -0.50829442183E+03  0.82861139832E+03  0.50400001928E-02 0. -1.
</event>
<event>
 5   0  0.2363419E-05  0.1400168E+04  0.7818609E-02  0.8953697E-01
       -1   -1    0    0    0  501  0.00000000000E+00  0.00000000000E+00  0.81481380451E+03  0.81481380452E+03  0.50400001928E-02 0. -1.
        1   -1    0    0  501    0  0.00000000000E+00  0.00000000000E+00 -0.60150878742E+03  0.60150878744E+03  0.50400001928E-02 0.  1.
    10030    2    1    2    0    0  0.00000000000E+00  0.00000000000E+00  0.21330501709E+03  0.14163225920E+04  0.14001680807E+04 0.  0.
        2    1    3    3  502    0  0.36465471500E+03 -0.55589562811E+03  0.32855685833E+03  0.74158116190E+03  0.25500000920E-02 0. -1.
       -2    1    3    3    0  502 -0.36465471500E+03  0.55589562811E+03 -0.11525184124E+03  0.67474143006E+03  0.25500000920E-02 0.  1.
</event>
<event>
 5   0  0.2428507E-05  0.1399987E+04  0.7818609E-02  0.8953828E-01
        1   -1    0    0  501    0  0.00000000000E+00  0.00000000000E+00  0.55066614478E+03  0.55066614480E+03  0.50400001928E-02 0. -1.
       -1   -1    0    0    0  501  0.00000000000E+00  0.00000000000E+00 -0.88981450594E+03  0.88981450595E+03  0.50400001928E-02 0.  1.
    10030    2    1    2    0    0  0.00000000000E+00  0.00000000000E+00 -0.33914836116E+03  0.14404806508E+04  0.13999867479E+04 0.  0.
        4    1    3    3  502    0 -0.11844325078E+03 -0.56811435505E+03  0.23316319825E+03  0.62541939048E+03  0.12699999809E+01 0. -1.
       -4    1    3    3    0  502  0.11844325078E+03  0.56811435505E+03 -0.57231155941E+03  0.81506126027E+03  0.12699999809E+01 0.  1.
</event>
<event>
 5   0  0.4527503E-05  0.1400572E+04  0.7818609E-02  0.8953405E-01
        2   -1    0    0  501    0  0.00000000000E+00  0.00000000000E+00  0.69191065877E+03  0.69191065878E+03  0.25500000920E-02 0.  1.
       -2   -1    0    0    0  501  0.00000000000E+00  0.00000000000E+00 -0.70876264152E+03  0.70876264152E+03  0.25500000920E-02 0. -1.
    10030    2    1    2    0    0  0.00000000000E+00  0.00000000000E+00 -0.16851982744E+02  0.14006733003E+04  0.14005719206E+04 0.  0.
        4    1    3    3  502    0 -0.40624476362E+02 -0.77910281828E+02  0.68637493883E+03  0.69197726093E+03  0.12699999809E+01 0.  1.
       -4    1    3    3    0  502  0.40624476362E+02  0.77910281828E+02 -0.70322692157E+03  0.70869603937E+03  0.12699999809E+01 0. -1.
</event>
<event>
 5   0  0.4243281E-05  0.1399652E+04  0.7818609E-02  0.8954071E-01
        2   -1    0    0  501    0  0.00000000000E+00  0.00000000000E+00  0.71705034870E+03  0.71705034870E+03  0.25500000920E-02 0.  1.
       -2   -1    0    0    0  501  0.00000000000E+00  0.00000000000E+00 -0.68301535593E+03  0.68301535593E+03  0.25500000920E-02 0. -1.
    10030    2    1    2    0    0  0.00000000000E+00  0.00000000000E+00  0.34034992772E+02  0.14000657046E+04  0.13996519555E+04 0.  0.
        2    1    3    3  502    0 -0.11689840639E+03 -0.67510691358E+03  0.15961424717E+03  0.70349931776E+03  0.25500000920E-02 0.  1.
       -2    1    3    3    0  502  0.11689840639E+03  0.67510691358E+03 -0.12557925440E+03  0.69656638688E+03  0.25500000920E-02 0. -1.
</event>
<event>
 5   0  0.2316714E-05  0.1400149E+04  0.7818609E-02  0.8953711E-01
        1   -1    0    0  501    0  0.00000000000E+00  0.00000000000E+00  0.26713549736E+04  0.26713549736E+04  0.50400001928E-02 0.  1.
       -1   -1    0    0    0  501  0.00000000000E+00  0.00000000000E+00 -0.18346658772E+03  0.18346658779E+03  0.50400001928E-02 0. -1.
    10030    2    1    2    0    0  0.00000000000E+00  0.00000000000E+00  0.24878883859E+04  0.28548215614E+04  0.14001491088E+04 0.  0.
        5    1    3    3  502    0 -0.58746150518E+02  0.64010955986E+03  0.18093265407E+04  0.19201239491E+04  0.46999998093E+01 0.  1.
       -5    1    3    3    0  502  0.58746150518E+02 -0.64010955986E+03  0.67856184519E+03  0.93469761237E+03  0.46999998093E+01 0. -1.
</event>
<event>
 5   0  0.4621450E-05  0.1399939E+04  0.7818609E-02  0.8953862E-01
       -2   -1    0    0    0  501  0.00000000000E+00  0.00000000000E+00  0.26225497078E+03  0.26225497079E+03  0.25500000920E-02 0.  1.
        2   -1    0    0  501    0  0.00000000000E+00  0.00000000000E+00 -0.18682487928E+04  0.18682487928E+04  0.25500000920E-02 0. -1.
    10030    2    1    2    0    0  0.00000000000E+00  0.00000000000E+00 -0.16059938221E+04  0.21305037636E+04  0.13999393310E+04 0.  0.
        5    1    3    3  502    0  0.31486808271E+03 -0.61562775634E+03 -0.63770924440E+03  0.94065648048E+03  0.46999998093E+01 0. -1.
       -5    1    3    3    0  502 -0.31486808271E+03  0.61562775634E+03 -0.96828457766E+03  0.11898472831E+04  0.46999998093E+01 0.  1.
</event>
<event>
 5   0  0.4243281E-05  0.1400600E+04  0.7818609E-02  0.8953384E-01
       -2   -1    0    0    0  501  0.00000000000E+00  0.00000000000E+00  0.39747209762E+03  0.39747209763E+03  0.25500000920E-02 0. -1.
        2   -1    0    0  501    0  0.00000000000E+00  0.00000000000E+00 -0.12338483957E+04  0.12338483957E+04  0.25500000920E-02 0.  1.
    10030    2    1    2    0    0  0.00000000000E+00  0.00000000000E+00 -0.83637629807E+03  0.16313204933E+04  0.14006003141E+04 0.  0.
        2    1    3    3  502    0 -0.62844875321E+03  0.22841817191E+03 -0.17583032127E+03  0.69140364373E+03  0.25500000920E-02 0.  1.
       -2    1    3    3    0  502  0.62844875321E+03 -0.22841817191E+03 -0.66054597681E+03  0.93991684959E+03  0.25500000920E-02 0. -1.
</event>
<event>
 5   0  0.1661000E-05  0.1400355E+04  0.7818609E-02  0.8953562E-01
        4   -1    0    0  501    0  0.00000000000E+00  0.00000000000E+00  0.37082139398E+03  0.37082356874E+03  0.12699999809E+01 0. -1.
       -4   -1    0    0    0  501  0.00000000000E+00  0.00000000000E+00 -0.13220537823E+04  0.13220543923E+04  0.12699999809E+01 0.  1.
    10030    2    1    2    0    0  0.00000000000E+00  0.00000000000E+00 -0.95123238833E+03  0.16928779611E+04  0.14003545031E+04 0.  0.
        1    1    3    3  502    0 -0.44166612225E+03  0.34114821869E+03 -0.98678919804E+03  0.11336683783E+04  0.50400001928E-02 0.  1.
       -1    1    3    3    0  502  0.44166612225E+03 -0.34114821869E+03  0.35556809708E+02  0.55920958272E+03  0.50400001928E-02 0. -1.
</event>
<event>
 5   0  0.2467303E-05  0.1399261E+04  0.7818609E-02  0.8954354E-01
       -1   -1    0    0    0  501  0.00000000000E+00  0.00000000000E+00  0.93827534094E+03  0.93827534095E+03  0.50400001928E-02 0.  1.
        1   -1    0    0  501    0  0.00000000000E+00  0.00000000000E+00 -0.52168324425E+03  0.52168324428E+03  0.50400001928E-02 0. -1.
    10030    2    1    2    0    0  0.00000000000E+00  0.00000000000E+00  0.41659209669E+03  0.14599585852E+04  0.13992605531E+04 0.  0.
        3    1    3    3  502    0  0.32499487434E+03  0.50160875053E+03  0.58773243483E+03  0.83824962398E+03  0.10100000352E+00 0.  1.
       -3    1    3    3    0  502 -0.32499487434E+03 -0.50160875053E+03 -0.17114033814E+03  0.62170896125E+03  0.10100000352E+00 0. -1.
</event>
<event>
 5   0  0.4460282E-05  0.1401663E+04  0.7818609E-02  0.8952616E-01
       -2   -1    0    0    0  501  0.00000000000E+00  0.00000000000E+00  0.50422292811E+03  0.50422292812E+03  0.25500000920E-02 0. -1.
        2   -1    0    0  501    0  0.00000000000E+00  0.00000000000E+00 -0.97410250908E+03  0.97410250908E+03  0.25500000920E-02 0.  1.
    10030    2    1    2    0    0  0.00000000000E+00  0.00000000000E+00 -0.46987958097E+03  0.14783254372E+04  0.14016630400E+04 0.  0.
        1    1    3    3  502    0 -0.18812886795E+03 -0.58928123316E+03  0.11250137559E+03  0.62872999153E+03  0.50400001928E-02 0. -1.
       -1    1    3    3    0  502  0.18812886795E+03  0.58928123316E+03 -0.58238095656E+03  0.84959544567E+03  0.50400001928E-02 0.  1.
</event>
<event>
 5   0  0.2467303E-05  0.1400620E+04  0.7818609E-02  0.8953370E-01
        1   -1    0    0  501    0  0.00000000000E+00  0.00000000000E+00  0.84514881906E+03  0.84514881908E+03  0.50400001928E-02 0. -1.
       -1   -1    0    0    0  501  0.00000000000E+00  0.00000000000E+00 -0.58029332843E+03  0.58029332845E+03  0.50400001928E-02 0.  1.
    10030    2    1    2    0    0  0.00000000000E+00  0.00000000000E+00  0.26485549063E+03  0.14254421475E+04  0.14006201787E+04 0.  0.
        3    1    3    3  502    0  0.17290969479E+03 -0.29840742241E+03  0.75272872118E+03  0.82797662418E+03  0.10100000352E+00 0. -1.
       -3    1    3    3    0  502 -0.17290969479E+03  0.29840742241E+03 -0.48787323054E+03  0.59746552334E+03  0.10100000352E+00 0.  1.
</event>
<event>
 5   0  0.4243281E-05  0.1401513E+04  0.7818609E-02  0.8952724E-01
        2   -1    0    0  501    0  0.00000000000E+00  0.00000000000E+00  0.94072836538E+03  0.94072836539E+03  0.25500000920E-02 0.  1.
       -2   -1    0    0    0  501  0.00000000000E+00  0.00000000000E+00 -0.52199975019E+03  0.52199975020E+03  0.25500000920E-02 0. -1.
    10030    2    1    2    0    0  0.00000000000E+00  0.00000000000E+00  0.41872861519E+03  0.14627281156E+04  0.14015134273E+04 0.  0.
        2    1    3    3  502    0 -0.16428997011E+03  0.58902920400E+03 -0.14780126747E+03  0.62911987103E+03  0.25500000920E-02 0. -1.
       -2    1    3    3    0  502  0.16428997011E+03 -0.58902920400E+03  0.56652988266E+03  0.83360824456E+03  0.25500000920E-02 0.  1.
</event>
<event>
 5   0  0.4441253E-05  0.1401363E+04  0.7818609E-02  0.8952833E-01
        2   -1    0    0  501    0  0.00000000000E+00  0.00000000000E+00  0.12181734190E+04  0.12181734190E+04  0.25500000920E-02 0. -1.
       -2   -1    0    0    0  501  0.00000000000E+00  0.00000000000E+00 -0.40302508935E+03  0.40302508936E+03  0.25500000920E-02 0.  1.
    10030    2    1    2    0    0  0.00000000000E+00  0.00000000000E+00  0.81514832961E+03  0.16211985083E+04  0.14013628381E+04 0.  0.
        3    1    3    3  502    0  0.69301233320E+03 -0.18391492283E+02  0.28987920377E+03  0.75142152213E+03  0.10100000352E+00 0.  1.
       -3    1    3    3    0  502 -0.69301233320E+03  0.18391492283E+02  0.52526912584E+03  0.86977698619E+03  0.10100000352E+00 0. -1.
</event>
<event>
 5   0  0.4460282E-05  0.1399601E+04  0.7818609E-02  0.8954108E-01
       -2   -1    0    0    0  501  0.00000000000E+00  0.00000000000E+00  0.67177627095E+03  0.67177627096E+03  0.25500000920E-02 0.  1.
        2   -1    0    0  501    0  0.00000000000E+00  0.00000000000E+00 -0.72899352959E+03  0.72899352960E+03  0.25500000920E-02 0. -1.
    10030    2    1    2    0    0  0.00000000000E+00  0.00000000000E+00 -0.57217258637E+02  0.14007698006E+04  0.13996007357E+04 0.  0.
        1    1    3    3  502    0 -0.25829516296E+03 -0.48400827073E+03 -0.46341386462E+03  0.71814539425E+03  0.50400001928E-02 0. -1.
       -1    1    3    3    0  502  0.25829516296E+03  0.48400827073E+03  0.40619660598E+03  0.68262440630E+03  0.50400001928E-02 0.  1.
</event>
<event>
 5   0  0.4621450E-05  0.1399950E+04  0.7818609E-02  0.8953854E-01
        2   -1    0    0  501    0  0.00000000000E+00  0.00000000000E+00  0.10871243320E+04  0.10871243320E+04  0.25500000920E-02 0.  1.
       -2   -1    0    0    0  501  0.00000000000E+00  0.00000000000E+00 -0.45069848590E+03  0.45069848590E+03  0.25500000920E-02 0. -1.
    10030    2    1    2    0    0  0.00000000000E+00  0.00000000000E+00  0.63642584611E+03  0.15378228179E+04  0.13999504140E+04 0.  0.
        5    1    3    3  502    0  0.45180606274E+02 -0.26280640295E+03 -0.39269765923E+03  0.47470204779E+03  0.46999998093E+01 0. -1.
       -5    1    3    3    0  502 -0.45180606274E+02  0.26280640295E+03  0.10291235053E+04  0.10631207701E+04  0.46999998093E+01 0.  1.
</event>
<event>
 5   0  0.2428507E-05  0.1400167E+04  0.7818609E-02  0.8953698E-01
       -1   -1    0    0    0  501  0.00000000000E+00  0.00000000000E+00  0.29264244026E+03  0.29264244030E+03  0.50400001928E-02 0.  1.
        1   -1    0    0  501    0  0.00000000000E+00  0.00000000000E+00 -0.16747975665E+04  0.16747975665E+04  0.50400001928E-02 0. -1.
    10030    2    1    2    0    0  0.00000000000E+00  0.00000000000E+00 -0.13821551262E+04  0.19674400068E+04  0.14001669141E+04 0.  0.
        4    1    3    3  502    0  0.69317267177E+03 -0.97478956459E+02 -0.67538426239E+03  0.97269523214E+03  0.12699999809E+01 0.  1.
       -4    1    3    3    0  502 -0.69317267177E+03  0.97478956459E+02 -0.70677086385E+03  0.99474477467E+03  0.12699999809E+01 0. -1.
</event>
<event>
 5   0  0.2316714E-05  0.1400795E+04  0.7818609E-02  0.8953243E-01
        1   -1    0    0  501    0  0.00000000000E+00  0.00000000000E+00  0.11727721503E+04  0.11727721503E+04  0.50400001928E-02 0. -1.
       -1   -1    0    0    0  501  0.00000000000E+00  0.00000000000E+00 -0.41828802557E+03  0.41828802560E+03  0.50400001928E-02 0.  1.
    10030    2    1    2    0    0  0.00000000000E+00  0.00000000000E+00  0.75448412473E+03  0.15910601759E+04  0.14007948418E+04 0.  0.
        5    1    3    3  502    0  0.48575236862E+03  0.31303245307E+03 -0.72220759776E+02  0.58239386024E+03  0.46999998093E+01 0.  1.
       -5    1    3    3    0  502 -0.48575236862E+03 -0.31303245307E+03  0.82670488451E+03  0.10086663157E+04  0.46999998093E+01 0. -1.
</event>
<event>
 5   0  0.4527503E-05  0.1399276E+04  0.7818609E-02  0.8954343E-01
        2   -1    0    0  501    0  0.00000000000E+00  0.00000000000E+00  0.63504983264E+03  0.63504983264E+03  0.25500000920E-02 0. -1.
       -2   -1    0    0    0  501  0.00000000000E+00  0.00000000000E+00 -0.77079512022E+03  0.77079512022E+03  0.25500000920E-02 0.  1.
    10030    2    1    2    0    0  0.00000000000E+00  0.00000000000E+00 -0.13574528758E+03  0.14058449529E+04  0.13992759729E+04 0.  0.
        4    1    3    3  502    0 -0.66624396645E+03  0.18778663253E+03 -0.17006967337E+03  0.71279039618E+03  0.12699999809E+01 0.  1.
       -4    1    3    3    0  502  0.66624396645E+03 -0.18778663253E+03  0.34324385786E+02  0.69305455669E+03  0.12699999809E+01 0. -1.
</event>
<event>
 5   0  0.2428507E-05  0.1398484E+04  0.7818609E-02  0.8954917E-01
        1   -1    0    0  501    0  0.00000000000E+00  0.00000000000E+00  0.31518469720E+03  0.31518469724E+03  0.50400001928E-02 0.  1.
       -1   -1    0    0    0  501  0.00000000000E+00  0.00000000000E+00 -0.15512788782E+04  0.15512788782E+04  0.50400001928E-02 0. -1.
    10030    2    1    2    0    0  0.00000000000E+00  0.00000000000E+00 -0.12360941810E+04  0.18664635755E+04  0.13984839843E+04 0.  0.
        4    1    3    3  502    0  0.38465974691E+02  0.31950997270E+03 -0.14465648399E+04  0.14819303974E+04  0.12699999809E+01 0. -1.
       -4    1    3    3    0  502 -0.38465974691E+02 -0.31950997270E+03  0.21047065889E+03  0.38453317805E+03  0.12699999809E+01 0.  1.
</event>
<event>
 5   0  0.2427569E-05  0.1397534E+04  0.7818609E-02  0.8955606E-01
        1   -1    0    0  501    0  0.00000000000E+00  0.00000000000E+00  0.34343807859E+03  0.34343807862E+03  0.50400001928E-02 0. -1.
       -1   -1    0    0    0  501  0.00000000000E+00  0.00000000000E+00 -0.14217269548E+04  0.14217269548E+04  0.50400001928E-02 0.  1.
    10030    2    1    2    0    0  0.00000000000E+00  0.00000000000E+00 -0.10782888762E+04  0.17651650335E+04  0.13975337902E+04 0.  0.
        1    1    3    3  502    0  0.10091649229E+03 -0.33031597640E+03 -0.13063748670E+04  0.13512616608E+04  0.50400001928E-02 0.  1.
       -1    1    3    3    0  502 -0.10091649229E+03  0.33031597640E+03  0.22808599080E+03  0.41390337266E+03  0.50400001928E-02 0. -1.
</event>
<event>
 5   0  0.4460282E-05  0.1399329E+04  0.7818609E-02  0.8954304E-01
       -2   -1    0    0    0  501  0.00000000000E+00  0.00000000000E+00  0.53685563230E+03  0.53685563231E+03  0.25500000920E-02 0. -1.
        2   -1    0    0  501    0  0.00000000000E+00  0.00000000000E+00 -0.91184760907E+03  0.91184760908E+03  0.25500000920E-02 0.  1.
    10030    2    1    2    0    0  0.00000000000E+00  0.00000000000E+00 -0.37499197677E+03  0.14487032414E+04  0.13993291603E+04 0.  0.
        1    1    3    3  502    0 -0.66243529939E+03 -0.24490964274E+02  0.44255524895E+02  0.66436351850E+03  0.50400001928E-02 0. -1.
       -1    1    3    3    0  502  0.66243529939E+03  0.24490964274E+02 -0.41924750167E+03  0.78433972288E+03  0.50400001928E-02 0.  1.
</event>
<event>
 5   0  0.2316714E-05  0.1399528E+04  0.7818609E-02  0.8954160E-01
       -1   -1    0    0    0  501  0.00000000000E+00  0.00000000000E+00  0.48060505452E+03  0.48060505455E+03  0.50400001928E-02 0.  1.
        1   -1    0    0  501    0  0.00000000000E+00  0.00000000000E+00 -0.10188611898E+04  0.10188611898E+04  0.50400001928E-02 0. -1.
    10030    2    1    2    0    0  0.00000000000E+00  0.00000000000E+00 -0.53825613524E+03  0.14994662443E+04  0.13995282601E+04 0.  0.
        5    1    3    3  502    0  0.18571555677E+03 -0.19735698335E+03  0.42208203443E+03  0.50161277963E+03  0.46999998093E+01 0.  1.
       -5    1    3    3    0  502 -0.18571555677E+03  0.19735698335E+03 -0.96033816967E+03  0.99785346470E+03  0.46999998093E+01 0. -1.
</event>
<event>
 5   0  0.4527503E-05  0.1401169E+04  0.7818609E-02  0.8952973E-01
       -2   -1    0    0    0  501  0.00000000000E+00  0.00000000000E+00  0.69810687005E+03  0.69810687005E+03  0.25500000920E-02 0.  1.
        2   -1    0    0  501    0  0.00000000000E+00  0.00000000000E+00 -0.70307077195E+03  0.70307077195E+03  0.25500000920E-02 0. -1.
    10030    2    1    2    0    0  0.00000000000E+00  0.00000000000E+00 -0.49639018994E+01  0.14011776420E+04  0.14011688493E+04 0.  0.
        4    1    3    3  502    0 -0.17108267438E+02  0.44786755016E+03 -0.54094506644E+03  0.70249641502E+03  0.12699999809E+01 0. -1.
       -4    1    3    3    0  502  0.17108267438E+02 -0.44786755016E+03  0.53598116454E+03  0.69868122699E+03  0.12699999809E+01 0.  1.
</event>
<event>
 5   0  0.4460282E-05  0.1399186E+04  0.7818609E-02  0.8954408E-01
       -2   -1    0    0    0  501  0.00000000000E+00  0.00000000000E+00  0.44854946311E+03  0.44854946312E+03  0.25500000920E-02 0.  1.
        2   -1    0    0  501    0  0.00000000000E+00  0.00000000000E+00 -0.10911398808E+04  0.10911398808E+04  0.25500000920E-02 0. -1.
    10030    2    1    2    0    0  0.00000000000E+00  0.00000000000E+00 -0.64259041771E+03  0.15396893439E+04  0.13991857743E+04 0.  0.
        1    1    3    3  502    0 -0.44873094432E+03 -0.20208898491E+03 -0.86844848123E+03  0.99819947044E+03  0.50400001928E-02 0. -1.
       -1    1    3    3    0  502  0.44873094432E+03  0.20208898491E+03  0.22585806352E+03  0.54148987350E+03  0.50400001928E-02 0.  1.
</event>
<event>
 5   0  0.4441253E-05  0.1408486E+04  0.7818609E-02  0.8947699E-01
       -2   -1    0    0    0  501  0.00000000000E+00  0.00000000000E+00  0.44955738779E+03  0.44955738780E+03  0.25500000920E-02 0. -1.
        2   -1    0    0  501    0  0.00000000000E+00  0.00000000000E+00 -0.11032141740E+04  0.11032141740E+04  0.25500000920E-02 0.  1.
    10030    2    1    2    0    0  0.00000000000E+00  0.00000000000E+00 -0.65365678622E+03  0.15527715618E+04  0.14084858285E+04 0.  0.
        3    1    3    3  502    0  0.17173800027E+02  0.61980222235E+03  0.41308004260E+02  0.62141459241E+03  0.10100000352E+00 0. -1.
       -3    1    3    3    0  502 -0.17173800027E+02 -0.61980222235E+03 -0.69496479048E+03  0.93135696940E+03  0.10100000352E+00 0.  1.
</event>
<event>
 5   0  0.4243281E-05  0.1400363E+04  0.7818609E-02  0.8953556E-01
       -2   -1    0    0    0  501  0.00000000000E+00  0.00000000000E+00  0.12661352053E+04  0.12661352053E+04  0.25500000920E-02 0. -1.
        2   -1    0    0  501    0  0.00000000000E+00  0.00000000000E+00 -0.38720517433E+03  0.38720517434E+03  0.25500000920E-02 0.  1.
    10030    2    1    2    0    0  0.00000000000E+00  0.00000000000E+00  0.87893003100E+03  0.16533403797E+04  0.14003629571E+04 0.  0.
        2    1    3    3  502    0 -0.22616792333E+03 -0.82324764344E+02 -0.33682989066E+03  0.41398511038E+03  0.25500000920E-02 0.  1.
       -2    1    3    3    0  502  0.22616792333E+03  0.82324764344E+02  0.12157599217E+04  0.12393552693E+04  0.25500000920E-02 0. -1.
</event>
<event>
 5   0  0.4460282E-05  0.1402397E+04  0.7818609E-02  0.8952085E-01
        2   -1    0    0  501    0  0.00000000000E+00  0.00000000000E+00  0.10838485473E+04  0.10838485473E+04  0.25500000920E-02 0.  1.
       -2   -1    0    0    0  501  0.00000000000E+00  0.00000000000E+00 -0.45364218166E+03  0.45364218166E+03  0.25500000920E-02 0. -1.
    10030    2    1    2    0    0  0.00000000000E+00  0.00000000000E+00  0.63020636569E+03  0.15374907290E+04  0.14023971187E+04 0.  0.
        1    1    3    3  502    0  0.67382968763E+03 -0.91379707939E+02  0.50270939153E+03  0.84564379695E+03  0.50400001928E-02 0.  1.
       -1    1    3    3    0  502 -0.67382968763E+03  0.91379707939E+02  0.12749697415E+03  0.69184693206E+03  0.50400001928E-02 0. -1.
</event>
<event>
 5   0  0.4621450E-05  0.1399779E+04  0.7818609E-02  0.8953979E-01
       -2   -1    0    0    0  501  0.00000000000E+00  0.00000000000E+00  0.55742466901E+03  0.55742466901E+03  0.25500000920E-02 0.  1.
        2   -1    0    0  501    0  0.00000000000E+00  0.00000000000E+00 -0.87876508429E+03  0.87876508430E+03  0.25500000920E-02 0. -1.
    10030    2    1    2    0    0  0.00000000000E+00  0.00000000000E+00 -0.32134041528E+03  0.14361897533E+04  0.13997790344E+04 0.  0.
        5    1    3    3  502    0 -0.46140730678E+03 -0.94552991437E+02  0.37046931108E+03  0.59925501366E+03  0.46999998093E+01 0.  1.
       -5    1    3    3    0  502  0.46140730678E+03  0.94552991437E+02 -0.69180972637E+03  0.83693473965E+03  0.46999998093E+01 0. -1.
</event>
<event>
 5   0  0.4243281E-05  0.1400153E+04  0.7818609E-02  0.8953708E-01
       -2   -1    0    0    0  501  0.00000000000E+00  0.00000000000E+00  0.15128713874E+04  0.15128713874E+04  0.25500000920E-02 0.  1.
        2   -1    0    0  501    0  0.00000000000E+00  0.00000000000E+00 -0.32395809412E+03  0.32395809413E+03  0.25500000920E-02 0. -1.
    10030    2    1    2    0    0  0.00000000000E+00  0.00000000000E+00  0.11889132932E+04  0.18368294815E+04  0.14001527507E+04 0.  0.
        2    1    3    3  502    0  0.47998711290E+03  0.12376236006E+02  0.12628273968E+04  0.13510269553E+04  0.25500000920E-02 0.  1.
       -2    1    3    3    0  502 -0.47998711290E+03 -0.12376236006E+02 -0.73914103556E+02  0.48580252621E+03  0.25500000920E-02 0. -1.
</event>
<event>
 5   0  0.2467303E-05  0.1396366E+04  0.7818609E-02  0.8956454E-01
        1   -1    0    0  501    0  0.00000000000E+00  0.00000000000E+00  0.12976797734E+04  0.12976797735E+04  0.50400001928E-02 0. -1.
       -1   -1    0    0    0  501  0.00000000000E+00  0.00000000000E+00 -0.37563904312E+03  0.37563904316E+03  0.50400001928E-02 0.  1.
    10030    2    1    2    0    0  0.00000000000E+00  0.00000000000E+00  0.92204073032E+03  0.16733188166E+04  0.13963655516E+04 0.  0.
        3    1    3    3  502    0 -0.60255652175E+02 -0.25214849000E+03 -0.31582254994E+03  0.40859943451E+03  0.10100000352E+00 0.  1.
       -3    1    3    3    0  502  0.60255652175E+02  0.25214849000E+03  0.12378632803E+04  0.12647193821E+04  0.10100000352E+00 0. -1.
</event>
<event>
 5   0  0.2427569E-05  0.1400611E+04  0.7818609E-02  0.8953377E-01
        1   -1    0    0  501    0  0.00000000000E+00  0.00000000000E+00  0.42187924169E+03  0.42187924172E+03  0.50400001928E-02 0. -1.
       -1   -1    0    0    0  501  0.00000000000E+00  0.00000000000E+00 -0.11624830157E+04  0.11624830157E+04  0.50400001928E-02 0.  1.
    10030    2    1    2    0    0  0.00000000000E+00  0.00000000000E+00 -0.74060377400E+03  0.15843622574E+04  0.14006105143E+04 0.  0.
        1    1    3    3  502    0  0.24428506556E+03 -0.23700356905E+02 -0.11122397595E+04  0.11389970074E+04  0.50400001928E-02 0.  1.
       -1    1    3    3    0  502 -0.24428506556E+03  0.23700356905E+02  0.37163598552E+03  0.44536525003E+03  0.50400001928E-02 0. -1.
</event>
<event>
 5   0  0.4243281E-05  0.1400072E+04  0.7818609E-02  0.8953766E-01
        2   -1    0    0  501    0  0.00000000000E+00  0.00000000000E+00  0.48337559455E+03  0.48337559456E+03  0.25500000920E-02 0. -1.
       -2   -1    0    0    0  501  0.00000000000E+00  0.00000000000E+00 -0.10138092326E+04  0.10138092326E+04  0.25500000920E-02 0.  1.
    10030    2    1    2    0    0  0.00000000000E+00  0.00000000000E+00 -0.53043363803E+03  0.14971848271E+04  0.14000723418E+04 0.  0.
        2    1    3    3  502    0 -0.35095386710E+03 -0.29090496979E+03  0.30291194800E+03  0.54731158084E+03  0.25500000920E-02 0.  1.
       -2    1    3    3    0  502  0.35095386710E+03  0.29090496979E+03 -0.83334558603E+03  0.94987324630E+03  0.25500000920E-02 0. -1.
</event>
<event>
 5   0  0.4621450E-05  0.1400670E+04  0.7818609E-02  0.8953333E-01
       -2   -1    0    0    0  501  0.00000000000E+00  0.00000000000E+00  0.17112698384E+03  0.17112698386E+03  0.25500000920E-02 0. -1.
        2   -1    0    0  501    0  0.00000000000E+00  0.00000000000E+00 -0.28661137433E+04  0.28661137433E+04  0.25500000920E-02 0.  1.
    10030    2    1    2    0    0  0.00000000000E+00  0.00000000000E+00 -0.26949867594E+04  0.30372407271E+04  0.14006704113E+04 0.  0.
        5    1    3    3  502    0 -0.54698588539E+03 -0.14426031491E+03 -0.22427189524E+04  0.23129667068E+04  0.46999998093E+01 0.  1.
       -5    1    3    3    0  502  0.54698588539E+03  0.14426031491E+03 -0.45226780704E+03  0.72427402035E+03  0.46999998093E+01 0. -1.
</event>
<event>
 5   0  0.4621450E-05  0.1400093E+04  0.7818609E-02  0.8953751E-01
        2   -1    0    0  501    0  0.00000000000E+00  0.00000000000E+00  0.96534935427E+03  0.96534935428E+03  0.25500000920E-02 0.  1.
       -2   -1    0    0    0  501  0.00000000000E+00  0.00000000000E+00 -0.50765578951E+03  0.50765578951E+03  0.25500000920E-02 0. -1.
    10030    2    1    2    0    0  0.00000000000E+00  0.00000000000E+00  0.45769356476E+03  0.14730051438E+04  0.14000931235E+04 0.  0.
        5    1    3    3  502    0 -0.51693332201E+03 -0.11346479551E+03  0.71091002513E+03  0.88628972298E+03  0.46999998093E+01 0.  1.
       -5    1    3    3    0  502  0.51693332201E+03  0.11346479551E+03 -0.25321646037E+03  0.58671542081E+03  0.46999998093E+01 0. -1.
</event>
<event>
 5   0  0.2428507E-05  0.1400618E+04  0.7818609E-02  0.8953371E-01
        1   -1    0    0  501    0  0.00000000000E+00  0.00000000000E+00  0.56938238715E+03  0.56938238717E+03  0.50400001928E-02 0. -1.
       -1   -1    0    0    0  501  0.00000000000E+00  0.00000000000E+00 -0.86134124950E+03  0.86134124951E+03  0.50400001928E-02 0.  1.
    10030    2    1    2    0    0  0.00000000000E+00  0.00000000000E+00 -0.29195886235E+03  0.14307236367E+04  0.14006177734E+04 0.  0.
        4    1    3    3  502    0 -0.36790234769E+03  0.15234502622E+03  0.44248466754E+03  0.59527761453E+03  0.12699999809E+01 0. -1.
       -4    1    3    3    0  502  0.36790234769E+03 -0.15234502622E+03 -0.73444352988E+03  0.83544602216E+03  0.12699999809E+01 0.  1.
</event>
<event>
 5   0  0.2316714E-05  0.1400589E+04  0.7818609E-02  0.8953393E-01
        1   -1    0    0  501    0  0.00000000000E+00  0.00000000000E+00  0.12180537413E+04  0.12180537413E+04  0.50400001928E-02 0.  1.
       -1   -1    0    0    0  501  0.00000000000E+00  0.00000000000E+00 -0.40261939098E+03  0.40261939102E+03  0.50400001928E-02 0. -1.
    10030    2    1    2    0    0  0.00000000000E+00  0.00000000000E+00  0.81543435027E+03  0.16206731323E+04  0.14005885270E+04 0.  0.
        5    1    3    3  502    0  0.31514115400E+03 -0.31824861872E+03 -0.21519875749E+03  0.49691923437E+03  0.46999998093E+01 0. -1.
       -5    1    3    3    0  502 -0.31514115400E+03  0.31824861872E+03  0.10306331078E+04  0.11237538979E+04  0.46999998093E+01 0.  1.
</event>
<event>
 5   0  0.4460282E-05  0.1400411E+04  0.7818609E-02  0.8953521E-01
       -2   -1    0    0    0  501  0.00000000000E+00  0.00000000000E+00  0.20235181178E+03  0.20235181180E+03  0.25500000920E-02 0. -1.
        2   -1    0    0  501    0  0.00000000000E+00  0.00000000000E+00 -0.24229454397E+04  0.24229454397E+04  0.25500000920E-02 0.  1.
    10030    2    1    2    0    0  0.00000000000E+00  0.00000000000E+00 -0.22205936279E+04  0.26252972515E+04  0.14004105107E+04 0.  0.
        1    1    3    3  502    0  0.47336818021E+03 -0.36699035715E+03 -0.17901768705E+04  0.18877215324E+04  0.50400001928E-02 0.  1.
       -1    1    3    3    0  502 -0.47336818021E+03  0.36699035715E+03 -0.43041675740E+03  0.73757571906E+03  0.50400001928E-02 0. -1.
</event>
<event>
 5   0  0.4527503E-05  0.1399846E+04  0.7818609E-02  0.8953930E-01
        2   -1    0    0  501    0  0.00000000000E+00  0.00000000000E+00  0.11387349611E+04  0.11387349611E+04  0.25500000920E-02 0.  1.
       -2   -1    0    0    0  501  0.00000000000E+00  0.00000000000E+00 -0.43020709555E+03  0.43020709555E+03  0.25500000920E-02 0. -1.
    10030    2    1    2    0    0  0.00000000000E+00  0.00000000000E+00  0.70852786556E+03  0.15689420567E+04  0.13998455061E+04 0.  0.
        4    1    3    3  502    0 -0.34204973853E+02  0.23965291993E+03  0.10903182305E+04  0.11168701620E+04  0.12699999809E+01 0.  1.
       -4    1    3    3    0  502  0.34204973853E+02 -0.23965291993E+03 -0.38179036491E+03  0.45207189462E+03  0.12699999809E+01 0. -1.
</event>
<event>
 5   0  0.4243281E-05  0.1389624E+04  0.7818609E-02  0.8961364E-01
       -2   -1    0    0    0  501  0.00000000000E+00  0.00000000000E+00  0.49567558497E+03  0.49567558498E+03  0.25500000920E-02 0.  1.
        2   -1    0    0  501    0  0.00000000000E+00  0.00000000000E+00 -0.97395029677E+03  0.97395029678E+03  0.25500000920E-02 0. -1.
    10030    2    1    2    0    0  0.00000000000E+00  0.00000000000E+00 -0.47827471180E+03  0.14696258818E+04  0.13896235218E+04 0.  0.
        2    1    3    3  502    0 -0.56755254850E+03  0.39007378594E+03 -0.33658282977E+03  0.76652557367E+03  0.25500000920E-02 0.  1.
       -2    1    3    3    0  502  0.56755254850E+03 -0.39007378594E+03 -0.14169188203E+03  0.70310030809E+03  0.25500000920E-02 0. -1.
</event>
<event>
 5   0  0.4243281E-05  0.1400857E+04  0.7818609E-02  0.8953199E-01
       -2   -1    0    0    0  501  0.00000000000E+00  0.00000000000E+00  0.41429407109E+03  0.41429407110E+03  0.25500000920E-02 0. -1.
        2   -1    0    0  501    0  0.00000000000E+00  0.00000000000E+00 -0.11841828081E+04  0.11841828081E+04  0.25500000920E-02 0.  1.
    10030    2    1    2    0    0  0.00000000000E+00  0.00000000000E+00 -0.76988873701E+03  0.15984768792E+04  0.14008567614E+04 0.  0.
        2    1    3    3  502    0  0.17318778529E+03  0.10173477807E+03 -0.11506156445E+04  0.11680155544E+04  0.25500000920E-02 0.  1.
       -2    1    3    3    0  502 -0.17318778529E+03 -0.10173477807E+03  0.38072690748E+03  0.43046132478E+03  0.25500000920E-02 0. -1.
</event>
<event>
 5   0  0.2363419E-05  0.1399943E+04  0.7818609E-02  0.8953860E-01
        1   -1    0    0  501    0  0.00000000000E+00  0.00000000000E+00  0.86199040867E+03  0.86199040869E+03  0.50400001928E-02 0.  1.
       -1   -1    0    0    0  501  0.00000000000E+00  0.00000000000E+00 -0.56840538257E+03  0.56840538259E+03  0.50400001928E-02 0. -1.
    10030    2    1    2    0    0  0.00000000000E+00  0.00000000000E+00  0.29358502610E+03  0.14303957913E+04  0.13999428389E+04 0.  0.
        2    1    3    3  502    0 -0.32973808627E+03  0.42558231393E+03  0.60386281463E+03  0.80901038952E+03  0.25500000920E-02 0.  1.
       -2    1    3    3    0  502  0.32973808627E+03 -0.42558231393E+03 -0.31027778852E+03  0.62138540176E+03  0.25500000920E-02 0. -1.
</event>
<event>
 5   0  0.2467303E-05  0.1410563E+04  0.7818609E-02  0.8946208E-01
        1   -1    0    0  501    0  0.00000000000E+00  0.00000000000E+00  0.16814721481E+04  0.16814721481E+04  0.50400001928E-02 0.  1.
       -1   -1    0    0    0  501  0.00000000000E+00  0.00000000000E+00 -0.29582515825E+03  0.29582515829E+03  0.50400001928E-02 0. -1.
    10030    2    1    2    0    0  0.00000000000E+00  0.00000000000E+00  0.13856469899E+04  0.19772973064E+04  0.14105626740E+04 0.  0.
        3    1    3    3  502    0 -0.83732449843E+02 -0.59764572575E+03  0.18116409673E+03  0.63008886422E+03  0.10100000352E+00 0. -1.
       -3    1    3    3    0  502  0.83732449843E+02  0.59764572575E+03  0.12044828931E+04  0.13472084422E+04  0.10100000352E+00 0.  1.
</event>
<event>
 5   0  0.4621450E-05  0.1400474E+04  0.7818609E-02  0.8953476E-01
       -2   -1    0    0    0  501  0.00000000000E+00  0.00000000000E+00  0.64025607539E+03  0.64025607540E+03  0.25500000920E-02 0.  1.
        2   -1    0    0  501    0  0.00000000000E+00  0.00000000000E+00 -0.76583684523E+03  0.76583684524E+03  0.25500000920E-02 0. -1.
    10030    2    1    2    0    0  0.00000000000E+00  0.00000000000E+00 -0.12558076984E+03  0.14060929206E+04  0.14004737669E+04 0.  0.
        5    1    3    3  502    0 -0.20940226650E+03 -0.19536479706E+03 -0.70433217551E+03  0.76034374897E+03  0.46999998093E+01 0. -1.
       -5    1    3    3    0  502  0.20940226650E+03  0.19536479706E+03  0.57875140567E+03  0.64574917166E+03  0.46999998093E+01 0.  1.
</event>
<event>
 5   0  0.4460282E-05  0.1400036E+04  0.7818609E-02  0.8953792E-01
       -2   -1    0    0    0  501  0.00000000000E+00  0.00000000000E+00  0.43344207744E+03  0.43344207744E+03  0.25500000920E-02 0.  1.
        2   -1    0    0  501    0  0.00000000000E+00  0.00000000000E+00 -0.11305439608E+04  0.11305439608E+04  0.25500000920E-02 0. -1.
    10030    2    1    2    0    0  0.00000000000E+00  0.00000000000E+00 -0.69710188336E+03  0.15639860382E+04  0.14000361753E+04 0.  0.
        1    1    3    3  502    0 -0.56275745127E+03  0.90800369063E+02 -0.80243714660E+03  0.98429976646E+03  0.50400001928E-02 0. -1.
       -1    1    3    3    0  502  0.56275745127E+03 -0.90800369063E+02  0.10533526325E+03  0.57968627178E+03  0.50400001928E-02 0.  1.
</event>
<event>
 5   0  0.2428507E-05  0.1400370E+04  0.7818609E-02  0.8953551E-01
        1   -1    0    0  501    0  0.00000000000E+00  0.00000000000E+00  0.14389380172E+04  0.14389380172E+04  0.50400001928E-02 0. -1.
       -1   -1    0    0    0  501  0.00000000000E+00  0.00000000000E+00 -0.34070901566E+03  0.34070901570E+03  0.50400001928E-02 0.  1.
    10030    2    1    2    0    0  0.00000000000E+00  0.00000000000E+00  0.10982290015E+04  0.17796470329E+04  0.14003701732E+04 0.  0.
        4    1    3    3  502    0  0.36349469324E+03  0.57543789942E+03  0.75793633990E+03  0.10186885080E+04  0.12699999809E+01 0. -1.
       -4    1    3    3    0  502 -0.36349469324E+03 -0.57543789942E+03  0.34029266160E+03  0.76095852486E+03  0.12699999809E+01 0.  1.
</event>
<event>
 5   0  0.2467303E-05  0.1395837E+04  0.7818609E-02  0.8956838E-01
       -1   -1    0    0    0  501  0.00000000000E+00  0.00000000000E+00  0.89114960016E+03  0.89114960018E+03  0.50400001928E-02 0.  1.
        1   -1    0    0  501    0  0.00000000000E+00  0.00000000000E+00 -0.54658630866E+03  0.54658630868E+03  0.50400001928E-02 0. -1.
    10030    2    1    2    0    0  0.00000000000E+00  0.00000000000E+00  0.34456329151E+03  0.14377359089E+04  0.13958369109E+04 0.  0.
        3    1    3    3  502    0 -0.32105055513E+03  0.43604195431E+03 -0.28125831287E+03  0.61017398636E+03  0.10100000352E+00 0. -1.
       -3    1    3    3    0  502  0.32105055513E+03 -0.43604195431E+03  0.62582160438E+03  0.82756192250E+03  0.10100000352E+00 0.  1.
</event>
<event>
 5   0  0.4621450E-05  0.1400026E+04  0.7818609E-02  0.8953799E-01
        2   -1    0    0  501    0  0.00000000000E+00  0.00000000000E+00  0.10287768904E+04  0.10287768904E+04  0.25500000920E-02 0. -1.
       -2   -1    0    0    0  501  0.00000000000E+00  0.00000000000E+00 -0.47631172279E+03  0.47631172280E+03  0.25500000920E-02 0.  1.
    10030    2    1    2    0    0  0.00000000000E+00  0.00000000000E+00  0.55246516765E+03  0.15050886132E+04  0.14000264184E+04 0.  0.
        5    1    3    3  502    0  0.68928752622E+03 -0.12028594044E+03  0.29801120912E+03  0.76053847505E+03  0.46999998093E+01 0. -1.
       -5    1    3    3    0  502 -0.68928752622E+03  0.12028594044E+03  0.25445395853E+03  0.74455013819E+03  0.46999998093E+01 0.  1.
</event>
<event>
 5   0  0.1661000E-05  0.1400982E+04  0.7818609E-02  0.8953108E-01
        4   -1    0    0  501    0  0.00000000000E+00  0.00000000000E+00  0.72255352022E+03  0.72255463633E+03  0.12699999809E+01 0.  1.
       -4   -1    0    0    0  501  0.00000000000E+00  0.00000000000E+00 -0.67910027032E+03  0.67910145785E+03  0.12699999809E+01 0. -1.
    10030    2    1    2    0    0  0.00000000000E+00  0.00000000000E+00  0.43453249903E+02  0.14016560942E+04  0.14009823773E+04 0.  0.
        2    1    3    3  502    0 -0.61665619179E+03 -0.32936366278E+03  0.65823029985E+02  0.70219509577E+03  0.25500000920E-02 0.  1.
       -2    1    3    3    0  502  0.61665619179E+03  0.32936366278E+03 -0.22369780082E+02  0.69946099841E+03  0.25500000920E-02 0. -1.
</event>
<event>
 5   0  0.4243281E-05  0.1400070E+04  0.7818609E-02  0.8953768E-01
       -2   -1    0    0    0  501  0.00000000000E+00  0.00000000000E+00  0.28431180989E+03  0.28431180990E+03  0.25500000920E-02 0. -1.
        2   -1    0    0  501    0  0.00000000000E+00  0.00000000000E+00 -0.17236321255E+04  0.17236321255E+04  0.25500000920E-02 0.  1.
    10030    2    1    2    0    0  0.00000000000E+00  0.00000000000E+00 -0.14393203156E+04  0.20079439354E+04  0.14000699542E+04 0.  0.
        2    1    3    3  502    0 -0.13968838820E+03  0.68253878071E+03 -0.81774063497E+03  0.10742773288E+04  0.25500000920E-02 0.  1.
       -2    1    3    3    0  502  0.13968838820E+03 -0.68253878071E+03 -0.62157968065E+03  0.93366660665E+03  0.25500000920E-02 0. -1.
</event>
<event>
 5   0  0.4527503E-05  0.1400718E+04  0.7818609E-02  0.8953299E-01
        2   -1    0    0  501    0  0.00000000000E+00  0.00000000000E+00  0.83929358563E+03  0.83929358563E+03  0.25500000920E-02 0. -1.
       -2   -1    0    0    0  501  0.00000000000E+00  0.00000000000E+00 -0.58442318537E+03  0.58442318538E+03  0.25500000920E-02 0.  1.
    10030    2    1    2    0    0  0.00000000000E+00  0.00000000000E+00  0.25487040025E+03  0.14237167710E+04  0.14007178599E+04 0.  0.
        4    1    3    3  502    0  0.36723042853E+02 -0.58562510580E+03  0.51606866261E+03  0.78143062638E+03  0.12699999809E+01 0. -1.
       -4    1    3    3    0  502 -0.36723042853E+02  0.58562510580E+03 -0.26119826236E+03  0.64228614463E+03  0.12699999809E+01 0.  1.
</event>
<event>
 5   0  0.2427569E-05  0.1400320E+04  0.7818609E-02  0.8953587E-01
        1   -1    0    0  501    0  0.00000000000E+00  0.00000000000E+00  0.11880929245E+04  0.11880929246E+04  0.50400001928E-02 0. -1.
       -1   -1    0    0    0  501  0.00000000000E+00  0.00000000000E+00 -0.41261392727E+03  0.41261392730E+03  0.50400001928E-02 0.  1.
    10030    2    1    2    0    0  0.00000000000E+00  0.00000000000E+00  0.77547899727E+03  0.16007068519E+04  0.14003195172E+04 0.  0.
        1    1    3    3  502    0  0.67230233626E+03  0.18087972408E+03  0.30284330983E+03  0.75922458882E+03  0.50400001928E-02 0. -1.
       -1    1    3    3    0  502 -0.67230233626E+03 -0.18087972408E+03  0.47263568744E+03  0.84148226303E+03  0.50400001928E-02 0.  1.
</event>
<event>
 5   0  0.2427569E-05  0.1399647E+04  0.7818609E-02  0.8954074E-01
        1   -1    0    0  501    0  0.00000000000E+00  0.00000000000E+00  0.12376887099E+04  0.12376887099E+04  0.50400001928E-02 0.  1.
       -1   -1    0    0    0  501  0.00000000000E+00  0.00000000000E+00 -0.39569955843E+03  0.39569955846E+03  0.50400001928E-02 0. -1.
    10030    2    1    2    0    0  0.00000000000E+00  0.00000000000E+00  0.84198915145E+03  0.16333882684E+04  0.13996469212E+04 0.  0.
        1    1    3    3  502    0 -0.56838929282E+03 -0.38333895880E+03  0.58494764291E+03  0.90120968176E+03  0.50400001928E-02 0.  1.
       -1    1    3    3    0  502  0.56838929282E+03  0.38333895880E+03  0.25704150853E+03  0.73217858659E+03  0.50400001928E-02 0. -1.
</event>
<event>
 5   0  0.2467303E-05  0.1400563E+04  0.7818609E-02  0.8953411E-01
        1   -1    0    0  501    0  0.00000000000E+00  0.00000000000E+00  0.12446884305E+04  0.12446884305E+04  0.50400001928E-02 0.  1.
       -1   -1    0    0    0  501  0.00000000000E+00  0.00000000000E+00 -0.39398968104E+03  0.39398968107E+03  0.50400001928E-02 0. -1.
    10030    2    1    2    0    0  0.00000000000E+00  0.00000000000E+00  0.85069874944E+03  0.16386781116E+04  0.14005633120E+04 0.  0.
        3    1    3    3  502    0 -0.25702954386E+02  0.39565140220E+03  0.11007155509E+04  0.11699467544E+04  0.10100000352E+00 0.  1.
       -3    1    3    3    0  502  0.25702954386E+02 -0.39565140220E+03 -0.25001680150E+03  0.46873135713E+03  0.10100000352E+00 0. -1.
</event>
<event>
 5   0  0.4460282E-05  0.1400198E+04  0.7818609E-02  0.8953675E-01
        2   -1    0    0  501    0  0.00000000000E+00  0.00000000000E+00  0.89287221774E+03  0.89287221775E+03  0.25500000920E-02 0. -1.
       -2   -1    0    0    0  501  0.00000000000E+00  0.00000000000E+00 -0.54894587740E+03  0.54894587740E+03  0.25500000920E-02 0.  1.
    10030    2    1    2    0    0  0.00000000000E+00  0.00000000000E+00  0.34392634035E+03  0.14418180952E+04  0.14001978760E+04 0.  0.
        1    1    3    3  502    0  0.32495574242E+03  0.32349513227E+03  0.71673823551E+03  0.85085782209E+03  0.50400001928E-02 0. -1.
       -1    1    3    3    0  502 -0.32495574242E+03 -0.32349513227E+03 -0.37281189516E+03  0.59096027306E+03  0.50400001928E-02 0.  1.
</event>
<event>
 5   0  0.1661000E-05  0.1395212E+04  0.7818609E-02  0.8957292E-01
        3   -1    0    0  501    0  0.00000000000E+00  0.00000000000E+00  0.29150699756E+03  0.29150701505E+03  0.10100000352E+00 0.  1.
       -3   -1    0    0    0  501  0.00000000000E+00  0.00000000000E+00 -0.16694426594E+04  0.16694426624E+04  0.10100000352E+00 0. -1.
    10030    2    1    2    0    0  0.00000000000E+00  0.00000000000E+00 -0.13779356618E+04  0.19609496775E+04  0.13952121522E+04 0.  0.
        1    1    3    3  502    0 -0.48224186147E+03 -0.37835756163E+02 -0.13954466635E+04  0.14769089844E+04  0.50400001928E-02 0. -1.
       -1    1    3    3    0  502  0.48224186147E+03  0.37835756163E+02  0.17511001678E+02  0.48404069312E+03  0.50400001928E-02 0.  1.
</event>
<event>
 5   0  0.4243281E-05  0.1400216E+04  0.7818609E-02  0.8953662E-01
        2   -1    0    0  501    0  0.00000000000E+00  0.00000000000E+00  0.16186069182E+04  0.16186069182E+04  0.25500000920E-02 0.  1.
       -2   -1    0    0    0  501  0.00000000000E+00  0.00000000000E+00 -0.30282306808E+03  0.30282306809E+03  0.25500000920E-02 0. -1.
    10030    2    1    2    0    0  0.00000000000E+00  0.00000000000E+00  0.13157838501E+04  0.19214299863E+04  0.14002164304E+04 0.  0.
        2    1    3    3  502    0  0.59213696094E+03 -0.26443478470E+03  0.29587181576E+03  0.71280577104E+03  0.25500000920E-02 0. -1.
       -2    1    3    3    0  502 -0.59213696094E+03  0.26443478470E+03  0.10199120344E+04  0.12086242152E+04  0.25500000920E-02 0.  1.
</event>
<event>
 5   0  0.2428507E-05  0.1400269E+04  0.7818609E-02  0.8953624E-01
       -1   -1    0    0    0  501  0.00000000000E+00  0.00000000000E+00  0.81850754085E+03  0.81850754086E+03  0.50400001928E-02 0.  1.
        1   -1    0    0  501    0  0.00000000000E+00  0.00000000000E+00 -0.59888082866E+03  0.59888082868E+03  0.50400001928E-02 0. -1.
    10030    2    1    2    0    0  0.00000000000E+00  0.00000000000E+00  0.21962671219E+03  0.14173883695E+04  0.14002692232E+04 0.  0.
        4    1    3    3  502    0 -0.92706923054E+02 -0.30604910306E+03 -0.52063845508E+03  0.61100461608E+03  0.12699999809E+01 0. -1.
       -4    1    3    3    0  502  0.92706923054E+02  0.30604910306E+03  0.74026516727E+03  0.80638375346E+03  0.12699999809E+01 0.  1.
</event>
<event>
 5   0  0.2316714E-05  0.1400095E+04  0.7818609E-02  0.8953750E-01
       -1   -1    0    0    0  501  0.00000000000E+00  0.00000000000E+00  0.15480240489E+04  0.15480240489E+04  0.50400001928E-02 0.  1.
        1   -1    0    0  501    0  0.00000000000E+00  0.00000000000E+00 -0.31657547511E+03  0.31657547515E+03  0.50400001928E-02 0. -1.
    10030    2    1    2    0    0  0.00000000000E+00  0.00000000000E+00  0.12314485738E+04  0.18645995241E+04  0.14000949237E+04 0.  0.
        5    1    3    3  502    0  0.18347785678E+02 -0.56735878132E+02  0.15446147251E+04  0.15457724089E+04  0.46999998093E+01 0.  1.
       -5    1    3    3    0  502 -0.18347785678E+02  0.56735878132E+02 -0.31316615126E+03  0.31882711522E+03  0.46999998093E+01 0. -1.
</event>
<event>
 5   0  0.4460282E-05  0.1400207E+04  0.7818609E-02  0.8953669E-01
        2   -1    0    0  501    0  0.00000000000E+00  0.00000000000E+00  0.17015189259E+04  0.17015189259E+04  0.25500000920E-02 0. -1.
       -2   -1    0    0    0  501  0.00000000000E+00  0.00000000000E+00 -0.28806328235E+03  0.28806328236E+03  0.25500000920E-02 0.  1.
    10030    2    1    2    0    0  0.00000000000E+00  0.00000000000E+00  0.14134556435E+04  0.19895822082E+04  0.14002073086E+04 0.  0.
        1    1    3    3  502    0  0.38147686256E+02  0.10572548926E+03  0.16886152380E+04  0.16923517799E+04  0.50400001928E-02 0. -1.
       -1    1    3    3    0  502 -0.38147686256E+02 -0.10572548926E+03 -0.27515959447E+03  0.29723042829E+03  0.50400001928E-02 0.  1.
</event>
<event>
 5   0  0.2467303E-05  0.1399949E+04  0.7818609E-02  0.8953855E-01
        1   -1    0    0  501    0  0.00000000000E+00  0.00000000000E+00  0.46228178870E+03  0.46228178873E+03  0.50400001928E-02 0.  1.
       -1   -1    0    0    0  501  0.00000000000E+00  0.00000000000E+00 -0.10598827072E+04  0.10598827072E+04  0.50400001928E-02 0. -1.
    10030    2    1    2    0    0  0.00000000000E+00  0.00000000000E+00 -0.59760091852E+03  0.15221644960E+04  0.13999492473E+04 0.  0.
        3    1    3    3  502    0  0.11052433726E+03 -0.21934122337E+02  0.45235587081E+03  0.46617869847E+03  0.10100000352E+00 0.  1.
       -3    1    3    3    0  502 -0.11052433726E+03  0.21934122337E+02 -0.10499567893E+04  0.10559857975E+04  0.10100000352E+00 0. -1.
</event>
<event>
 5   0  0.4243281E-05  0.1399626E+04  0.7818609E-02  0.8954089E-01
        2   -1    0    0  501    0  0.00000000000E+00  0.00000000000E+00  0.13162504366E+04  0.13162504366E+04  0.25500000920E-02 0. -1.
       -2   -1    0    0    0  501  0.00000000000E+00  0.00000000000E+00 -0.37207094906E+03  0.37207094906E+03  0.25500000920E-02 0.  1.
    10030    2    1    2    0    0  0.00000000000E+00  0.00000000000E+00  0.94417948752E+03  0.16883213856E+04  0.13996264489E+04 0.  0.
        2    1    3    3  502    0  0.68131429119E+03 -0.82708267719E+02  0.63708258973E+03  0.93643154959E+03  0.25500000920E-02 0. -1.
       -2    1    3    3    0  502 -0.68131429119E+03  0.82708267719E+02  0.30709689779E+03  0.75188983605E+03  0.25500000920E-02 0.  1.
</event>
<event>
 5   0  0.4243281E-05  0.1400752E+04  0.7818609E-02  0.8953275E-01
       -2   -1    0    0    0  501  0.00000000000E+00  0.00000000000E+00  0.48715776703E+03  0.48715776704E+03  0.25500000920E-02 0. -1.
        2   -1    0    0  501    0  0.00000000000E+00  0.00000000000E+00 -0.10069147648E+04  0.10069147648E+04  0.25500000920E-02 0.  1.
    10030    2    1    2    0    0  0.00000000000E+00  0.00000000000E+00 -0.51975699776E+03  0.14940725318E+04  0.14007517245E+04 0.  0.
        2    1    3    3  502    0  0.11403724879E+03  0.12855135444E+03 -0.98407977251E+03  0.99897094228E+03  0.25500000920E-02 0.  1.
       -2    1    3    3    0  502 -0.11403724879E+03 -0.12855135444E+03  0.46432277475E+03  0.49510158957E+03  0.25500000920E-02 0. -1.
</event>
<event>
 5   0  0.4527503E-05  0.1399333E+04  0.7818609E-02  0.8954302E-01
        2   -1    0    0  501    0  0.00000000000E+00  0.00000000000E+00  0.80535230755E+03  0.80535230755E+03  0.25500000920E-02 0. -1.
       -2   -1    0    0    0  501  0.00000000000E+00  0.00000000000E+00 -0.60784951490E+03  0.60784951490E+03  0.25500000920E-02 0.  1.
    10030    2    1    2    0    0  0.00000000000E+00  0.00000000000E+00  0.19750279265E+03  0.14132018225E+04  0.13993327116E+04 0.  0.
        4    1    3    3  502    0 -0.22985639738E+03  0.62979972603E+03 -0.10335638907E+03  0.67835522728E+03  0.12699999809E+01 0.  1.
       -4    1    3    3    0  502  0.22985639738E+03 -0.62979972603E+03  0.30085918172E+03  0.73484659518E+03  0.12699999809E+01 0. -1.
</event>
<event>
 5   0  0.4621450E-05  0.1400053E+04  0.7818609E-02  0.8953781E-01
       -2   -1    0    0    0  501  0.00000000000E+00  0.00000000000E+00  0.62117969894E+03  0.62117969895E+03  0.25500000920E-02 0. -1.
        2   -1    0    0  501    0  0.00000000000E+00  0.00000000000E+00 -0.78888085066E+03  0.78888085066E+03  0.25500000920E-02 0.  1.
    10030    2    1    2    0    0  0.00000000000E+00  0.00000000000E+00 -0.16770115172E+03  0.14100605496E+04  0.14000525266E+04 0.  0.
        5    1    3    3  502    0 -0.52306748852E+03 -0.18789659094E+03  0.34476168599E+03  0.65405461282E+03  0.46999998093E+01 0. -1.
       -5    1    3    3    0  502  0.52306748852E+03  0.18789659094E+03 -0.51246283770E+03  0.75600593679E+03  0.46999998093E+01 0.  1.
</event>
<event>
 5   0  0.4460282E-05  0.1404037E+04  0.7818609E-02  0.8950901E-01
        2   -1    0    0  501    0  0.00000000000E+00  0.00000000000E+00  0.95867467751E+03  0.95867467752E+03  0.25500000920E-02 0. -1.
       -2   -1    0    0    0  501  0.00000000000E+00  0.00000000000E+00 -0.51407435111E+03  0.51407435112E+03  0.25500000920E-02 0.  1.
    10030    2    1    2    0    0  0.00000000000E+00  0.00000000000E+00  0.44460032640E+03  0.14727490286E+04  0.14040371260E+04 0.  0.
        1    1    3    3  502    0  0.74494633786E+01 -0.66503461919E+03  0.45802806619E+03  0.80753715003E+03  0.50400001928E-02 0. -1.
       -1    1    3    3    0  502 -0.74494633786E+01  0.66503461919E+03 -0.13427739794E+02  0.66521187861E+03  0.50400001928E-02 0.  1.
</event>
<event>
 5   0  0.4621450E-05  0.1399612E+04  0.7818609E-02  0.8954100E-01
        2   -1    0    0  501    0  0.00000000000E+00  0.00000000000E+00  0.62987736552E+03  0.62987736553E+03  0.25500000920E-02 0.  1.
       -2   -1    0    0    0  501  0.00000000000E+00  0.00000000000E+00 -0.77749775544E+03  0.77749775544E+03  0.25500000920E-02 0. -1.
    10030    2    1    2    0    0  0.00000000000E+00  0.00000000000E+00 -0.14762038992E+03  0.14073751210E+04  0.13996117146E+04 0.  0.
        5    1    3    3  502    0  0.17038897308E+03  0.67350377831E+03 -0.15833839184E+03  0.71255377192E+03  0.46999998093E+01 0.  1.
       -5    1    3    3    0  502 -0.17038897308E+03 -0.67350377831E+03  0.10718001926E+02  0.69482134906E+03  0.46999998093E+01 0. -1.
</event>
<event>
 5   0  0.2428507E-05  0.1399554E+04  0.7818609E-02  0.8954142E-01
        1   -1    0    0  501    0  0.00000000000E+00  0.00000000000E+00  0.76362643762E+03  0.76362643764E+03  0.50400001928E-02 0.  1.
       -1   -1    0    0    0  501  0.00000000000E+00  0.00000000000E+00 -0.64126606652E+03  0.64126606654E+03  0.50400001928E-02 0. -1.
    10030    2    1    2    0    0  0.00000000000E+00  0.00000000000E+00  0.12236037110E+03  0.14048925042E+04  0.13995538174E+04 0.  0.
        4    1    3    3  502    0 -0.65077386732E+03 -0.25714886309E+03  0.68552921008E+02  0.70308838709E+03  0.12699999809E+01 0.  1.
       -4    1    3    3    0  502  0.65077386732E+03  0.25714886309E+03  0.53807450093E+02  0.70180411709E+03  0.12699999809E+01 0. -1.
</event>
<event>
 5   0  0.2316714E-05  0.1399942E+04  0.7818609E-02  0.8953861E-01
        1   -1    0    0  501    0  0.00000000000E+00  0.00000000000E+00  0.81461546527E+03  0.81461546529E+03  0.50400001928E-02 0.  1.
       -1   -1    0    0    0  501  0.00000000000E+00  0.00000000000E+00 -0.60146056237E+03  0.60146056239E+03  0.50400001928E-02 0. -1.
    10030    2    1    2    0    0  0.00000000000E+00  0.00000000000E+00  0.21315490290E+03  0.14160760277E+04  0.13999415358E+04 0.  0.
        5    1    3    3  502    0  0.26080862236E+03  0.63626503449E+03 -0.25629517186E+02  0.68813755439E+03  0.46999998093E+01 0.  1.
       -5    1    3    3    0  502 -0.26080862236E+03 -0.63626503449E+03  0.23878442009E+03  0.72793847329E+03  0.46999998093E+01 0. -1.
</event>
<event>
 5   0  0.4527503E-05  0.1400258E+04  0.7818609E-02  0.8953632E-01
       -2   -1    0    0    0  501  0.00000000000E+00  0.00000000000E+00  0.60545369629E+03  0.60545369629E+03  0.25500000920E-02 0.  1.
        2   -1    0    0  501    0  0.00000000000E+00  0.00000000000E+00 -0.80960922345E+03  0.80960922345E+03  0.25500000920E-02 0. -1.
    10030    2    1    2    0    0  0.00000000000E+00  0.00000000000E+00 -0.20415552716E+03  0.14150629197E+04  0.14002584003E+04 0.  0.
        4    1    3    3  502    0 -0.25177323787E+03 -0.15976940958E+03 -0.74222851680E+03  0.79988799940E+03  0.12699999809E+01 0. -1.
       -4    1    3    3    0  502  0.25177323787E+03  0.15976940958E+03  0.53807298963E+03  0.61517492034E+03  0.12699999809E+01 0.  1.
</event>
<event>
 5   0  0.4243281E-05  0.1400307E+04  0.7818609E-02  0.8953596E-01
       -2   -1    0    0    0  501  0.00000000000E+00  0.00000000000E+00  0.13090121227E+04  0.13090121227E+04  0.25500000920E-02 0.  1.
        2   -1    0    0  501    0  0.00000000000E+00  0.00000000000E+00 -0.37449231936E+03  0.37449231937E+03  0.25500000920E-02 0. -1.
    10030    2    1    2    0    0  0.00000000000E+00  0.00000000000E+00  0.93451980338E+03  0.16835044421E+04  0.14003070891E+04 0.  0.
        2    1    3    3  502    0 -0.71769497030E+02 -0.37270236565E+03 -0.24007906472E+03  0.44910563500E+03  0.25500000920E-02 0. -1.
       -2    1    3    3    0  502  0.71769497030E+02  0.37270236565E+03  0.11745988681E+04  0.12343988071E+04  0.25500000920E-02 0.  1.
</event>
<event>
 5   0  0.2316714E-05  0.1401370E+04  0.7818609E-02  0.8952828E-01
       -1   -1    0    0    0  501  0.00000000000E+00  0.00000000000E+00  0.11097950010E+04  0.11097950010E+04  0.50400001928E-02 0.  1.
        1   -1    0    0  501    0  0.00000000000E+00  0.00000000000E+00 -0.44238747436E+03  0.44238747439E+03  0.50400001928E-02 0. -1.
    10030    2    1    2    0    0  0.00000000000E+00  0.00000000000E+00  0.66740752664E+03  0.15521824754E+04  0.14013699120E+04 0.  0.
        5    1    3    3  502    0 -0.72726821132E+02  0.63701741023E+03  0.64670520368E+03  0.91067561838E+03  0.46999998093E+01 0. -1.
       -5    1    3    3    0  502  0.72726821132E+02 -0.63701741023E+03  0.20702322959E+02  0.64150685703E+03  0.46999998093E+01 0.  1.
</event>
<event>
 5   0  0.2363419E-05  0.1400536E+04  0.7818609E-02  0.8953430E-01
       -1   -1    0    0    0  501  0.00000000000E+00  0.00000000000E+00  0.82376544608E+03  0.82376544610E+03  0.50400001928E-02 0.  1.
        1   -1    0    0  501    0  0.00000000000E+00  0.00000000000E+00 -0.59528543799E+03  0.59528543801E+03  0.50400001928E-02 0. -1.
    10030    2    1    2    0    0  0.00000000000E+00  0.00000000000E+00  0.22848000809E+03  0.14190508841E+04  0.14005364321E+04 0.  0.
        2    1    3    3  502    0  0.57098100056E+03 -0.29613363774E+03  0.39477767982E+03  0.75469454145E+03  0.25500000920E-02 0.  1.
       -2    1    3    3    0  502 -0.57098100056E+03  0.29613363774E+03 -0.16629767173E+03  0.66435634266E+03  0.25500000920E-02 0. -1.
</event>
<event>
 5   0  0.4621450E-05  0.1399981E+04  0.7818609E-02  0.8953832E-01
        2   -1    0    0  501    0  0.00000000000E+00  0.00000000000E+00  0.11381677515E+04  0.11381677515E+04  0.25500000920E-02 0.  1.
       -2   -1    0    0    0  501  0.00000000000E+00  0.00000000000E+00 -0.43050504247E+03  0.43050504248E+03  0.25500000920E-02 0. -1.
    10030    2    1    2    0    0  0.00000000000E+00  0.00000000000E+00  0.70766270907E+03  0.15686727940E+04  0.13999813659E+04 0.  0.
        5    1    3    3  502    0  0.43761553441E+03  0.54623223740E+03  0.34332895242E+03  0.77959853303E+03  0.46999998093E+01 0.  1.
       -5    1    3    3    0  502 -0.43761553441E+03 -0.54623223740E+03  0.36433375665E+03  0.78907426100E+03  0.46999998093E+01 0. -1.
</event>
<event>
 5   0  0.2363419E-05  0.1393143E+04  0.7818609E-02  0.8958797E-01
       -1   -1    0    0    0  501  0.00000000000E+00  0.00000000000E+00  0.98512211139E+03  0.98512211141E+03  0.50400001928E-02 0. -1.
        1   -1    0    0  501    0  0.00000000000E+00  0.00000000000E+00 -0.49254013761E+03  0.49254013764E+03  0.50400001928E-02 0.  1.
    10030    2    1    2    0    0  0.00000000000E+00  0.00000000000E+00  0.49258197378E+03  0.14776622490E+04  0.13931434676E+04 0.  0.
        2    1    3    3  502    0  0.44724754108E+03  0.53187661512E+03  0.19554401132E+03  0.72191450816E+03  0.25500000920E-02 0.  1.
       -2    1    3    3    0  502 -0.44724754108E+03 -0.53187661512E+03  0.29703796246E+03  0.75574774089E+03  0.25500000920E-02 0. -1.
</event>
<event>
 5   0  0.2467303E-05  0.1400056E+04  0.7818609E-02  0.8953778E-01
        1   -1    0    0  501    0  0.00000000000E+00  0.00000000000E+00  0.64300724824E+03  0.64300724826E+03  0.50400001928E-02 0.  1.
       -1   -1    0    0    0  501  0.00000000000E+00  0.00000000000E+00 -0.76210573127E+03  0.76210573128E+03  0.50400001928E-02 0. -1.
    10030    2    1    2    0    0  0.00000000000E+00  0.00000000000E+00 -0.11909848303E+03  0.14051129795E+04  0.14000564405E+04 0.  0.
        3    1    3    3  502    0  0.65144588906E+03  0.19714199597E+03  0.10472695517E+03  0.68863230993E+03  0.10100000352E+00 0. -1.
       -3    1    3    3    0  502 -0.65144588906E+03 -0.19714199597E+03 -0.22382543820E+03  0.71648066961E+03  0.10100000352E+00 0.  1.
</event>
<event>
 5   0  0.2427569E-05  0.1400470E+04  0.7818609E-02  0.8953478E-01
       -1   -1    0    0    0  501  0.00000000000E+00  0.00000000000E+00  0.34514777318E+03  0.34514777321E+03  0.50400001928E-02 0. -1.
        1   -1    0    0  501    0  0.00000000000E+00  0.00000000000E+00 -0.14206361114E+04  0.14206361114E+04  0.50400001928E-02 0.  1.
    10030    2    1    2    0    0  0.00000000000E+00  0.00000000000E+00 -0.10754883382E+04  0.17657838846E+04  0.14004704786E+04 0.  0.
        1    1    3    3  502    0 -0.10297994428E+03  0.67398291733E+03 -0.73897349159E+03  0.10054549533E+04  0.50400001928E-02 0.  1.
       -1    1    3    3    0  502  0.10297994428E+03 -0.67398291733E+03 -0.33651484661E+03  0.76032893132E+03  0.50400001928E-02 0. -1.
</event>
<event>
 5   0  0.4460282E-05  0.1400012E+04  0.7818609E-02  0.8953810E-01
        2   -1    0    0  501    0  0.00000000000E+00  0.00000000000E+00  0.63498829053E+03  0.63498829053E+03  0.25500000920E-02 0. -1.
       -2   -1    0    0    0  501  0.00000000000E+00  0.00000000000E+00 -0.77168050515E+03  0.77168050515E+03  0.25500000920E-02 0.  1.
    10030    2    1    2    0    0  0.00000000000E+00  0.00000000000E+00 -0.13669221462E+03  0.14066687957E+04  0.14000115497E+04 0.  0.
        1    1    3    3  502    0  0.83792469528E+02  0.69149097420E+03 -0.13815410103E+03  0.71011794866E+03  0.50400001928E-02 0. -1.
       -1    1    3    3    0  502 -0.83792469528E+02 -0.69149097420E+03  0.14618864090E+01  0.69655084702E+03  0.50400001928E-02 0.  1.
</event>
<event>
 5   0  0.1661000E-05  0.1397709E+04  0.7818609E-02  0.8955479E-01
        3   -1    0    0  501    0  0.00000000000E+00  0.00000000000E+00  0.65558514001E+03  0.65558514779E+03  0.10100000352E+00 0. -1.
       -3   -1    0    0    0  501  0.00000000000E+00  0.00000000000E+00 -0.74497954292E+03  0.74497954976E+03  0.10100000352E+00 0.  1.
    10030    2    1    2    0    0  0.00000000000E+00  0.00000000000E+00 -0.89394402904E+02  0.14005646976E+04  0.13977088798E+04 0.  0.
        3    1    3    3  502    0 -0.69432849136E+02  0.51617762444E+03  0.42223478454E+03  0.67047929423E+03  0.10100000352E+00 0. -1.
       -3    1    3    3    0  502  0.69432849136E+02 -0.51617762444E+03 -0.51162918744E+03  0.73008540333E+03  0.10100000352E+00 0.  1.
</event>
<event>
 5   0  0.4441253E-05  0.1400344E+04  0.7818609E-02  0.8953570E-01
       -2   -1    0    0    0  501  0.00000000000E+00  0.00000000000E+00  0.22285419072E+03  0.22285419073E+03  0.25500000920E-02 0. -1.
        2   -1    0    0  501    0  0.00000000000E+00  0.00000000000E+00 -0.21998263895E+04  0.21998263895E+04  0.25500000920E-02 0.  1.
    10030    2    1    2    0    0  0.00000000000E+00  0.00000000000E+00 -0.19769721988E+04  0.24226805803E+04  0.14003435718E+04 0.  0.
        3    1    3    3  502    0  0.51382644895E+03  0.47455887978E+03 -0.93331993096E+03  0.11663232201E+04  0.10100000352E+00 0. -1.
       -3    1    3    3    0  502 -0.51382644895E+03 -0.47455887978E+03 -0.10436522679E+04  0.12563573602E+04  0.10100000352E+00 0.  1.
</event>
<event>
 5   0  0.4621450E-05  0.1401680E+04  0.7818609E-02  0.8952603E-01
        2   -1    0    0  501    0  0.00000000000E+00  0.00000000000E+00  0.14503272373E+04  0.14503272373E+04  0.25500000920E-02 0. -1.
       -2   -1    0    0    0  501  0.00000000000E+00  0.00000000000E+00 -0.33866625876E+03  0.33866625877E+03  0.25500000920E-02 0.  1.
    10030    2    1    2    0    0  0.00000000000E+00  0.00000000000E+00  0.11116609786E+04  0.17889934961E+04  0.14016802766E+04 0.  0.
        5    1    3    3  502    0  0.56581840722E+02 -0.26945415266E+03 -0.26672600954E+03  0.38336914227E+03  0.46999998093E+01 0.  1.
       -5    1    3    3    0  502 -0.56581840722E+02  0.26945415266E+03  0.13783869881E+04  0.14056243538E+04  0.46999998093E+01 0. -1.
</event>
<event>
 5   0  0.4527503E-05  0.1400288E+04  0.7818609E-02  0.8953610E-01
       -2   -1    0    0    0  501  0.00000000000E+00  0.00000000000E+00  0.43573799183E+03  0.43573799184E+03  0.25500000920E-02 0. -1.
        2   -1    0    0  501    0  0.00000000000E+00  0.00000000000E+00 -0.11249919513E+04  0.11249919513E+04  0.25500000920E-02 0.  1.
    10030    2    1    2    0    0  0.00000000000E+00  0.00000000000E+00 -0.68925395944E+03  0.15607299431E+04  0.14002881613E+04 0.  0.
        4    1    3    3  502    0  0.63639298142E+02 -0.26519260077E+03 -0.10633550762E+04  0.10977717007E+04  0.12699999809E+01 0.  1.
       -4    1    3    3    0  502 -0.63639298142E+02  0.26519260077E+03  0.37410111678E+03  0.46295824244E+03  0.12699999809E+01 0. -1.
</event>
<event>
 5   0  0.4460282E-05  0.1398907E+04  0.7818609E-02  0.8954610E-01
       -2   -1    0    0    0  501  0.00000000000E+00  0.00000000000E+00  0.30011258759E+03  0.30011258760E+03  0.25500000920E-02 0. -1.
        2   -1    0    0  501    0  0.00000000000E+00  0.00000000000E+00 -0.16301722449E+04  0.16301722449E+04  0.25500000920E-02 0.  1.
    10030    2    1    2    0    0  0.00000000000E+00  0.00000000000E+00 -0.13300596573E+04  0.19302848324E+04  0.13989070171E+04 0.  0.
        1    1    3    3  502    0 -0.24430324143E+03 -0.14257586780E+03  0.21766931289E+03  0.35691999335E+03  0.50400001928E-02 0. -1.
       -1    1    3    3    0  502  0.24430324143E+03  0.14257586780E+03 -0.15477289702E+04  0.15733648391E+04  0.50400001928E-02 0.  1.
</event>
<event>
 5   0  0.2363419E-05  0.1399482E+04  0.7818609E-02  0.8954194E-01
        1   -1    0    0  501    0  0.00000000000E+00  0.00000000000E+00  0.10951687763E+04  0.10951687763E+04  0.50400001928E-02 0.  1.
       -1   -1    0    0    0  501  0.00000000000E+00  0.00000000000E+00 -0.44708854300E+03  0.44708854303E+03  0.50400001928E-02 0. -1.
    10030    2    1    2    0    0  0.00000000000E+00  0.00000000000E+00  0.64808023330E+03  0.15422573193E+04  0.13994819221E+04 0.  0.
        2    1    3    3  502    0 -0.15518241519E+03  0.15281364831E+03  0.10568659861E+04  0.10790733551E+04  0.25500000920E-02 0.  1.
       -2    1    3    3    0  502  0.15518241519E+03 -0.15281364831E+03 -0.40878575277E+03  0.46318396428E+03  0.25500000920E-02 0. -1.
</event>
<event>
 5   0  0.2467303E-05  0.1399893E+04  0.7818609E-02  0.8953896E-01
        1   -1    0    0  501    0  0.00000000000E+00  0.00000000000E+00  0.10645612832E+04  0.10645612832E+04  0.50400001928E-02 0. -1.
       -1   -1    0    0    0  501  0.00000000000E+00  0.00000000000E+00 -0.46021315106E+03  0.46021315109E+03  0.50400001928E-02 0.  1.
    10030    2    1    2    0    0  0.00000000000E+00  0.00000000000E+00  0.60434813214E+03  0.15247744343E+04  0.13998929997E+04 0.  0.
        3    1    3    3  502    0 -0.19776489031E+03  0.66865336705E+03  0.23576975839E+03  0.73606770496E+03  0.10100000352E+00 0.  1.
       -3    1    3    3    0  502  0.19776489031E+03 -0.66865336705E+03  0.36857837375E+03  0.78870672934E+03  0.10100000352E+00 0. -1.
</event>
<event>
 5   0  0.4441253E-05  0.1400023E+04  0.7818609E-02  0.8953802E-01
       -2   -1    0    0    0  501  0.00000000000E+00  0.00000000000E+00  0.34807423541E+03  0.34807423542E+03  0.25500000920E-02 0.  1.
        2   -1    0    0  501    0  0.00000000000E+00  0.00000000000E+00 -0.14077909350E+04  0.14077909350E+04  0.25500000920E-02 0. -1.
    10030    2    1    2    0    0  0.00000000000E+00  0.00000000000E+00 -0.10597166996E+04  0.17558651704E+04  0.14000225046E+04 0.  0.
        3    1    3    3  502    0  0.59967618803E+03 -0.33806099874E+02 -0.98076901568E+03  0.11500705436E+04  0.10100000352E+00 0. -1.
       -3    1    3    3    0  502 -0.59967618803E+03  0.33806099874E+02 -0.78947683870E+02  0.60579462681E+03  0.10100000352E+00 0.  1.
</event>
<event>
 5   0  0.4441253E-05  0.1399184E+04  0.7818609E-02  0.8954409E-01
       -2   -1    0    0    0  501  0.00000000000E+00  0.00000000000E+00  0.23859874288E+03  0.23859874290E+03  0.25500000920E-02 0.  1.
        2   -1    0    0  501    0  0.00000000000E+00  0.00000000000E+00 -0.20512650811E+04  0.20512650811E+04  0.25500000920E-02 0. -1.
    10030    2    1    2    0    0  0.00000000000E+00  0.00000000000E+00 -0.18126663382E+04  0.22898638240E+04  0.13991844334E+04 0.  0.
        3    1    3    3  502    0 -0.52574989428E+03 -0.45373915419E+03 -0.10445927448E+04  0.12543788041E+04  0.10100000352E+00 0. -1.
       -3    1    3    3    0  502  0.52574989428E+03  0.45373915419E+03 -0.76807359336E+03  0.10354850199E+04  0.10100000352E+00 0.  1.
</event>
<event>
 5   0  0.2363419E-05  0.1399915E+04  0.7818609E-02  0.8953880E-01
        1   -1    0    0  501    0  0.00000000000E+00  0.00000000000E+00  0.14741455419E+04  0.14741455419E+04  0.50400001928E-02 0. -1.
       -1   -1    0    0    0  501  0.00000000000E+00  0.00000000000E+00 -0.33235563768E+03  0.33235563772E+03  0.50400001928E-02 0.  1.
    10030    2    1    2    0    0  0.00000000000E+00  0.00000000000E+00  0.11417899042E+04  0.18065011796E+04  0.13999151141E+04 0.  0.
        2    1    3    3  502    0  0.49555009957E+03  0.42490515141E+03  0.24488087201E+03  0.69719504471E+03  0.25500000920E-02 0.  1.
       -2    1    3    3    0  502 -0.49555009957E+03 -0.42490515141E+03  0.89690903219E+03  0.11093061349E+04  0.25500000920E-02 0. -1.
</event>
<event>
 5   0  0.2427569E-05  0.1400307E+04  0.7818609E-02  0.8953597E-01
       -1   -1    0    0    0  501  0.00000000000E+00  0.00000000000E+00  0.90262423217E+03  0.90262423219E+03  0.50400001928E-02 0. -1.
        1   -1    0    0  501    0  0.00000000000E+00  0.00000000000E+00 -0.54309936961E+03  0.54309936964E+03  0.50400001928E-02 0.  1.
    10030    2    1    2    0    0  0.00000000000E+00  0.00000000000E+00  0.35952486256E+03  0.14457236018E+04  0.14003066115E+04 0.  0.
        1    1    3    3  502    0 -0.25193192952E+03 -0.65308877530E+03  0.19507610385E+03  0.72667002955E+03  0.50400001928E-02 0.  1.
       -1    1    3    3    0  502  0.25193192952E+03  0.65308877530E+03  0.16444875871E+03  0.71905357227E+03  0.50400001928E-02 0. -1.
</event>
<event>
 5   0  0.4621450E-05  0.1399746E+04  0.7818609E-02  0.8954003E-01
       -2   -1    0    0    0  501  0.00000000000E+00  0.00000000000E+00  0.68866714350E+03  0.68866714350E+03  0.25500000920E-02 0. -1.
        2   -1    0    0  501    0  0.00000000000E+00  0.00000000000E+00 -0.71126105649E+03  0.71126105649E+03  0.25500000920E-02 0.  1.
    10030    2    1    2    0    0  0.00000000000E+00  0.00000000000E+00 -0.22593912992E+02  0.13999282000E+04  0.13997458627E+04 0.  0.
        5    1    3    3  502    0 -0.36159461803E+03 -0.20552911092E+03 -0.57422651665E+03  0.70904940987E+03  0.46999998093E+01 0. -1.
       -5    1    3    3    0  502  0.36159461803E+03  0.20552911092E+03  0.55163260366E+03  0.69087879012E+03  0.46999998093E+01 0.  1.
</event>
<event>
 5   0  0.2428507E-05  0.1398923E+04  0.7818609E-02  0.8954599E-01
       -1   -1    0    0    0  501  0.00000000000E+00  0.00000000000E+00  0.51129596850E+03  0.51129596852E+03  0.50400001928E-02 0.  1.
        1   -1    0    0  501    0  0.00000000000E+00  0.00000000000E+00 -0.95687486799E+03  0.95687486800E+03  0.50400001928E-02 0. -1.
    10030    2    1    2    0    0  0.00000000000E+00  0.00000000000E+00 -0.44557889949E+03  0.14681708365E+04  0.13989228176E+04 0.  0.
        4    1    3    3  502    0 -0.50776354859E+03  0.45367958301E+03 -0.54883517329E+02  0.68312721999E+03  0.12699999809E+01 0.  1.
       -4    1    3    3    0  502  0.50776354859E+03 -0.45367958301E+03 -0.39069538216E+03  0.78504361653E+03  0.12699999809E+01 0. -1.
</event>
<event>
 5   0  0.2427569E-05  0.1400185E+04  0.7818609E-02  0.8953685E-01
       -1   -1    0    0    0  501  0.00000000000E+00  0.00000000000E+00  0.57990291651E+03  0.57990291653E+03  0.50400001928E-02 0. -1.
        1   -1    0    0  501    0  0.00000000000E+00  0.00000000000E+00 -0.84519240634E+03  0.84519240636E+03  0.50400001928E-02 0.  1.
    10030    2    1    2    0    0  0.00000000000E+00  0.00000000000E+00 -0.26528948983E+03  0.14250953229E+04  0.14001850470E+04 0.  0.
        1    1    3    3  502    0 -0.48835339520E+02 -0.47225015931E+03  0.39102260496E+03  0.61506404624E+03  0.50400001928E-02 0. -1.
       -1    1    3    3    0  502  0.48835339520E+02  0.47225015931E+03 -0.65631209480E+03  0.81003127665E+03  0.50400001928E-02 0.  1.
</event>
<event>
 5   0  0.4527503E-05  0.1399748E+04  0.7818609E-02  0.8954001E-01
        2   -1    0    0  501    0  0.00000000000E+00  0.00000000000E+00  0.19026114272E+04  0.19026114273E+04  0.25500000920E-02 0.  1.
       -2   -1    0    0    0  501  0.00000000000E+00  0.00000000000E+00 -0.25744815630E+03  0.25744815632E+03  0.25500000920E-02 0. -1.
    10030    2    1    2    0    0  0.00000000000E+00  0.00000000000E+00  0.16451632709E+04  0.21600595836E+04  0.13997482690E+04 0.  0.
        4    1    3    3  502    0  0.55782692664E+03 -0.29076506835E+03  0.34918330230E+03  0.71947605698E+03  0.12699999809E+01 0. -1.
       -4    1    3    3    0  502 -0.55782692664E+03  0.29076506835E+03  0.12959799686E+04  0.14405835266E+04  0.12699999809E+01 0.  1.
</event>
<event>
 5   0  0.2467303E-05  0.1400964E+04  0.7818609E-02  0.8953121E-01
       -1   -1    0    0    0  501  0.00000000000E+00  0.00000000000E+00  0.24396345056E+03  0.24396345061E+03  0.50400001928E-02 0. -1.
        1   -1    0    0  501    0  0.00000000000E+00  0.00000000000E+00 -0.20112655406E+04  0.20112655406E+04  0.50400001928E-02 0.  1.
    10030    2    1    2    0    0  0.00000000000E+00  0.00000000000E+00 -0.17673020900E+04  0.22552289912E+04  0.14009643555E+04 0.  0.
        3    1    3    3  502    0 -0.51083806857E+03  0.20774343715E+03 -0.18834561068E+03  0.58274089203E+03  0.10100000352E+00 0. -1.
       -3    1    3    3    0  502  0.51083806857E+03 -0.20774343715E+03 -0.15789564793E+04  0.16724880991E+04  0.10100000352E+00 0.  1.
</event>
<event>
 5   0  0.2427569E-05  0.1400656E+04  0.7818609E-02  0.8953344E-01
       -1   -1    0    0    0  501  0.00000000000E+00  0.00000000000E+00  0.35382540492E+03  0.35382540495E+03  0.50400001928E-02 0.  1.
        1   -1    0    0  501    0  0.00000000000E+00  0.00000000000E+00 -0.13861615704E+04  0.13861615704E+04  0.50400001928E-02 0. -1.
    10030    2    1    2    0    0  0.00000000000E+00  0.00000000000E+00 -0.10323361655E+04  0.17399869753E+04  0.14006558163E+04 0.  0.
        1    1    3    3  502    0  0.11263753497E+03 -0.31211905360E+03  0.24997232548E+03  0.41544154997E+03  0.50400001928E-02 0.  1.
       -1    1    3    3    0  502 -0.11263753497E+03  0.31211905360E+03 -0.12823084909E+04  0.13245454254E+04  0.50400001928E-02 0. -1.
</event>
<event>
 5   0  0.2427569E-05  0.1400042E+04  0.7818609E-02  0.8953788E-01
       -1   -1    0    0    0  501  0.00000000000E+00  0.00000000000E+00  0.35636621448E+03  0.35636621451E+03  0.50400001928E-02 0.  1.
        1   -1    0    0  501    0  0.00000000000E+00  0.00000000000E+00 -0.13750728989E+04  0.13750728989E+04  0.50400001928E-02 0. -1.
    10030    2    1    2    0    0  0.00000000000E+00  0.00000000000E+00 -0.10187066845E+04  0.17314391135E+04  0.14000421760E+04 0.  0.
        1    1    3    3  502    0 -0.69696629241E+03  0.19569456418E+02 -0.43227429996E+03  0.82036945751E+03  0.50400001928E-02 0. -1.
       -1    1    3    3    0  502  0.69696629241E+03 -0.19569456418E+02 -0.58643238449E+03  0.91106965595E+03  0.50400001928E-02 0.  1.
</event>
<event>
 5   0  0.2316714E-05  0.1400114E+04  0.7818609E-02  0.8953736E-01
       -1   -1    0    0    0  501  0.00000000000E+00  0.00000000000E+00  0.13907425060E+04  0.13907425060E+04  0.50400001928E-02 0.  1.
        1   -1    0    0  501    0  0.00000000000E+00  0.00000000000E+00 -0.35238726773E+03  0.35238726776E+03  0.50400001928E-02 0. -1.
    10030    2    1    2    0    0  0.00000000000E+00  0.00000000000E+00  0.10383552382E+04  0.17431297737E+04  0.14001142122E+04 0.  0.
        5    1    3    3  502    0 -0.53127658787E+03 -0.40556716361E+03  0.26005693381E+03  0.71721073322E+03  0.46999998093E+01 0. -1.
       -5    1    3    3    0  502  0.53127658787E+03  0.40556716361E+03  0.77829830442E+03  0.10259190405E+04  0.46999998093E+01 0.  1.
</event>
<event>
 5   0  0.2316714E-05  0.1400283E+04  0.7818609E-02  0.8953613E-01
        1   -1    0    0  501    0  0.00000000000E+00  0.00000000000E+00  0.87960379589E+03  0.87960379591E+03  0.50400001928E-02 0.  1.
       -1   -1    0    0    0  501  0.00000000000E+00  0.00000000000E+00 -0.55729456830E+03  0.55729456832E+03  0.50400001928E-02 0. -1.
    10030    2    1    2    0    0  0.00000000000E+00  0.00000000000E+00  0.32230922759E+03  0.14368983642E+04  0.14002834252E+04 0.  0.
        5    1    3    3  502    0  0.25741020705E+03  0.60238483626E+03  0.41469593352E+03  0.77532078066E+03  0.46999998093E+01 0.  1.
       -5    1    3    3    0  502 -0.25741020705E+03 -0.60238483626E+03 -0.92386705934E+02  0.66157758357E+03  0.46999998093E+01 0. -1.
</event>
<event>
 5   0  0.2363419E-05  0.1400334E+04  0.7818609E-02  0.8953577E-01
       -1   -1    0    0    0  501  0.00000000000E+00  0.00000000000E+00  0.76983700675E+03  0.76983700676E+03  0.50400001928E-02 0. -1.
        1   -1    0    0  501    0  0.00000000000E+00  0.00000000000E+00 -0.63680194156E+03  0.63680194158E+03  0.50400001928E-02 0.  1.
    10030    2    1    2    0    0  0.00000000000E+00  0.00000000000E+00  0.13303506519E+03  0.14066389483E+04  0.14003338182E+04 0.  0.
        2    1    3    3  502    0  0.51762486577E+03  0.31379737007E+03 -0.28696093382E+03  0.66988869872E+03  0.25500000920E-02 0.  1.
       -2    1    3    3    0  502 -0.51762486577E+03 -0.31379737007E+03  0.41999599901E+03  0.73675024962E+03  0.25500000920E-02 0. -1.
</event>
<event>
 5   0  0.2363419E-05  0.1399993E+04  0.7818609E-02  0.8953823E-01
        1   -1    0    0  501    0  0.00000000000E+00  0.00000000000E+00  0.12633326375E+04  0.12633326375E+04  0.50400001928E-02 0.  1.
       -1   -1    0    0    0  501  0.00000000000E+00  0.00000000000E+00 -0.38785922455E+03  0.38785922458E+03  0.50400001928E-02 0. -1.
    10030    2    1    2    0    0  0.00000000000E+00  0.00000000000E+00  0.87547341299E+03  0.16511918621E+04  0.13999931674E+04 0.  0.
        2    1    3    3  502    0 -0.51385203736E+02  0.35556211505E+02  0.12600365455E+04  0.12615850266E+04  0.25500000920E-02 0.  1.
       -2    1    3    3    0  502  0.51385203736E+02 -0.35556211505E+02 -0.38456313255E+03  0.38960683549E+03  0.25500000920E-02 0. -1.
</event>
<event>
 5   0  0.2363419E-05  0.1399899E+04  0.7818609E-02  0.8953891E-01
        1   -1    0    0  501    0  0.00000000000E+00  0.00000000000E+00  0.23867667258E+04  0.23867667258E+04  0.50400001928E-02 0. -1.
       -1   -1    0    0    0  501  0.00000000000E+00  0.00000000000E+00 -0.20526917062E+03  0.20526917068E+03  0.50400001928E-02 0.  1.
    10030    2    1    2    0    0  0.00000000000E+00  0.00000000000E+00  0.21814975552E+04  0.25920358965E+04  0.13998994626E+04 0.  0.
        2    1    3    3  502    0  0.64750933023E+03 -0.13513147442E+03  0.15145996031E+04  0.16527373674E+04  0.25500000920E-02 0. -1.
       -2    1    3    3    0  502 -0.64750933023E+03  0.13513147442E+03  0.66689795208E+03  0.93929852901E+03  0.25500000920E-02 0.  1.
</event>
<event>
 5   0  0.4621450E-05  0.1399272E+04  0.7818609E-02  0.8954345E-01
        2   -1    0    0  501    0  0.00000000000E+00  0.00000000000E+00  0.12297758597E+04  0.12297758597E+04  0.25500000920E-02 0.  1.
       -2   -1    0    0    0  501  0.00000000000E+00  0.00000000000E+00 -0.39803253187E+03  0.39803253188E+03  0.25500000920E-02 0. -1.
    10030    2    1    2    0    0  0.00000000000E+00  0.00000000000E+00  0.83174332778E+03  0.16278083915E+04  0.13992723810E+04 0.  0.
        5    1    3    3  502    0 -0.54790520993E+03 -0.30870568318E+03  0.59261080858E+02  0.63169081329E+03  0.46999998093E+01 0.  1.
       -5    1    3    3    0  502  0.54790520993E+03  0.30870568318E+03  0.77248224692E+03  0.99611757825E+03  0.46999998093E+01 0. -1.
</event>
<event>
 5   0  0.2427569E-05  0.1400004E+04  0.7818609E-02  0.8953816E-01
        1   -1    0    0  501    0  0.00000000000E+00  0.00000000000E+00  0.13116146481E+04  0.13116146481E+04  0.50400001928E-02 0.  1.
       -1   -1    0    0    0  501  0.00000000000E+00  0.00000000000E+00 -0.37358726699E+03  0.37358726702E+03  0.50400001928E-02 0. -1.
    10030    2    1    2    0    0  0.00000000000E+00  0.00000000000E+00  0.93802738109E+03  0.16852019151E+04  0.14000036168E+04 0.  0.
        1    1    3    3  502    0  0.33476531335E+03  0.46417515035E+01 -0.27096429629E+03  0.43070989166E+03  0.50400001928E-02 0. -1.
       -1    1    3    3    0  502 -0.33476531335E+03 -0.46417515035E+01  0.12089916774E+04  0.12544920234E+04  0.50400001928E-02 0.  1.
</event>
<event>
 5   0  0.1661000E-05  0.1399686E+04  0.7818609E-02  0.8954046E-01
       -3   -1    0    0    0  501  0.00000000000E+00  0.00000000000E+00  0.28751082361E+03  0.28751084135E+03  0.10100000352E+00 0. -1.
        3   -1    0    0  501    0  0.00000000000E+00  0.00000000000E+00 -0.17035203065E+04  0.17035203095E+04  0.10100000352E+00 0.  1.
    10030    2    1    2    0    0  0.00000000000E+00  0.00000000000E+00 -0.14160094829E+04  0.19910311508E+04  0.13996864606E+04 0.  0.
        4    1    3    3  502    0 -0.96111172013E+02 -0.33933261361E+03 -0.15678663643E+04  0.16070440347E+04  0.12699999809E+01 0.  1.
       -4    1    3    3    0  502  0.96111172013E+02  0.33933261361E+03  0.15185688145E+03  0.38398711617E+03  0.12699999809E+01 0. -1.
</event>
<event>
 5   0  0.4441253E-05  0.1400699E+04  0.7818609E-02  0.8953313E-01
        2   -1    0    0  501    0  0.00000000000E+00  0.00000000000E+00  0.99255237776E+03  0.99255237776E+03  0.25500000920E-02 0.  1.
       -2   -1    0    0    0  501  0.00000000000E+00  0.00000000000E+00 -0.49416998366E+03  0.49416998367E+03  0.25500000920E-02 0. -1.
    10030    2    1    2    0    0  0.00000000000E+00  0.00000000000E+00  0.49838239410E+03  0.14867223614E+04  0.14006992430E+04 0.  0.
        3    1    3    3  502    0 -0.40168293807E+03 -0.57210117293E+03  0.29472881080E+03  0.75862640141E+03  0.10100000352E+00 0. -1.
       -3    1    3    3    0  502  0.40168293807E+03  0.57210117293E+03  0.20365358329E+03  0.72809596001E+03  0.10100000352E+00 0.  1.
</event>
<event>
 5   0  0.2428507E-05  0.1399993E+04  0.7818609E-02  0.8953824E-01
        1   -1    0    0  501    0  0.00000000000E+00  0.00000000000E+00  0.17065487683E+04  0.17065487683E+04  0.50400001928E-02 0. -1.
       -1   -1    0    0    0  501  0.00000000000E+00  0.00000000000E+00 -0.28712633358E+03  0.28712633363E+03  0.50400001928E-02 0.  1.
    10030    2    1    2    0    0  0.00000000000E+00  0.00000000000E+00  0.14194224347E+04  0.19936751019E+04  0.13999929871E+04 0.  0.
        4    1    3    3  502    0  0.26123855415E+03  0.29268709894E+03 -0.11585374639E+03  0.40906603808E+03  0.12699999809E+01 0.  1.
       -4    1    3    3    0  502 -0.26123855415E+03 -0.29268709894E+03  0.15352761811E+04  0.15846090639E+04  0.12699999809E+01 0. -1.
</event>
<event>
 5   0  0.4527503E-05  0.1400449E+04  0.7818609E-02  0.8953494E-01
        2   -1    0    0  501    0  0.00000000000E+00  0.00000000000E+00  0.11701527491E+04  0.11701527491E+04  0.25500000920E-02 0.  1.
       -2   -1    0    0    0  501  0.00000000000E+00  0.00000000000E+00 -0.41901738934E+03  0.41901738934E+03  0.25500000920E-02 0. -1.
    10030    2    1    2    0    0  0.00000000000E+00  0.00000000000E+00  0.75113535972E+03  0.15891701384E+04  0.14004489995E+04 0.  0.
        4    1    3    3  502    0  0.47828290551E+03  0.44261469626E+01 -0.20475694944E+03  0.52028948646E+03  0.12699999809E+01 0. -1.
       -4    1    3    3    0  502 -0.47828290551E+03 -0.44261469626E+01  0.95589230916E+03  0.10688806519E+04  0.12699999809E+01 0.  1.
</event>
<event>
 5   0  0.4460282E-05  0.1400014E+04  0.7818609E-02  0.8953808E-01
        2   -1    0    0  501    0  0.00000000000E+00  0.00000000000E+00  0.11360028649E+04  0.11360028650E+04  0.25500000920E-02 0.  1.
       -2   -1    0    0    0  501  0.00000000000E+00  0.00000000000E+00 -0.43134566921E+03  0.43134566922E+03  0.25500000920E-02 0. -1.
    10030    2    1    2    0    0  0.00000000000E+00  0.00000000000E+00  0.70465719573E+03  0.15673485342E+04  0.14000141657E+04 0.  0.
        1    1    3    3  502    0 -0.94645841975E+02  0.64144785362E+03  0.64767220496E+03  0.91645647437E+03  0.50400001928E-02 0.  1.
       -1    1    3    3    0  502  0.94645841975E+02 -0.64144785362E+03  0.56984990775E+02  0.65089205980E+03  0.50400001928E-02 0. -1.
</event>
<event>
 5   0  0.2467303E-05  0.1401044E+04  0.7818609E-02  0.8953063E-01
       -1   -1    0    0    0  501  0.00000000000E+00  0.00000000000E+00  0.49347588528E+03  0.49347588531E+03  0.50400001928E-02 0. -1.
        1   -1    0    0  501    0  0.00000000000E+00  0.00000000000E+00 -0.99443832336E+03  0.99443832337E+03  0.50400001928E-02 0.  1.
    10030    2    1    2    0    0  0.00000000000E+00  0.00000000000E+00 -0.50096243808E+03  0.14879142087E+04  0.14010443705E+04 0.  0.
        3    1    3    3  502    0 -0.52255733514E+03  0.35155777686E+03  0.75248093855E+02  0.63428804561E+03  0.10100000352E+00 0. -1.
       -3    1    3    3    0  502  0.52255733514E+03 -0.35155777686E+03 -0.57621053193E+03  0.85362616307E+03  0.10100000352E+00 0.  1.
</event>
<event>
 5   0  0.4441253E-05  0.1400147E+04  0.7818609E-02  0.8953712E-01
        2   -1    0    0  501    0  0.00000000000E+00  0.00000000000E+00  0.13091695680E+04  0.13091695680E+04  0.25500000920E-02 0. -1.
       -2   -1    0    0    0  501  0.00000000000E+00  0.00000000000E+00 -0.37436144955E+03  0.37436144955E+03  0.25500000920E-02 0.  1.
    10030    2    1    2    0    0  0.00000000000E+00  0.00000000000E+00  0.93480811848E+03  0.16835310176E+04  0.14001465883E+04 0.  0.
        3    1    3    3  502    0  0.18399927380E+03 -0.19188332132E+03  0.12461147772E+04  0.12741573646E+04  0.10100000352E+00 0. -1.
       -3    1    3    3    0  502 -0.18399927380E+03  0.19188332132E+03 -0.31130665871E+03  0.40937365294E+03  0.10100000352E+00 0.  1.
</event>
<event>
 5   0  0.2428507E-05  0.1399632E+04  0.7818609E-02  0.8954085E-01
        1   -1    0    0  501    0  0.00000000000E+00  0.00000000000E+00  0.11809404803E+04  0.11809404804E+04  0.50400001928E-02 0. -1.
       -1   -1    0    0    0  501  0.00000000000E+00  0.00000000000E+00 -0.41470548141E+03  0.41470548144E+03  0.50400001928E-02 0.  1.
    10030    2    1    2    0    0  0.00000000000E+00  0.00000000000E+00  0.76623499893E+03  0.15956459618E+04  0.13996320809E+04 0.  0.
        4    1    3    3  502    0 -0.50495021734E+03  0.42939389170E+03  0.63902444783E+03  0.92071042899E+03  0.12699999809E+01 0.  1.
       -4    1    3    3    0  502  0.50495021734E+03 -0.42939389170E+03  0.12721055111E+03  0.67493553280E+03  0.12699999809E+01 0. -1.
</event>
<event>
 5   0  0.4243281E-05  0.1399782E+04  0.7818609E-02  0.8953976E-01
       -2   -1    0    0    0  501  0.00000000000E+00  0.00000000000E+00  0.47309899453E+03  0.47309899454E+03  0.25500000920E-02 0.  1.
        2   -1    0    0  501    0  0.00000000000E+00  0.00000000000E+00 -0.10354015579E+04  0.10354015579E+04  0.25500000920E-02 0. -1.
    10030    2    1    2    0    0  0.00000000000E+00  0.00000000000E+00 -0.56230256339E+03  0.15085005525E+04  0.13997820345E+04 0.  0.
        2    1    3    3  502    0  0.58326197582E+02  0.50546419670E+03  0.23674809969E+03  0.56120019795E+03  0.25500000920E-02 0.  1.
       -2    1    3    3    0  502 -0.58326197582E+02 -0.50546419670E+03 -0.79905066309E+03  0.94730035451E+03  0.25500000920E-02 0. -1.
</event>
<event>
 5   0  0.2428507E-05  0.1399779E+04  0.7818609E-02  0.8953979E-01
        1   -1    0    0  501    0  0.00000000000E+00  0.00000000000E+00  0.11847135165E+04  0.11847135165E+04  0.50400001928E-02 0.  1.
       -1   -1    0    0    0  501  0.00000000000E+00  0.00000000000E+00 -0.41347141085E+03  0.41347141088E+03  0.50400001928E-02 0. -1.
    10030    2    1    2    0    0  0.00000000000E+00  0.00000000000E+00  0.77124210563E+03  0.15981849274E+04  0.13997787956E+04 0.  0.
        4    1    3    3  502    0  0.16949892039E+03  0.67887988950E+03  0.40315218371E+03  0.80755252740E+03  0.12699999809E+01 0.  1.
       -4    1    3    3    0  502 -0.16949892039E+03 -0.67887988950E+03  0.36808992193E+03  0.79063239998E+03  0.12699999809E+01 0. -1.
</event>
<event>
 5   0  0.2428507E-05  0.1400563E+04  0.7818609E-02  0.8953411E-01
       -1   -1    0    0    0  501  0.00000000000E+00  0.00000000000E+00  0.75414364668E+03  0.75414364669E+03  0.50400001928E-02 0.  1.
        1   -1    0    0  501    0  0.00000000000E+00  0.00000000000E+00 -0.65026645770E+03  0.65026645772E+03  0.50400001928E-02 0. -1.
    10030    2    1    2    0    0  0.00000000000E+00  0.00000000000E+00  0.10387718898E+03  0.14044101044E+04  0.14005631978E+04 0.  0.
        4    1    3    3  502    0 -0.53681215525E+03 -0.44693318720E+03  0.20410790757E+01  0.69851438263E+03  0.12699999809E+01 0.  1.
       -4    1    3    3    0  502  0.53681215525E+03  0.44693318720E+03  0.10183610990E+03  0.70589572178E+03  0.12699999809E+01 0. -1.
</event>
<event>
 5   0  0.2363419E-05  0.1400217E+04  0.7818609E-02  0.8953662E-01
       -1   -1    0    0    0  501  0.00000000000E+00  0.00000000000E+00  0.55339855127E+03  0.55339855129E+03  0.50400001928E-02 0. -1.
        1   -1    0    0  501    0  0.00000000000E+00  0.00000000000E+00 -0.88571211959E+03  0.88571211960E+03  0.50400001928E-02 0.  1.
    10030    2    1    2    0    0  0.00000000000E+00  0.00000000000E+00 -0.33231356832E+03  0.14391106709E+04  0.14002168458E+04 0.  0.
        2    1    3    3  502    0  0.46640961030E+03  0.41433703234E+03 -0.49269029284E+03  0.79495712187E+03  0.25500000920E-02 0.  1.
       -2    1    3    3    0  502 -0.46640961030E+03 -0.41433703234E+03  0.16037672451E+03  0.64415354903E+03  0.25500000920E-02 0. -1.
</event>
<event>
 5   0  0.4243281E-05  0.1400197E+04  0.7818609E-02  0.8953676E-01
       -2   -1    0    0    0  501  0.00000000000E+00  0.00000000000E+00  0.52161557124E+03  0.52161557124E+03  0.25500000920E-02 0. -1.
        2   -1    0    0  501    0  0.00000000000E+00  0.00000000000E+00 -0.93965306008E+03  0.93965306009E+03  0.25500000920E-02 0.  1.
    10030    2    1    2    0    0  0.00000000000E+00  0.00000000000E+00 -0.41803748885E+03  0.14612686313E+04  0.14001966543E+04 0.  0.
        2    1    3    3  502    0 -0.66540822518E+02  0.40314937366E+03 -0.80230412475E+03  0.90036048732E+03  0.25500000920E-02 0.  1.
       -2    1    3    3    0  502  0.66540822518E+02 -0.40314937366E+03  0.38426663590E+03  0.56090814401E+03  0.25500000920E-02 0. -1.
</event>
<event>
 5   0  0.4460282E-05  0.1399867E+04  0.7818609E-02  0.8953914E-01
       -2   -1    0    0    0  501  0.00000000000E+00  0.00000000000E+00  0.50304642144E+03  0.50304642145E+03  0.25500000920E-02 0. -1.
        2   -1    0    0  501    0  0.00000000000E+00  0.00000000000E+00 -0.97388075689E+03  0.97388075689E+03  0.25500000920E-02 0.  1.
    10030    2    1    2    0    0  0.00000000000E+00  0.00000000000E+00 -0.47083433545E+03  0.14769271783E+04  0.13998674647E+04 0.  0.
        1    1    3    3  502    0  0.58842339371E+03  0.35088535025E+03 -0.38664130552E+03  0.78667281537E+03  0.50400001928E-02 0.  1.
       -1    1    3    3    0  502 -0.58842339371E+03 -0.35088535025E+03 -0.84193029925E+02  0.69025436297E+03  0.50400001928E-02 0. -1.
</event>
<event>
 5   0  0.1661000E-05  0.1399625E+04  0.7818609E-02  0.8954090E-01
       -4   -1    0    0    0  501  0.00000000000E+00  0.00000000000E+00  0.13713415877E+04  0.13713421758E+04  0.12699999809E+01 0. -1.
        4   -1    0    0  501    0  0.00000000000E+00  0.00000000000E+00 -0.35712124606E+03  0.35712350425E+03  0.12699999809E+01 0.  1.
    10030    2    1    2    0    0  0.00000000000E+00  0.00000000000E+00  0.10142203417E+04  0.17284656801E+04  0.13996252019E+04 0.  0.
        4    1    3    3  502    0  0.65507344202E+03 -0.24613016309E+03  0.49982586700E+03  0.85995859310E+03  0.12699999809E+01 0. -1.
       -4    1    3    3    0  502 -0.65507344202E+03  0.24613016309E+03  0.51439447468E+03  0.86850708696E+03  0.12699999809E+01 0.  1.
</event>
<event>
 5   0  0.4460282E-05  0.1399000E+04  0.7818609E-02  0.8954543E-01
       -2   -1    0    0    0  501  0.00000000000E+00  0.00000000000E+00  0.34456591065E+03  0.34456591066E+03  0.25500000920E-02 0. -1.
        2   -1    0    0  501    0  0.00000000000E+00  0.00000000000E+00 -0.14200487349E+04  0.14200487349E+04  0.25500000920E-02 0.  1.
    10030    2    1    2    0    0  0.00000000000E+00  0.00000000000E+00 -0.10754828243E+04  0.17646146456E+04  0.13990001937E+04 0.  0.
        1    1    3    3  502    0  0.25669626946E+03  0.14289171705E+02 -0.13582943255E+04  0.13824111652E+04  0.50400001928E-02 0.  1.
       -1    1    3    3    0  502 -0.25669626946E+03 -0.14289171705E+02  0.28281150116E+03  0.38220348036E+03  0.50400001928E-02 0. -1.
</event>
<event>
 5   0  0.2427569E-05  0.1399451E+04  0.7818609E-02  0.8954216E-01
        1   -1    0    0  501    0  0.00000000000E+00  0.00000000000E+00  0.60345540717E+03  0.60345540719E+03  0.50400001928E-02 0. -1.
       -1   -1    0    0    0  501  0.00000000000E+00  0.00000000000E+00 -0.81135357144E+03  0.81135357146E+03  0.50400001928E-02 0.  1.
    10030    2    1    2    0    0  0.00000000000E+00  0.00000000000E+00 -0.20789816427E+03  0.14148089786E+04  0.13994508921E+04 0.  0.
        1    1    3    3  502    0  0.20330476682E+02  0.66803623034E+02 -0.80782225873E+03  0.81083466506E+03  0.50400001928E-02 0.  1.
       -1    1    3    3    0  502 -0.20330476682E+02 -0.66803623034E+02  0.59992409446E+03  0.60397431359E+03  0.50400001928E-02 0. -1.
</event>
<event>
 5   0  0.4621450E-05  0.1399194E+04  0.7818609E-02  0.8954402E-01
       -2   -1    0    0    0  501  0.00000000000E+00  0.00000000000E+00  0.82423955664E+03  0.82423955665E+03  0.25500000920E-02 0.  1.
        2   -1    0    0  501    0  0.00000000000E+00  0.00000000000E+00 -0.59380285118E+03  0.59380285118E+03  0.25500000920E-02 0. -1.
    10030    2    1    2    0    0  0.00000000000E+00  0.00000000000E+00  0.23043670546E+03  0.14180424078E+04  0.13991937661E+04 0.  0.
        5    1    3    3  502    0 -0.26649159607E+03  0.64079970673E+03  0.20456302114E+03  0.72354001585E+03  0.46999998093E+01 0. -1.
       -5    1    3    3    0  502  0.26649159607E+03 -0.64079970673E+03  0.25873684328E+02  0.69450239198E+03  0.46999998093E+01 0.  1.
</event>
<event>
 5   0  0.1661000E-05  0.1400196E+04  0.7818609E-02  0.8953677E-01
        3   -1    0    0  501    0  0.00000000000E+00  0.00000000000E+00  0.54058128021E+03  0.54058128965E+03  0.10100000352E+00 0. -1.
       -3   -1    0    0    0  501  0.00000000000E+00  0.00000000000E+00 -0.90668551568E+03  0.90668552131E+03  0.10100000352E+00 0.  1.
    10030    2    1    2    0    0  0.00000000000E+00  0.00000000000E+00 -0.36610423547E+03  0.14472668110E+04  0.14001960259E+04 0.  0.
        1    1    3    3  502    0  0.46508181675E+03 -0.33271883915E+03  0.23442474523E+03  0.61802741315E+03  0.50400001928E-02 0. -1.
       -1    1    3    3    0  502 -0.46508181675E+03  0.33271883915E+03 -0.60052898070E+03  0.82923939781E+03  0.50400001928E-02 0.  1.
</event>
<event>
 5   0  0.4527503E-05  0.1399391E+04  0.7818609E-02  0.8954259E-01
        2   -1    0    0  501    0  0.00000000000E+00  0.00000000000E+00  0.88222462427E+03  0.88222462427E+03  0.25500000920E-02 0. -1.
       -2   -1    0    0    0  501  0.00000000000E+00  0.00000000000E+00 -0.55493103455E+03  0.55493103455E+03  0.25500000920E-02 0.  1.
    10030    2    1    2    0    0  0.00000000000E+00  0.00000000000E+00  0.32729358972E+03  0.14371556588E+04  0.13993910439E+04 0.  0.
        4    1    3    3  502    0 -0.18903308350E+03 -0.54005708051E+03  0.57722669334E+03  0.81276529531E+03  0.12699999809E+01 0. -1.
       -4    1    3    3    0  502  0.18903308350E+03  0.54005708051E+03 -0.24993310361E+03  0.62439036351E+03  0.12699999809E+01 0.  1.
</event>
<event>
 5   0  0.4527503E-05  0.1401139E+04  0.7818609E-02  0.8952994E-01
       -2   -1    0    0    0  501  0.00000000000E+00  0.00000000000E+00  0.78982982376E+03  0.78982982377E+03  0.25500000920E-02 0.  1.
        2   -1    0    0  501    0  0.00000000000E+00  0.00000000000E+00 -0.62139710488E+03  0.62139710488E+03  0.25500000920E-02 0. -1.
    10030    2    1    2    0    0  0.00000000000E+00  0.00000000000E+00  0.16843271888E+03  0.14112269287E+04  0.14011394875E+04 0.  0.
        4    1    3    3  502    0 -0.19960430939E+03  0.65766862008E+01 -0.59211730222E+03  0.62489170711E+03  0.12699999809E+01 0. -1.
       -4    1    3    3    0  502  0.19960430939E+03 -0.65766862008E+01  0.76055002111E+03  0.78633522154E+03  0.12699999809E+01 0.  1.
</event>
<event>
 5   0  0.2363419E-05  0.1400035E+04  0.7818609E-02  0.8953793E-01
       -1   -1    0    0    0  501  0.00000000000E+00  0.00000000000E+00  0.54080427974E+03  0.54080427976E+03  0.50400001928E-02 0. -1.
        1   -1    0    0  501    0  0.00000000000E+00  0.00000000000E+00 -0.90610299843E+03  0.90610299844E+03  0.50400001928E-02 0.  1.
    10030    2    1    2    0    0  0.00000000000E+00  0.00000000000E+00 -0.36529871869E+03  0.14469072782E+04  0.14000348274E+04 0.  0.
        2    1    3    3  502    0 -0.55088427866E+03 -0.24430375846E+02  0.26301169148E+03  0.61093819786E+03  0.25500000920E-02 0. -1.
       -2    1    3    3    0  502  0.55088427866E+03  0.24430375846E+02 -0.62831041018E+03  0.83596908034E+03  0.25500000920E-02 0.  1.
</event>
<event>
 5   0  0.2467303E-05  0.1397473E+04  0.7818609E-02  0.8955650E-01
        1   -1    0    0  501    0  0.00000000000E+00  0.00000000000E+00  0.47169085163E+03  0.47169085165E+03  0.50400001928E-02 0. -1.
       -1   -1    0    0    0  501  0.00000000000E+00  0.00000000000E+00 -0.10350695088E+04  0.10350695088E+04  0.50400001928E-02 0.  1.
    10030    2    1    2    0    0  0.00000000000E+00  0.00000000000E+00 -0.56337865717E+03  0.15067603605E+04  0.13974731742E+04 0.  0.
        3    1    3    3  502    0  0.16853604496E+03 -0.52863301291E+03  0.17623059241E+03  0.58216363051E+03  0.10100000352E+00 0. -1.
       -3    1    3    3    0  502 -0.16853604496E+03  0.52863301291E+03 -0.73960924958E+03  0.92459672996E+03  0.10100000352E+00 0.  1.
</event>
<event>
 5   0  0.2316714E-05  0.1399909E+04  0.7818609E-02  0.8953884E-01
       -1   -1    0    0    0  501  0.00000000000E+00  0.00000000000E+00  0.47587217327E+03  0.47587217330E+03  0.50400001928E-02 0. -1.
        1   -1    0    0  501    0  0.00000000000E+00  0.00000000000E+00 -0.10295551518E+04  0.10295551518E+04  0.50400001928E-02 0.  1.
    10030    2    1    2    0    0  0.00000000000E+00  0.00000000000E+00 -0.55368297850E+03  0.15054273251E+04  0.13999094937E+04 0.  0.
        5    1    3    3  502    0 -0.47064585687E+03 -0.65711676351E+02  0.27578920220E+03  0.54946093678E+03  0.46999998093E+01 0. -1.
       -5    1    3    3    0  502  0.47064585687E+03  0.65711676351E+02 -0.82947218071E+03  0.95596638830E+03  0.46999998093E+01 0.  1.
</event>
<event>
 5   0  0.4527503E-05  0.1399679E+04  0.7818609E-02  0.8954051E-01
        2   -1    0    0  501    0  0.00000000000E+00  0.00000000000E+00  0.55163968038E+03  0.55163968039E+03  0.25500000920E-02 0. -1.
       -2   -1    0    0    0  501  0.00000000000E+00  0.00000000000E+00 -0.88785402803E+03  0.88785402803E+03  0.25500000920E-02 0.  1.
    10030    2    1    2    0    0  0.00000000000E+00  0.00000000000E+00 -0.33621434764E+03  0.14394937084E+04  0.13996792665E+04 0.  0.
        4    1    3    3  502    0  0.17336705995E+02 -0.37014315713E+03  0.44247020128E+03  0.57713777391E+03  0.12699999809E+01 0. -1.
       -4    1    3    3    0  502 -0.17336705995E+02  0.37014315713E+03 -0.77868454893E+03  0.86235593451E+03  0.12699999809E+01 0.  1.
</event>
<event>
 5   0  0.4621450E-05  0.1402829E+04  0.7818609E-02  0.8951773E-01
        2   -1    0    0  501    0  0.00000000000E+00  0.00000000000E+00  0.49684257240E+03  0.49684257240E+03  0.25500000920E-02 0. -1.
       -2   -1    0    0    0  501  0.00000000000E+00  0.00000000000E+00 -0.99021761577E+03  0.99021761577E+03  0.25500000920E-02 0.  1.
    10030    2    1    2    0    0  0.00000000000E+00  0.00000000000E+00 -0.49337504337E+03  0.14870601882E+04  0.14028289524E+04 0.  0.
        5    1    3    3  502    0 -0.41049758783E+03 -0.44698536286E+03 -0.61944933123E+03  0.86720455960E+03  0.46999998093E+01 0.  1.
       -5    1    3    3    0  502  0.41049758783E+03  0.44698536286E+03  0.12607428786E+03  0.61985562858E+03  0.46999998093E+01 0. -1.
</event>
<event>
 5   0  0.4460282E-05  0.1400560E+04  0.7818609E-02  0.8953413E-01
        2   -1    0    0  501    0  0.00000000000E+00  0.00000000000E+00  0.25217175807E+03  0.25217175808E+03  0.25500000920E-02 0. -1.
       -2   -1    0    0    0  501  0.00000000000E+00  0.00000000000E+00 -0.19446751271E+04  0.19446751271E+04  0.25500000920E-02 0.  1.
    10030    2    1    2    0    0  0.00000000000E+00  0.00000000000E+00 -0.16925033691E+04  0.21968468852E+04  0.14005600961E+04 0.  0.
        1    1    3    3  502    0  0.63021335585E+03  0.32883482594E+02 -0.13223829886E+04  0.14652463840E+04  0.50400001928E-02 0.  1.
       -1    1    3    3    0  502 -0.63021335585E+03 -0.32883482594E+02 -0.37012038051E+03  0.73160050124E+03  0.50400001928E-02 0. -1.
</event>
<event>
 5   0  0.4460282E-05  0.1400555E+04  0.7818609E-02  0.8953417E-01
        2   -1    0    0  501    0  0.00000000000E+00  0.00000000000E+00  0.96732758500E+03  0.96732758501E+03  0.25500000920E-02 0.  1.
       -2   -1    0    0    0  501  0.00000000000E+00  0.00000000000E+00 -0.50695177151E+03  0.50695177152E+03  0.25500000920E-02 0. -1.
    10030    2    1    2    0    0  0.00000000000E+00  0.00000000000E+00  0.46037581349E+03  0.14742793565E+04  0.14005547942E+04 0.  0.
        1    1    3    3  502    0 -0.58386324242E+03  0.25434566215E+03 -0.76346133937E+02  0.64141775303E+03  0.50400001928E-02 0. -1.
       -1    1    3    3    0  502  0.58386324242E+03 -0.25434566215E+03  0.53672194743E+03  0.83286160350E+03  0.50400001928E-02 0.  1.
</event>
<event>
 5   0  0.2316714E-05  0.1400566E+04  0.7818609E-02  0.8953409E-01
        1   -1    0    0  501    0  0.00000000000E+00  0.00000000000E+00  0.51776708689E+03  0.51776708691E+03  0.50400001928E-02 0. -1.
       -1   -1    0    0    0  501  0.00000000000E+00  0.00000000000E+00 -0.94713678834E+03  0.94713678835E+03  0.50400001928E-02 0.  1.
    10030    2    1    2    0    0  0.00000000000E+00  0.00000000000E+00 -0.42936970145E+03  0.14649038753E+04  0.14005659653E+04 0.  0.
        5    1    3    3  502    0  0.58216840913E+03 -0.14048336417E+03 -0.59428729743E+03  0.84371506688E+03  0.46999998093E+01 0.  1.
       -5    1    3    3    0  502 -0.58216840913E+03  0.14048336417E+03  0.16491759598E+03  0.62118880838E+03  0.46999998093E+01 0. -1.
</event>
<event>
 5   0  0.2316714E-05  0.1399180E+04  0.7818609E-02  0.8954413E-01
        1   -1    0    0  501    0  0.00000000000E+00  0.00000000000E+00  0.97929672877E+03  0.97929672878E+03  0.50400001928E-02 0. -1.
       -1   -1    0    0    0  501  0.00000000000E+00  0.00000000000E+00 -0.49977281190E+03  0.49977281193E+03  0.50400001928E-02 0.  1.
    10030    2    1    2    0    0  0.00000000000E+00  0.00000000000E+00  0.47952391686E+03  0.14790695407E+04  0.13991795880E+04 0.  0.
        5    1    3    3  502    0 -0.21087291681E+03 -0.65782977154E+03  0.12301895445E+03  0.70168593296E+03  0.46999998093E+01 0.  1.
       -5    1    3    3    0  502  0.21087291681E+03  0.65782977154E+03  0.35650496241E+03  0.77738360774E+03  0.46999998093E+01 0. -1.
</event>
<event>
 5   0  0.4527503E-05  0.1401093E+04  0.7818609E-02  0.8953027E-01
       -2   -1    0    0    0  501  0.00000000000E+00  0.00000000000E+00  0.43361086610E+03  0.43361086611E+03  0.25500000920E-02 0. -1.
        2   -1    0    0  501    0  0.00000000000E+00  0.00000000000E+00 -0.11318112518E+04  0.11318112518E+04  0.25500000920E-02 0.  1.
    10030    2    1    2    0    0  0.00000000000E+00  0.00000000000E+00 -0.69820038571E+03  0.15654221179E+04  0.14010933690E+04 0.  0.
        4    1    3    3  502    0  0.11524304500E+03 -0.65420781711E+03 -0.59766864264E+03  0.89357610011E+03  0.12699999809E+01 0.  1.
       -4    1    3    3    0  502 -0.11524304500E+03  0.65420781711E+03 -0.10053174307E+03  0.67184601782E+03  0.12699999809E+01 0. -1.
</event>
<event>
 5   0  0.2428507E-05  0.1399894E+04  0.7818609E-02  0.8953895E-01
        1   -1    0    0  501    0  0.00000000000E+00  0.00000000000E+00  0.11308284927E+04  0.11308284927E+04  0.50400001928E-02 0.  1.
       -1   -1    0    0    0  501  0.00000000000E+00  0.00000000000E+00 -0.43324491805E+03  0.43324491808E+03  0.50400001928E-02 0. -1.
    10030    2    1    2    0    0  0.00000000000E+00  0.00000000000E+00  0.69758357463E+03  0.15640734108E+04  0.13998938498E+04 0.  0.
        4    1    3    3  502    0 -0.29234734082E+03  0.18377635895E+03 -0.33145042283E+03  0.47864570769E+03  0.12699999809E+01 0. -1.
       -4    1    3    3    0  502  0.29234734082E+03 -0.18377635895E+03  0.10290339975E+04  0.10854277031E+04  0.12699999809E+01 0.  1.
</event>
<event>
 5   0  0.4527503E-05  0.1399842E+04  0.7818609E-02  0.8953933E-01
        2   -1    0    0  501    0  0.00000000000E+00  0.00000000000E+00  0.15119089364E+04  0.15119089364E+04  0.25500000920E-02 0.  1.
       -2   -1    0    0    0  501  0.00000000000E+00  0.00000000000E+00 -0.32402059243E+03  0.32402059244E+03  0.25500000920E-02 0. -1.
    10030    2    1    2    0    0  0.00000000000E+00  0.00000000000E+00  0.11878883440E+04  0.18359295289E+04  0.13998423187E+04 0.  0.
        4    1    3    3  502    0  0.14490372563E+03  0.66215448159E+03  0.36511251103E+03  0.76990545251E+03  0.12699999809E+01 0. -1.
       -4    1    3    3    0  502 -0.14490372563E+03 -0.66215448159E+03  0.82277583297E+03  0.10660240764E+04  0.12699999809E+01 0.  1.
</event>
<event>
 5   0  0.2467303E-05  0.1400058E+04  0.7818609E-02  0.8953777E-01
       -1   -1    0    0    0  501  0.00000000000E+00  0.00000000000E+00  0.87827748212E+03  0.87827748214E+03  0.50400001928E-02 0. -1.
        1   -1    0    0  501    0  0.00000000000E+00  0.00000000000E+00 -0.55795635963E+03  0.55795635965E+03  0.50400001928E-02 0.  1.
    10030    2    1    2    0    0  0.00000000000E+00  0.00000000000E+00  0.32032112249E+03  0.14362338418E+04  0.14000578655E+04 0.  0.
        3    1    3    3  502    0  0.23741040335E+03  0.23812349897E+03  0.79000727336E+03  0.85859070723E+03  0.10100000352E+00 0. -1.
       -3    1    3    3    0  502 -0.23741040335E+03 -0.23812349897E+03 -0.46968615087E+03  0.57764313455E+03  0.10100000352E+00 0.  1.
</event>
<event>
 5   0  0.2428507E-05  0.1401069E+04  0.7818609E-02  0.8953045E-01
        1   -1    0    0  501    0  0.00000000000E+00  0.00000000000E+00  0.69206597823E+03  0.69206597824E+03  0.50400001928E-02 0.  1.
       -1   -1    0    0    0  501  0.00000000000E+00  0.00000000000E+00 -0.70910635283E+03  0.70910635285E+03  0.50400001928E-02 0. -1.
    10030    2    1    2    0    0  0.00000000000E+00  0.00000000000E+00 -0.17040374603E+02  0.14011723311E+04  0.14010687089E+04 0.  0.
        4    1    3    3  502    0  0.18937462333E+03 -0.11795350638E+03 -0.67262576742E+03  0.70866269376E+03  0.12699999809E+01 0. -1.
       -4    1    3    3    0  502 -0.18937462333E+03  0.11795350638E+03  0.65558539281E+03  0.69250963733E+03  0.12699999809E+01 0.  1.
</event>
<event>
 5   0  0.2363419E-05  0.1400762E+04  0.7818609E-02  0.8953267E-01
       -1   -1    0    0    0  501  0.00000000000E+00  0.00000000000E+00  0.30801488157E+03  0.30801488161E+03  0.50400001928E-02 0. -1.
        1   -1    0    0  501    0  0.00000000000E+00  0.00000000000E+00 -0.15925640937E+04  0.15925640937E+04  0.50400001928E-02 0.  1.
    10030    2    1    2    0    0  0.00000000000E+00  0.00000000000E+00 -0.12845492121E+04  0.19005789753E+04  0.14007618509E+04 0.  0.
        2    1    3    3  502    0  0.21003844435E+03  0.19477254804E+03  0.22490192843E+03  0.36418864753E+03  0.25500000920E-02 0. -1.
       -2    1    3    3    0  502 -0.21003844435E+03 -0.19477254804E+03 -0.15094511406E+04  0.15363903278E+04  0.25500000920E-02 0.  1.
</event>
<event>
 5   0  0.4460282E-05  0.1399820E+04  0.7818609E-02  0.8953949E-01
       -2   -1    0    0    0  501  0.00000000000E+00  0.00000000000E+00  0.45989020062E+03  0.45989020063E+03  0.25500000920E-02 0.  1.
        2   -1    0    0  501    0  0.00000000000E+00  0.00000000000E+00 -0.10651975646E+04  0.10651975646E+04  0.25500000920E-02 0. -1.
    10030    2    1    2    0    0  0.00000000000E+00  0.00000000000E+00 -0.60530736395E+03  0.15250877652E+04  0.13998198765E+04 0.  0.
        1    1    3    3  502    0 -0.62858639600E+03 -0.13248251457E+03  0.62337073344E-01  0.64239588870E+03  0.50400001928E-02 0. -1.
       -1    1    3    3    0  502  0.62858639600E+03  0.13248251457E+03 -0.60536970102E+03  0.88269187650E+03  0.50400001928E-02 0.  1.
</event>
<event>
 5   0  0.2427569E-05  0.1400207E+04  0.7818609E-02  0.8953669E-01
       -1   -1    0    0    0  501  0.00000000000E+00  0.00000000000E+00  0.35631449205E+03  0.35631449208E+03  0.50400001928E-02 0.  1.
        1   -1    0    0  501    0  0.00000000000E+00  0.00000000000E+00 -0.13755968119E+04  0.13755968119E+04  0.50400001928E-02 0. -1.
    10030    2    1    2    0    0  0.00000000000E+00  0.00000000000E+00 -0.10192823199E+04  0.17319113040E+04  0.14002072409E+04 0.  0.
        1    1    3    3  502    0  0.43532677647E+02 -0.67775609247E+03 -0.29938090590E+03  0.74221111670E+03  0.50400001928E-02 0. -1.
       -1    1    3    3    0  502 -0.43532677647E+02  0.67775609247E+03 -0.71990141396E+03  0.98970018731E+03  0.50400001928E-02 0.  1.
</event>
<event>
 5   0  0.4460282E-05  0.1399794E+04  0.7818609E-02  0.8953968E-01
       -2   -1    0    0    0  501  0.00000000000E+00  0.00000000000E+00  0.15119921646E+04  0.15119921646E+04  0.25500000920E-02 0.  1.
        2   -1    0    0  501    0  0.00000000000E+00  0.00000000000E+00 -0.32398018780E+03  0.32398018781E+03  0.25500000920E-02 0. -1.
    10030    2    1    2    0    0  0.00000000000E+00  0.00000000000E+00  0.11880119768E+04  0.18359723524E+04  0.13997935640E+04 0.  0.
        1    1    3    3  502    0  0.32255736925E+03  0.29782451291E+03 -0.12092287651E+03  0.45537351596E+03  0.50400001928E-02 0. -1.
       -1    1    3    3    0  502 -0.32255736925E+03 -0.29782451291E+03  0.13089348533E+04  0.13805988364E+04  0.50400001928E-02 0.  1.
</event>
<event>
 5   0  0.4243281E-05  0.1402020E+04  0.7818609E-02  0.8952358E-01
       -2   -1    0    0    0  501  0.00000000000E+00  0.00000000000E+00  0.48952898311E+03  0.48952898312E+03  0.25500000920E-02 0. -1.
        2   -1    0    0  501    0  0.00000000000E+00  0.00000000000E+00 -0.10038523862E+04  0.10038523862E+04  0.25500000920E-02 0.  1.
    10030    2    1    2    0    0  0.00000000000E+00  0.00000000000E+00 -0.51432340310E+03  0.14933813693E+04  0.14020197400E+04 0.  0.
        2    1    3    3  502    0  0.19483742951E+03  0.36712312498E+03 -0.85845975395E+03  0.95377888527E+03  0.25500000920E-02 0.  1.
       -2    1    3    3    0  502 -0.19483742951E+03 -0.36712312498E+03  0.34413635085E+03  0.53960248407E+03  0.25500000920E-02 0. -1.
</event>
<event>
 5   0  0.4527503E-05  0.1399817E+04  0.7818609E-02  0.8953951E-01
       -2   -1    0    0    0  501  0.00000000000E+00  0.00000000000E+00  0.20135701993E+03  0.20135701995E+03  0.25500000920E-02 0. -1.
        2   -1    0    0  501    0  0.00000000000E+00  0.00000000000E+00 -0.24328508629E+04  0.24328508629E+04  0.25500000920E-02 0.  1.
    10030    2    1    2    0    0  0.00000000000E+00  0.00000000000E+00 -0.22314938430E+04  0.26342078829E+04  0.13998165590E+04 0.  0.
        4    1    3    3  502    0  0.52883776193E+03  0.41894970077E+03 -0.76529418024E+03  0.10202279282E+04  0.12699999809E+01 0.  1.
       -4    1    3    3    0  502 -0.52883776193E+03 -0.41894970077E+03 -0.14661996627E+04  0.16139799547E+04  0.12699999809E+01 0. -1.
</event>
<event>
 5   0  0.2428507E-05  0.1400531E+04  0.7818609E-02  0.8953434E-01
        1   -1    0    0  501    0  0.00000000000E+00  0.00000000000E+00  0.88693380489E+03  0.88693380491E+03  0.50400001928E-02 0. -1.
       -1   -1    0    0    0  501  0.00000000000E+00  0.00000000000E+00 -0.55288423691E+03  0.55288423694E+03  0.50400001928E-02 0.  1.
    10030    2    1    2    0    0  0.00000000000E+00  0.00000000000E+00  0.33404956798E+03  0.14398180418E+04  0.14005309278E+04 0.  0.
        4    1    3    3  502    0 -0.29302469796E+03  0.63331620678E+03  0.10692801811E+03  0.70596607946E+03  0.12699999809E+01 0. -1.
       -4    1    3    3    0  502  0.29302469796E+03 -0.63331620678E+03  0.22712154987E+03  0.73385196239E+03  0.12699999809E+01 0.  1.
</event>
<event>
 5   0  0.2427569E-05  0.1400302E+04  0.7818609E-02  0.8953600E-01
       -1   -1    0    0    0  501  0.00000000000E+00  0.00000000000E+00  0.39740456879E+03  0.39740456883E+03  0.50400001928E-02 0. -1.
        1   -1    0    0  501    0  0.00000000000E+00  0.00000000000E+00 -0.12335325974E+04  0.12335325974E+04  0.50400001928E-02 0.  1.
    10030    2    1    2    0    0  0.00000000000E+00  0.00000000000E+00 -0.83612802857E+03  0.16309371662E+04  0.14003020960E+04 0.  0.
        1    1    3    3  502    0 -0.62709564311E+03  0.27042236269E+03 -0.59787515713E+03  0.90765186244E+03  0.50400001928E-02 0. -1.
       -1    1    3    3    0  502  0.62709564311E+03 -0.27042236269E+03 -0.23825287144E+03  0.72328530376E+03  0.50400001928E-02 0.  1.
</event>
<event>
 5   0  0.4527503E-05  0.1400488E+04  0.7818609E-02  0.8953465E-01
        2   -1    0    0  501    0  0.00000000000E+00  0.00000000000E+00  0.57694941696E+03  0.57694941697E+03  0.25500000920E-02 0. -1.
       -2   -1    0    0    0  501  0.00000000000E+00  0.00000000000E+00 -0.84988680255E+03  0.84988680256E+03  0.25500000920E-02 0.  1.
    10030    2    1    2    0    0  0.00000000000E+00  0.00000000000E+00 -0.27293738559E+03  0.14268362195E+04  0.14004880510E+04 0.  0.
        4    1    3    3  502    0  0.29970662307E+03 -0.11441683362E+03  0.49767610212E+03  0.59211349186E+03  0.12699999809E+01 0. -1.
       -4    1    3    3    0  502 -0.29970662307E+03  0.11441683362E+03 -0.77061348771E+03  0.83472272766E+03  0.12699999809E+01 0.  1.
</event>
<event>
 5   0  0.4621450E-05  0.1399797E+04  0.7818609E-02  0.8953966E-01
        2   -1    0    0  501    0  0.00000000000E+00  0.00000000000E+00  0.15158510472E+04  0.15158510472E+04  0.25500000920E-02 0. -1.
       -2   -1    0    0    0  501  0.00000000000E+00  0.00000000000E+00 -0.32315701871E+03  0.32315701872E+03  0.25500000920E-02 0.  1.
    10030    2    1    2    0    0  0.00000000000E+00  0.00000000000E+00  0.11926940285E+04  0.18390080659E+04  0.13997969928E+04 0.  0.
        5    1    3    3  502    0 -0.63128225873E+02  0.12470499800E+03  0.14973075054E+04  0.15038245793E+04  0.46999998093E+01 0. -1.
       -5    1    3    3    0  502  0.63128225873E+02 -0.12470499800E+03 -0.30461347690E+03  0.33518348667E+03  0.46999998093E+01 0.  1.
</event>
<event>
 5   0  0.2363419E-05  0.1399742E+04  0.7818609E-02  0.8954005E-01
       -1   -1    0    0    0  501  0.00000000000E+00  0.00000000000E+00  0.55826407437E+03  0.55826407439E+03  0.50400001928E-02 0. -1.
        1   -1    0    0  501    0  0.00000000000E+00  0.00000000000E+00 -0.87739787183E+03  0.87739787185E+03  0.50400001928E-02 0.  1.
    10030    2    1    2    0    0  0.00000000000E+00  0.00000000000E+00 -0.31913379746E+03  0.14356619462E+04  0.13997424203E+04 0.  0.
        2    1    3    3  502    0 -0.26495972126E+03 -0.32623029762E+03  0.41442782980E+03  0.59023748364E+03  0.25500000920E-02 0. -1.
       -2    1    3    3    0  502  0.26495972126E+03  0.32623029762E+03 -0.73356162726E+03  0.84542446260E+03  0.25500000920E-02 0.  1.
</event>
<event>
 5   0  0.1661000E-05  0.1400552E+04  0.7818609E-02  0.8953419E-01
        3   -1    0    0  501    0  0.00000000000E+00  0.00000000000E+00  0.10775066498E+04  0.10775066545E+04  0.10100000352E+00 0.  1.
       -3   -1    0    0    0  501  0.00000000000E+00  0.00000000000E+00 -0.45511194740E+03  0.45511195861E+03  0.10100000352E+00 0. -1.
    10030    2    1    2    0    0  0.00000000000E+00  0.00000000000E+00  0.62239470237E+03  0.15326186131E+04  0.14005515513E+04 0.  0.
        5    1    3    3  502    0 -0.86263493916E+02  0.38751418975E+03  0.94244180458E+03  0.10226569721E+04  0.46999998093E+01 0.  1.
       -5    1    3    3    0  502  0.86263493916E+02 -0.38751418975E+03 -0.32004710221E+03  0.50996164098E+03  0.46999998093E+01 0. -1.
</event>
<event>
 5   0  0.2467303E-05  0.1398909E+04  0.7818609E-02  0.8954609E-01
        1   -1    0    0  501    0  0.00000000000E+00  0.00000000000E+00  0.63292241430E+03  0.63292241432E+03  0.50400001928E-02 0. -1.
       -1   -1    0    0    0  501  0.00000000000E+00  0.00000000000E+00 -0.77298031636E+03  0.77298031637E+03  0.50400001928E-02 0.  1.
    10030    2    1    2    0    0  0.00000000000E+00  0.00000000000E+00 -0.14005790205E+03  0.14059027307E+04  0.13989089578E+04 0.  0.
        3    1    3    3  502    0 -0.26057169479E+03 -0.22895698503E+03  0.54039355757E+03  0.64214026224E+03  0.10100000352E+00 0. -1.
       -3    1    3    3    0  502  0.26057169479E+03  0.22895698503E+03 -0.68045145962E+03  0.76376246846E+03  0.10100000352E+00 0.  1.
</event>
<event>
 5   0  0.4243281E-05  0.1401822E+04  0.7818609E-02  0.8952501E-01
       -2   -1    0    0    0  501  0.00000000000E+00  0.00000000000E+00  0.10719662262E+04  0.10719662262E+04  0.25500000920E-02 0. -1.
        2   -1    0    0  501    0  0.00000000000E+00  0.00000000000E+00 -0.45829469875E+03  0.45829469876E+03  0.25500000920E-02 0.  1.
    10030    2    1    2    0    0  0.00000000000E+00  0.00000000000E+00  0.61367152740E+03  0.15302609249E+04  0.14018222979E+04 0.  0.
        2    1    3    3  502    0  0.48438563565E+03  0.19041108382E+03 -0.20563497423E+03  0.55961734024E+03  0.25500000920E-02 0.  1.
       -2    1    3    3    0  502 -0.48438563565E+03 -0.19041108382E+03  0.81930650162E+03  0.97064358468E+03  0.25500000920E-02 0. -1.
</event>
<event>
 5   0  0.4527503E-05  0.1398877E+04  0.7818609E-02  0.8954632E-01
        2   -1    0    0  501    0  0.00000000000E+00  0.00000000000E+00  0.18930457289E+04  0.18930457289E+04  0.25500000920E-02 0.  1.
       -2   -1    0    0    0  501  0.00000000000E+00  0.00000000000E+00 -0.25842691185E+03  0.25842691186E+03  0.25500000920E-02 0. -1.
    10030    2    1    2    0    0  0.00000000000E+00  0.00000000000E+00  0.16346188170E+04  0.21514726408E+04  0.13988766375E+04 0.  0.
        4    1    3    3  502    0  0.34844690262E+03 -0.13971023453E+03  0.17249617416E+04  0.17653409916E+04  0.12699999809E+01 0.  1.
       -4    1    3    3    0  502 -0.34844690262E+03  0.13971023453E+03 -0.90342924584E+02  0.38613164918E+03  0.12699999809E+01 0. -1.
</event>
<event>
 5   0  0.2427569E-05  0.1398178E+04  0.7818609E-02  0.8955138E-01
        1   -1    0    0  501    0  0.00000000000E+00  0.00000000000E+00  0.63247965631E+03  0.63247965633E+03  0.50400001928E-02 0.  1.
       -1   -1    0    0    0  501  0.00000000000E+00  0.00000000000E+00 -0.77271374368E+03  0.77271374369E+03  0.50400001928E-02 0. -1.
    10030    2    1    2    0    0  0.00000000000E+00  0.00000000000E+00 -0.14023408737E+03  0.14051934000E+04  0.13981784193E+04 0.  0.
        1    1    3    3  502    0  0.10808699889E+03  0.66166097920E+03  0.12898717365E+03  0.68272669621E+03  0.50400001928E-02 0.  1.
       -1    1    3    3    0  502 -0.10808699889E+03 -0.66166097920E+03 -0.26922126102E+03  0.72246670382E+03  0.50400001928E-02 0. -1.
</event>
<event>
 5   0  0.2427569E-05  0.1400378E+04  0.7818609E-02  0.8953545E-01
       -1   -1    0    0    0  501  0.00000000000E+00  0.00000000000E+00  0.97626426918E+03  0.97626426919E+03  0.50400001928E-02 0. -1.
        1   -1    0    0  501    0  0.00000000000E+00  0.00000000000E+00 -0.50218421723E+03  0.50218421725E+03  0.50400001928E-02 0.  1.
    10030    2    1    2    0    0  0.00000000000E+00  0.00000000000E+00  0.47408005195E+03  0.14784484864E+04  0.14003778174E+04 0.  0.
        1    1    3    3  502    0  0.39987570178E+03  0.17979540077E+03 -0.33932346455E+03  0.55440722996E+03  0.50400001928E-02 0.  1.
       -1    1    3    3    0  502 -0.39987570178E+03 -0.17979540077E+03  0.81340351650E+03  0.92404125648E+03  0.50400001928E-02 0. -1.
</event>
<event>
 5   0  0.4441253E-05  0.1400141E+04  0.7818609E-02  0.8953716E-01
        2   -1    0    0  501    0  0.00000000000E+00  0.00000000000E+00  0.15594252014E+04  0.15594252014E+04  0.25500000920E-02 0.  1.
       -2   -1    0    0    0  501  0.00000000000E+00  0.00000000000E+00 -0.31428164494E+03  0.31428164495E+03  0.25500000920E-02 0. -1.
    10030    2    1    2    0    0  0.00000000000E+00  0.00000000000E+00  0.12451435565E+04  0.18737068464E+04  0.14001410179E+04 0.  0.
        3    1    3    3  502    0  0.49686263528E+03  0.11277689578E+03  0.12650708287E+04  0.13638164533E+04  0.10100000352E+00 0.  1.
       -3    1    3    3    0  502 -0.49686263528E+03 -0.11277689578E+03 -0.19927272201E+02  0.50989039306E+03  0.10100000352E+00 0. -1.
</event>
<event>
 5   0  0.2428507E-05  0.1399939E+04  0.7818609E-02  0.8953863E-01
       -1   -1    0    0    0  501  0.00000000000E+00  0.00000000000E+00  0.67594739755E+03  0.67594739757E+03  0.50400001928E-02 0. -1.
        1   -1    0    0  501    0  0.00000000000E+00  0.00000000000E+00 -0.72484492529E+03  0.72484492531E+03  0.50400001928E-02 0.  1.
    10030    2    1    2    0    0  0.00000000000E+00  0.00000000000E+00 -0.48897527746E+02  0.14007923229E+04  0.13999386285E+04 0.  0.
        4    1    3    3  502    0 -0.23284914554E+03 -0.18564452936E+03  0.60939850514E+03  0.67827042309E+03  0.12699999809E+01 0. -1.
       -4    1    3    3    0  502  0.23284914554E+03  0.18564452936E+03 -0.65829603289E+03  0.72252189979E+03  0.12699999809E+01 0.  1.
</event>
<event>
 5   0  0.2427569E-05  0.1400123E+04  0.7818609E-02  0.8953729E-01
        1   -1    0    0  501    0  0.00000000000E+00  0.00000000000E+00  0.11673148891E+04  0.11673148892E+04  0.50400001928E-02 0.  1.
       -1   -1    0    0    0  501  0.00000000000E+00  0.00000000000E+00 -0.41984060961E+03  0.41984060964E+03  0.50400001928E-02 0. -1.
    10030    2    1    2    0    0  0.00000000000E+00  0.00000000000E+00  0.74747427954E+03  0.15871554988E+04  0.14001231299E+04 0.  0.
        1    1    3    3  502    0 -0.56948680946E+03 -0.49895024348E+02 -0.84322132604E+02  0.57785375458E+03  0.50400001928E-02 0. -1.
       -1    1    3    3    0  502  0.56948680946E+03  0.49895024348E+02  0.83179641214E+03  0.10093017442E+04  0.50400001928E-02 0.  1.
</event>
<event>
 5   0  0.2427569E-05  0.1399624E+04  0.7818609E-02  0.8954091E-01
        1   -1    0    0  501    0  0.00000000000E+00  0.00000000000E+00  0.10784884624E+04  0.10784884624E+04  0.50400001928E-02 0. -1.
       -1   -1    0    0    0  501  0.00000000000E+00  0.00000000000E+00 -0.45409530313E+03  0.45409530315E+03  0.50400001928E-02 0.  1.
    10030    2    1    2    0    0  0.00000000000E+00  0.00000000000E+00  0.62439315926E+03  0.15325837656E+04  0.13996235855E+04 0.  0.
        1    1    3    3  502    0 -0.74576317868E+02  0.29531915817E+03  0.10020982073E+04  0.10473661487E+04  0.50400001928E-02 0. -1.
       -1    1    3    3    0  502  0.74576317868E+02 -0.29531915817E+03 -0.37770504803E+03  0.48521761685E+03  0.50400001928E-02 0.  1.
</event>
<event>
 5   0  0.2467303E-05  0.1399719E+04  0.7818609E-02  0.8954022E-01
       -1   -1    0    0    0  501  0.00000000000E+00  0.00000000000E+00  0.48922351683E+03  0.48922351685E+03  0.50400001928E-02 0.  1.
        1   -1    0    0  501    0  0.00000000000E+00  0.00000000000E+00 -0.10011855328E+04  0.10011855328E+04  0.50400001928E-02 0. -1.
    10030    2    1    2    0    0  0.00000000000E+00  0.00000000000E+00 -0.51196201592E+03  0.14904090496E+04  0.13997192681E+04 0.  0.
        3    1    3    3  502    0 -0.24247619184E+03 -0.47720300590E+03 -0.73606625859E+03  0.91011590454E+03  0.10100000352E+00 0. -1.
       -3    1    3    3    0  502  0.24247619184E+03  0.47720300590E+03  0.22410424267E+03  0.58029314508E+03  0.10100000352E+00 0.  1.
</event>
<event>
 5   0  0.1661000E-05  0.1399726E+04  0.7818609E-02  0.8954017E-01
       -4   -1    0    0    0  501  0.00000000000E+00  0.00000000000E+00  0.15423453632E+04  0.15423458860E+04  0.12699999809E+01 0. -1.
        4   -1    0    0  501    0  0.00000000000E+00  0.00000000000E+00 -0.31757187170E+03  0.31757441111E+03  0.12699999809E+01 0.  1.
    10030    2    1    2    0    0  0.00000000000E+00  0.00000000000E+00  0.12247734915E+04  0.18599202971E+04  0.13997261898E+04 0.  0.
        2    1    3    3  502    0  0.96319677062E+02  0.47758890639E+03 -0.55234393829E+02  0.49032589363E+03  0.25500000920E-02 0.  1.
       -2    1    3    3    0  502 -0.96319677062E+02 -0.47758890639E+03  0.12800078853E+04  0.13695944035E+04  0.25500000920E-02 0. -1.
</event>
<event>
 5   0  0.2428507E-05  0.1398446E+04  0.7818609E-02  0.8954944E-01
        1   -1    0    0  501    0  0.00000000000E+00  0.00000000000E+00  0.11991955884E+04  0.11991955884E+04  0.50400001928E-02 0.  1.
       -1   -1    0    0    0  501  0.00000000000E+00  0.00000000000E+00 -0.40770084057E+03  0.40770084060E+03  0.50400001928E-02 0. -1.
    10030    2    1    2    0    0  0.00000000000E+00  0.00000000000E+00  0.79149474781E+03  0.16068964290E+04  0.13984463514E+04 0.  0.
        4    1    3    3  502    0 -0.11917483591E+03 -0.40776226181E+03  0.10339028944E+04  0.11177788295E+04  0.12699999809E+01 0.  1.
       -4    1    3    3    0  502  0.11917483591E+03  0.40776226181E+03 -0.24240814662E+03  0.48911759948E+03  0.12699999809E+01 0. -1.
</event>
<event>
 5   0  0.2427569E-05  0.1400267E+04  0.7818609E-02  0.8953626E-01
        1   -1    0    0  501    0  0.00000000000E+00  0.00000000000E+00  0.12286213653E+04  0.12286213653E+04  0.50400001928E-02 0. -1.
       -1   -1    0    0    0  501  0.00000000000E+00  0.00000000000E+00 -0.39897294445E+03  0.39897294448E+03  0.50400001928E-02 0.  1.
    10030    2    1    2    0    0  0.00000000000E+00  0.00000000000E+00  0.82964842081E+03  0.16275943097E+04  0.14002666657E+04 0.  0.
        1    1    3    3  502    0  0.45637756542E+03 -0.47990545990E+03  0.67885065785E+03  0.94838175244E+03  0.50400001928E-02 0. -1.
       -1    1    3    3    0  502 -0.45637756542E+03  0.47990545990E+03  0.15079776295E+03  0.67921255731E+03  0.50400001928E-02 0.  1.
</event>
<event>
 5   0  0.2427569E-05  0.1399408E+04  0.7818609E-02  0.8954247E-01
        1   -1    0    0  501    0  0.00000000000E+00  0.00000000000E+00  0.86171284797E+03  0.86171284798E+03  0.50400001928E-02 0.  1.
       -1   -1    0    0    0  501  0.00000000000E+00  0.00000000000E+00 -0.56815443539E+03  0.56815443541E+03  0.50400001928E-02 0. -1.
    10030    2    1    2    0    0  0.00000000000E+00  0.00000000000E+00  0.29355841258E+03  0.14298672834E+04  0.13994084130E+04 0.  0.
        1    1    3    3  502    0 -0.47475855895E+03  0.47399995253E+03  0.34988792792E+03  0.75663280818E+03  0.50400001928E-02 0.  1.
       -1    1    3    3    0  502  0.47475855895E+03 -0.47399995253E+03 -0.56329515337E+02  0.67323447521E+03  0.50400001928E-02 0. -1.
</event>
<event>
 5   0  0.4621450E-05  0.1399868E+04  0.7818609E-02  0.8953914E-01
        2   -1    0    0  501    0  0.00000000000E+00  0.00000000000E+00  0.19086203236E+04  0.19086203236E+04  0.25500000920E-02 0.  1.
       -2   -1    0    0    0  501  0.00000000000E+00  0.00000000000E+00 -0.25668171561E+03  0.25668171562E+03  0.25500000920E-02 0. -1.
    10030    2    1    2    0    0  0.00000000000E+00  0.00000000000E+00  0.16519386080E+04  0.21653020393E+04  0.13998684783E+04 0.  0.
        5    1    3    3  502    0 -0.32259781799E+03 -0.61867135424E+03  0.74037364445E+03  0.10173489176E+04  0.46999998093E+01 0.  1.
       -5    1    3    3    0  502  0.32259781799E+03  0.61867135424E+03  0.91156496359E+03  0.11479531217E+04  0.46999998093E+01 0. -1.
</event>
<event>
 5   0  0.4527503E-05  0.1400052E+04  0.7818609E-02  0.8953781E-01
       -2   -1    0    0    0  501  0.00000000000E+00  0.00000000000E+00  0.76571266265E+03  0.76571266266E+03  0.25500000920E-02 0. -1.
        2   -1    0    0  501    0  0.00000000000E+00  0.00000000000E+00 -0.63997405613E+03  0.63997405613E+03  0.25500000920E-02 0.  1.
    10030    2    1    2    0    0  0.00000000000E+00  0.00000000000E+00  0.12573860653E+03  0.14056867188E+04  0.14000517684E+04 0.  0.
        4    1    3    3  502    0 -0.16241899599E+03  0.67438695171E+03 -0.31620766546E+02  0.69439122739E+03  0.12699999809E+01 0.  1.
       -4    1    3    3    0  502  0.16241899599E+03 -0.67438695171E+03  0.15735937307E+03  0.71129549140E+03  0.12699999809E+01 0. -1.
</event>
<event>
 5   0  0.2316714E-05  0.1400483E+04  0.7818609E-02  0.8953469E-01
        1   -1    0    0  501    0  0.00000000000E+00  0.00000000000E+00  0.49247349945E+03  0.49247349947E+03  0.50400001928E-02 0. -1.
       -1   -1    0    0    0  501  0.00000000000E+00  0.00000000000E+00 -0.99566402729E+03  0.99566402730E+03  0.50400001928E-02 0.  1.
    10030    2    1    2    0    0  0.00000000000E+00  0.00000000000E+00 -0.50319052784E+03  0.14881375268E+04  0.14004829850E+04 0.  0.
        5    1    3    3  502    0 -0.35288600630E+03  0.23220118624E+03  0.34181099793E+03  0.54341767788E+03  0.46999998093E+01 0. -1.
       -5    1    3    3    0  502  0.35288600630E+03 -0.23220118624E+03 -0.84500152577E+03  0.94471984889E+03  0.46999998093E+01 0.  1.
</event>
<event>
 5   0  0.4527503E-05  0.1400291E+04  0.7818609E-02  0.8953608E-01
        2   -1    0    0  501    0  0.00000000000E+00  0.00000000000E+00  0.19996906063E+04  0.19996906063E+04  0.25500000920E-02 0.  1.
       -2   -1    0    0    0  501  0.00000000000E+00  0.00000000000E+00 -0.24513960799E+03  0.24513960801E+03  0.25500000920E-02 0. -1.
    10030    2    1    2    0    0  0.00000000000E+00  0.00000000000E+00  0.17545509983E+04  0.22448302143E+04  0.14002905004E+04 0.  0.
        4    1    3    3  502    0 -0.16241906851E+03  0.45044028496E+03  0.16961615957E+04  0.17624534535E+04  0.12699999809E+01 0.  1.
       -4    1    3    3    0  502  0.16241906851E+03 -0.45044028496E+03  0.58389402604E+02  0.48237676081E+03  0.12699999809E+01 0. -1.
</event>
<event>
 5   0  0.2467303E-05  0.1401090E+04  0.7818609E-02  0.8953030E-01
       -1   -1    0    0    0  501  0.00000000000E+00  0.00000000000E+00  0.75844817305E+03  0.75844817307E+03  0.50400001928E-02 0.  1.
        1   -1    0    0  501    0  0.00000000000E+00  0.00000000000E+00 -0.64706233539E+03  0.64706233541E+03  0.50400001928E-02 0. -1.
    10030    2    1    2    0    0  0.00000000000E+00  0.00000000000E+00  0.11138583766E+03  0.14055105085E+04  0.14010899274E+04 0.  0.
        3    1    3    3  502    0  0.44273137683E+03 -0.42990128910E+03  0.38830660622E+03  0.72911468305E+03  0.10100000352E+00 0.  1.
       -3    1    3    3    0  502 -0.44273137683E+03  0.42990128910E+03 -0.27692076857E+03  0.67639582543E+03  0.10100000352E+00 0. -1.
</event>
<event>
 5   0  0.4243281E-05  0.1400212E+04  0.7818609E-02  0.8953665E-01
       -2   -1    0    0    0  501  0.00000000000E+00  0.00000000000E+00  0.28166970522E+03  0.28166970523E+03  0.25500000920E-02 0. -1.
        2   -1    0    0  501    0  0.00000000000E+00  0.00000000000E+00 -0.17401523401E+04  0.17401523401E+04  0.25500000920E-02 0.  1.
    10030    2    1    2    0    0  0.00000000000E+00  0.00000000000E+00 -0.14584826349E+04  0.20218220454E+04  0.14002116936E+04 0.  0.
        2    1    3    3  502    0 -0.18954209648E+03 -0.66890967018E+03 -0.61033002249E+03  0.92513193089E+03  0.25500000920E-02 0.  1.
       -2    1    3    3    0  502  0.18954209648E+03  0.66890967018E+03 -0.84815261244E+03  0.10966901145E+04  0.25500000920E-02 0. -1.
</event>
<event>
 5   0  0.4460282E-05  0.1400407E+04  0.7818609E-02  0.8953524E-01
        2   -1    0    0  501    0  0.00000000000E+00  0.00000000000E+00  0.66786432494E+03  0.66786432495E+03  0.25500000920E-02 0. -1.
       -2   -1    0    0    0  501  0.00000000000E+00  0.00000000000E+00 -0.73410908430E+03  0.73410908431E+03  0.25500000920E-02 0.  1.
    10030    2    1    2    0    0  0.00000000000E+00  0.00000000000E+00 -0.66244759363E+02  0.14019734093E+04  0.14004074665E+04 0.  0.
        1    1    3    3  502    0 -0.29393253391E+03 -0.19205602253E+03  0.57336310804E+03  0.67232960962E+03  0.50400001928E-02 0. -1.
       -1    1    3    3    0  502  0.29393253391E+03  0.19205602253E+03 -0.63960786740E+03  0.72964379964E+03  0.50400001928E-02 0.  1.
</event>
<event>
 5   0  0.2428507E-05  0.1399642E+04  0.7818609E-02  0.8954078E-01
        1   -1    0    0  501    0  0.00000000000E+00  0.00000000000E+00  0.37695422647E+03  0.37695422650E+03  0.50400001928E-02 0.  1.
       -1   -1    0    0    0  501  0.00000000000E+00  0.00000000000E+00 -0.12992272155E+04  0.12992272156E+04  0.50400001928E-02 0. -1.
    10030    2    1    2    0    0  0.00000000000E+00  0.00000000000E+00 -0.92227298908E+03  0.16761814421E+04  0.13996416543E+04 0.  0.
        4    1    3    3  502    0  0.32448265789E+03 -0.28717713692E+03  0.19697415928E+03  0.47598333539E+03  0.12699999809E+01 0.  1.
       -4    1    3    3    0  502 -0.32448265789E+03  0.28717713692E+03 -0.11192471484E+04  0.12001981067E+04  0.12699999809E+01 0. -1.
</event>
<event>
 5   0  0.4460282E-05  0.1400050E+04  0.7818609E-02  0.8953782E-01
       -2   -1    0    0    0  501  0.00000000000E+00  0.00000000000E+00  0.35382148627E+03  0.35382148628E+03  0.25500000920E-02 0. -1.
        2   -1    0    0  501    0  0.00000000000E+00  0.00000000000E+00 -0.13849785593E+04  0.13849785593E+04  0.25500000920E-02 0.  1.
    10030    2    1    2    0    0  0.00000000000E+00  0.00000000000E+00 -0.10311570730E+04  0.17388000456E+04  0.14000502453E+04 0.  0.
        1    1    3    3  502    0  0.89533571801E+02  0.12806637470E+03  0.33188468966E+03  0.36683062040E+03  0.50400001928E-02 0. -1.
       -1    1    3    3    0  502 -0.89533571801E+02 -0.12806637470E+03 -0.13630417627E+04  0.13719694252E+04  0.50400001928E-02 0.  1.
</event>
<event>
 5   0  0.2363419E-05  0.1399476E+04  0.7818609E-02  0.8954198E-01
       -1   -1    0    0    0  501  0.00000000000E+00  0.00000000000E+00  0.79651724002E+03  0.79651724004E+03  0.50400001928E-02 0. -1.
        1   -1    0    0  501    0  0.00000000000E+00  0.00000000000E+00 -0.61471757915E+03  0.61471757917E+03  0.50400001928E-02 0.  1.
    10030    2    1    2    0    0  0.00000000000E+00  0.00000000000E+00  0.18179966087E+03  0.14112348192E+04  0.13994758298E+04 0.  0.
        2    1    3    3  502    0  0.39219711651E+02  0.43183857792E+03 -0.46290538567E+03  0.63427449834E+03  0.25500000920E-02 0.  1.
       -2    1    3    3    0  502 -0.39219711651E+02 -0.43183857792E+03  0.64470504654E+03  0.77696032087E+03  0.25500000920E-02 0. -1.
</event>
<event>
 5   0  0.4527503E-05  0.1398811E+04  0.7818609E-02  0.8954680E-01
        2   -1    0    0  501    0  0.00000000000E+00  0.00000000000E+00  0.12340055578E+04  0.12340055578E+04  0.25500000920E-02 0.  1.
       -2   -1    0    0    0  501  0.00000000000E+00  0.00000000000E+00 -0.39640676378E+03  0.39640676378E+03  0.25500000920E-02 0. -1.
    10030    2    1    2    0    0  0.00000000000E+00  0.00000000000E+00  0.83759879401E+03  0.16304123216E+04  0.13988111376E+04 0.  0.
        4    1    3    3  502    0 -0.54651574060E+03  0.38600616061E+03  0.65620494017E+03  0.93716954024E+03  0.12699999809E+01 0.  1.
       -4    1    3    3    0  502  0.54651574060E+03 -0.38600616061E+03  0.18139385384E+03  0.69324278133E+03  0.12699999809E+01 0. -1.
</event>
<event>
 5   0  0.4441253E-05  0.1399655E+04  0.7818609E-02  0.8954068E-01
       -2   -1    0    0    0  501  0.00000000000E+00  0.00000000000E+00  0.32821268093E+03  0.32821268094E+03  0.25500000920E-02 0.  1.
        2   -1    0    0  501    0  0.00000000000E+00  0.00000000000E+00 -0.14921984554E+04  0.14921984554E+04  0.25500000920E-02 0. -1.
    10030    2    1    2    0    0  0.00000000000E+00  0.00000000000E+00 -0.11639857744E+04  0.18204111363E+04  0.13996548939E+04 0.  0.
        3    1    3    3  502    0  0.60308338310E+03  0.18470984677E+03 -0.97634108927E+03  0.11623550349E+04  0.10100000352E+00 0. -1.
       -3    1    3    3    0  502 -0.60308338310E+03 -0.18470984677E+03 -0.18764468516E+03  0.65805610136E+03  0.10100000352E+00 0.  1.
</event>
<event>
 5   0  0.2363419E-05  0.1399542E+04  0.7818609E-02  0.8954150E-01
        1   -1    0    0  501    0  0.00000000000E+00  0.00000000000E+00  0.15822051508E+04  0.15822051508E+04  0.50400001928E-02 0.  1.
       -1   -1    0    0    0  501  0.00000000000E+00  0.00000000000E+00 -0.30949157055E+03  0.30949157059E+03  0.50400001928E-02 0. -1.
    10030    2    1    2    0    0  0.00000000000E+00  0.00000000000E+00  0.12727135803E+04  0.18916967214E+04  0.13995415779E+04 0.  0.
        2    1    3    3  502    0  0.38269716528E+03 -0.58584214431E+03  0.63187004346E+03  0.94282972492E+03  0.25500000920E-02 0. -1.
       -2    1    3    3    0  502 -0.38269716528E+03  0.58584214431E+03  0.64084353683E+03  0.94886699651E+03  0.25500000920E-02 0.  1.
</event>
<event>
 5   0  0.2428507E-05  0.1399868E+04  0.7818609E-02  0.8953914E-01
        1   -1    0    0  501    0  0.00000000000E+00  0.00000000000E+00  0.65800378518E+03  0.65800378520E+03  0.50400001928E-02 0. -1.
       -1   -1    0    0    0  501  0.00000000000E+00  0.00000000000E+00 -0.74453568725E+03  0.74453568726E+03  0.50400001928E-02 0.  1.
    10030    2    1    2    0    0  0.00000000000E+00  0.00000000000E+00 -0.86531902064E+02  0.14025394725E+04  0.13998675658E+04 0.  0.
        4    1    3    3  502    0  0.12267445438E+03  0.25018221028E+03  0.60003864220E+03  0.66158003683E+03  0.12699999809E+01 0. -1.
       -4    1    3    3    0  502 -0.12267445438E+03 -0.25018221028E+03 -0.68657054427E+03  0.74095943563E+03  0.12699999809E+01 0.  1.
</event>
<event>
 5   0  0.2467303E-05  0.1399773E+04  0.7818609E-02  0.8953983E-01
       -1   -1    0    0    0  501  0.00000000000E+00  0.00000000000E+00  0.34342565722E+03  0.34342565725E+03  0.50400001928E-02 0.  1.
        1   -1    0    0  501    0  0.00000000000E+00  0.00000000000E+00 -0.14263387150E+04  0.14263387150E+04  0.50400001928E-02 0. -1.
    10030    2    1    2    0    0  0.00000000000E+00  0.00000000000E+00 -0.10829130577E+04  0.17697643722E+04  0.13997732826E+04 0.  0.
        3    1    3    3  502    0  0.64989542944E+03  0.21035940546E+03 -0.34877220747E+03  0.76697927715E+03  0.10100000352E+00 0.  1.
       -3    1    3    3    0  502 -0.64989542944E+03 -0.21035940546E+03 -0.73414085028E+03  0.10027850951E+04  0.10100000352E+00 0. -1.
</event>
<event>
 5   0  0.2467303E-05  0.1400434E+04  0.7818609E-02  0.8953504E-01
       -1   -1    0    0    0  501  0.00000000000E+00  0.00000000000E+00  0.64899555340E+03  0.64899555342E+03  0.50400001928E-02 0.  1.
        1   -1    0    0  501    0  0.00000000000E+00  0.00000000000E+00 -0.75548119019E+03  0.75548119021E+03  0.50400001928E-02 0. -1.
    10030    2    1    2    0    0  0.00000000000E+00  0.00000000000E+00 -0.10648563679E+03  0.14044767436E+04  0.14004341229E+04 0.  0.
        3    1    3    3  502    0 -0.24567772231E+03 -0.15413073009E+03  0.58592740400E+03  0.65377730013E+03  0.10100000352E+00 0.  1.
       -3    1    3    3    0  502  0.24567772231E+03  0.15413073009E+03 -0.69241304080E+03  0.75069944350E+03  0.10100000352E+00 0. -1.
</event>
<event>
 5   0  0.4460282E-05  0.1399701E+04  0.7818609E-02  0.8954035E-01
        2   -1    0    0  501    0  0.00000000000E+00  0.00000000000E+00  0.63365926116E+03  0.63365926116E+03  0.25500000920E-02 0.  1.
       -2   -1    0    0    0  501  0.00000000000E+00  0.00000000000E+00 -0.77295568705E+03  0.77295568705E+03  0.25500000920E-02 0. -1.
    10030    2    1    2    0    0  0.00000000000E+00  0.00000000000E+00 -0.13929642589E+03  0.14066149482E+04  0.13997007245E+04 0.  0.
        1    1    3    3  502    0  0.34711014638E+03  0.60450748394E+03 -0.13221148721E+03  0.70950308614E+03  0.50400001928E-02 0. -1.
       -1    1    3    3    0  502 -0.34711014638E+03 -0.60450748394E+03 -0.70849386753E+01  0.69711186207E+03  0.50400001928E-02 0.  1.
</event>
<event>
 5   0  0.4621450E-05  0.1401710E+04  0.7818609E-02  0.8952582E-01
       -2   -1    0    0    0  501  0.00000000000E+00  0.00000000000E+00  0.18359336176E+03  0.18359336178E+03  0.25500000920E-02 0. -1.
        2   -1    0    0  501    0  0.00000000000E+00  0.00000000000E+00 -0.26754653427E+04  0.26754653427E+04  0.25500000920E-02 0.  1.
    10030    2    1    2    0    0  0.00000000000E+00  0.00000000000E+00 -0.24918719809E+04  0.28590587045E+04  0.14017099223E+04 0.  0.
        5    1    3    3  502    0 -0.69652770801E+03 -0.63310612721E+02 -0.13375294711E+04  0.15093595522E+04  0.46999998093E+01 0.  1.
       -5    1    3    3    0  502  0.69652770801E+03  0.63310612721E+02 -0.11543425099E+04  0.13496991523E+04  0.46999998093E+01 0. -1.
</event>
<event>
 5   0  0.4243281E-05  0.1400209E+04  0.7818609E-02  0.8953667E-01
        2   -1    0    0  501    0  0.00000000000E+00  0.00000000000E+00  0.43225146483E+03  0.43225146484E+03  0.25500000920E-02 0. -1.
       -2   -1    0    0    0  501  0.00000000000E+00  0.00000000000E+00 -0.11339382685E+04  0.11339382685E+04  0.25500000920E-02 0.  1.
    10030    2    1    2    0    0  0.00000000000E+00  0.00000000000E+00 -0.70168680367E+03  0.15661897333E+04  0.14002092381E+04 0.  0.
        2    1    3    3  502    0 -0.67016628282E+03  0.19020202416E+03 -0.27297165381E+03  0.74820664285E+03  0.25500000920E-02 0. -1.
       -2    1    3    3    0  502  0.67016628282E+03 -0.19020202416E+03 -0.42871514986E+03  0.81798309050E+03  0.25500000920E-02 0.  1.
</event>
<event>
 5   0  0.2427569E-05  0.1399769E+04  0.7818609E-02  0.8953986E-01
       -1   -1    0    0    0  501  0.00000000000E+00  0.00000000000E+00  0.11702892216E+04  0.11702892216E+04  0.50400001928E-02 0. -1.
        1   -1    0    0  501    0  0.00000000000E+00  0.00000000000E+00 -0.41856193977E+03  0.41856193980E+03  0.50400001928E-02 0.  1.
    10030    2    1    2    0    0  0.00000000000E+00  0.00000000000E+00  0.75172728181E+03  0.15888511614E+04  0.13997693049E+04 0.  0.
        1    1    3    3  502    0 -0.24824803031E+03  0.37709310677E+03  0.98290607804E+03  0.10816333270E+04  0.50400001928E-02 0. -1.
       -1    1    3    3    0  502  0.24824803031E+03 -0.37709310677E+03 -0.23117879622E+03  0.50721783444E+03  0.50400001928E-02 0.  1.
</event>
<event>
 5   0  0.4243281E-05  0.1400926E+04  0.7818609E-02  0.8953148E-01
        2   -1    0    0  501    0  0.00000000000E+00  0.00000000000E+00  0.13822844140E+04  0.13822844140E+04  0.25500000920E-02 0. -1.
       -2   -1    0    0    0  501  0.00000000000E+00  0.00000000000E+00 -0.35495489543E+03  0.35495489543E+03  0.25500000920E-02 0.  1.
    10030    2    1    2    0    0  0.00000000000E+00  0.00000000000E+00  0.10273295186E+04  0.17372393095E+04  0.14009262931E+04 0.  0.
        2    1    3    3  502    0  0.65686019407E+02 -0.57809606403E+03  0.29977656080E+02  0.58258765200E+03  0.25500000920E-02 0.  1.
       -2    1    3    3    0  502 -0.65686019407E+02  0.57809606403E+03  0.99735186254E+03  0.11546516575E+04  0.25500000920E-02 0. -1.
</event>
<event>
 5   0  0.2427569E-05  0.1398232E+04  0.7818609E-02  0.8955100E-01
        1   -1    0    0  501    0  0.00000000000E+00  0.00000000000E+00  0.79006834229E+03  0.79006834231E+03  0.50400001928E-02 0.  1.
       -1   -1    0    0    0  501  0.00000000000E+00  0.00000000000E+00 -0.61863369861E+03  0.61863369863E+03  0.50400001928E-02 0. -1.
    10030    2    1    2    0    0  0.00000000000E+00  0.00000000000E+00  0.17143464368E+03  0.14087020409E+04  0.13982315985E+04 0.  0.
        1    1    3    3  502    0 -0.18682223762E+03  0.60243643679E+02  0.76173453660E+03  0.78662020655E+03  0.50400001928E-02 0.  1.
       -1    1    3    3    0  502  0.18682223762E+03 -0.60243643679E+02 -0.59029989292E+03  0.62208183439E+03  0.50400001928E-02 0. -1.
</event>
<event>
 5   0  0.2316714E-05  0.1399211E+04  0.7818609E-02  0.8954390E-01
       -1   -1    0    0    0  501  0.00000000000E+00  0.00000000000E+00  0.15070543390E+04  0.15070543390E+04  0.50400001928E-02 0. -1.
        1   -1    0    0  501    0  0.00000000000E+00  0.00000000000E+00 -0.32477121899E+03  0.32477121902E+03  0.50400001928E-02 0.  1.
    10030    2    1    2    0    0  0.00000000000E+00  0.00000000000E+00  0.11822831200E+04  0.18318255581E+04  0.13992110274E+04 0.  0.
        5    1    3    3  502    0  0.99961481036E+02  0.67946854078E+03  0.41669061312E+03  0.80331995659E+03  0.46999998093E+01 0.  1.
       -5    1    3    3    0  502 -0.99961481036E+02 -0.67946854078E+03  0.76559250693E+03  0.10285056015E+04  0.46999998093E+01 0. -1.
</event>
<event>
 5   0  0.4527503E-05  0.1399438E+04  0.7818609E-02  0.8954226E-01
        2   -1    0    0  501    0  0.00000000000E+00  0.00000000000E+00  0.70951280082E+03  0.70951280082E+03  0.25500000920E-02 0.  1.
       -2   -1    0    0    0  501  0.00000000000E+00  0.00000000000E+00 -0.69006022867E+03  0.69006022867E+03  0.25500000920E-02 0. -1.
    10030    2    1    2    0    0  0.00000000000E+00  0.00000000000E+00  0.19452572150E+02  0.13995730295E+04  0.13994378380E+04 0.  0.
        4    1    3    3  502    0 -0.23054154937E+03  0.17011823717E+02  0.67021884436E+03  0.70896665674E+03  0.12699999809E+01 0.  1.
       -4    1    3    3    0  502  0.23054154937E+03 -0.17011823717E+02 -0.65076627221E+03  0.69060637275E+03  0.12699999809E+01 0. -1.
</event>
<event>
 5   0  0.2467303E-05  0.1400401E+04  0.7818609E-02  0.8953528E-01
       -1   -1    0    0    0  501  0.00000000000E+00  0.00000000000E+00  0.23381087249E+03  0.23381087254E+03  0.50400001928E-02 0. -1.
        1   -1    0    0  501    0  0.00000000000E+00  0.00000000000E+00 -0.20969130109E+04  0.20969130109E+04  0.50400001928E-02 0.  1.
    10030    2    1    2    0    0  0.00000000000E+00  0.00000000000E+00 -0.18631021384E+04  0.23307238835E+04  0.14004014577E+04 0.  0.
        3    1    3    3  502    0 -0.63566370740E+03 -0.26728821599E+03 -0.72928442296E+03  0.10036768001E+04  0.10100000352E+00 0. -1.
       -3    1    3    3    0  502  0.63566370740E+03  0.26728821599E+03 -0.11338177155E+04  0.13270470833E+04  0.10100000352E+00 0.  1.
</event>
<event>
 5   0  0.1661000E-05  0.1399613E+04  0.7818609E-02  0.8954098E-01
        3   -1    0    0  501    0  0.00000000000E+00  0.00000000000E+00  0.62487393739E+03  0.62487394555E+03  0.10100000352E+00 0.  1.
       -3   -1    0    0    0  501  0.00000000000E+00  0.00000000000E+00 -0.78372522689E+03  0.78372523340E+03  0.10100000352E+00 0. -1.
    10030    2    1    2    0    0  0.00000000000E+00  0.00000000000E+00 -0.15885128950E+03  0.14085991790E+04  0.13996134876E+04 0.  0.
        4    1    3    3  502    0 -0.33818854211E+03 -0.50583545310E+03  0.26846232009E+03  0.66506738443E+03  0.12699999809E+01 0.  1.
       -4    1    3    3    0  502  0.33818854211E+03  0.50583545310E+03 -0.42731360960E+03  0.74353179452E+03  0.12699999809E+01 0. -1.
</event>
<event>
 5   0  0.2427569E-05  0.1399008E+04  0.7818609E-02  0.8954537E-01
        1   -1    0    0  501    0  0.00000000000E+00  0.00000000000E+00  0.53648286018E+03  0.53648286021E+03  0.50400001928E-02 0.  1.
       -1   -1    0    0    0  501  0.00000000000E+00  0.00000000000E+00 -0.91206220277E+03  0.91206220279E+03  0.50400001928E-02 0. -1.
    10030    2    1    2    0    0  0.00000000000E+00  0.00000000000E+00 -0.37557934259E+03  0.14485450630E+04  0.13990078474E+04 0.  0.
        1    1    3    3  502    0 -0.35829698678E+03 -0.29381606375E+03  0.35478937653E+03  0.58359241923E+03  0.50400001928E-02 0.  1.
       -1    1    3    3    0  502  0.35829698678E+03  0.29381606375E+03 -0.73036871912E+03  0.86495264376E+03  0.50400001928E-02 0. -1.
</event>
<event>
 5   0  0.2363419E-05  0.1400482E+04  0.7818609E-02  0.8953470E-01
       -1   -1    0    0    0  501  0.00000000000E+00  0.00000000000E+00  0.75577963657E+03  0.75577963659E+03  0.50400001928E-02 0.  1.
        1   -1    0    0  501    0  0.00000000000E+00  0.00000000000E+00 -0.64878317753E+03  0.64878317755E+03  0.50400001928E-02 0. -1.
    10030    2    1    2    0    0  0.00000000000E+00  0.00000000000E+00  0.10699645904E+03  0.14045628141E+04  0.14004815089E+04 0.  0.
        2    1    3    3  502    0 -0.52407141645E+03  0.29893052182E+03 -0.30296238224E+03  0.67512703358E+03  0.25500000920E-02 0. -1.
       -2    1    3    3    0  502  0.52407141645E+03 -0.29893052182E+03  0.40995884128E+03  0.72943578056E+03  0.25500000920E-02 0.  1.
</event>
<event>
 5   0  0.2428507E-05  0.1399718E+04  0.7818609E-02  0.8954023E-01
        1   -1    0    0  501    0  0.00000000000E+00  0.00000000000E+00  0.19691477869E+04  0.19691477869E+04  0.50400001928E-02 0. -1.
       -1   -1    0    0    0  501  0.00000000000E+00  0.00000000000E+00 -0.24873841381E+03  0.24873841386E+03  0.50400001928E-02 0.  1.
    10030    2    1    2    0    0  0.00000000000E+00  0.00000000000E+00  0.17204093731E+04  0.22178862008E+04  0.13997181104E+04 0.  0.
        4    1    3    3  502    0  0.60743425131E+03  0.27139035010E+03  0.12043491501E+04  0.13758951923E+04  0.12699999809E+01 0. -1.
       -4    1    3    3    0  502 -0.60743425131E+03 -0.27139035010E+03  0.51606022300E+03  0.84199100853E+03  0.12699999809E+01 0.  1.
</event>
<event>
 5   0  0.2316714E-05  0.1398864E+04  0.7818609E-02  0.8954641E-01
       -1   -1    0    0    0  501  0.00000000000E+00  0.00000000000E+00  0.36980094926E+03  0.36980094930E+03  0.50400001928E-02 0.  1.
        1   -1    0    0  501    0  0.00000000000E+00  0.00000000000E+00 -0.13228870716E+04  0.13228870716E+04  0.50400001928E-02 0. -1.
    10030    2    1    2    0    0  0.00000000000E+00  0.00000000000E+00 -0.95308612236E+03  0.16926880209E+04  0.13988636744E+04 0.  0.
        5    1    3    3  502    0 -0.52673809233E+03 -0.45944484720E+03 -0.50716029347E+03  0.86358337108E+03  0.46999998093E+01 0.  1.
       -5    1    3    3    0  502  0.52673809233E+03  0.45944484720E+03 -0.44592582889E+03  0.82910464985E+03  0.46999998093E+01 0. -1.
</event>
<event>
 5   0  0.4460282E-05  0.1399868E+04  0.7818609E-02  0.8953914E-01
        2   -1    0    0  501    0  0.00000000000E+00  0.00000000000E+00  0.58170812809E+03  0.58170812809E+03  0.25500000920E-02 0.  1.
       -2   -1    0    0    0  501  0.00000000000E+00  0.00000000000E+00 -0.84218847596E+03  0.84218847596E+03  0.25500000920E-02 0. -1.
    10030    2    1    2    0    0  0.00000000000E+00  0.00000000000E+00 -0.26048034787E+03  0.14238966041E+04  0.13998683965E+04 0.  0.
        1    1    3    3  502    0 -0.56813356322E+03  0.34478193889E+03  0.93206494353E+02  0.67107211360E+03  0.50400001928E-02 0. -1.
       -1    1    3    3    0  502  0.56813356322E+03 -0.34478193889E+03 -0.35368684222E+03  0.75282449045E+03  0.50400001928E-02 0.  1.
</event>
<event>
 5   0  0.2363419E-05  0.1404479E+04  0.7818609E-02  0.8950583E-01
       -1   -1    0    0    0  501  0.00000000000E+00  0.00000000000E+00  0.35069393455E+03  0.35069393459E+03  0.50400001928E-02 0.  1.
        1   -1    0    0  501    0  0.00000000000E+00  0.00000000000E+00 -0.14061844358E+04  0.14061844358E+04  0.50400001928E-02 0. -1.
    10030    2    1    2    0    0  0.00000000000E+00  0.00000000000E+00 -0.10554905013E+04  0.17568783704E+04  0.14044790530E+04 0.  0.
        2    1    3    3  502    0  0.42780728419E+03  0.41586841952E+03 -0.99104652964E+03  0.11567795117E+04  0.25500000920E-02 0. -1.
       -2    1    3    3    0  502 -0.42780728419E+03 -0.41586841952E+03 -0.64443971633E+02  0.60009885873E+03  0.25500000920E-02 0.  1.
</event>
<event>
 5   0  0.4441253E-05  0.1398636E+04  0.7818609E-02  0.8954807E-01
        2   -1    0    0  501    0  0.00000000000E+00  0.00000000000E+00  0.60480342923E+03  0.60480342924E+03  0.25500000920E-02 0. -1.
       -2   -1    0    0    0  501  0.00000000000E+00  0.00000000000E+00 -0.80860214354E+03  0.80860214354E+03  0.25500000920E-02 0.  1.
    10030    2    1    2    0    0  0.00000000000E+00  0.00000000000E+00 -0.20379871431E+03  0.14134055728E+04  0.13986355484E+04 0.  0.
        3    1    3    3  502    0  0.30856803339E+03  0.23694386247E+03 -0.68914595589E+03  0.79137777573E+03  0.10100000352E+00 0.  1.
       -3    1    3    3    0  502 -0.30856803339E+03 -0.23694386247E+03  0.48534724158E+03  0.62202779705E+03  0.10100000352E+00 0. -1.
</event>
<event>
 5   0  0.2428507E-05  0.1400061E+04  0.7818609E-02  0.8953775E-01
       -1   -1    0    0    0  501  0.00000000000E+00  0.00000000000E+00  0.11879063838E+04  0.11879063838E+04  0.50400001928E-02 0. -1.
        1   -1    0    0  501    0  0.00000000000E+00  0.00000000000E+00 -0.41252611593E+03  0.41252611596E+03  0.50400001928E-02 0.  1.
    10030    2    1    2    0    0  0.00000000000E+00  0.00000000000E+00  0.77538026789E+03  0.16004324998E+04  0.14000605796E+04 0.  0.
        4    1    3    3  502    0 -0.13879575622E+03  0.47130831401E+03 -0.18231714787E+03  0.52405814955E+03  0.12699999809E+01 0.  1.
       -4    1    3    3    0  502  0.13879575622E+03 -0.47130831401E+03  0.95769741576E+03  0.10763743502E+04  0.12699999809E+01 0. -1.
</event>
<event>
 5   0  0.4460282E-05  0.1400009E+04  0.7818609E-02  0.8953812E-01
       -2   -1    0    0    0  501  0.00000000000E+00  0.00000000000E+00  0.59641082274E+03  0.59641082275E+03  0.25500000920E-02 0.  1.
        2   -1    0    0  501    0  0.00000000000E+00  0.00000000000E+00 -0.82159179890E+03  0.82159179890E+03  0.25500000920E-02 0. -1.
    10030    2    1    2    0    0  0.00000000000E+00  0.00000000000E+00 -0.22518097616E+03  0.14180026217E+04  0.14000089153E+04 0.  0.
        1    1    3    3  502    0  0.48685721457E+03  0.12525925611E+03  0.38079079186E+03  0.63065161208E+03  0.50400001928E-02 0. -1.
       -1    1    3    3    0  502 -0.48685721457E+03 -0.12525925611E+03 -0.60597176802E+03  0.78735100958E+03  0.50400001928E-02 0.  1.
</event>
<event>
 5   0  0.2467303E-05  0.1399517E+04  0.7818609E-02  0.8954168E-01
        1   -1    0    0  501    0  0.00000000000E+00  0.00000000000E+00  0.58891722535E+03  0.58891722537E+03  0.50400001928E-02 0.  1.
       -1   -1    0    0    0  501  0.00000000000E+00  0.00000000000E+00 -0.83146173231E+03  0.83146173232E+03  0.50400001928E-02 0. -1.
    10030    2    1    2    0    0  0.00000000000E+00  0.00000000000E+00 -0.24254450695E+03  0.14203789577E+04  0.13995172545E+04 0.  0.
        3    1    3    3  502    0  0.97547526285E+02 -0.57845103109E+03 -0.50845738037E+03  0.77630537362E+03  0.10100000352E+00 0. -1.
       -3    1    3    3    0  502 -0.97547526285E+02  0.57845103109E+03  0.26591287342E+03  0.64407358408E+03  0.10100000352E+00 0.  1.
</event>
<event>
 5   0  0.4527503E-05  0.1398554E+04  0.7818609E-02  0.8954866E-01
        2   -1    0    0  501    0  0.00000000000E+00  0.00000000000E+00  0.12978485786E+04  0.12978485786E+04  0.25500000920E-02 0.  1.
       -2   -1    0    0    0  501  0.00000000000E+00  0.00000000000E+00 -0.37676842877E+03  0.37676842878E+03  0.25500000920E-02 0. -1.
    10030    2    1    2    0    0  0.00000000000E+00  0.00000000000E+00  0.92108014987E+03  0.16746170074E+04  0.13985540673E+04 0.  0.
        4    1    3    3  502    0  0.57750717013E+03  0.87371373690E+02  0.14574721075E+00  0.58408040768E+03  0.12699999809E+01 0. -1.
       -4    1    3    3    0  502 -0.57750717013E+03 -0.87371373690E+02  0.92093440266E+03  0.10905365997E+04  0.12699999809E+01 0.  1.
</event>
<event>
 5   0  0.1661000E-05  0.1399599E+04  0.7818609E-02  0.8954109E-01
       -3   -1    0    0    0  501  0.00000000000E+00  0.00000000000E+00  0.80987655205E+03  0.80987655835E+03  0.10100000352E+00 0.  1.
        3   -1    0    0  501    0  0.00000000000E+00  0.00000000000E+00 -0.60468433782E+03  0.60468434625E+03  0.10100000352E+00 0. -1.
    10030    2    1    2    0    0  0.00000000000E+00  0.00000000000E+00  0.20519221423E+03  0.14145609046E+04  0.13995994813E+04 0.  0.
        3    1    3    3  502    0  0.12933490225E+03  0.39841770819E+03  0.66917358616E+03  0.78946658305E+03  0.10100000352E+00 0.  1.
       -3    1    3    3    0  502 -0.12933490225E+03 -0.39841770819E+03 -0.46398137193E+03  0.62509432155E+03  0.10100000352E+00 0. -1.
</event>
<event>
 5   0  0.4243281E-05  0.1401112E+04  0.7818609E-02  0.8953014E-01
        2   -1    0    0  501    0  0.00000000000E+00  0.00000000000E+00  0.16109271026E+04  0.16109271026E+04  0.25500000920E-02 0. -1.
       -2   -1    0    0    0  501  0.00000000000E+00  0.00000000000E+00 -0.30465607563E+03  0.30465607564E+03  0.25500000920E-02 0.  1.
    10030    2    1    2    0    0  0.00000000000E+00  0.00000000000E+00  0.13062710269E+04  0.19155831782E+04  0.14011120287E+04 0.  0.
        2    1    3    3  502    0 -0.30697488521E+03  0.55146088176E+03  0.23746537073E+03  0.67433855485E+03  0.25500000920E-02 0. -1.
       -2    1    3    3    0  502  0.30697488521E+03 -0.55146088176E+03  0.10688056562E+04  0.12412446234E+04  0.25500000920E-02 0.  1.
</event>
<event>
 5   0  0.4621450E-05  0.1399477E+04  0.7818609E-02  0.8954197E-01
       -2   -1    0    0    0  501  0.00000000000E+00  0.00000000000E+00  0.42016453574E+03  0.42016453575E+03  0.25500000920E-02 0. -1.
        2   -1    0    0  501    0  0.00000000000E+00  0.00000000000E+00 -0.11653393576E+04  0.11653393576E+04  0.25500000920E-02 0.  1.
    10030    2    1    2    0    0  0.00000000000E+00  0.00000000000E+00 -0.74517482184E+03  0.15855038933E+04  0.13994774313E+04 0.  0.
        5    1    3    3  502    0  0.27840675649E+02 -0.35499632074E+03 -0.10549949946E+04  0.11134783427E+04  0.46999998093E+01 0.  1.
       -5    1    3    3    0  502 -0.27840675649E+02  0.35499632074E+03  0.30982017281E+03  0.47202555062E+03  0.46999998093E+01 0. -1.
</event>
<event>
 5   0  0.4243281E-05  0.1399930E+04  0.7818609E-02  0.8953869E-01
        2   -1    0    0  501    0  0.00000000000E+00  0.00000000000E+00  0.63717106845E+03  0.63717106845E+03  0.25500000920E-02 0.  1.
       -2   -1    0    0    0  501  0.00000000000E+00  0.00000000000E+00 -0.76894787894E+03  0.76894787894E+03  0.25500000920E-02 0. -1.
    10030    2    1    2    0    0  0.00000000000E+00  0.00000000000E+00 -0.13177681049E+03  0.14061189474E+04  0.13999304863E+04 0.  0.
        2    1    3    3  502    0  0.39196755898E+03  0.57710581877E+03 -0.85251021336E+01  0.69768357493E+03  0.25500000920E-02 0. -1.
       -2    1    3    3    0  502 -0.39196755898E+03 -0.57710581877E+03 -0.12325170836E+03  0.70843537247E+03  0.25500000920E-02 0.  1.
</event>
<event>
 5   0  0.4441253E-05  0.1402275E+04  0.7818609E-02  0.8952173E-01
        2   -1    0    0  501    0  0.00000000000E+00  0.00000000000E+00  0.57291400627E+03  0.57291400628E+03  0.25500000920E-02 0.  1.
       -2   -1    0    0    0  501  0.00000000000E+00  0.00000000000E+00 -0.85805858039E+03  0.85805858039E+03  0.25500000920E-02 0. -1.
    10030    2    1    2    0    0  0.00000000000E+00  0.00000000000E+00 -0.28514457411E+03  0.14309725867E+04  0.14022749786E+04 0.  0.
        3    1    3    3  502    0 -0.33602668149E+03 -0.29851075598E+02  0.48465167359E+03  0.59050171236E+03  0.10100000352E+00 0.  1.
       -3    1    3    3    0  502  0.33602668149E+03  0.29851075598E+02 -0.76979624770E+03  0.84047087431E+03  0.10100000352E+00 0. -1.
</event>
<event>
 5   0  0.4441253E-05  0.1400266E+04  0.7818609E-02  0.8953626E-01
       -2   -1    0    0    0  501  0.00000000000E+00  0.00000000000E+00  0.50999821176E+03  0.50999821177E+03  0.25500000920E-02 0. -1.
        2   -1    0    0  501    0  0.00000000000E+00  0.00000000000E+00 -0.96115342537E+03  0.96115342537E+03  0.25500000920E-02 0.  1.
    10030    2    1    2    0    0  0.00000000000E+00  0.00000000000E+00 -0.45115521360E+03  0.14711516371E+04  0.14002664435E+04 0.  0.
        3    1    3    3  502    0  0.11461942787E+03 -0.58104866436E+03 -0.61788544116E+03  0.85588409974E+03  0.10100000352E+00 0.  1.
       -3    1    3    3    0  502 -0.11461942787E+03  0.58104866436E+03  0.16673022755E+03  0.61526753740E+03  0.10100000352E+00 0. -1.
</event>
<event>
 5   0  0.4243281E-05  0.1400424E+04  0.7818609E-02  0.8953512E-01
       -2   -1    0    0    0  501  0.00000000000E+00  0.00000000000E+00  0.49010272455E+03  0.49010272456E+03  0.25500000920E-02 0. -1.
        2   -1    0    0  501    0  0.00000000000E+00  0.00000000000E+00 -0.10003954816E+04  0.10003954816E+04  0.25500000920E-02 0.  1.
    10030    2    1    2    0    0  0.00000000000E+00  0.00000000000E+00 -0.51029275701E+03  0.14904982061E+04  0.14004235804E+04 0.  0.
        2    1    3    3  502    0 -0.69091090628E+02  0.34286627286E+03 -0.90076449212E+03  0.96628542891E+03  0.25500000920E-02 0.  1.
       -2    1    3    3    0  502  0.69091090628E+02 -0.34286627286E+03  0.39047173511E+03  0.52421277721E+03  0.25500000920E-02 0. -1.
</event>
<event>
 5   0  0.1661000E-05  0.1400118E+04  0.7818609E-02  0.8953733E-01
        3   -1    0    0  501    0  0.00000000000E+00  0.00000000000E+00  0.41883071282E+03  0.41883072500E+03  0.10100000352E+00 0. -1.
       -3   -1    0    0    0  501  0.00000000000E+00  0.00000000000E+00 -0.11701203239E+04  0.11701203283E+04  0.10100000352E+00 0.  1.
    10030    2    1    2    0    0  0.00000000000E+00  0.00000000000E+00 -0.75128961109E+03  0.15889510533E+04  0.14001176272E+04 0.  0.
        1    1    3    3  502    0 -0.54018331526E+03  0.23320727173E+03  0.54856453857E+02  0.59092544050E+03  0.50400001928E-02 0. -1.
       -1    1    3    3    0  502  0.54018331526E+03 -0.23320727173E+03 -0.80614606495E+03  0.99802561277E+03  0.50400001928E-02 0.  1.
</event>
<event>
 5   0  0.1661000E-05  0.1399719E+04  0.7818609E-02  0.8954022E-01
        4   -1    0    0  501    0  0.00000000000E+00  0.00000000000E+00  0.46727224015E+03  0.46727396601E+03  0.12699999809E+01 0. -1.
       -4   -1    0    0    0  501  0.00000000000E+00  0.00000000000E+00 -0.10482149781E+04  0.10482157475E+04  0.12699999809E+01 0.  1.
    10030    2    1    2    0    0  0.00000000000E+00  0.00000000000E+00 -0.58094273799E+03  0.15154897135E+04  0.13997194744E+04 0.  0.
        4    1    3    3  502    0 -0.36597339324E+03  0.90792834241E+02 -0.92883145489E+03  0.10024516686E+04  0.12699999809E+01 0.  1.
       -4    1    3    3    0  502  0.36597339324E+03 -0.90792834241E+02  0.34788871690E+03  0.51303804494E+03  0.12699999809E+01 0. -1.
</event>
<event>
 5   0  0.4441253E-05  0.1400124E+04  0.7818609E-02  0.8953729E-01
        2   -1    0    0  501    0  0.00000000000E+00  0.00000000000E+00  0.85924211027E+03  0.85924211028E+03  0.25500000920E-02 0.  1.
       -2   -1    0    0    0  501  0.00000000000E+00  0.00000000000E+00 -0.57037121193E+03  0.57037121194E+03  0.25500000920E-02 0. -1.
    10030    2    1    2    0    0  0.00000000000E+00  0.00000000000E+00  0.28887089834E+03  0.14296133222E+04  0.14001242285E+04 0.  0.
        3    1    3    3  502    0 -0.59013258455E+02  0.66968168739E+03  0.34381936681E+03  0.75509462605E+03  0.10100000352E+00 0.  1.
       -3    1    3    3    0  502  0.59013258455E+02 -0.66968168739E+03 -0.54948468467E+02  0.67451869617E+03  0.10100000352E+00 0. -1.
</event>
<event>
 5   0  0.2428507E-05  0.1399875E+04  0.7818609E-02  0.8953909E-01
       -1   -1    0    0    0  501  0.00000000000E+00  0.00000000000E+00  0.41265157450E+03  0.41265157453E+03  0.50400001928E-02 0. -1.
        1   -1    0    0  501    0  0.00000000000E+00  0.00000000000E+00 -0.11872302608E+04  0.11872302608E+04  0.50400001928E-02 0.  1.
    10030    2    1    2    0    0  0.00000000000E+00  0.00000000000E+00 -0.77457868631E+03  0.15998818354E+04  0.13998749036E+04 0.  0.
        4    1    3    3  502    0  0.79039281431E+01 -0.52749356593E+03 -0.91301039936E+03  0.10544674184E+04  0.12699999809E+01 0.  1.
       -4    1    3    3    0  502 -0.79039281431E+01  0.52749356593E+03  0.13843171304E+03  0.54541441699E+03  0.12699999809E+01 0. -1.
</event>
<event>
 5   0  0.4460282E-05  0.1399288E+04  0.7818609E-02  0.8954334E-01
        2   -1    0    0  501    0  0.00000000000E+00  0.00000000000E+00  0.79359875983E+03  0.79359875984E+03  0.25500000920E-02 0. -1.
       -2   -1    0    0    0  501  0.00000000000E+00  0.00000000000E+00 -0.61681273881E+03  0.61681273882E+03  0.25500000920E-02 0.  1.
    10030    2    1    2    0    0  0.00000000000E+00  0.00000000000E+00  0.17678602102E+03  0.14104114987E+04  0.13992881398E+04 0.  0.
        1    1    3    3  502    0 -0.40306396526E+03  0.22745511465E+02  0.66435812361E+03  0.77739927631E+03  0.50400001928E-02 0. -1.
       -1    1    3    3    0  502  0.40306396526E+03 -0.22745511465E+02 -0.48757210259E+03  0.63301222234E+03  0.50400001928E-02 0.  1.
</event>
<event>
 5   0  0.4243281E-05  0.1400495E+04  0.7818609E-02  0.8953460E-01
        2   -1    0    0  501    0  0.00000000000E+00  0.00000000000E+00  0.90450936671E+03  0.90450936672E+03  0.25500000920E-02 0. -1.
       -2   -1    0    0    0  501  0.00000000000E+00  0.00000000000E+00 -0.54211354143E+03  0.54211354143E+03  0.25500000920E-02 0.  1.
    10030    2    1    2    0    0  0.00000000000E+00  0.00000000000E+00  0.36239582529E+03  0.14466229081E+04  0.14004953067E+04 0.  0.
        2    1    3    3  502    0 -0.39999194335E+03 -0.20466529115E+03 -0.37358170854E+03  0.58433272123E+03  0.25500000920E-02 0.  1.
       -2    1    3    3    0  502  0.39999194335E+03  0.20466529115E+03  0.73597753382E+03  0.86229018691E+03  0.25500000920E-02 0. -1.
</event>
<event>
 5   0  0.2363419E-05  0.1399925E+04  0.7818609E-02  0.8953873E-01
        1   -1    0    0  501    0  0.00000000000E+00  0.00000000000E+00  0.16003926940E+04  0.16003926940E+04  0.50400001928E-02 0.  1.
       -1   -1    0    0    0  501  0.00000000000E+00  0.00000000000E+00 -0.30614219027E+03  0.30614219032E+03  0.50400001928E-02 0. -1.
    10030    2    1    2    0    0  0.00000000000E+00  0.00000000000E+00  0.12942505037E+04  0.19065348843E+04  0.13999253190E+04 0.  0.
        2    1    3    3  502    0 -0.27688873039E+03 -0.20941402855E+03 -0.18063332106E+03  0.39134383993E+03  0.25500000920E-02 0. -1.
       -2    1    3    3    0  502  0.27688873039E+03  0.20941402855E+03  0.14748838248E+04  0.15151910444E+04  0.25500000920E-02 0.  1.
</event>
<event>
 5   0  0.4621450E-05  0.1399781E+04  0.7818609E-02  0.8953977E-01
        2   -1    0    0  501    0  0.00000000000E+00  0.00000000000E+00  0.13648357817E+04  0.13648357818E+04  0.25500000920E-02 0.  1.
       -2   -1    0    0    0  501  0.00000000000E+00  0.00000000000E+00 -0.35890514840E+03  0.35890514841E+03  0.25500000920E-02 0. -1.
    10030    2    1    2    0    0  0.00000000000E+00  0.00000000000E+00  0.10059306333E+04  0.17237409302E+04  0.13997808240E+04 0.  0.
        5    1    3    3  502    0  0.17868661080E+03 -0.23294524237E+03  0.12853220189E+04  0.13184336059E+04  0.46999998093E+01 0.  1.
       -5    1    3    3    0  502 -0.17868661080E+03  0.23294524237E+03 -0.27939138554E+03  0.40530732430E+03  0.46999998093E+01 0. -1.
</event>
<event>
 5   0  0.2467303E-05  0.1404134E+04  0.7818609E-02  0.8950831E-01
       -1   -1    0    0    0  501  0.00000000000E+00  0.00000000000E+00  0.66318735174E+03  0.66318735176E+03  0.50400001928E-02 0. -1.
        1   -1    0    0  501    0  0.00000000000E+00  0.00000000000E+00 -0.74322612765E+03  0.74322612766E+03  0.50400001928E-02 0.  1.
    10030    2    1    2    0    0  0.00000000000E+00  0.00000000000E+00 -0.80038775905E+02  0.14064134794E+04  0.14041341351E+04 0.  0.
        3    1    3    3  502    0  0.44278611614E+03 -0.43767647606E+03  0.28497290354E+03  0.68471147813E+03  0.10100000352E+00 0.  1.
       -3    1    3    3    0  502 -0.44278611614E+03  0.43767647606E+03 -0.36501167944E+03  0.72170200129E+03  0.10100000352E+00 0. -1.
</event>
<event>
 5   0  0.2467303E-05  0.1398984E+04  0.7818609E-02  0.8954554E-01
       -1   -1    0    0    0  501  0.00000000000E+00  0.00000000000E+00  0.70516252209E+03  0.70516252211E+03  0.50400001928E-02 0.  1.
        1   -1    0    0  501    0  0.00000000000E+00  0.00000000000E+00 -0.69386695138E+03  0.69386695139E+03  0.50400001928E-02 0. -1.
    10030    2    1    2    0    0  0.00000000000E+00  0.00000000000E+00  0.11295570714E+02  0.13990294735E+04  0.13989838733E+04 0.  0.
        3    1    3    3  502    0 -0.24941264566E+03 -0.65254299344E+03 -0.29989497626E+02  0.69922700625E+03  0.10100000352E+00 0.  1.
       -3    1    3    3    0  502  0.24941264566E+03  0.65254299344E+03  0.41285068340E+02  0.69980246725E+03  0.10100000352E+00 0. -1.
</event>
<event>
 5   0  0.2428507E-05  0.1403983E+04  0.7818609E-02  0.8950940E-01
       -1   -1    0    0    0  501  0.00000000000E+00  0.00000000000E+00  0.32272215162E+03  0.32272215166E+03  0.50400001928E-02 0. -1.
        1   -1    0    0  501    0  0.00000000000E+00  0.00000000000E+00 -0.15269856343E+04  0.15269856343E+04  0.50400001928E-02 0.  1.
    10030    2    1    2    0    0  0.00000000000E+00  0.00000000000E+00 -0.12042634827E+04  0.18497077859E+04  0.14039830333E+04 0.  0.
        4    1    3    3  502    0 -0.11236702005E+03 -0.61404449011E+03 -0.17907461442E+03  0.64941998234E+03  0.12699999809E+01 0. -1.
       -4    1    3    3    0  502  0.11236702005E+03  0.61404449011E+03 -0.10251888682E+04  0.12002878036E+04  0.12699999809E+01 0.  1.
</event>
<event>
 5   0  0.4527503E-05  0.1400272E+04  0.7818609E-02  0.8953622E-01
        2   -1    0    0  501    0  0.00000000000E+00  0.00000000000E+00  0.18554001694E+04  0.18554001694E+04  0.25500000920E-02 0.  1.
       -2   -1    0    0    0  501  0.00000000000E+00  0.00000000000E+00 -0.26419643322E+03  0.26419643323E+03  0.25500000920E-02 0. -1.
    10030    2    1    2    0    0  0.00000000000E+00  0.00000000000E+00  0.15912037362E+04  0.21195966027E+04  0.14002715550E+04 0.  0.
        4    1    3    3  502    0  0.60424399616E+03  0.12798231461E+03  0.12946611678E+04  0.14344474309E+04  0.12699999809E+01 0.  1.
       -4    1    3    3    0  502 -0.60424399616E+03 -0.12798231461E+03  0.29654256838E+03  0.68514917172E+03  0.12699999809E+01 0. -1.
</event>
<event>
 5   0  0.4243281E-05  0.1400319E+04  0.7818609E-02  0.8953587E-01
       -2   -1    0    0    0  501  0.00000000000E+00  0.00000000000E+00  0.42579863595E+03  0.42579863596E+03  0.25500000920E-02 0.  1.
        2   -1    0    0  501    0  0.00000000000E+00  0.00000000000E+00 -0.11513038312E+04  0.11513038312E+04  0.25500000920E-02 0. -1.
    10030    2    1    2    0    0  0.00000000000E+00  0.00000000000E+00 -0.72550519527E+03  0.15771024672E+04  0.14003193934E+04 0.  0.
        2    1    3    3  502    0 -0.30607527698E+03  0.16352436604E+03  0.32213141536E+03  0.47348805924E+03  0.25500000920E-02 0.  1.
       -2    1    3    3    0  502  0.30607527698E+03 -0.16352436604E+03 -0.10476366106E+04  0.11036144079E+04  0.25500000920E-02 0. -1.
</event>
<event>
 5   0  0.4527503E-05  0.1399119E+04  0.7818609E-02  0.8954456E-01
        2   -1    0    0  501    0  0.00000000000E+00  0.00000000000E+00  0.70533449614E+03  0.70533449614E+03  0.25500000920E-02 0. -1.
       -2   -1    0    0    0  501  0.00000000000E+00  0.00000000000E+00 -0.69383213124E+03  0.69383213124E+03  0.25500000920E-02 0.  1.
    10030    2    1    2    0    0  0.00000000000E+00  0.00000000000E+00  0.11502364900E+02  0.13991666274E+04  0.13991193469E+04 0.  0.
        4    1    3    3  502    0  0.50724070625E+03 -0.25584223526E+03  0.41397293920E+03  0.70293925109E+03  0.12699999809E+01 0. -1.
       -4    1    3    3    0  502 -0.50724070625E+03  0.25584223526E+03 -0.40247057430E+03  0.69622737630E+03  0.12699999809E+01 0.  1.
</event>
<event>
 5   0  0.4460282E-05  0.1400159E+04  0.7818609E-02  0.8953703E-01
       -2   -1    0    0    0  501  0.00000000000E+00  0.00000000000E+00  0.72119534475E+03  0.72119534476E+03  0.25500000920E-02 0. -1.
        2   -1    0    0  501    0  0.00000000000E+00  0.00000000000E+00 -0.67958214455E+03  0.67958214455E+03  0.25500000920E-02 0.  1.
    10030    2    1    2    0    0  0.00000000000E+00  0.00000000000E+00  0.41613200205E+02  0.14007774893E+04  0.14001592467E+04 0.  0.
        1    1    3    3  502    0  0.22543575492E+03 -0.62923647415E+03  0.22910914799E+03  0.70657683355E+03  0.50400001928E-02 0. -1.
       -1    1    3    3    0  502 -0.22543575492E+03  0.62923647415E+03 -0.18749594779E+03  0.69420065576E+03  0.50400001928E-02 0.  1.
</event>
<event>
 5   0  0.4441253E-05  0.1400080E+04  0.7818609E-02  0.8953761E-01
        2   -1    0    0  501    0  0.00000000000E+00  0.00000000000E+00  0.24255654308E+04  0.24255654309E+04  0.25500000920E-02 0. -1.
       -2   -1    0    0    0  501  0.00000000000E+00  0.00000000000E+00 -0.20203770752E+03  0.20203770754E+03  0.25500000920E-02 0.  1.
    10030    2    1    2    0    0  0.00000000000E+00  0.00000000000E+00  0.22235277233E+04  0.26276031384E+04  0.14000795393E+04 0.  0.
        3    1    3    3  502    0  0.27459373017E+03 -0.13783165009E+03 -0.68736580976E+02  0.31483965472E+03  0.10100000352E+00 0.  1.
       -3    1    3    3    0  502 -0.27459373017E+03  0.13783165009E+03  0.22922643043E+04  0.23127634837E+04  0.10100000352E+00 0. -1.
</event>
<event>
 5   0  0.2427569E-05  0.1396908E+04  0.7818609E-02  0.8956060E-01
       -1   -1    0    0    0  501  0.00000000000E+00  0.00000000000E+00  0.35248367785E+03  0.35248367789E+03  0.50400001928E-02 0.  1.
        1   -1    0    0  501    0  0.00000000000E+00  0.00000000000E+00 -0.13840012147E+04  0.13840012147E+04  0.50400001928E-02 0. -1.
    10030    2    1    2    0    0  0.00000000000E+00  0.00000000000E+00 -0.10315175369E+04  0.17364848926E+04  0.13969077827E+04 0.  0.
        1    1    3    3  502    0 -0.18950503393E+03  0.57173533956E+03 -0.95533617710E+03  0.11293629477E+04  0.50400001928E-02 0. -1.
       -1    1    3    3    0  502  0.18950503393E+03 -0.57173533956E+03 -0.76181359784E+02  0.60712194491E+03  0.50400001928E-02 0.  1.
</event>
<event>
 5   0  0.4243281E-05  0.1400360E+04  0.7818609E-02  0.8953558E-01
        2   -1    0    0  501    0  0.00000000000E+00  0.00000000000E+00  0.21234989919E+04  0.21234989919E+04  0.25500000920E-02 0. -1.
       -2   -1    0    0    0  501  0.00000000000E+00  0.00000000000E+00 -0.23086988389E+03  0.23086988390E+03  0.25500000920E-02 0.  1.
    10030    2    1    2    0    0  0.00000000000E+00  0.00000000000E+00  0.18926291080E+04  0.23543688758E+04  0.14003599048E+04 0.  0.
        2    1    3    3  502    0  0.35378861903E+03 -0.44070365088E+03  0.16412788651E+04  0.17358520697E+04  0.25500000920E-02 0. -1.
       -2    1    3    3    0  502 -0.35378861903E+03  0.44070365088E+03  0.25135024296E+03  0.61851680615E+03  0.25500000920E-02 0.  1.
</event>
<event>
 5   0  0.2363419E-05  0.1399813E+04  0.7818609E-02  0.8953954E-01
       -1   -1    0    0    0  501  0.00000000000E+00  0.00000000000E+00  0.37521810461E+03  0.37521810464E+03  0.50400001928E-02 0.  1.
        1   -1    0    0  501    0  0.00000000000E+00  0.00000000000E+00 -0.13055588310E+04  0.13055588310E+04  0.50400001928E-02 0. -1.
    10030    2    1    2    0    0  0.00000000000E+00  0.00000000000E+00 -0.93034072637E+03  0.16807769356E+04  0.13998132876E+04 0.  0.
        2    1    3    3  502    0  0.41528845725E+03 -0.20833783054E+03 -0.10936849667E+04  0.11882827781E+04  0.25500000920E-02 0. -1.
       -2    1    3    3    0  502 -0.41528845725E+03  0.20833783054E+03  0.16334424031E+03  0.49249415754E+03  0.25500000920E-02 0.  1.
</event>
<event>
 5   0  0.4243281E-05  0.1399880E+04  0.7818609E-02  0.8953905E-01
        2   -1    0    0  501    0  0.00000000000E+00  0.00000000000E+00  0.12970618423E+04  0.12970618423E+04  0.25500000920E-02 0. -1.
       -2   -1    0    0    0  501  0.00000000000E+00  0.00000000000E+00 -0.37771217167E+03  0.37771217168E+03  0.25500000920E-02 0.  1.
    10030    2    1    2    0    0  0.00000000000E+00  0.00000000000E+00  0.91934967064E+03  0.16747740140E+04  0.13998800595E+04 0.  0.
        2    1    3    3  502    0 -0.24773522792E+02 -0.24012661466E+03 -0.32633321912E+03  0.40591611006E+03  0.25500000920E-02 0.  1.
       -2    1    3    3    0  502  0.24773522792E+02  0.24012661466E+03  0.12456828898E+04  0.12688579039E+04  0.25500000920E-02 0. -1.
</event>
<event>
 5   0  0.4527503E-05  0.1399797E+04  0.7818609E-02  0.8953966E-01
       -2   -1    0    0    0  501  0.00000000000E+00  0.00000000000E+00  0.67916520221E+03  0.67916520222E+03  0.25500000920E-02 0. -1.
        2   -1    0    0  501    0  0.00000000000E+00  0.00000000000E+00 -0.72126462451E+03  0.72126462452E+03  0.25500000920E-02 0.  1.
    10030    2    1    2    0    0  0.00000000000E+00  0.00000000000E+00 -0.42099422299E+02  0.14004298267E+04  0.13997968918E+04 0.  0.
        4    1    3    3  502    0 -0.63020245303E+03  0.30367868965E+03 -0.42976356995E+02  0.70087406751E+03  0.12699999809E+01 0. -1.
       -4    1    3    3    0  502  0.63020245303E+03 -0.30367868965E+03  0.87693469628E+00  0.69955575922E+03  0.12699999809E+01 0.  1.
</event>
<event>
 5   0  0.2427569E-05  0.1398715E+04  0.7818609E-02  0.8954749E-01
        1   -1    0    0  501    0  0.00000000000E+00  0.00000000000E+00  0.94464613541E+03  0.94464613542E+03  0.50400001928E-02 0. -1.
       -1   -1    0    0    0  501  0.00000000000E+00  0.00000000000E+00 -0.51776117941E+03  0.51776117943E+03  0.50400001928E-02 0.  1.
    10030    2    1    2    0    0  0.00000000000E+00  0.00000000000E+00  0.42688495600E+03  0.14624073149E+04  0.13987152637E+04 0.  0.
        1    1    3    3  502    0  0.30703653717E+03 -0.69040322635E+01  0.87037037651E+03  0.92296462183E+03  0.50400001928E-02 0. -1.
       -1    1    3    3    0  502 -0.30703653717E+03  0.69040322635E+01 -0.44348542051E+03  0.53944269302E+03  0.50400001928E-02 0.  1.
</event>
<event>
 5   0  0.2467303E-05  0.1399983E+04  0.7818609E-02  0.8953831E-01
        1   -1    0    0  501    0  0.00000000000E+00  0.00000000000E+00  0.10972624598E+04  0.10972624598E+04  0.50400001928E-02 0. -1.
       -1   -1    0    0    0  501  0.00000000000E+00  0.00000000000E+00 -0.44655518349E+03  0.44655518352E+03  0.50400001928E-02 0.  1.
    10030    2    1    2    0    0  0.00000000000E+00  0.00000000000E+00  0.65070727633E+03  0.15438176434E+04  0.13999831986E+04 0.  0.
        3    1    3    3  502    0  0.26676503890E+03 -0.33429138440E+02 -0.38735024226E+03  0.47150961141E+03  0.10100000352E+00 0.  1.
       -3    1    3    3    0  502 -0.26676503890E+03  0.33429138440E+02  0.10380575186E+04  0.10723080319E+04  0.10100000352E+00 0. -1.
</event>
<event>
 5   0  0.4441253E-05  0.1400159E+04  0.7818609E-02  0.8953703E-01
        2   -1    0    0  501    0  0.00000000000E+00  0.00000000000E+00  0.63908028586E+03  0.63908028587E+03  0.25500000920E-02 0. -1.
       -2   -1    0    0    0  501  0.00000000000E+00  0.00000000000E+00 -0.76690147739E+03  0.76690147740E+03  0.25500000920E-02 0.  1.
    10030    2    1    2    0    0  0.00000000000E+00  0.00000000000E+00 -0.12782119153E+03  0.14059817633E+04  0.14001594415E+04 0.  0.
        3    1    3    3  502    0  0.28286044549E+03 -0.62557106205E+03  0.73634978208E+02  0.69048628192E+03  0.10100000352E+00 0. -1.
       -3    1    3    3    0  502 -0.28286044549E+03  0.62557106205E+03 -0.20145616974E+03  0.71549548134E+03  0.10100000352E+00 0.  1.
</event>
<event>
 5   0  0.2316714E-05  0.1399607E+04  0.7818609E-02  0.8954103E-01
        1   -1    0    0  501    0  0.00000000000E+00  0.00000000000E+00  0.99301957696E+03  0.99301957697E+03  0.50400001928E-02 0. -1.
       -1   -1    0    0    0  501  0.00000000000E+00  0.00000000000E+00 -0.49316732445E+03  0.49316732447E+03  0.50400001928E-02 0.  1.
    10030    2    1    2    0    0  0.00000000000E+00  0.00000000000E+00  0.49985225251E+03  0.14861869014E+04  0.13996068132E+04 0.  0.
        5    1    3    3  502    0 -0.44882301095E+03  0.53038271984E+03  0.16137185904E+03  0.71330981456E+03  0.46999998093E+01 0.  1.
       -5    1    3    3    0  502  0.44882301095E+03 -0.53038271984E+03  0.33848039348E+03  0.77287708688E+03  0.46999998093E+01 0. -1.
</event>
<event>
 5   0  0.2428507E-05  0.1401801E+04  0.7818609E-02  0.8952516E-01
        1   -1    0    0  501    0  0.00000000000E+00  0.00000000000E+00  0.12389368954E+04  0.12389368955E+04  0.50400001928E-02 0.  1.
       -1   -1    0    0    0  501  0.00000000000E+00  0.00000000000E+00 -0.39651872124E+03  0.39651872127E+03  0.50400001928E-02 0. -1.
    10030    2    1    2    0    0  0.00000000000E+00  0.00000000000E+00  0.84241817420E+03  0.16354556167E+04  0.14018012320E+04 0.  0.
        4    1    3    3  502    0 -0.33997284174E+03  0.55308442311E+02  0.11333814512E+04  0.11845656098E+04  0.12699999809E+01 0.  1.
       -4    1    3    3    0  502  0.33997284174E+03 -0.55308442311E+02 -0.29096327703E+03  0.45089000697E+03  0.12699999809E+01 0. -1.
</event>
<event>
 5   0  0.4527503E-05  0.1399677E+04  0.7818609E-02  0.8954052E-01
        2   -1    0    0  501    0  0.00000000000E+00  0.00000000000E+00  0.61483890822E+03  0.61483890823E+03  0.25500000920E-02 0.  1.
       -2   -1    0    0    0  501  0.00000000000E+00  0.00000000000E+00 -0.79658938795E+03  0.79658938796E+03  0.25500000920E-02 0. -1.
    10030    2    1    2    0    0  0.00000000000E+00  0.00000000000E+00 -0.18175047973E+03  0.14114282962E+04  0.13996773194E+04 0.  0.
        4    1    3    3  502    0  0.19595633042E+03  0.49128601681E+03  0.37124250242E+03  0.64620696549E+03  0.12699999809E+01 0.  1.
       -4    1    3    3    0  502 -0.19595633042E+03 -0.49128601681E+03 -0.55299298215E+03  0.76522133070E+03  0.12699999809E+01 0. -1.
</event>
<event>
 5   0  0.4460282E-05  0.1400057E+04  0.7818609E-02  0.8953777E-01
        2   -1    0    0  501    0  0.00000000000E+00  0.00000000000E+00  0.74289199694E+03  0.74289199694E+03  0.25500000920E-02 0. -1.
       -2   -1    0    0    0  501  0.00000000000E+00  0.00000000000E+00 -0.65963859235E+03  0.65963859235E+03  0.25500000920E-02 0.  1.
    10030    2    1    2    0    0  0.00000000000E+00  0.00000000000E+00  0.83253404592E+02  0.14025305893E+04  0.14000574719E+04 0.  0.
        1    1    3    3  502    0 -0.39544972450E+03 -0.64099094683E+02  0.61670612737E+03  0.73540167671E+03  0.50400001928E-02 0. -1.
       -1    1    3    3    0  502  0.39544972450E+03  0.64099094683E+02 -0.53345272278E+03  0.66712891259E+03  0.50400001928E-02 0.  1.
</event>
<event>
 5   0  0.2363419E-05  0.1400000E+04  0.7818609E-02  0.8953819E-01
        1   -1    0    0  501    0  0.00000000000E+00  0.00000000000E+00  0.90166371761E+03  0.90166371763E+03  0.50400001928E-02 0.  1.
       -1   -1    0    0    0  501  0.00000000000E+00  0.00000000000E+00 -0.54343984517E+03  0.54343984519E+03  0.50400001928E-02 0. -1.
    10030    2    1    2    0    0  0.00000000000E+00  0.00000000000E+00  0.35822387244E+03  0.14451035628E+04  0.13999999873E+04 0.  0.
        2    1    3    3  502    0  0.51741563683E+03  0.29670896809E+03  0.55731038030E+03  0.81630264791E+03  0.25500000920E-02 0.  1.
       -2    1    3    3    0  502 -0.51741563683E+03 -0.29670896809E+03 -0.19908650786E+03  0.62880091491E+03  0.25500000920E-02 0. -1.
</event>
<event>
 5   0  0.4243281E-05  0.1399955E+04  0.7818609E-02  0.8953851E-01
       -2   -1    0    0    0  501  0.00000000000E+00  0.00000000000E+00  0.26744453857E+03  0.26744453859E+03  0.25500000920E-02 0.  1.
        2   -1    0    0  501    0  0.00000000000E+00  0.00000000000E+00 -0.18320376952E+04  0.18320376952E+04  0.25500000920E-02 0. -1.
    10030    2    1    2    0    0  0.00000000000E+00  0.00000000000E+00 -0.15645931566E+04  0.20994822338E+04  0.13999549651E+04 0.  0.
        2    1    3    3  502    0  0.69492309607E+02 -0.40039433235E+03  0.72419700583E+02  0.41278252811E+03  0.25500000920E-02 0.  1.
       -2    1    3    3    0  502 -0.69492309607E+02  0.40039433235E+03 -0.16370128572E+04  0.16866997057E+04  0.25500000920E-02 0. -1.
</event>
<event>
 5   0  0.4460282E-05  0.1399945E+04  0.7818609E-02  0.8953858E-01
        2   -1    0    0  501    0  0.00000000000E+00  0.00000000000E+00  0.15860257073E+04  0.15860257073E+04  0.25500000920E-02 0. -1.
       -2   -1    0    0    0  501  0.00000000000E+00  0.00000000000E+00 -0.30892402974E+03  0.30892402975E+03  0.25500000920E-02 0.  1.
    10030    2    1    2    0    0  0.00000000000E+00  0.00000000000E+00  0.12771016776E+04  0.18949497371E+04  0.13999449315E+04 0.  0.
        1    1    3    3  502    0 -0.12827750770E+03 -0.67492170938E+03  0.45701333850E+03  0.82512764126E+03  0.50400001928E-02 0.  1.
       -1    1    3    3    0  502  0.12827750770E+03  0.67492170938E+03  0.82008833910E+03  0.10698220958E+04  0.50400001928E-02 0. -1.
</event>
<event>
 5   0  0.4441253E-05  0.1399700E+04  0.7818609E-02  0.8954036E-01
        2   -1    0    0  501    0  0.00000000000E+00  0.00000000000E+00  0.95134110753E+03  0.95134110753E+03  0.25500000920E-02 0.  1.
       -2   -1    0    0    0  501  0.00000000000E+00  0.00000000000E+00 -0.51484160324E+03  0.51484160324E+03  0.25500000920E-02 0. -1.
    10030    2    1    2    0    0  0.00000000000E+00  0.00000000000E+00  0.43649950429E+03  0.14661827108E+04  0.13996999407E+04 0.  0.
        3    1    3    3  502    0 -0.13851093030E+03  0.43104152979E+03  0.77727208721E+03  0.89951875243E+03  0.10100000352E+00 0.  1.
       -3    1    3    3    0  502  0.13851093030E+03 -0.43104152979E+03 -0.34077258292E+03  0.56666395835E+03  0.10100000352E+00 0. -1.
</event>
<event>
 5   0  0.4243281E-05  0.1399172E+04  0.7818609E-02  0.8954418E-01
        2   -1    0    0  501    0  0.00000000000E+00  0.00000000000E+00  0.17955028262E+04  0.17955028262E+04  0.25500000920E-02 0. -1.
       -2   -1    0    0    0  501  0.00000000000E+00  0.00000000000E+00 -0.27258153327E+03  0.27258153328E+03  0.25500000920E-02 0.  1.
    10030    2    1    2    0    0  0.00000000000E+00  0.00000000000E+00  0.15229212930E+04  0.20680843595E+04  0.13991724888E+04 0.  0.
        2    1    3    3  502    0  0.22645655634E+03  0.89065651715E+02 -0.20801085780E+03  0.32013087822E+03  0.25500000920E-02 0.  1.
       -2    1    3    3    0  502 -0.22645655634E+03 -0.89065651715E+02  0.17309321508E+04  0.17479534813E+04  0.25500000920E-02 0. -1.
</event>
<event>
 5   0  0.2316714E-05  0.1401426E+04  0.7818609E-02  0.8952787E-01
       -1   -1    0    0    0  501  0.00000000000E+00  0.00000000000E+00  0.44188974485E+03  0.44188974488E+03  0.50400001928E-02 0.  1.
        1   -1    0    0  501    0  0.00000000000E+00  0.00000000000E+00 -0.11111337982E+04  0.11111337982E+04  0.50400001928E-02 0. -1.
    10030    2    1    2    0    0  0.00000000000E+00  0.00000000000E+00 -0.66924405338E+03  0.15530235431E+04  0.14014258890E+04 0.  0.
        5    1    3    3  502    0  0.18584587584E+03 -0.62627317420E+03 -0.61545121866E+03  0.89752942617E+03  0.46999998093E+01 0. -1.
       -5    1    3    3    0  502 -0.18584587584E+03  0.62627317420E+03 -0.53792834716E+02  0.65549411695E+03  0.46999998093E+01 0.  1.
</event>
<event>
 5   0  0.4527503E-05  0.1397483E+04  0.7818609E-02  0.8955642E-01
        2   -1    0    0  501    0  0.00000000000E+00  0.00000000000E+00  0.11437644921E+04  0.11437644921E+04  0.25500000920E-02 0.  1.
       -2   -1    0    0    0  501  0.00000000000E+00  0.00000000000E+00 -0.42687100296E+03  0.42687100297E+03  0.25500000920E-02 0. -1.
    10030    2    1    2    0    0  0.00000000000E+00  0.00000000000E+00  0.71689348912E+03  0.15706354951E+04  0.13974833035E+04 0.  0.
        4    1    3    3  502    0  0.16364207163E+03 -0.29535752264E+03 -0.32908744882E+03  0.47150286920E+03  0.12699999809E+01 0. -1.
       -4    1    3    3    0  502 -0.16364207163E+03  0.29535752264E+03  0.10459809379E+04  0.10991326259E+04  0.12699999809E+01 0.  1.
</event>
<event>
 5   0  0.2467303E-05  0.1408100E+04  0.7818609E-02  0.8947976E-01
       -1   -1    0    0    0  501  0.00000000000E+00  0.00000000000E+00  0.48522040052E+03  0.48522040054E+03  0.50400001928E-02 0.  1.
        1   -1    0    0  501    0  0.00000000000E+00  0.00000000000E+00 -0.10215699791E+04  0.10215699791E+04  0.50400001928E-02 0. -1.
    10030    2    1    2    0    0  0.00000000000E+00  0.00000000000E+00 -0.53634957860E+03  0.15067903797E+04  0.14081002726E+04 0.  0.
        3    1    3    3  502    0  0.59611196196E+03  0.28959445056E+03 -0.52246900624E+03  0.84391248934E+03  0.10100000352E+00 0. -1.
       -3    1    3    3    0  502 -0.59611196196E+03 -0.28959445056E+03 -0.13880572355E+02  0.66287789032E+03  0.10100000352E+00 0.  1.
</event>
<event>
 5   0  0.2427569E-05  0.1393527E+04  0.7818609E-02  0.8958518E-01
       -1   -1    0    0    0  501  0.00000000000E+00  0.00000000000E+00  0.58706566242E+03  0.58706566245E+03  0.50400001928E-02 0.  1.
        1   -1    0    0  501    0  0.00000000000E+00  0.00000000000E+00 -0.82695876778E+03  0.82695876779E+03  0.50400001928E-02 0. -1.
    10030    2    1    2    0    0  0.00000000000E+00  0.00000000000E+00 -0.23989310536E+03  0.14140244302E+04  0.13935266009E+04 0.  0.
        1    1    3    3  502    0  0.29458419557E+03  0.59900879033E+03  0.82710276339E+02  0.67263093076E+03  0.50400001928E-02 0. -1.
       -1    1    3    3    0  502 -0.29458419557E+03 -0.59900879033E+03 -0.32260338169E+03  0.74139349948E+03  0.50400001928E-02 0.  1.
</event>
<event>
 5   0  0.4441253E-05  0.1398918E+04  0.7818609E-02  0.8954602E-01
       -2   -1    0    0    0  501  0.00000000000E+00  0.00000000000E+00  0.36328063986E+03  0.36328063986E+03  0.25500000920E-02 0.  1.
        2   -1    0    0  501    0  0.00000000000E+00  0.00000000000E+00 -0.13467348634E+04  0.13467348634E+04  0.25500000920E-02 0. -1.
    10030    2    1    2    0    0  0.00000000000E+00  0.00000000000E+00 -0.98345422359E+03  0.17100155033E+04  0.13989177287E+04 0.  0.
        3    1    3    3  502    0  0.32709073577E+02  0.49597066077E+02 -0.13436449475E+04  0.13449578089E+04  0.10100000352E+00 0. -1.
       -3    1    3    3    0  502 -0.32709073577E+02 -0.49597066077E+02  0.36019072393E+03  0.36505769443E+03  0.10100000352E+00 0.  1.
</event>
<event>
 5   0  0.1661000E-05  0.1399837E+04  0.7818609E-02  0.8953937E-01
       -3   -1    0    0    0  501  0.00000000000E+00  0.00000000000E+00  0.26563187601E+03  0.26563189521E+03  0.10100000352E+00 0. -1.
        3   -1    0    0  501    0  0.00000000000E+00  0.00000000000E+00 -0.18442275562E+04  0.18442275589E+04  0.10100000352E+00 0.  1.
    10030    2    1    2    0    0  0.00000000000E+00  0.00000000000E+00 -0.15785956802E+04  0.21098594541E+04  0.13998366315E+04 0.  0.
        4    1    3    3  502    0 -0.65012809546E+03 -0.25660911264E+03 -0.73352549403E+03  0.10132008885E+04  0.12699999809E+01 0. -1.
       -4    1    3    3    0  502  0.65012809546E+03  0.25660911264E+03 -0.84507018613E+03  0.10966585656E+04  0.12699999809E+01 0.  1.
</event>
<event>
 5   0  0.2467303E-05  0.1399696E+04  0.7818609E-02  0.8954038E-01
        1   -1    0    0  501    0  0.00000000000E+00  0.00000000000E+00  0.18133179310E+04  0.18133179310E+04  0.50400001928E-02 0.  1.
       -1   -1    0    0    0  501  0.00000000000E+00  0.00000000000E+00 -0.27010564676E+03  0.27010564681E+03  0.50400001928E-02 0. -1.
    10030    2    1    2    0    0  0.00000000000E+00  0.00000000000E+00  0.15432122842E+04  0.20834235778E+04  0.13996962707E+04 0.  0.
        3    1    3    3  502    0  0.36022620058E+03 -0.39774055124E+03  0.14403092441E+04  0.15370267371E+04  0.10100000352E+00 0.  1.
       -3    1    3    3    0  502 -0.36022620058E+03  0.39774055124E+03  0.10290304015E+03  0.54639684073E+03  0.10100000352E+00 0. -1.
</event>
<event>
 5   0  0.2428507E-05  0.1399794E+04  0.7818609E-02  0.8953968E-01
       -1   -1    0    0    0  501  0.00000000000E+00  0.00000000000E+00  0.10071088862E+04  0.10071088863E+04  0.50400001928E-02 0. -1.
        1   -1    0    0  501    0  0.00000000000E+00  0.00000000000E+00 -0.48639818813E+03  0.48639818815E+03  0.50400001928E-02 0.  1.
    10030    2    1    2    0    0  0.00000000000E+00  0.00000000000E+00  0.52071069811E+03  0.14935070744E+04  0.13997941814E+04 0.  0.
        4    1    3    3  502    0  0.18842745112E+03  0.31450482340E+03  0.89645314373E+03  0.96852880188E+03  0.12699999809E+01 0. -1.
       -4    1    3    3    0  502 -0.18842745112E+03 -0.31450482340E+03 -0.37574244562E+03  0.52497827252E+03  0.12699999809E+01 0.  1.
</event>
<event>
 5   0  0.2316714E-05  0.1400523E+04  0.7818609E-02  0.8953440E-01
        1   -1    0    0  501    0  0.00000000000E+00  0.00000000000E+00  0.42913108669E+03  0.42913108672E+03  0.50400001928E-02 0. -1.
       -1   -1    0    0    0  501  0.00000000000E+00  0.00000000000E+00 -0.11426955958E+04  0.11426955958E+04  0.50400001928E-02 0.  1.
    10030    2    1    2    0    0  0.00000000000E+00  0.00000000000E+00 -0.71356450914E+03  0.15718266826E+04  0.14005230492E+04 0.  0.
        5    1    3    3  502    0  0.16207689882E+01  0.69277135051E+03 -0.24227683785E+03  0.73393114605E+03  0.46999998093E+01 0.  1.
       -5    1    3    3    0  502 -0.16207689882E+01 -0.69277135051E+03 -0.47128767128E+03  0.83789553650E+03  0.46999998093E+01 0. -1.
</event>
<event>
 5   0  0.2428507E-05  0.1400171E+04  0.7818609E-02  0.8953695E-01
        1   -1    0    0  501    0  0.00000000000E+00  0.00000000000E+00  0.77796983032E+03  0.77796983034E+03  0.50400001928E-02 0. -1.
       -1   -1    0    0    0  501  0.00000000000E+00  0.00000000000E+00 -0.62999800712E+03  0.62999800714E+03  0.50400001928E-02 0.  1.
    10030    2    1    2    0    0  0.00000000000E+00  0.00000000000E+00  0.14797182320E+03  0.14079678375E+04  0.14001706221E+04 0.  0.
        4    1    3    3  502    0  0.38653283847E+03 -0.30346909027E+03  0.57537736518E+03  0.75667816754E+03  0.12699999809E+01 0. -1.
       -4    1    3    3    0  502 -0.38653283847E+03  0.30346909027E+03 -0.42740554198E+03  0.65128966995E+03  0.12699999809E+01 0.  1.
</event>
<event>
 5   0  0.4441253E-05  0.1402286E+04  0.7818609E-02  0.8952165E-01
        2   -1    0    0  501    0  0.00000000000E+00  0.00000000000E+00  0.68147670803E+03  0.68147670803E+03  0.25500000920E-02 0.  1.
       -2   -1    0    0    0  501  0.00000000000E+00  0.00000000000E+00 -0.72137696982E+03  0.72137696983E+03  0.25500000920E-02 0. -1.
    10030    2    1    2    0    0  0.00000000000E+00  0.00000000000E+00 -0.39900261794E+02  0.14028536779E+04  0.14022861372E+04 0.  0.
        3    1    3    3  502    0 -0.12131360097E+03 -0.67282723057E+03  0.13563811905E+03  0.69700156493E+03  0.10100000352E+00 0.  1.
       -3    1    3    3    0  502  0.12131360097E+03  0.67282723057E+03 -0.17553838085E+03  0.70585211293E+03  0.10100000352E+00 0. -1.
</event>
<event>
 5   0  0.2427569E-05  0.1399574E+04  0.7818609E-02  0.8954127E-01
       -1   -1    0    0    0  501  0.00000000000E+00  0.00000000000E+00  0.13827020647E+04  0.13827020647E+04  0.50400001928E-02 0.  1.
        1   -1    0    0  501    0  0.00000000000E+00  0.00000000000E+00 -0.35416294487E+03  0.35416294491E+03  0.50400001928E-02 0. -1.
    10030    2    1    2    0    0  0.00000000000E+00  0.00000000000E+00  0.10285391198E+04  0.17368650096E+04  0.13995739854E+04 0.  0.
        1    1    3    3  502    0  0.55322675949E+03 -0.33898421402E+03  0.83961799124E+03  0.10610977881E+04  0.50400001928E-02 0. -1.
       -1    1    3    3    0  502 -0.55322675949E+03  0.33898421402E+03  0.18892112861E+03  0.67576722148E+03  0.50400001928E-02 0.  1.
</event>
<event>
 5   0  0.4441253E-05  0.1399521E+04  0.7818609E-02  0.8954165E-01
        2   -1    0    0  501    0  0.00000000000E+00  0.00000000000E+00  0.11816396719E+04  0.11816396719E+04  0.25500000920E-02 0. -1.
       -2   -1    0    0    0  501  0.00000000000E+00  0.00000000000E+00 -0.41439459558E+03  0.41439459558E+03  0.25500000920E-02 0.  1.
    10030    2    1    2    0    0  0.00000000000E+00  0.00000000000E+00  0.76724507634E+03  0.15960342675E+04  0.13995214810E+04 0.  0.
        3    1    3    3  502    0 -0.41121260899E+03  0.17735174685E+03 -0.22957221434E+03  0.50324235086E+03  0.10100000352E+00 0.  1.
       -3    1    3    3    0  502  0.41121260899E+03 -0.17735174685E+03  0.99681729068E+03  0.10927919166E+04  0.10100000352E+00 0. -1.
</event>
<event>
 5   0  0.4527503E-05  0.1400031E+04  0.7818609E-02  0.8953796E-01
       -2   -1    0    0    0  501  0.00000000000E+00  0.00000000000E+00  0.79347428969E+03  0.79347428970E+03  0.25500000920E-02 0.  1.
        2   -1    0    0  501    0  0.00000000000E+00  0.00000000000E+00 -0.61756496996E+03  0.61756496997E+03  0.25500000920E-02 0. -1.
    10030    2    1    2    0    0  0.00000000000E+00  0.00000000000E+00  0.17590931973E+03  0.14110392597E+04  0.14000313223E+04 0.  0.
        4    1    3    3  502    0 -0.18354049854E+03  0.63451845407E+03  0.32155175979E+03  0.73464136167E+03  0.12699999809E+01 0.  1.
       -4    1    3    3    0  502  0.18354049854E+03 -0.63451845407E+03 -0.14564244006E+03  0.67639789799E+03  0.12699999809E+01 0. -1.
</event>
<event>
 5   0  0.2428507E-05  0.1399925E+04  0.7818609E-02  0.8953873E-01
       -1   -1    0    0    0  501  0.00000000000E+00  0.00000000000E+00  0.86053516813E+03  0.86053516814E+03  0.50400001928E-02 0. -1.
        1   -1    0    0  501    0  0.00000000000E+00  0.00000000000E+00 -0.56935184653E+03  0.56935184655E+03  0.50400001928E-02 0.  1.
    10030    2    1    2    0    0  0.00000000000E+00  0.00000000000E+00  0.29118332160E+03  0.14298870147E+04  0.13999246937E+04 0.  0.
        4    1    3    3  502    0  0.51805692383E+03 -0.34729964524E+03  0.47011120804E+03  0.78102892439E+03  0.12699999809E+01 0. -1.
       -4    1    3    3    0  502 -0.51805692383E+03  0.34729964524E+03 -0.17892788644E+03  0.64885809030E+03  0.12699999809E+01 0.  1.
</event>
<event>
 5   0  0.2427569E-05  0.1399569E+04  0.7818609E-02  0.8954131E-01
        1   -1    0    0  501    0  0.00000000000E+00  0.00000000000E+00  0.79430678921E+03  0.79430678923E+03  0.50400001928E-02 0.  1.
       -1   -1    0    0    0  501  0.00000000000E+00  0.00000000000E+00 -0.61651037033E+03  0.61651037035E+03  0.50400001928E-02 0. -1.
    10030    2    1    2    0    0  0.00000000000E+00  0.00000000000E+00  0.17779641888E+03  0.14108171596E+04  0.13995690377E+04 0.  0.
        1    1    3    3  502    0 -0.33507104318E+03 -0.65400820923E+02  0.70466641103E+03  0.78300997581E+03  0.50400001928E-02 0.  1.
       -1    1    3    3    0  502  0.33507104318E+03  0.65400820923E+02 -0.52686999214E+03  0.62780718378E+03  0.50400001928E-02 0. -1.
</event>
<event>
 5   0  0.4243281E-05  0.1400545E+04  0.7818609E-02  0.8953424E-01
       -2   -1    0    0    0  501  0.00000000000E+00  0.00000000000E+00  0.52296063201E+03  0.52296063202E+03  0.25500000920E-02 0.  1.
        2   -1    0    0  501    0  0.00000000000E+00  0.00000000000E+00 -0.93770309998E+03  0.93770309998E+03  0.25500000920E-02 0. -1.
    10030    2    1    2    0    0  0.00000000000E+00  0.00000000000E+00 -0.41474246796E+03  0.14606637320E+04  0.14005453307E+04 0.  0.
        2    1    3    3  502    0 -0.42885544609E+03  0.53602759541E+03 -0.63088189834E+02  0.68936397962E+03  0.25500000920E-02 0.  1.
       -2    1    3    3    0  502  0.42885544609E+03 -0.53602759541E+03 -0.35165427813E+03  0.77129975238E+03  0.25500000920E-02 0. -1.
</event>
<event>
 5   0  0.4441253E-05  0.1399664E+04  0.7818609E-02  0.8954062E-01
        2   -1    0    0  501    0  0.00000000000E+00  0.00000000000E+00  0.13570645720E+04  0.13570645720E+04  0.25500000920E-02 0.  1.
       -2   -1    0    0    0  501  0.00000000000E+00  0.00000000000E+00 -0.36090005597E+03  0.36090005598E+03  0.25500000920E-02 0. -1.
    10030    2    1    2    0    0  0.00000000000E+00  0.00000000000E+00  0.99616451605E+03  0.17179646280E+04  0.13996637882E+04 0.  0.
        3    1    3    3  502    0 -0.26960911239E+03 -0.58091049622E+03  0.15174617835E+03  0.65815878855E+03  0.10100000352E+00 0.  1.
       -3    1    3    3    0  502  0.26960911239E+03  0.58091049622E+03  0.84441833770E+03  0.10598058395E+04  0.10100000352E+00 0. -1.
</event>
<event>
 5   0  0.2428507E-05  0.1399441E+04  0.7818609E-02  0.8954224E-01
        1   -1    0    0  501    0  0.00000000000E+00  0.00000000000E+00  0.11961168580E+04  0.11961168580E+04  0.50400001928E-02 0. -1.
       -1   -1    0    0    0  501  0.00000000000E+00  0.00000000000E+00 -0.40933166540E+03  0.40933166543E+03  0.50400001928E-02 0.  1.
    10030    2    1    2    0    0  0.00000000000E+00  0.00000000000E+00  0.78678519256E+03  0.16054485234E+04  0.13994406104E+04 0.  0.
        4    1    3    3  502    0  0.38308525026E+03 -0.15907597378E+03  0.10398593656E+04  0.11195394533E+04  0.12699999809E+01 0. -1.
       -4    1    3    3    0  502 -0.38308525026E+03  0.15907597378E+03 -0.25307417307E+03  0.48590907007E+03  0.12699999809E+01 0.  1.
</event>
<event>
 5   0  0.2363419E-05  0.1398984E+04  0.7818609E-02  0.8954555E-01
        1   -1    0    0  501    0  0.00000000000E+00  0.00000000000E+00  0.46808729734E+03  0.46808729737E+03  0.50400001928E-02 0.  1.
       -1   -1    0    0    0  501  0.00000000000E+00  0.00000000000E+00 -0.10452940068E+04  0.10452940068E+04  0.50400001928E-02 0. -1.
    10030    2    1    2    0    0  0.00000000000E+00  0.00000000000E+00 -0.57720670950E+03  0.15133813042E+04  0.13989836977E+04 0.  0.
        2    1    3    3  502    0 -0.23075645788E+00 -0.36318699205E+03 -0.93530395615E+03  0.10033435777E+04  0.25500000920E-02 0. -1.
       -2    1    3    3    0  502  0.23075645788E+00  0.36318699205E+03  0.35809724665E+03  0.51003772655E+03  0.25500000920E-02 0.  1.
</event>
<event>
 5   0  0.2427569E-05  0.1400879E+04  0.7818609E-02  0.8953182E-01
       -1   -1    0    0    0  501  0.00000000000E+00  0.00000000000E+00  0.52115108038E+03  0.52115108040E+03  0.50400001928E-02 0. -1.
        1   -1    0    0  501    0  0.00000000000E+00  0.00000000000E+00 -0.94140789430E+03  0.94140789431E+03  0.50400001928E-02 0.  1.
    10030    2    1    2    0    0  0.00000000000E+00  0.00000000000E+00 -0.42025681392E+03  0.14625589747E+04  0.14008793541E+04 0.  0.
        1    1    3    3  502    0 -0.48665638983E+03  0.36882918126E+03  0.14812171788E+03  0.62833864281E+03  0.50400001928E-02 0. -1.
       -1    1    3    3    0  502  0.48665638983E+03 -0.36882918126E+03 -0.56837853180E+03  0.83422033190E+03  0.50400001928E-02 0.  1.
</event>
<event>
 5   0  0.4243281E-05  0.1400143E+04  0.7818609E-02  0.8953715E-01
        2   -1    0    0  501    0  0.00000000000E+00  0.00000000000E+00  0.83553953621E+03  0.83553953622E+03  0.25500000920E-02 0. -1.
       -2   -1    0    0    0  501  0.00000000000E+00  0.00000000000E+00 -0.58656690758E+03  0.58656690758E+03  0.25500000920E-02 0.  1.
    10030    2    1    2    0    0  0.00000000000E+00  0.00000000000E+00  0.24897262863E+03  0.14221064438E+04  0.14001426241E+04 0.  0.
        2    1    3    3  502    0 -0.54843717520E+03 -0.13658625053E+03 -0.29510509942E+03  0.63759403909E+03  0.25500000920E-02 0.  1.
       -2    1    3    3    0  502  0.54843717520E+03  0.13658625053E+03  0.54407772805E+03  0.78451240471E+03  0.25500000920E-02 0. -1.
</event>
<event>
 5   0  0.2316714E-05  0.1399825E+04  0.7818609E-02  0.8953945E-01
       -1   -1    0    0    0  501  0.00000000000E+00  0.00000000000E+00  0.79873802849E+03  0.79873802851E+03  0.50400001928E-02 0. -1.
        1   -1    0    0  501    0  0.00000000000E+00  0.00000000000E+00 -0.61331406329E+03  0.61331406331E+03  0.50400001928E-02 0.  1.
    10030    2    1    2    0    0  0.00000000000E+00  0.00000000000E+00  0.18542396520E+03  0.14120520918E+04  0.13998246544E+04 0.  0.
        5    1    3    3  502    0  0.28110693817E+03  0.24624908552E+03 -0.50423028589E+03  0.62763842618E+03  0.46999998093E+01 0.  1.
       -5    1    3    3    0  502 -0.28110693817E+03 -0.24624908552E+03  0.68965425109E+03  0.78441366564E+03  0.46999998093E+01 0. -1.
</event>
<event>
 5   0  0.2467303E-05  0.1400444E+04  0.7818609E-02  0.8953497E-01
       -1   -1    0    0    0  501  0.00000000000E+00  0.00000000000E+00  0.44706876803E+03  0.44706876806E+03  0.50400001928E-02 0. -1.
        1   -1    0    0  501    0  0.00000000000E+00  0.00000000000E+00 -0.10967231911E+04  0.10967231911E+04  0.50400001928E-02 0.  1.
    10030    2    1    2    0    0  0.00000000000E+00  0.00000000000E+00 -0.64965442303E+03  0.15437919591E+04  0.14004437667E+04 0.  0.
        3    1    3    3  502    0  0.33674055125E+02 -0.41000587407E+03 -0.94945925573E+03  0.10347519738E+04  0.10100000352E+00 0.  1.
       -3    1    3    3    0  502 -0.33674055125E+02  0.41000587407E+03  0.29980483270E+03  0.50903998534E+03  0.10100000352E+00 0. -1.
</event>
<event>
 5   0  0.4441253E-05  0.1403390E+04  0.7818609E-02  0.8951368E-01
       -2   -1    0    0    0  501  0.00000000000E+00  0.00000000000E+00  0.68347331615E+03  0.68347331615E+03  0.25500000920E-02 0. -1.
        2   -1    0    0  501    0  0.00000000000E+00  0.00000000000E+00 -0.72040296660E+03  0.72040296660E+03  0.25500000920E-02 0.  1.
    10030    2    1    2    0    0  0.00000000000E+00  0.00000000000E+00 -0.36929650449E+02  0.14038762828E+04  0.14033904725E+04 0.  0.
        3    1    3    3  502    0 -0.62889281840E+03 -0.24163229528E+03  0.17777609720E+03  0.69677592818E+03  0.10100000352E+00 0. -1.
       -3    1    3    3    0  502  0.62889281840E+03  0.24163229528E+03 -0.21470574765E+03  0.70710035457E+03  0.10100000352E+00 0.  1.
</event>
<event>
 5   0  0.4441253E-05  0.1400310E+04  0.7818609E-02  0.8953594E-01
       -2   -1    0    0    0  501  0.00000000000E+00  0.00000000000E+00  0.36794884451E+03  0.36794884452E+03  0.25500000920E-02 0. -1.
        2   -1    0    0  501    0  0.00000000000E+00  0.00000000000E+00 -0.13322971687E+04  0.13322971687E+04  0.25500000920E-02 0.  1.
    10030    2    1    2    0    0  0.00000000000E+00  0.00000000000E+00 -0.96434832417E+03  0.17002460132E+04  0.14003102567E+04 0.  0.
        3    1    3    3  502    0  0.33305994131E+03 -0.57413820671E+02  0.26234649621E+03  0.42784455773E+03  0.10100000352E+00 0. -1.
       -3    1    3    3    0  502 -0.33305994131E+03  0.57413820671E+02 -0.12266948204E+04  0.12724014555E+04  0.10100000352E+00 0.  1.
</event>
<event>
 5   0  0.2427569E-05  0.1400422E+04  0.7818609E-02  0.8953513E-01
        1   -1    0    0  501    0  0.00000000000E+00  0.00000000000E+00  0.31461940525E+04  0.31461940525E+04  0.50400001928E-02 0. -1.
       -1   -1    0    0    0  501  0.00000000000E+00  0.00000000000E+00 -0.15583764212E+03  0.15583764220E+03  0.50400001928E-02 0.  1.
    10030    2    1    2    0    0  0.00000000000E+00  0.00000000000E+00  0.29903564104E+04  0.33020316947E+04  0.14004220263E+04 0.  0.
        1    1    3    3  502    0 -0.56751924790E+03  0.38565924032E+03  0.11660501582E+04  0.13529538491E+04  0.50400001928E-02 0.  1.
       -1    1    3    3    0  502  0.56751924790E+03 -0.38565924032E+03  0.18243062522E+04  0.19490778456E+04  0.50400001928E-02 0. -1.
</event>
<event>
 5   0  0.4460282E-05  0.1397918E+04  0.7818609E-02  0.8955327E-01
       -2   -1    0    0    0  501  0.00000000000E+00  0.00000000000E+00  0.39202386544E+03  0.39202386545E+03  0.25500000920E-02 0. -1.
        2   -1    0    0  501    0  0.00000000000E+00  0.00000000000E+00 -0.12462099117E+04  0.12462099118E+04  0.25500000920E-02 0.  1.
    10030    2    1    2    0    0  0.00000000000E+00  0.00000000000E+00 -0.85418604630E+03  0.16382337772E+04  0.13979184909E+04 0.  0.
        1    1    3    3  502    0 -0.46892245409E+03 -0.18670253572E+03  0.13955626803E+03  0.52366215900E+03  0.50400001928E-02 0. -1.
       -1    1    3    3    0  502  0.46892245409E+03  0.18670253572E+03 -0.99374231433E+03  0.11145716182E+04  0.50400001928E-02 0.  1.
</event>
<event>
 5   0  0.2363419E-05  0.1399618E+04  0.7818609E-02  0.8954095E-01
       -1   -1    0    0    0  501  0.00000000000E+00  0.00000000000E+00  0.34376617206E+03  0.34376617210E+03  0.50400001928E-02 0.  1.
        1   -1    0    0  501    0  0.00000000000E+00  0.00000000000E+00 -0.14246105243E+04  0.14246105243E+04  0.50400001928E-02 0. -1.
    10030    2    1    2    0    0  0.00000000000E+00  0.00000000000E+00 -0.10808443522E+04  0.17683766964E+04  0.13996183861E+04 0.  0.
        2    1    3    3  502    0  0.82732619805E+02 -0.56400210481E+02  0.33466894860E+03  0.34932645947E+03  0.25500000920E-02 0.  1.
       -2    1    3    3    0  502 -0.82732619805E+02  0.56400210481E+02 -0.14155133008E+04  0.14190502369E+04  0.25500000920E-02 0. -1.
</event>
<event>
 5   0  0.2427569E-05  0.1399817E+04  0.7818609E-02  0.8953951E-01
        1   -1    0    0  501    0  0.00000000000E+00  0.00000000000E+00  0.81755773726E+03  0.81755773728E+03  0.50400001928E-02 0. -1.
       -1   -1    0    0    0  501  0.00000000000E+00  0.00000000000E+00 -0.59918938961E+03  0.59918938963E+03  0.50400001928E-02 0.  1.
    10030    2    1    2    0    0  0.00000000000E+00  0.00000000000E+00  0.21836834765E+03  0.14167471269E+04  0.13998170189E+04 0.  0.
        1    1    3    3  502    0 -0.54393377255E+03 -0.13674722648E+03  0.53294630860E+03  0.77368955063E+03  0.50400001928E-02 0. -1.
       -1    1    3    3    0  502  0.54393377255E+03  0.13674722648E+03 -0.31457796095E+03  0.64305757628E+03  0.50400001928E-02 0.  1.
</event>
<event>
 5   0  0.1661000E-05  0.1400416E+04  0.7818609E-02  0.8953517E-01
       -4   -1    0    0    0  501  0.00000000000E+00  0.00000000000E+00  0.70378430195E+03  0.70378544783E+03  0.12699999809E+01 0. -1.
        4   -1    0    0  501    0  0.00000000000E+00  0.00000000000E+00 -0.69664800704E+03  0.69664916465E+03  0.12699999809E+01 0.  1.
    10030    2    1    2    0    0  0.00000000000E+00  0.00000000000E+00  0.71362949191E+01  0.14004346125E+04  0.14004164299E+04 0.  0.
        3    1    3    3  502    0 -0.48117403542E+03  0.29806345923E+03  0.41578855989E+03  0.70231788731E+03  0.10100000352E+00 0. -1.
       -3    1    3    3    0  502  0.48117403542E+03 -0.29806345923E+03 -0.40865226497E+03  0.69811672517E+03  0.10100000352E+00 0.  1.
</event>
<event>
 5   0  0.4460282E-05  0.1400450E+04  0.7818609E-02  0.8953493E-01
        2   -1    0    0  501    0  0.00000000000E+00  0.00000000000E+00  0.88507934491E+03  0.88507934491E+03  0.25500000920E-02 0. -1.
       -2   -1    0    0    0  501  0.00000000000E+00  0.00000000000E+00 -0.55397865117E+03  0.55397865118E+03  0.25500000920E-02 0.  1.
    10030    2    1    2    0    0  0.00000000000E+00  0.00000000000E+00  0.33110069374E+03  0.14390579961E+04  0.14004500158E+04 0.  0.
        1    1    3    3  502    0 -0.29369544702E+03  0.59861735682E+03 -0.54155442279E+02  0.66897874961E+03  0.50400001928E-02 0.  1.
       -1    1    3    3    0  502  0.29369544702E+03 -0.59861735682E+03  0.38525613601E+03  0.77007924647E+03  0.50400001928E-02 0. -1.
</event>
<event>
 5   0  0.2363419E-05  0.1398372E+04  0.7818609E-02  0.8954998E-01
        1   -1    0    0  501    0  0.00000000000E+00  0.00000000000E+00  0.16841598508E+04  0.16841598508E+04  0.50400001928E-02 0.  1.
       -1   -1    0    0    0  501  0.00000000000E+00  0.00000000000E+00 -0.29027005562E+03  0.29027005566E+03  0.50400001928E-02 0. -1.
    10030    2    1    2    0    0  0.00000000000E+00  0.00000000000E+00  0.13938897952E+04  0.19744299065E+04  0.13983721588E+04 0.  0.
        2    1    3    3  502    0 -0.28357082596E+02  0.60417914345E+03  0.20170576520E+03  0.63759060316E+03  0.25500000920E-02 0. -1.
       -2    1    3    3    0  502  0.28357082596E+02 -0.60417914345E+03  0.11921840300E+04  0.13368393033E+04  0.25500000920E-02 0.  1.
</event>
<event>
 5   0  0.2363419E-05  0.1399912E+04  0.7818609E-02  0.8953882E-01
        1   -1    0    0  501    0  0.00000000000E+00  0.00000000000E+00  0.52149794090E+03  0.52149794092E+03  0.50400001928E-02 0.  1.
       -1   -1    0    0    0  501  0.00000000000E+00  0.00000000000E+00 -0.93948348319E+03  0.93948348320E+03  0.50400001928E-02 0. -1.
    10030    2    1    2    0    0  0.00000000000E+00  0.00000000000E+00 -0.41798554229E+03  0.14609814241E+04  0.13999124287E+04 0.  0.
        2    1    3    3  502    0 -0.37826965491E+03  0.20958001755E+03  0.36540508060E+03  0.56615597543E+03  0.25500000920E-02 0.  1.
       -2    1    3    3    0  502  0.37826965491E+03 -0.20958001755E+03 -0.78339062289E+03  0.89482544869E+03  0.25500000920E-02 0. -1.
</event>
<event>
 5   0  0.4243281E-05  0.1399673E+04  0.7818609E-02  0.8954056E-01
       -2   -1    0    0    0  501  0.00000000000E+00  0.00000000000E+00  0.87059815373E+03  0.87059815373E+03  0.25500000920E-02 0. -1.
        2   -1    0    0  501    0  0.00000000000E+00  0.00000000000E+00 -0.56256821036E+03  0.56256821037E+03  0.25500000920E-02 0.  1.
    10030    2    1    2    0    0  0.00000000000E+00  0.00000000000E+00  0.30802994337E+03  0.14331663641E+04  0.13996725978E+04 0.  0.
        2    1    3    3  502    0  0.47488905720E+03  0.13963307217E+03  0.66057964319E+03  0.82545894901E+03  0.25500000920E-02 0. -1.
       -2    1    3    3    0  502 -0.47488905720E+03 -0.13963307217E+03 -0.35254969983E+03  0.60770741508E+03  0.25500000920E-02 0.  1.
</event>
<event>
 5   0  0.1661000E-05  0.1400455E+04  0.7818609E-02  0.8953489E-01
       -3   -1    0    0    0  501  0.00000000000E+00  0.00000000000E+00  0.23868444615E+04  0.23868444636E+04  0.10100000352E+00 0.  1.
        3   -1    0    0  501    0  0.00000000000E+00  0.00000000000E+00 -0.20542538708E+03  0.20542541191E+03  0.10100000352E+00 0. -1.
    10030    2    1    2    0    0  0.00000000000E+00  0.00000000000E+00  0.21814190744E+04  0.25922698755E+04  0.14004549009E+04 0.  0.
        5    1    3    3  502    0 -0.13904604323E+03  0.40768859276E+03  0.21125540005E+04  0.21560265040E+04  0.46999998093E+01 0.  1.
       -5    1    3    3    0  502  0.13904604323E+03 -0.40768859276E+03  0.68865073867E+02  0.43624337152E+03  0.46999998093E+01 0. -1.
</event>
<event>
 5   0  0.2467303E-05  0.1401918E+04  0.7818609E-02  0.8952431E-01
       -1   -1    0    0    0  501  0.00000000000E+00  0.00000000000E+00  0.66305512894E+03  0.66305512896E+03  0.50400001928E-02 0. -1.
        1   -1    0    0  501    0  0.00000000000E+00  0.00000000000E+00 -0.74103001823E+03  0.74103001825E+03  0.50400001928E-02 0.  1.
    10030    2    1    2    0    0  0.00000000000E+00  0.00000000000E+00 -0.77974889289E+02  0.14040851472E+04  0.14019183347E+04 0.  0.
        3    1    3    3  502    0  0.41329182215E+03 -0.50260561598E+03  0.22203234323E+03  0.68754702175E+03  0.10100000352E+00 0.  1.
       -3    1    3    3    0  502 -0.41329182215E+03  0.50260561598E+03 -0.30000723252E+03  0.71653812546E+03  0.10100000352E+00 0. -1.
</event>
<event>
 5   0  0.4621450E-05  0.1399820E+04  0.7818609E-02  0.8953949E-01
       -2   -1    0    0    0  501  0.00000000000E+00  0.00000000000E+00  0.32259745226E+03  0.32259745227E+03  0.25500000920E-02 0.  1.
        2   -1    0    0  501    0  0.00000000000E+00  0.00000000000E+00 -0.15185296852E+04  0.15185296852E+04  0.25500000920E-02 0. -1.
    10030    2    1    2    0    0  0.00000000000E+00  0.00000000000E+00 -0.11959322329E+04  0.18411271375E+04  0.13998197136E+04 0.  0.
        5    1    3    3  502    0  0.30221380215E+03  0.60177539761E+03 -0.84884973459E+03  0.10835288521E+04  0.46999998093E+01 0. -1.
       -5    1    3    3    0  502 -0.30221380215E+03 -0.60177539761E+03 -0.34708249836E+03  0.75759828540E+03  0.46999998093E+01 0.  1.
</event>
<event>
 5   0  0.2467303E-05  0.1400445E+04  0.7818609E-02  0.8953496E-01
        1   -1    0    0  501    0  0.00000000000E+00  0.00000000000E+00  0.76846124676E+03  0.76846124678E+03  0.50400001928E-02 0. -1.
       -1   -1    0    0    0  501  0.00000000000E+00  0.00000000000E+00 -0.63804354140E+03  0.63804354142E+03  0.50400001928E-02 0.  1.
    10030    2    1    2    0    0  0.00000000000E+00  0.00000000000E+00  0.13041770536E+03  0.14065047882E+04  0.14004452654E+04 0.  0.
        3    1    3    3  502    0 -0.22371982841E+02  0.47426575721E+03 -0.45168610019E+03  0.65532347538E+03  0.10100000352E+00 0.  1.
       -3    1    3    3    0  502  0.22371982841E+02 -0.47426575721E+03  0.58210380556E+03  0.75118131282E+03  0.10100000352E+00 0. -1.
</event>
<event>
 5   0  0.4243281E-05  0.1399656E+04  0.7818609E-02  0.8954068E-01
        2   -1    0    0  501    0  0.00000000000E+00  0.00000000000E+00  0.70640797145E+03  0.70640797145E+03  0.25500000920E-02 0. -1.
       -2   -1    0    0    0  501  0.00000000000E+00  0.00000000000E+00 -0.69330884209E+03  0.69330884210E+03  0.25500000920E-02 0.  1.
    10030    2    1    2    0    0  0.00000000000E+00  0.00000000000E+00  0.13099129357E+02  0.13997168135E+04  0.13996555187E+04 0.  0.
        2    1    3    3  502    0 -0.24009607580E+03 -0.49065479365E+03 -0.43092889454E+03  0.69576430226E+03  0.25500000920E-02 0.  1.
       -2    1    3    3    0  502  0.24009607580E+03  0.49065479365E+03  0.44402802390E+03  0.70395251129E+03  0.25500000920E-02 0. -1.
</event>
<event>
 5   0  0.4243281E-05  0.1399768E+04  0.7818609E-02  0.8953987E-01
       -2   -1    0    0    0  501  0.00000000000E+00  0.00000000000E+00  0.51586680349E+03  0.51586680349E+03  0.25500000920E-02 0.  1.
        2   -1    0    0  501    0  0.00000000000E+00  0.00000000000E+00 -0.94954271904E+03  0.94954271905E+03  0.25500000920E-02 0. -1.
    10030    2    1    2    0    0  0.00000000000E+00  0.00000000000E+00 -0.43367591556E+03  0.14654095225E+04  0.13997679340E+04 0.  0.
        2    1    3    3  502    0  0.68334303888E+03  0.11665261950E+03 -0.11603105729E+03  0.70287178681E+03  0.25500000920E-02 0.  1.
       -2    1    3    3    0  502 -0.68334303888E+03 -0.11665261950E+03 -0.31764485827E+03  0.76253773573E+03  0.25500000920E-02 0. -1.
</event>
<event>
 5   0  0.2427569E-05  0.1394562E+04  0.7818609E-02  0.8957765E-01
        1   -1    0    0  501    0  0.00000000000E+00  0.00000000000E+00  0.14067396413E+04  0.14067396413E+04  0.50400001928E-02 0.  1.
       -1   -1    0    0    0  501  0.00000000000E+00  0.00000000000E+00 -0.34562225594E+03  0.34562225598E+03  0.50400001928E-02 0. -1.
    10030    2    1    2    0    0  0.00000000000E+00  0.00000000000E+00  0.10611173854E+04  0.17523618973E+04  0.13945616206E+04 0.  0.
        1    1    3    3  502    0  0.54028874312E+03 -0.43065708500E+03  0.41252767782E+03  0.80470897584E+03  0.50400001928E-02 0. -1.
       -1    1    3    3    0  502 -0.54028874312E+03  0.43065708500E+03  0.64858970756E+03  0.94765292148E+03  0.50400001928E-02 0.  1.
</event>
<event>
 5   0  0.4441253E-05  0.1398248E+04  0.7818609E-02  0.8955087E-01
       -2   -1    0    0    0  501  0.00000000000E+00  0.00000000000E+00  0.22863236553E+03  0.22863236554E+03  0.25500000920E-02 0.  1.
        2   -1    0    0  501    0  0.00000000000E+00  0.00000000000E+00 -0.21378191959E+04  0.21378191959E+04  0.25500000920E-02 0. -1.
    10030    2    1    2    0    0  0.00000000000E+00  0.00000000000E+00 -0.19091868303E+04  0.23664515614E+04  0.13982484183E+04 0.  0.
        3    1    3    3  502    0 -0.38719027762E+03  0.42159920594E+03 -0.27526804980E+03  0.63516510529E+03  0.10100000352E+00 0.  1.
       -3    1    3    3    0  502  0.38719027762E+03 -0.42159920594E+03 -0.16339187805E+04  0.17312864561E+04  0.10100000352E+00 0. -1.
</event>
<event>
 5   0  0.4243281E-05  0.1399067E+04  0.7818609E-02  0.8954494E-01
        2   -1    0    0  501    0  0.00000000000E+00  0.00000000000E+00  0.60982174549E+03  0.60982174550E+03  0.25500000920E-02 0. -1.
       -2   -1    0    0    0  501  0.00000000000E+00  0.00000000000E+00 -0.80244298308E+03  0.80244298309E+03  0.25500000920E-02 0.  1.
    10030    2    1    2    0    0  0.00000000000E+00  0.00000000000E+00 -0.19262123759E+03  0.14122647286E+04  0.13990670900E+04 0.  0.
        2    1    3    3  502    0  0.35986274284E+03  0.10806168703E+03  0.49931368319E+03  0.62489413192E+03  0.25500000920E-02 0. -1.
       -2    1    3    3    0  502 -0.35986274284E+03 -0.10806168703E+03 -0.69193492078E+03  0.78737059666E+03  0.25500000920E-02 0.  1.
</event>
<event>
 5   0  0.2467303E-05  0.1400131E+04  0.7818609E-02  0.8953724E-01
       -1   -1    0    0    0  501  0.00000000000E+00  0.00000000000E+00  0.83203767971E+03  0.83203767973E+03  0.50400001928E-02 0. -1.
        1   -1    0    0  501    0  0.00000000000E+00  0.00000000000E+00 -0.58902553752E+03  0.58902553754E+03  0.50400001928E-02 0.  1.
    10030    2    1    2    0    0  0.00000000000E+00  0.00000000000E+00  0.24301214220E+03  0.14210632173E+04  0.14001306247E+04 0.  0.
        3    1    3    3  502    0 -0.49639958626E+03  0.49122474622E+03  0.17099082159E+03  0.71899386075E+03  0.10100000352E+00 0.  1.
       -3    1    3    3    0  502  0.49639958626E+03 -0.49122474622E+03  0.72021320604E+02  0.70206935651E+03  0.10100000352E+00 0. -1.
</event>
<event>
 5   0  0.2467303E-05  0.1400322E+04  0.7818609E-02  0.8953586E-01
       -1   -1    0    0    0  501  0.00000000000E+00  0.00000000000E+00  0.53270009632E+03  0.53270009634E+03  0.50400001928E-02 0. -1.
        1   -1    0    0  501    0  0.00000000000E+00  0.00000000000E+00 -0.92026476754E+03  0.92026476756E+03  0.50400001928E-02 0.  1.
    10030    2    1    2    0    0  0.00000000000E+00  0.00000000000E+00 -0.38756467123E+03  0.14529648639E+04  0.14003215778E+04 0.  0.
        3    1    3    3  502    0 -0.47859999838E+02  0.58389034946E+03 -0.59161070373E+03  0.83259939632E+03  0.10100000352E+00 0.  1.
       -3    1    3    3    0  502  0.47859999838E+02 -0.58389034946E+03  0.20404603251E+03  0.62036546758E+03  0.10100000352E+00 0. -1.
</event>
<event>
 5   0  0.2428507E-05  0.1400461E+04  0.7818609E-02  0.8953485E-01
       -1   -1    0    0    0  501  0.00000000000E+00  0.00000000000E+00  0.65361954452E+03  0.65361954453E+03  0.50400001928E-02 0. -1.
        1   -1    0    0  501    0  0.00000000000E+00  0.00000000000E+00 -0.75016526295E+03  0.75016526297E+03  0.50400001928E-02 0.  1.
    10030    2    1    2    0    0  0.00000000000E+00  0.00000000000E+00 -0.96545718435E+02  0.14037848075E+04  0.14004608920E+04 0.  0.
        4    1    3    3  502    0 -0.57803781634E+03 -0.36151584305E+03 -0.20833794070E+03  0.71290092743E+03  0.12699999809E+01 0.  1.
       -4    1    3    3    0  502  0.57803781634E+03  0.36151584305E+03  0.11179222227E+03  0.69088388008E+03  0.12699999809E+01 0. -1.
</event>
<event>
 5   0  0.4441253E-05  0.1399469E+04  0.7818609E-02  0.8954203E-01
        2   -1    0    0  501    0  0.00000000000E+00  0.00000000000E+00  0.93377025557E+03  0.93377025558E+03  0.25500000920E-02 0. -1.
       -2   -1    0    0    0  501  0.00000000000E+00  0.00000000000E+00 -0.52435653631E+03  0.52435653632E+03  0.25500000920E-02 0.  1.
    10030    2    1    2    0    0  0.00000000000E+00  0.00000000000E+00  0.40941371926E+03  0.14581267919E+04  0.13994692379E+04 0.  0.
        3    1    3    3  502    0  0.49055732095E+03  0.28629042045E+02  0.72374579894E+03  0.87479946209E+03  0.10100000352E+00 0. -1.
       -3    1    3    3    0  502 -0.49055732095E+03 -0.28629042045E+02 -0.31433207968E+03  0.58332732981E+03  0.10100000352E+00 0.  1.
</event>
<event>
 5   0  0.4243281E-05  0.1400105E+04  0.7818609E-02  0.8953743E-01
        2   -1    0    0  501    0  0.00000000000E+00  0.00000000000E+00  0.87874090379E+03  0.87874090380E+03  0.25500000920E-02 0.  1.
       -2   -1    0    0    0  501  0.00000000000E+00  0.00000000000E+00 -0.55769953822E+03  0.55769953823E+03  0.25500000920E-02 0. -1.
    10030    2    1    2    0    0  0.00000000000E+00  0.00000000000E+00  0.32104136557E+03  0.14364404420E+04  0.14001048479E+04 0.  0.
        2    1    3    3  502    0  0.29282394466E+03  0.71975378085E+02  0.80869757181E+03  0.86308636896E+03  0.25500000920E-02 0.  1.
       -2    1    3    3    0  502 -0.29282394466E+03 -0.71975378085E+02 -0.48765620624E+03  0.57335407307E+03  0.25500000920E-02 0. -1.
</event>
<event>
 5   0  0.4527503E-05  0.1400862E+04  0.7818609E-02  0.8953195E-01
       -2   -1    0    0    0  501  0.00000000000E+00  0.00000000000E+00  0.28756159153E+03  0.28756159154E+03  0.25500000920E-02 0. -1.
        2   -1    0    0  501    0  0.00000000000E+00  0.00000000000E+00 -0.17060822217E+04  0.17060822217E+04  0.25500000920E-02 0.  1.
    10030    2    1    2    0    0  0.00000000000E+00  0.00000000000E+00 -0.14185206302E+04  0.19936438132E+04  0.14008621902E+04 0.  0.
        4    1    3    3  502    0  0.36701769209E+03 -0.24500599868E+03 -0.14833730672E+04  0.15476198484E+04  0.12699999809E+01 0.  1.
       -4    1    3    3    0  502 -0.36701769209E+03  0.24500599868E+03  0.64852437086E+02  0.44602396482E+03  0.12699999809E+01 0. -1.
</event>
<event>
 5   0  0.2363419E-05  0.1400261E+04  0.7818609E-02  0.8953630E-01
        1   -1    0    0  501    0  0.00000000000E+00  0.00000000000E+00  0.51568693291E+03  0.51568693294E+03  0.50400001928E-02 0.  1.
       -1   -1    0    0    0  501  0.00000000000E+00  0.00000000000E+00 -0.95054330069E+03  0.95054330070E+03  0.50400001928E-02 0. -1.
    10030    2    1    2    0    0  0.00000000000E+00  0.00000000000E+00 -0.43485636777E+03  0.14662302336E+04  0.14002610605E+04 0.  0.
        2    1    3    3  502    0 -0.39983738304E+03  0.44000851721E+03 -0.60458408605E+03  0.84793829091E+03  0.25500000920E-02 0.  1.
       -2    1    3    3    0  502  0.39983738304E+03 -0.44000851721E+03  0.16972771827E+03  0.61829194273E+03  0.25500000920E-02 0. -1.
</event>
<event>
 5   0  0.1661000E-05  0.1399583E+04  0.7818609E-02  0.8954121E-01
       -3   -1    0    0    0  501  0.00000000000E+00  0.00000000000E+00  0.69366191874E+03  0.69366192609E+03  0.10100000352E+00 0.  1.
        3   -1    0    0  501    0  0.00000000000E+00  0.00000000000E+00 -0.70597486553E+03  0.70597487276E+03  0.10100000352E+00 0. -1.
    10030    2    1    2    0    0  0.00000000000E+00  0.00000000000E+00 -0.12312946797E+02  0.13996367988E+04  0.13995826378E+04 0.  0.
        1    1    3    3  502    0 -0.19327156422E+03  0.58126702383E+03 -0.34452239976E+03  0.70279508713E+03  0.50400001928E-02 0. -1.
       -1    1    3    3    0  502  0.19327156422E+03 -0.58126702383E+03  0.33220945296E+03  0.69684171172E+03  0.50400001928E-02 0.  1.
</event>
<event>
 5   0  0.4460282E-05  0.1400520E+04  0.7818609E-02  0.8953443E-01
       -2   -1    0    0    0  501  0.00000000000E+00  0.00000000000E+00  0.87010869877E+03  0.87010869877E+03  0.25500000920E-02 0. -1.
        2   -1    0    0  501    0  0.00000000000E+00  0.00000000000E+00 -0.56356613911E+03  0.56356613912E+03  0.25500000920E-02 0.  1.
    10030    2    1    2    0    0  0.00000000000E+00  0.00000000000E+00  0.30654255965E+03  0.14336748379E+04  0.14005196178E+04 0.  0.
        1    1    3    3  502    0  0.21964179096E+03 -0.16731791923E+03 -0.50548946817E+03  0.57598385819E+03  0.50400001928E-02 0.  1.
       -1    1    3    3    0  502 -0.21964179096E+03  0.16731791923E+03  0.81203202783E+03  0.85769097971E+03  0.50400001928E-02 0. -1.
</event>
<event>
 5   0  0.4243281E-05  0.1401555E+04  0.7818609E-02  0.8952694E-01
        2   -1    0    0  501    0  0.00000000000E+00  0.00000000000E+00  0.58313630612E+03  0.58313630613E+03  0.25500000920E-02 0. -1.
       -2   -1    0    0    0  501  0.00000000000E+00  0.00000000000E+00 -0.84215166272E+03  0.84215166272E+03  0.25500000920E-02 0.  1.
    10030    2    1    2    0    0  0.00000000000E+00  0.00000000000E+00 -0.25901535660E+03  0.14252879688E+04  0.14015551503E+04 0.  0.
        2    1    3    3  502    0 -0.31373860494E+03  0.23874738192E+03  0.45966184343E+03  0.60557512739E+03  0.25500000920E-02 0. -1.
       -2    1    3    3    0  502  0.31373860494E+03 -0.23874738192E+03 -0.71867720003E+03  0.81971284146E+03  0.25500000920E-02 0.  1.
</event>
<event>
 5   0  0.2427569E-05  0.1400433E+04  0.7818609E-02  0.8953505E-01
       -1   -1    0    0    0  501  0.00000000000E+00  0.00000000000E+00  0.53545853308E+03  0.53545853310E+03  0.50400001928E-02 0.  1.
        1   -1    0    0  501    0  0.00000000000E+00  0.00000000000E+00 -0.91566961656E+03  0.91566961657E+03  0.50400001928E-02 0. -1.
    10030    2    1    2    0    0  0.00000000000E+00  0.00000000000E+00 -0.38021108348E+03  0.14511281497E+04  0.14004329469E+04 0.  0.
        1    1    3    3  502    0 -0.50192464967E+03 -0.35819776519E+03  0.15367096009E+03  0.63549095740E+03  0.50400001928E-02 0.  1.
       -1    1    3    3    0  502  0.50192464967E+03  0.35819776519E+03 -0.53388204357E+03  0.81563719227E+03  0.50400001928E-02 0. -1.
</event>
<event>
 5   0  0.2467303E-05  0.1399294E+04  0.7818609E-02  0.8954330E-01
        1   -1    0    0  501    0  0.00000000000E+00  0.00000000000E+00  0.90463960995E+03  0.90463960996E+03  0.50400001928E-02 0. -1.
       -1   -1    0    0    0  501  0.00000000000E+00  0.00000000000E+00 -0.54110575921E+03  0.54110575924E+03  0.50400001928E-02 0.  1.
    10030    2    1    2    0    0  0.00000000000E+00  0.00000000000E+00  0.36353385074E+03  0.14457453692E+04  0.13992936832E+04 0.  0.
        3    1    3    3  502    0  0.14305025100E+03 -0.32416110336E+03  0.80508668796E+03  0.87960694663E+03  0.10100000352E+00 0. -1.
       -3    1    3    3    0  502 -0.14305025100E+03  0.32416110336E+03 -0.44155283722E+03  0.56613842256E+03  0.10100000352E+00 0.  1.
</event>
<event>
 5   0  0.2428507E-05  0.1400160E+04  0.7818609E-02  0.8953703E-01
       -1   -1    0    0    0  501  0.00000000000E+00  0.00000000000E+00  0.43124697873E+03  0.43124697876E+03  0.50400001928E-02 0.  1.
        1   -1    0    0  501    0  0.00000000000E+00  0.00000000000E+00 -0.11364998386E+04  0.11364998386E+04  0.50400001928E-02 0. -1.
    10030    2    1    2    0    0  0.00000000000E+00  0.00000000000E+00 -0.70525285991E+03  0.15677468174E+04  0.14001601648E+04 0.  0.
        4    1    3    3  502    0 -0.35328972376E+03  0.42927667120E+03  0.12376023323E+03  0.56957027449E+03  0.12699999809E+01 0.  1.
       -4    1    3    3    0  502  0.35328972376E+03 -0.42927667120E+03 -0.82901309313E+03  0.99817654292E+03  0.12699999809E+01 0. -1.
</event>
<event>
 5   0  0.1661000E-05  0.1399381E+04  0.7818609E-02  0.8954267E-01
        3   -1    0    0  501    0  0.00000000000E+00  0.00000000000E+00  0.30174509183E+03  0.30174510873E+03  0.10100000352E+00 0. -1.
       -3   -1    0    0    0  501  0.00000000000E+00  0.00000000000E+00 -0.16224513624E+04  0.16224513655E+04  0.10100000352E+00 0.  1.
    10030    2    1    2    0    0  0.00000000000E+00  0.00000000000E+00 -0.13207062705E+04  0.19241964742E+04  0.13993809411E+04 0.  0.
        5    1    3    3  502    0 -0.55602895531E+03  0.16267703855E+03 -0.11998024091E+04  0.13323587839E+04  0.46999998093E+01 0.  1.
       -5    1    3    3    0  502  0.55602895531E+03 -0.16267703855E+03 -0.12090386138E+03  0.59183769034E+03  0.46999998093E+01 0. -1.
</event>
<event>
 5   0  0.2427569E-05  0.1399552E+04  0.7818609E-02  0.8954143E-01
        1   -1    0    0  501    0  0.00000000000E+00  0.00000000000E+00  0.76237969273E+03  0.76237969274E+03  0.50400001928E-02 0. -1.
       -1   -1    0    0    0  501  0.00000000000E+00  0.00000000000E+00 -0.64231324439E+03  0.64231324441E+03  0.50400001928E-02 0.  1.
    10030    2    1    2    0    0  0.00000000000E+00  0.00000000000E+00  0.12006644834E+03  0.14046929372E+04  0.13995521768E+04 0.  0.
        1    1    3    3  502    0  0.27152255144E+02 -0.71264877852E+02 -0.63812995886E+03  0.64267081169E+03  0.50400001928E-02 0.  1.
       -1    1    3    3    0  502 -0.27152255144E+02  0.71264877852E+02  0.75819640720E+03  0.76202212546E+03  0.50400001928E-02 0. -1.
</event>
<event>
 5   0  0.4441253E-05  0.1400267E+04  0.7818609E-02  0.8953626E-01
       -2   -1    0    0    0  501  0.00000000000E+00  0.00000000000E+00  0.52324423975E+03  0.52324423976E+03  0.25500000920E-02 0. -1.
        2   -1    0    0  501    0  0.00000000000E+00  0.00000000000E+00 -0.93682193943E+03  0.93682193944E+03  0.25500000920E-02 0.  1.
    10030    2    1    2    0    0  0.00000000000E+00  0.00000000000E+00 -0.41357769968E+03  0.14600661792E+04  0.14002666653E+04 0.  0.
        3    1    3    3  502    0 -0.41721230698E+03 -0.52706635850E+03 -0.26697195257E+01  0.67221439509E+03  0.10100000352E+00 0. -1.
       -3    1    3    3    0  502  0.41721230698E+03  0.52706635850E+03 -0.41090798016E+03  0.78785178410E+03  0.10100000352E+00 0.  1.
</event>
<event>
 5   0  0.2363419E-05  0.1400979E+04  0.7818609E-02  0.8953111E-01
        1   -1    0    0  501    0  0.00000000000E+00  0.00000000000E+00  0.11670932480E+04  0.11670932480E+04  0.50400001928E-02 0. -1.
       -1   -1    0    0    0  501  0.00000000000E+00  0.00000000000E+00 -0.42043361066E+03  0.42043361069E+03  0.50400001928E-02 0.  1.
    10030    2    1    2    0    0  0.00000000000E+00  0.00000000000E+00  0.74665963731E+03  0.15875268587E+04  0.14009785555E+04 0.  0.
        2    1    3    3  502    0 -0.38043954916E+03 -0.34689090420E+03  0.91157005052E+03  0.10469133235E+04  0.25500000920E-02 0. -1.
       -2    1    3    3    0  502  0.38043954916E+03  0.34689090420E+03 -0.16491041321E+03  0.54061353514E+03  0.25500000920E-02 0.  1.
</event>
<event>
 5   0  0.4460282E-05  0.1399789E+04  0.7818609E-02  0.8953972E-01
        2   -1    0    0  501    0  0.00000000000E+00  0.00000000000E+00  0.18605756305E+04  0.18605756305E+04  0.25500000920E-02 0.  1.
       -2   -1    0    0    0  501  0.00000000000E+00  0.00000000000E+00 -0.26327984724E+03  0.26327984726E+03  0.25500000920E-02 0. -1.
    10030    2    1    2    0    0  0.00000000000E+00  0.00000000000E+00  0.15972957832E+04  0.21238554777E+04  0.13997886523E+04 0.  0.
        1    1    3    3  502    0  0.65068803727E+03  0.22420700455E+03  0.60560047828E+03  0.91674186227E+03  0.50400001928E-02 0.  1.
       -1    1    3    3    0  502 -0.65068803727E+03 -0.22420700455E+03  0.99169530497E+03  0.12071136155E+04  0.50400001928E-02 0. -1.
</event>
<event>
 5   0  0.2363419E-05  0.1400664E+04  0.7818609E-02  0.8953338E-01
        1   -1    0    0  501    0  0.00000000000E+00  0.00000000000E+00  0.19625358452E+04  0.19625358452E+04  0.50400001928E-02 0. -1.
       -1   -1    0    0    0  501  0.00000000000E+00  0.00000000000E+00 -0.24991379145E+03  0.24991379150E+03  0.50400001928E-02 0.  1.
    10030    2    1    2    0    0  0.00000000000E+00  0.00000000000E+00  0.17126220538E+04  0.22124496367E+04  0.14006638055E+04 0.  0.
        2    1    3    3  502    0  0.11074900412E+03 -0.29672456043E+03  0.18429482607E+04  0.18699649992E+04  0.25500000920E-02 0. -1.
       -2    1    3    3    0  502 -0.11074900412E+03  0.29672456043E+03 -0.13032620697E+03  0.34248463747E+03  0.25500000920E-02 0.  1.
</event>
<event>
 5   0  0.2467303E-05  0.1400413E+04  0.7818609E-02  0.8953519E-01
       -1   -1    0    0    0  501  0.00000000000E+00  0.00000000000E+00  0.27351811366E+03  0.27351811370E+03  0.50400001928E-02 0.  1.
        1   -1    0    0  501    0  0.00000000000E+00  0.00000000000E+00 -0.17925299540E+04  0.17925299541E+04  0.50400001928E-02 0. -1.
    10030    2    1    2    0    0  0.00000000000E+00  0.00000000000E+00 -0.15190118404E+04  0.20660480678E+04  0.14004133843E+04 0.  0.
        3    1    3    3  502    0  0.58007701631E+02 -0.29672442509E+03 -0.16912675499E+04  0.17180792221E+04  0.10100000352E+00 0. -1.
       -3    1    3    3    0  502 -0.58007701631E+02  0.29672442509E+03  0.17225570950E+03  0.34796884566E+03  0.10100000352E+00 0.  1.
</event>
<event>
 5   0  0.4527503E-05  0.1399159E+04  0.7818609E-02  0.8954427E-01
       -2   -1    0    0    0  501  0.00000000000E+00  0.00000000000E+00  0.29577935853E+03  0.29577935854E+03  0.25500000920E-02 0. -1.
        2   -1    0    0  501    0  0.00000000000E+00  0.00000000000E+00 -0.16546515564E+04  0.16546515564E+04  0.25500000920E-02 0.  1.
    10030    2    1    2    0    0  0.00000000000E+00  0.00000000000E+00 -0.13588721979E+04  0.19504309150E+04  0.13991594276E+04 0.  0.
        4    1    3    3  502    0 -0.41426892758E+03 -0.50122117465E+03 -0.10391014315E+04  0.12257955817E+04  0.12699999809E+01 0.  1.
       -4    1    3    3    0  502  0.41426892758E+03  0.50122117465E+03 -0.31977076640E+03  0.72463533327E+03  0.12699999809E+01 0. -1.
</event>
<event>
 5   0  0.2428507E-05  0.1400158E+04  0.7818609E-02  0.8953704E-01
       -1   -1    0    0    0  501  0.00000000000E+00  0.00000000000E+00  0.55720288795E+03  0.55720288797E+03  0.50400001928E-02 0.  1.
        1   -1    0    0  501    0  0.00000000000E+00  0.00000000000E+00 -0.87959113053E+03  0.87959113055E+03  0.50400001928E-02 0. -1.
    10030    2    1    2    0    0  0.00000000000E+00  0.00000000000E+00 -0.32238824259E+03  0.14367940185E+04  0.14001581599E+04 0.  0.
        4    1    3    3  502    0 -0.53022780077E+03 -0.30098774061E+03 -0.51425167864E+03  0.79761616244E+03  0.12699999809E+01 0.  1.
       -4    1    3    3    0  502  0.53022780077E+03  0.30098774061E+03  0.19186343605E+03  0.63917785608E+03  0.12699999809E+01 0. -1.
</event>
<event>
 5   0  0.4243281E-05  0.1400128E+04  0.7818609E-02  0.8953726E-01
        2   -1    0    0  501    0  0.00000000000E+00  0.00000000000E+00  0.10939175849E+04  0.10939175849E+04  0.25500000920E-02 0.  1.
       -2   -1    0    0    0  501  0.00000000000E+00  0.00000000000E+00 -0.44801338207E+03  0.44801338208E+03  0.25500000920E-02 0. -1.
    10030    2    1    2    0    0  0.00000000000E+00  0.00000000000E+00  0.64590420287E+03  0.15419309670E+04  0.14001281612E+04 0.  0.
        2    1    3    3  502    0  0.33916853784E+03  0.54308762439E+03  0.63465524990E+03  0.90153577359E+03  0.25500000920E-02 0.  1.
       -2    1    3    3    0  502 -0.33916853784E+03 -0.54308762439E+03  0.11248952972E+02  0.64039519344E+03  0.25500000920E-02 0. -1.
</event>
<event>
 5   0  0.2316714E-05  0.1393945E+04  0.7818609E-02  0.8958213E-01
        1   -1    0    0  501    0  0.00000000000E+00  0.00000000000E+00  0.21447153332E+04  0.21447153332E+04  0.50400001928E-02 0.  1.
       -1   -1    0    0    0  501  0.00000000000E+00  0.00000000000E+00 -0.22649672079E+03  0.22649672085E+03  0.50400001928E-02 0. -1.
    10030    2    1    2    0    0  0.00000000000E+00  0.00000000000E+00  0.19182186124E+04  0.23712120541E+04  0.13939454653E+04 0.  0.
        5    1    3    3  502    0  0.14165749738E+03  0.52689820957E+03  0.16967981369E+04  0.17823676885E+04  0.46999998093E+01 0.  1.
       -5    1    3    3    0  502 -0.14165749738E+03 -0.52689820957E+03  0.22142047552E+03  0.58884436551E+03  0.46999998093E+01 0. -1.
</event>
<event>
 5   0  0.4441253E-05  0.1399497E+04  0.7818609E-02  0.8954183E-01
        2   -1    0    0  501    0  0.00000000000E+00  0.00000000000E+00  0.81432792502E+03  0.81432792502E+03  0.25500000920E-02 0. -1.
       -2   -1    0    0    0  501  0.00000000000E+00  0.00000000000E+00 -0.60129103824E+03  0.60129103825E+03  0.25500000920E-02 0.  1.
    10030    2    1    2    0    0  0.00000000000E+00  0.00000000000E+00  0.21303688677E+03  0.14156189633E+04  0.13994971719E+04 0.  0.
        3    1    3    3  502    0  0.34150098442E+02  0.34369389238E+02 -0.59959229266E+03  0.60154668294E+03  0.10100000352E+00 0.  1.
       -3    1    3    3    0  502 -0.34150098442E+02 -0.34369389238E+02  0.81262917943E+03  0.81407228033E+03  0.10100000352E+00 0. -1.
</event>
<event>
 5   0  0.2363419E-05  0.1400355E+04  0.7818609E-02  0.8953562E-01
        1   -1    0    0  501    0  0.00000000000E+00  0.00000000000E+00  0.88190601489E+03  0.88190601490E+03  0.50400001928E-02 0.  1.
       -1   -1    0    0    0  501  0.00000000000E+00  0.00000000000E+00 -0.55589654583E+03  0.55589654585E+03  0.50400001928E-02 0. -1.
    10030    2    1    2    0    0  0.00000000000E+00  0.00000000000E+00  0.32600946906E+03  0.14378025608E+04  0.14003549656E+04 0.  0.
        2    1    3    3  502    0 -0.18972194046E+03  0.25796024046E+03 -0.47631035990E+03  0.57394203480E+03  0.25500000920E-02 0. -1.
       -2    1    3    3    0  502  0.18972194046E+03 -0.25796024046E+03  0.80231982897E+03  0.86386052596E+03  0.25500000920E-02 0.  1.
</event>
<event>
 5   0  0.4243281E-05  0.1400365E+04  0.7818609E-02  0.8953555E-01
        2   -1    0    0  501    0  0.00000000000E+00  0.00000000000E+00  0.48220554973E+03  0.48220554973E+03  0.25500000920E-02 0.  1.
       -2   -1    0    0    0  501  0.00000000000E+00  0.00000000000E+00 -0.10166936289E+04  0.10166936289E+04  0.25500000920E-02 0. -1.
    10030    2    1    2    0    0  0.00000000000E+00  0.00000000000E+00 -0.53448807916E+03  0.14988991786E+04  0.14003646814E+04 0.  0.
        2    1    3    3  502    0  0.62384457891E+03 -0.19552530305E+03 -0.53556839739E+03  0.84513058817E+03  0.25500000920E-02 0. -1.
       -2    1    3    3    0  502 -0.62384457891E+03  0.19552530305E+03  0.10803182294E+01  0.65376859045E+03  0.25500000920E-02 0.  1.
</event>
<event>
 5   0  0.4460282E-05  0.1394548E+04  0.7818609E-02  0.8957775E-01
        2   -1    0    0  501    0  0.00000000000E+00  0.00000000000E+00  0.40164425168E+03  0.40164425169E+03  0.25500000920E-02 0. -1.
       -2   -1    0    0    0  501  0.00000000000E+00  0.00000000000E+00 -0.12105015351E+04  0.12105015351E+04  0.25500000920E-02 0.  1.
    10030    2    1    2    0    0  0.00000000000E+00  0.00000000000E+00 -0.80885728345E+03  0.16121457868E+04  0.13945479314E+04 0.  0.
        1    1    3    3  502    0 -0.12187119917E+03  0.30192232856E+03 -0.11172262658E+04  0.11637028017E+04  0.50400001928E-02 0.  1.
       -1    1    3    3    0  502  0.12187119917E+03 -0.30192232856E+03  0.30836898230E+03  0.44844298516E+03  0.50400001928E-02 0. -1.
</event>
<event>
 5   0  0.2467303E-05  0.1400162E+04  0.7818609E-02  0.8953701E-01
        1   -1    0    0  501    0  0.00000000000E+00  0.00000000000E+00  0.15022355029E+04  0.15022355029E+04  0.50400001928E-02 0. -1.
       -1   -1    0    0    0  501  0.00000000000E+00  0.00000000000E+00 -0.32625613325E+03  0.32625613329E+03  0.50400001928E-02 0.  1.
    10030    2    1    2    0    0  0.00000000000E+00  0.00000000000E+00  0.11759793696E+04  0.18284916362E+04  0.14001621998E+04 0.  0.
        3    1    3    3  502    0  0.24749913659E+03  0.10610504128E+03  0.14318966667E+04  0.14569976584E+04  0.10100000352E+00 0. -1.
       -3    1    3    3    0  502 -0.24749913659E+03 -0.10610504128E+03 -0.25591729704E+03  0.37149397777E+03  0.10100000352E+00 0.  1.
</event>
<event>
 5   0  0.2428507E-05  0.1398505E+04  0.7818609E-02  0.8954901E-01
       -1   -1    0    0    0  501  0.00000000000E+00  0.00000000000E+00  0.34681816527E+03  0.34681816531E+03  0.50400001928E-02 0. -1.
        1   -1    0    0  501    0  0.00000000000E+00  0.00000000000E+00 -0.14098285800E+04  0.14098285800E+04  0.50400001928E-02 0.  1.
    10030    2    1    2    0    0  0.00000000000E+00  0.00000000000E+00 -0.10630104147E+04  0.17566467453E+04  0.13985051469E+04 0.  0.
        4    1    3    3  502    0  0.29040630643E+03  0.57756650248E+03 -0.19673063380E+03  0.67573918251E+03  0.12699999809E+01 0. -1.
       -4    1    3    3    0  502 -0.29040630643E+03 -0.57756650248E+03 -0.86627978094E+03  0.10809075628E+04  0.12699999809E+01 0.  1.
</event>
<event>
 5   0  0.4243281E-05  0.1398995E+04  0.7818609E-02  0.8954546E-01
        2   -1    0    0  501    0  0.00000000000E+00  0.00000000000E+00  0.15385349631E+04  0.15385349631E+04  0.25500000920E-02 0.  1.
       -2   -1    0    0    0  501  0.00000000000E+00  0.00000000000E+00 -0.31802768755E+03  0.31802768756E+03  0.25500000920E-02 0. -1.
    10030    2    1    2    0    0  0.00000000000E+00  0.00000000000E+00  0.12205072755E+04  0.18565626507E+04  0.13989949486E+04 0.  0.
        2    1    3    3  502    0  0.82810656595E+01  0.38628927636E+03 -0.16356377903E+03  0.41957250970E+03  0.25500000920E-02 0. -1.
       -2    1    3    3    0  502 -0.82810656595E+01 -0.38628927636E+03  0.13840710546E+04  0.14369901409E+04  0.25500000920E-02 0.  1.
</event>
<event>
 5   0  0.4527503E-05  0.1403374E+04  0.7818609E-02  0.8951380E-01
        2   -1    0    0  501    0  0.00000000000E+00  0.00000000000E+00  0.66412266491E+03  0.66412266491E+03  0.25500000920E-02 0.  1.
       -2   -1    0    0    0  501  0.00000000000E+00  0.00000000000E+00 -0.74137622949E+03  0.74137622949E+03  0.25500000920E-02 0. -1.
    10030    2    1    2    0    0  0.00000000000E+00  0.00000000000E+00 -0.77253564582E+02  0.14054988944E+04  0.14033741586E+04 0.  0.
        4    1    3    3  502    0 -0.31506848756E+03 -0.29613187552E+03 -0.59209437004E+03  0.73317091833E+03  0.12699999809E+01 0. -1.
       -4    1    3    3    0  502  0.31506848756E+03  0.29613187552E+03  0.51484080546E+03  0.67232797608E+03  0.12699999809E+01 0.  1.
</event>
<event>
 5   0  0.4441253E-05  0.1399998E+04  0.7818609E-02  0.8953820E-01
        2   -1    0    0  501    0  0.00000000000E+00  0.00000000000E+00  0.98378759996E+03  0.98378759996E+03  0.25500000920E-02 0.  1.
       -2   -1    0    0    0  501  0.00000000000E+00  0.00000000000E+00 -0.49807326021E+03  0.49807326022E+03  0.25500000920E-02 0. -1.
    10030    2    1    2    0    0  0.00000000000E+00  0.00000000000E+00  0.48571433975E+03  0.14818608602E+04  0.13999975675E+04 0.  0.
        3    1    3    3  502    0  0.19728269392E+03  0.36083052668E+03 -0.35672802431E+03  0.54440244657E+03  0.10100000352E+00 0. -1.
       -3    1    3    3    0  502 -0.19728269392E+03 -0.36083052668E+03  0.84244236406E+03  0.93745841362E+03  0.10100000352E+00 0.  1.
</event>
<event>
 5   0  0.4621450E-05  0.1399451E+04  0.7818609E-02  0.8954216E-01
        2   -1    0    0  501    0  0.00000000000E+00  0.00000000000E+00  0.60030471076E+03  0.60030471077E+03  0.25500000920E-02 0.  1.
       -2   -1    0    0    0  501  0.00000000000E+00  0.00000000000E+00 -0.81561226945E+03  0.81561226946E+03  0.25500000920E-02 0. -1.
    10030    2    1    2    0    0  0.00000000000E+00  0.00000000000E+00 -0.21530755869E+03  0.14159169802E+04  0.13994511603E+04 0.  0.
        5    1    3    3  502    0  0.36265403386E+03  0.28758083906E+03 -0.63858811035E+03  0.78869357291E+03  0.46999998093E+01 0. -1.
       -5    1    3    3    0  502 -0.36265403386E+03 -0.28758083906E+03  0.42328055166E+03  0.62722340732E+03  0.46999998093E+01 0.  1.
</event>
<event>
 5   0  0.2428507E-05  0.1399718E+04  0.7818609E-02  0.8954023E-01
        1   -1    0    0  501    0  0.00000000000E+00  0.00000000000E+00  0.10355910329E+04  0.10355910329E+04  0.50400001928E-02 0.  1.
       -1   -1    0    0    0  501  0.00000000000E+00  0.00000000000E+00 -0.47296931944E+03  0.47296931947E+03  0.50400001928E-02 0. -1.
    10030    2    1    2    0    0  0.00000000000E+00  0.00000000000E+00  0.56262171343E+03  0.15085603524E+04  0.13997182375E+04 0.  0.
        4    1    3    3  502    0 -0.88274082318E+02  0.40033161061E+03 -0.33002086675E+03  0.52628233625E+03  0.12699999809E+01 0. -1.
       -4    1    3    3    0  502  0.88274082318E+02 -0.40033161061E+03  0.89264258018E+03  0.98227801610E+03  0.12699999809E+01 0.  1.
</event>
<event>
 5   0  0.2316714E-05  0.1397717E+04  0.7818609E-02  0.8955473E-01
        1   -1    0    0  501    0  0.00000000000E+00  0.00000000000E+00  0.64947552756E+03  0.64947552758E+03  0.50400001928E-02 0.  1.
       -1   -1    0    0    0  501  0.00000000000E+00  0.00000000000E+00 -0.75199635480E+03  0.75199635482E+03  0.50400001928E-02 0. -1.
    10030    2    1    2    0    0  0.00000000000E+00  0.00000000000E+00 -0.10252082724E+03  0.14014718824E+04  0.13977170376E+04 0.  0.
        5    1    3    3  502    0 -0.61799666341E+03 -0.65150317020E+02 -0.37183276060E+03  0.72418653098E+03  0.46999998093E+01 0. -1.
       -5    1    3    3    0  502  0.61799666341E+03  0.65150317020E+02  0.26931193336E+03  0.67728535142E+03  0.46999998093E+01 0.  1.
</event>
<event>
 5   0  0.2427569E-05  0.1399515E+04  0.7818609E-02  0.8954170E-01
        1   -1    0    0  501    0  0.00000000000E+00  0.00000000000E+00  0.10002437125E+04  0.10002437125E+04  0.50400001928E-02 0.  1.
       -1   -1    0    0    0  501  0.00000000000E+00  0.00000000000E+00 -0.48954094024E+03  0.48954094026E+03  0.50400001928E-02 0. -1.
    10030    2    1    2    0    0  0.00000000000E+00  0.00000000000E+00  0.51070277223E+03  0.14897846527E+04  0.13995145551E+04 0.  0.
        1    1    3    3  502    0 -0.41810742156E+03 -0.82919511343E+02  0.84609745089E+03  0.94740189875E+03  0.50400001928E-02 0.  1.
       -1    1    3    3    0  502  0.41810742156E+03  0.82919511343E+02 -0.33539467867E+03  0.54238275399E+03  0.50400001928E-02 0. -1.
</event>
<event>
 5   0  0.4527503E-05  0.1401705E+04  0.7818609E-02  0.8952585E-01
       -2   -1    0    0    0  501  0.00000000000E+00  0.00000000000E+00  0.46895653862E+03  0.46895653863E+03  0.25500000920E-02 0. -1.
        2   -1    0    0  501    0  0.00000000000E+00  0.00000000000E+00 -0.10474198338E+04  0.10474198338E+04  0.25500000920E-02 0.  1.
    10030    2    1    2    0    0  0.00000000000E+00  0.00000000000E+00 -0.57846329520E+03  0.15163763725E+04  0.14017052183E+04 0.  0.
        4    1    3    3  502    0 -0.21886086909E+03  0.10275656493E+03  0.42240894956E+03  0.48671339125E+03  0.12699999809E+01 0. -1.
       -4    1    3    3    0  502  0.21886086909E+03 -0.10275656493E+03 -0.10008722448E+04  0.10296629812E+04  0.12699999809E+01 0.  1.
</event>
<event>
 5   0  0.4527503E-05  0.1399535E+04  0.7818609E-02  0.8954155E-01
       -2   -1    0    0    0  501  0.00000000000E+00  0.00000000000E+00  0.70364645785E+03  0.70364645786E+03  0.25500000920E-02 0. -1.
        2   -1    0    0  501    0  0.00000000000E+00  0.00000000000E+00 -0.69590973711E+03  0.69590973711E+03  0.25500000920E-02 0.  1.
    10030    2    1    2    0    0  0.00000000000E+00  0.00000000000E+00  0.77367207460E+01  0.13995561950E+04  0.13995348106E+04 0.  0.
        4    1    3    3  502    0  0.12160906874E+03  0.45448836992E+03  0.52187662717E+03  0.70264163760E+03  0.12699999809E+01 0. -1.
       -4    1    3    3    0  502 -0.12160906874E+03 -0.45448836992E+03 -0.51413990642E+03  0.69691455737E+03  0.12699999809E+01 0.  1.
</event>
<event>
 5   0  0.1661000E-05  0.1400506E+04  0.7818609E-02  0.8953453E-01
        3   -1    0    0  501    0  0.00000000000E+00  0.00000000000E+00  0.70796700530E+03  0.70796701251E+03  0.10100000352E+00 0. -1.
       -3   -1    0    0    0  501  0.00000000000E+00  0.00000000000E+00 -0.69262273904E+03  0.69262274641E+03  0.10100000352E+00 0.  1.
    10030    2    1    2    0    0  0.00000000000E+00  0.00000000000E+00  0.15344266259E+02  0.14005897589E+04  0.14005057038E+04 0.  0.
        2    1    3    3  502    0  0.42688025581E+03 -0.18200121846E+03  0.53211075805E+03  0.70604040619E+03  0.25500000920E-02 0. -1.
       -2    1    3    3    0  502 -0.42688025581E+03  0.18200121846E+03 -0.51676649180E+03  0.69454935273E+03  0.25500000920E-02 0.  1.
</event>
<event>
 5   0  0.4243281E-05  0.1399984E+04  0.7818609E-02  0.8953830E-01
        2   -1    0    0  501    0  0.00000000000E+00  0.00000000000E+00  0.13713165268E+04  0.13713165268E+04  0.25500000920E-02 0.  1.
       -2   -1    0    0    0  501  0.00000000000E+00  0.00000000000E+00 -0.35731255949E+03  0.35731255950E+03  0.25500000920E-02 0. -1.
    10030    2    1    2    0    0  0.00000000000E+00  0.00000000000E+00  0.10140039673E+04  0.17286290863E+04  0.13999837400E+04 0.  0.
        2    1    3    3  502    0 -0.41086976600E+03 -0.54236470672E+03  0.30405493301E+03  0.74526696022E+03  0.25500000920E-02 0. -1.
       -2    1    3    3    0  502  0.41086976600E+03  0.54236470672E+03  0.70994903432E+03  0.98336212610E+03  0.25500000920E-02 0.  1.
</event>
<event>
 5   0  0.2363419E-05  0.1399664E+04  0.7818609E-02  0.8954062E-01
       -1   -1    0    0    0  501  0.00000000000E+00  0.00000000000E+00  0.92497654934E+03  0.92497654936E+03  0.50400001928E-02 0. -1.
        1   -1    0    0  501    0  0.00000000000E+00  0.00000000000E+00 -0.52948917807E+03  0.52948917809E+03  0.50400001928E-02 0.  1.
    10030    2    1    2    0    0  0.00000000000E+00  0.00000000000E+00  0.39548737128E+03  0.14544657274E+04  0.13996643496E+04 0.  0.
        2    1    3    3  502    0  0.28187482596E+03  0.33091558635E+03 -0.37218854942E+03  0.57226118086E+03  0.25500000920E-02 0.  1.
       -2    1    3    3    0  502 -0.28187482596E+03 -0.33091558635E+03  0.76767592069E+03  0.88220454658E+03  0.25500000920E-02 0. -1.
</event>
<event>
 5   0  0.2467303E-05  0.1399945E+04  0.7818609E-02  0.8953859E-01
        1   -1    0    0  501    0  0.00000000000E+00  0.00000000000E+00  0.97600757214E+03  0.97600757216E+03  0.50400001928E-02 0.  1.
       -1   -1    0    0    0  501  0.00000000000E+00  0.00000000000E+00 -0.50200557041E+03  0.50200557043E+03  0.50400001928E-02 0. -1.
    10030    2    1    2    0    0  0.00000000000E+00  0.00000000000E+00  0.47400200174E+03  0.14780131426E+04  0.13999446246E+04 0.  0.
        3    1    3    3  502    0  0.44382937636E+03  0.34177546423E+03 -0.20612658479E+03  0.59689459910E+03  0.10100000352E+00 0. -1.
       -3    1    3    3    0  502 -0.44382937636E+03 -0.34177546423E+03  0.68012858653E+03  0.88111854349E+03  0.10100000352E+00 0.  1.
</event>
<event>
 5   0  0.4621450E-05  0.1399601E+04  0.7818609E-02  0.8954108E-01
       -2   -1    0    0    0  501  0.00000000000E+00  0.00000000000E+00  0.18157575585E+04  0.18157575585E+04  0.25500000920E-02 0.  1.
        2   -1    0    0  501    0  0.00000000000E+00  0.00000000000E+00 -0.26970596829E+03  0.26970596830E+03  0.25500000920E-02 0. -1.
    10030    2    1    2    0    0  0.00000000000E+00  0.00000000000E+00  0.15460515902E+04  0.20854635268E+04  0.13996008724E+04 0.  0.
        5    1    3    3  502    0  0.75408787148E+02  0.69420299798E+03  0.84121490668E+03  0.10932835391E+04  0.46999998093E+01 0.  1.
       -5    1    3    3    0  502 -0.75408787148E+02 -0.69420299798E+03  0.70483668351E+03  0.99217998771E+03  0.46999998093E+01 0. -1.
</event>
<event>
 5   0  0.4460282E-05  0.1399550E+04  0.7818609E-02  0.8954144E-01
       -2   -1    0    0    0  501  0.00000000000E+00  0.00000000000E+00  0.30495537764E+03  0.30495537765E+03  0.25500000920E-02 0.  1.
        2   -1    0    0  501    0  0.00000000000E+00  0.00000000000E+00 -0.16057602854E+04  0.16057602854E+04  0.25500000920E-02 0. -1.
    10030    2    1    2    0    0  0.00000000000E+00  0.00000000000E+00 -0.13008049078E+04  0.19107156630E+04  0.13995502624E+04 0.  0.
        1    1    3    3  502    0  0.23124867756E+03 -0.40895949200E+03 -0.13584339153E+04  0.14373818279E+04  0.50400001928E-02 0. -1.
       -1    1    3    3    0  502 -0.23124867756E+03  0.40895949200E+03  0.57629007507E+02  0.47333383516E+03  0.50400001928E-02 0.  1.
</event>
<event>
 5   0  0.2428507E-05  0.1399732E+04  0.7818609E-02  0.8954013E-01
        1   -1    0    0  501    0  0.00000000000E+00  0.00000000000E+00  0.18720929692E+04  0.18720929692E+04  0.50400001928E-02 0.  1.
       -1   -1    0    0    0  501  0.00000000000E+00  0.00000000000E+00 -0.26163884936E+03  0.26163884940E+03  0.50400001928E-02 0. -1.
    10030    2    1    2    0    0  0.00000000000E+00  0.00000000000E+00  0.16104541198E+04  0.21337318186E+04  0.13997317606E+04 0.  0.
        4    1    3    3  502    0  0.56335369730E+03  0.51372904052E+02  0.14333853118E+04  0.15409742465E+04  0.12699999809E+01 0.  1.
       -4    1    3    3    0  502 -0.56335369730E+03 -0.51372904052E+02  0.17706880802E+03  0.59275757204E+03  0.12699999809E+01 0. -1.
</event>
<event>
 5   0  0.2428507E-05  0.1399576E+04  0.7818609E-02  0.8954125E-01
       -1   -1    0    0    0  501  0.00000000000E+00  0.00000000000E+00  0.38893189124E+03  0.38893189128E+03  0.50400001928E-02 0. -1.
        1   -1    0    0  501    0  0.00000000000E+00  0.00000000000E+00 -0.12590981336E+04  0.12590981336E+04  0.50400001928E-02 0.  1.
    10030    2    1    2    0    0  0.00000000000E+00  0.00000000000E+00 -0.87016624232E+03  0.16480300249E+04  0.13995762478E+04 0.  0.
        4    1    3    3  502    0  0.16110761299E+03 -0.61011026631E+03 -0.78872681426E+02  0.63593451926E+03  0.12699999809E+01 0. -1.
       -4    1    3    3    0  502 -0.16110761299E+03  0.61011026631E+03 -0.79129356090E+03  0.10120955056E+04  0.12699999809E+01 0.  1.
</event>
<event>
 5   0  0.2316714E-05  0.1400040E+04  0.7818609E-02  0.8953789E-01
        1   -1    0    0  501    0  0.00000000000E+00  0.00000000000E+00  0.15106531529E+04  0.15106531529E+04  0.50400001928E-02 0.  1.
       -1   -1    0    0    0  501  0.00000000000E+00  0.00000000000E+00 -0.32438169726E+03  0.32438169730E+03  0.50400001928E-02 0. -1.
    10030    2    1    2    0    0  0.00000000000E+00  0.00000000000E+00  0.11862714556E+04  0.18350348502E+04  0.14000403334E+04 0.  0.
        5    1    3    3  502    0 -0.28854063190E+03 -0.32057769311E+03 -0.12951185332E+03  0.45035670720E+03  0.46999998093E+01 0. -1.
       -5    1    3    3    0  502  0.28854063190E+03  0.32057769311E+03  0.13157833090E+04  0.13846781430E+04  0.46999998093E+01 0.  1.
</event>
<event>
 5   0  0.4527503E-05  0.1402116E+04  0.7818609E-02  0.8952288E-01
       -2   -1    0    0    0  501  0.00000000000E+00  0.00000000000E+00  0.34674877178E+03  0.34674877179E+03  0.25500000920E-02 0.  1.
        2   -1    0    0  501    0  0.00000000000E+00  0.00000000000E+00 -0.14174025151E+04  0.14174025151E+04  0.25500000920E-02 0. -1.
    10030    2    1    2    0    0  0.00000000000E+00  0.00000000000E+00 -0.10706537433E+04  0.17641512869E+04  0.14021163735E+04 0.  0.
        4    1    3    3  502    0 -0.26518310453E+03  0.91735339659E+02 -0.13436628235E+04  0.13726503006E+04  0.12699999809E+01 0. -1.
       -4    1    3    3    0  502  0.26518310453E+03 -0.91735339659E+02  0.27300908023E+03  0.39150098628E+03  0.12699999809E+01 0.  1.
</event>
<event>
 5   0  0.2316714E-05  0.1400044E+04  0.7818609E-02  0.8953787E-01
        1   -1    0    0  501    0  0.00000000000E+00  0.00000000000E+00  0.10588417446E+04  0.10588417446E+04  0.50400001928E-02 0. -1.
       -1   -1    0    0    0  501  0.00000000000E+00  0.00000000000E+00 -0.46279864044E+03  0.46279864047E+03  0.50400001928E-02 0.  1.
    10030    2    1    2    0    0  0.00000000000E+00  0.00000000000E+00  0.59604310414E+03  0.15216403851E+04  0.14000435991E+04 0.  0.
        5    1    3    3  502    0  0.64292188664E+03  0.26238015175E+03  0.20193169162E+03  0.72318074811E+03  0.46999998093E+01 0.  1.
       -5    1    3    3    0  502 -0.64292188664E+03 -0.26238015175E+03  0.39411141252E+03  0.79845963695E+03  0.46999998093E+01 0. -1.
</event>
<event>
 5   0  0.4441253E-05  0.1399775E+04  0.7818609E-02  0.8953982E-01
       -2   -1    0    0    0  501  0.00000000000E+00  0.00000000000E+00  0.77757797346E+03  0.77757797346E+03  0.25500000920E-02 0.  1.
        2   -1    0    0  501    0  0.00000000000E+00  0.00000000000E+00 -0.62995921203E+03  0.62995921203E+03  0.25500000920E-02 0. -1.
    10030    2    1    2    0    0  0.00000000000E+00  0.00000000000E+00  0.14761876143E+03  0.14075371855E+04  0.13997748497E+04 0.  0.
        3    1    3    3  502    0  0.47018862482E+03  0.49733896199E+03 -0.73354557185E+02  0.68833442983E+03  0.10100000352E+00 0. -1.
       -3    1    3    3    0  502 -0.47018862482E+03 -0.49733896199E+03  0.22097331862E+03  0.71920275567E+03  0.10100000352E+00 0.  1.
</event>
<event>
 5   0  0.4441253E-05  0.1399900E+04  0.7818609E-02  0.8953891E-01
       -2   -1    0    0    0  501  0.00000000000E+00  0.00000000000E+00  0.56502398072E+03  0.56502398072E+03  0.25500000920E-02 0. -1.
        2   -1    0    0  501    0  0.00000000000E+00  0.00000000000E+00 -0.86709647849E+03  0.86709647849E+03  0.25500000920E-02 0.  1.
    10030    2    1    2    0    0  0.00000000000E+00  0.00000000000E+00 -0.30207249777E+03  0.14321204592E+04  0.13999004307E+04 0.  0.
        3    1    3    3  502    0  0.69122266163E+03 -0.97585393537E+02 -0.98686045425E+02  0.70501817193E+03  0.10100000352E+00 0. -1.
       -3    1    3    3    0  502 -0.69122266163E+03  0.97585393537E+02 -0.20338645235E+03  0.72710228729E+03  0.10100000352E+00 0.  1.
</event>
<event>
 5   0  0.1661000E-05  0.1399328E+04  0.7818609E-02  0.8954305E-01
       -3   -1    0    0    0  501  0.00000000000E+00  0.00000000000E+00  0.96339487794E+03  0.96339488323E+03  0.10100000352E+00 0. -1.
        3   -1    0    0  501    0  0.00000000000E+00  0.00000000000E+00 -0.50813000035E+03  0.50813001039E+03  0.10100000352E+00 0.  1.
    10030    2    1    2    0    0  0.00000000000E+00  0.00000000000E+00  0.45526487758E+03  0.14715248936E+04  0.13993281973E+04 0.  0.
        4    1    3    3  502    0 -0.93681608311E+02  0.60961068595E+03 -0.11975471126E+03  0.62828674658E+03  0.12699999809E+01 0. -1.
       -4    1    3    3    0  502  0.93681608311E+02 -0.60961068595E+03  0.57501958885E+03  0.84323814704E+03  0.12699999809E+01 0.  1.
</event>
<event>
 5   0  0.2316714E-05  0.1400117E+04  0.7818609E-02  0.8953734E-01
        1   -1    0    0  501    0  0.00000000000E+00  0.00000000000E+00  0.14110013063E+04  0.14110013063E+04  0.50400001928E-02 0. -1.
       -1   -1    0    0    0  501  0.00000000000E+00  0.00000000000E+00 -0.34732902095E+03  0.34732902098E+03  0.50400001928E-02 0.  1.
    10030    2    1    2    0    0  0.00000000000E+00  0.00000000000E+00  0.10636722854E+04  0.17583303273E+04  0.14001167127E+04 0.  0.
        5    1    3    3  502    0 -0.58213477461E+03  0.32362811976E+03  0.80248049086E+03  0.10428868989E+04  0.46999998093E+01 0. -1.
       -5    1    3    3    0  502  0.58213477461E+03 -0.32362811976E+03  0.26119179451E+03  0.71544342839E+03  0.46999998093E+01 0.  1.
</event>
<event>
 5   0  0.4441253E-05  0.1399937E+04  0.7818609E-02  0.8953864E-01
       -2   -1    0    0    0  501  0.00000000000E+00  0.00000000000E+00  0.66096348616E+03  0.66096348617E+03  0.25500000920E-02 0.  1.
        2   -1    0    0  501    0  0.00000000000E+00  0.00000000000E+00 -0.74127518234E+03  0.74127518234E+03  0.25500000920E-02 0. -1.
    10030    2    1    2    0    0  0.00000000000E+00  0.00000000000E+00 -0.80311696179E+02  0.14022386685E+04  0.13999368968E+04 0.  0.
        3    1    3    3  502    0  0.19957236079E+03  0.18776317481E+03  0.60500852201E+03  0.66416824594E+03  0.10100000352E+00 0.  1.
       -3    1    3    3    0  502 -0.19957236079E+03 -0.18776317481E+03 -0.68532021819E+03  0.73807042257E+03  0.10100000352E+00 0. -1.
</event>
<event>
 5   0  0.1661000E-05  0.1404110E+04  0.7818609E-02  0.8950849E-01
        3   -1    0    0  501    0  0.00000000000E+00  0.00000000000E+00  0.13827286166E+04  0.13827286202E+04  0.10100000352E+00 0. -1.
       -3   -1    0    0    0  501  0.00000000000E+00  0.00000000000E+00 -0.35645534047E+03  0.35645535478E+03  0.10100000352E+00 0.  1.
    10030    2    1    2    0    0  0.00000000000E+00  0.00000000000E+00  0.10262732761E+04  0.17391839750E+04  0.14041097043E+04 0.  0.
        1    1    3    3  502    0 -0.33852242250E+03 -0.11974613307E+03  0.12603799450E+04  0.13105320190E+04  0.50400001928E-02 0. -1.
       -1    1    3    3    0  502  0.33852242250E+03  0.11974613307E+03 -0.23410666896E+03  0.42865195602E+03  0.50400001928E-02 0.  1.
</event>
<event>
 5   0  0.4243281E-05  0.1399653E+04  0.7818609E-02  0.8954070E-01
        2   -1    0    0  501    0  0.00000000000E+00  0.00000000000E+00  0.16494539154E+04  0.16494539154E+04  0.25500000920E-02 0.  1.
       -2   -1    0    0    0  501  0.00000000000E+00  0.00000000000E+00 -0.29692081254E+03  0.29692081256E+03  0.25500000920E-02 0. -1.
    10030    2    1    2    0    0  0.00000000000E+00  0.00000000000E+00  0.13525331029E+04  0.19463747280E+04  0.13996530954E+04 0.  0.
        2    1    3    3  502    0  0.40370750054E+03 -0.45472602802E+03  0.19454094765E+03  0.63843690908E+03  0.25500000920E-02 0. -1.
       -2    1    3    3    0  502 -0.40370750054E+03  0.45472602802E+03  0.11579921552E+04  0.13079378189E+04  0.25500000920E-02 0.  1.
</event>
<event>
 5   0  0.4460282E-05  0.1400517E+04  0.7818609E-02  0.8953444E-01
       -2   -1    0    0    0  501  0.00000000000E+00  0.00000000000E+00  0.51595237043E+03  0.51595237044E+03  0.25500000920E-02 0. -1.
        2   -1    0    0  501    0  0.00000000000E+00  0.00000000000E+00 -0.95040207581E+03  0.95040207581E+03  0.25500000920E-02 0.  1.
    10030    2    1    2    0    0  0.00000000000E+00  0.00000000000E+00 -0.43444970538E+03  0.14663544462E+04  0.14005173385E+04 0.  0.
        1    1    3    3  502    0  0.29356075714E+03  0.12423025884E+03  0.43558440095E+03  0.53976369433E+03  0.50400001928E-02 0. -1.
       -1    1    3    3    0  502 -0.29356075714E+03 -0.12423025884E+03 -0.87003410633E+03  0.92659075192E+03  0.50400001928E-02 0.  1.
</event>
<event>
 5   0  0.2427569E-05  0.1400287E+04  0.7818609E-02  0.8953611E-01
        1   -1    0    0  501    0  0.00000000000E+00  0.00000000000E+00  0.67604263273E+03  0.67604263275E+03  0.50400001928E-02 0.  1.
       -1   -1    0    0    0  501  0.00000000000E+00  0.00000000000E+00 -0.72510309029E+03  0.72510309031E+03  0.50400001928E-02 0. -1.
    10030    2    1    2    0    0  0.00000000000E+00  0.00000000000E+00 -0.49060457557E+02  0.14011457231E+04  0.14002865452E+04 0.  0.
        1    1    3    3  502    0 -0.29103797956E+03  0.61458441038E+03 -0.19131633128E+03  0.70641279835E+03  0.50400001928E-02 0.  1.
       -1    1    3    3    0  502  0.29103797956E+03 -0.61458441038E+03  0.14225587373E+03  0.69473292470E+03  0.50400001928E-02 0. -1.
</event>
<event>
 5   0  0.4527503E-05  0.1398913E+04  0.7818609E-02  0.8954606E-01
        2   -1    0    0  501    0  0.00000000000E+00  0.00000000000E+00  0.72613470080E+03  0.72613470080E+03  0.25500000920E-02 0. -1.
       -2   -1    0    0    0  501  0.00000000000E+00  0.00000000000E+00 -0.67375871222E+03  0.67375871222E+03  0.25500000920E-02 0.  1.
    10030    2    1    2    0    0  0.00000000000E+00  0.00000000000E+00  0.52375988583E+02  0.13998934130E+04  0.13989132652E+04 0.  0.
        4    1    3    3  502    0  0.18209703864E+03  0.57982375162E+03 -0.32029592225E+03  0.68698326409E+03  0.12699999809E+01 0.  1.
       -4    1    3    3    0  502 -0.18209703864E+03 -0.57982375162E+03  0.37267191084E+03  0.71291014893E+03  0.12699999809E+01 0. -1.
</event>
<event>
 5   0  0.4527503E-05  0.1398587E+04  0.7818609E-02  0.8954842E-01
        2   -1    0    0  501    0  0.00000000000E+00  0.00000000000E+00  0.15920197866E+04  0.15920197866E+04  0.25500000920E-02 0.  1.
       -2   -1    0    0    0  501  0.00000000000E+00  0.00000000000E+00 -0.30716397415E+03  0.30716397416E+03  0.25500000920E-02 0. -1.
    10030    2    1    2    0    0  0.00000000000E+00  0.00000000000E+00  0.12848558125E+04  0.18991837608E+04  0.13985866074E+04 0.  0.
        4    1    3    3  502    0 -0.50776109575E+03 -0.34606623432E+03  0.10957131290E+04  0.12562531763E+04  0.12699999809E+01 0.  1.
       -4    1    3    3    0  502  0.50776109575E+03  0.34606623432E+03  0.18914268343E+03  0.64293058450E+03  0.12699999809E+01 0. -1.
</event>
<event>
 5   0  0.4621450E-05  0.1395533E+04  0.7818609E-02  0.8957058E-01
       -2   -1    0    0    0  501  0.00000000000E+00  0.00000000000E+00  0.50279949738E+03  0.50279949739E+03  0.25500000920E-02 0.  1.
        2   -1    0    0  501    0  0.00000000000E+00  0.00000000000E+00 -0.96833480178E+03  0.96833480178E+03  0.25500000920E-02 0. -1.
    10030    2    1    2    0    0  0.00000000000E+00  0.00000000000E+00 -0.46553530440E+03  0.14711342992E+04  0.13955332338E+04 0.  0.
        5    1    3    3  502    0  0.99680131309E+02  0.64522111747E+03  0.26759832475E+02  0.65344058463E+03  0.46999998093E+01 0.  1.
       -5    1    3    3    0  502 -0.99680131309E+02 -0.64522111747E+03 -0.49229513687E+03  0.81769371454E+03  0.46999998093E+01 0. -1.
</event>
<event>
 5   0  0.2428507E-05  0.1406554E+04  0.7818609E-02  0.8949088E-01
       -1   -1    0    0    0  501  0.00000000000E+00  0.00000000000E+00  0.30409987465E+03  0.30409987469E+03  0.50400001928E-02 0. -1.
        1   -1    0    0  501    0  0.00000000000E+00  0.00000000000E+00 -0.16264355952E+04  0.16264355952E+04  0.50400001928E-02 0.  1.
    10030    2    1    2    0    0  0.00000000000E+00  0.00000000000E+00 -0.13223357205E+04  0.19305354699E+04  0.14065544578E+04 0.  0.
        4    1    3    3  502    0  0.16849965362E+03  0.57407036430E+03 -0.11685362431E+04  0.13127937693E+04  0.12699999809E+01 0.  1.
       -4    1    3    3    0  502 -0.16849965362E+03 -0.57407036430E+03 -0.15379947742E+03  0.61774170054E+03  0.12699999809E+01 0. -1.
</event>
<event>
 5   0  0.2363419E-05  0.1399590E+04  0.7818609E-02  0.8954116E-01
        1   -1    0    0  501    0  0.00000000000E+00  0.00000000000E+00  0.19406419450E+04  0.19406419450E+04  0.50400001928E-02 0. -1.
       -1   -1    0    0    0  501  0.00000000000E+00  0.00000000000E+00 -0.25234576988E+03  0.25234576993E+03  0.50400001928E-02 0.  1.
    10030    2    1    2    0    0  0.00000000000E+00  0.00000000000E+00  0.16882961751E+04  0.21929877149E+04  0.13995896338E+04 0.  0.
        2    1    3    3  502    0  0.25453879032E+03 -0.21220755829E+02  0.18649941209E+04  0.18824036196E+04  0.25500000920E-02 0. -1.
       -2    1    3    3    0  502 -0.25453879032E+03  0.21220755829E+02 -0.17669794572E+03  0.31058409535E+03  0.25500000920E-02 0.  1.
</event>
<event>
 5   0  0.4441253E-05  0.1399985E+04  0.7818609E-02  0.8953829E-01
       -2   -1    0    0    0  501  0.00000000000E+00  0.00000000000E+00  0.81676911908E+03  0.81676911909E+03  0.25500000920E-02 0. -1.
        2   -1    0    0  501    0  0.00000000000E+00  0.00000000000E+00 -0.59991179355E+03  0.59991179355E+03  0.25500000920E-02 0.  1.
    10030    2    1    2    0    0  0.00000000000E+00  0.00000000000E+00  0.21685732554E+03  0.14166809126E+04  0.13999848958E+04 0.  0.
        3    1    3    3  502    0  0.31079575831E+03 -0.62588790206E+03  0.14965452237E+03  0.71465107262E+03  0.10100000352E+00 0.  1.
       -3    1    3    3    0  502 -0.31079575831E+03  0.62588790206E+03  0.67202803163E+02  0.70202984002E+03  0.10100000352E+00 0. -1.
</event>
<event>
 5   0  0.4527503E-05  0.1408204E+04  0.7818609E-02  0.8947902E-01
       -2   -1    0    0    0  501  0.00000000000E+00  0.00000000000E+00  0.55675819795E+03  0.55675819795E+03  0.25500000920E-02 0.  1.
        2   -1    0    0  501    0  0.00000000000E+00  0.00000000000E+00 -0.89043946462E+03  0.89043946463E+03  0.25500000920E-02 0. -1.
    10030    2    1    2    0    0  0.00000000000E+00  0.00000000000E+00 -0.33368126668E+03  0.14471976626E+04  0.14082037803E+04 0.  0.
        4    1    3    3  502    0 -0.58297289697E+03  0.15643479755E+03 -0.53941014375E+03  0.80950241542E+03  0.12699999809E+01 0. -1.
       -4    1    3    3    0  502  0.58297289697E+03 -0.15643479755E+03  0.20572887708E+03  0.63769524716E+03  0.12699999809E+01 0.  1.
</event>
<event>
 5   0  0.4527503E-05  0.1400050E+04  0.7818609E-02  0.8953782E-01
        2   -1    0    0  501    0  0.00000000000E+00  0.00000000000E+00  0.56968679766E+03  0.56968679767E+03  0.25500000920E-02 0.  1.
       -2   -1    0    0    0  501  0.00000000000E+00  0.00000000000E+00 -0.86018332736E+03  0.86018332736E+03  0.25500000920E-02 0. -1.
    10030    2    1    2    0    0  0.00000000000E+00  0.00000000000E+00 -0.29049652969E+03  0.14298701250E+04  0.14000501208E+04 0.  0.
        4    1    3    3  502    0  0.38087440475E+03  0.27002278037E+02 -0.74446380521E+03  0.83667341621E+03  0.12699999809E+01 0. -1.
       -4    1    3    3    0  502 -0.38087440475E+03 -0.27002278037E+02  0.45396727552E+03  0.59319670882E+03  0.12699999809E+01 0.  1.
</event>
<event>
 5   0  0.2467303E-05  0.1399266E+04  0.7818609E-02  0.8954350E-01
        1   -1    0    0  501    0  0.00000000000E+00  0.00000000000E+00  0.20893175109E+04  0.20893175109E+04  0.50400001928E-02 0. -1.
       -1   -1    0    0    0  501  0.00000000000E+00  0.00000000000E+00 -0.23428056795E+03  0.23428056801E+03  0.50400001928E-02 0.  1.
    10030    2    1    2    0    0  0.00000000000E+00  0.00000000000E+00  0.18550369429E+04  0.23235980789E+04  0.13992662265E+04 0.  0.
        3    1    3    3  502    0 -0.12903802962E+03 -0.29690760193E+03 -0.10242012427E+03  0.33955092288E+03  0.10100000352E+00 0.  1.
       -3    1    3    3    0  502  0.12903802962E+03  0.29690760193E+03  0.19574570672E+04  0.19840471560E+04  0.10100000352E+00 0. -1.
</event>
<event>
 5   0  0.2427569E-05  0.1397768E+04  0.7818609E-02  0.8955436E-01
        1   -1    0    0  501    0  0.00000000000E+00  0.00000000000E+00  0.13343586953E+04  0.13343586953E+04  0.50400001928E-02 0. -1.
       -1   -1    0    0    0  501  0.00000000000E+00  0.00000000000E+00 -0.36604768438E+03  0.36604768441E+03  0.50400001928E-02 0.  1.
    10030    2    1    2    0    0  0.00000000000E+00  0.00000000000E+00  0.96831101091E+03  0.17004063797E+04  0.13977680932E+04 0.  0.
        1    1    3    3  502    0  0.38188793745E+03 -0.58487551360E+03  0.51192691236E+03  0.86601785593E+03  0.50400001928E-02 0.  1.
       -1    1    3    3    0  502 -0.38188793745E+03  0.58487551360E+03  0.45638409855E+03  0.83438852378E+03  0.50400001928E-02 0. -1.
</event>
<event>
 5   0  0.2363419E-05  0.1399452E+04  0.7818609E-02  0.8954215E-01
        1   -1    0    0  501    0  0.00000000000E+00  0.00000000000E+00  0.10401901169E+04  0.10401901169E+04  0.50400001928E-02 0. -1.
       -1   -1    0    0    0  501  0.00000000000E+00  0.00000000000E+00 -0.47069895765E+03  0.47069895768E+03  0.50400001928E-02 0.  1.
    10030    2    1    2    0    0  0.00000000000E+00  0.00000000000E+00  0.56949115925E+03  0.15108890746E+04  0.13994518982E+04 0.  0.
        2    1    3    3  502    0 -0.50944771027E+03 -0.28779371729E+03 -0.12954825105E+03  0.59928702854E+03  0.25500000920E-02 0.  1.
       -2    1    3    3    0  502  0.50944771027E+03  0.28779371729E+03  0.69903941030E+03  0.91160204606E+03  0.25500000920E-02 0. -1.
</event>
<event>
 5   0  0.4460282E-05  0.1401738E+04  0.7818609E-02  0.8952561E-01
       -2   -1    0    0    0  501  0.00000000000E+00  0.00000000000E+00  0.40867401479E+03  0.40867401480E+03  0.25500000920E-02 0. -1.
        2   -1    0    0  501    0  0.00000000000E+00  0.00000000000E+00 -0.12019785336E+04  0.12019785336E+04  0.25500000920E-02 0.  1.
    10030    2    1    2    0    0  0.00000000000E+00  0.00000000000E+00 -0.79330451880E+03  0.16106525484E+04  0.14017380540E+04 0.  0.
        1    1    3    3  502    0  0.45625111336E+03 -0.21854083857E+03 -0.95401608812E+03  0.10798480787E+04  0.50400001928E-02 0.  1.
       -1    1    3    3    0  502 -0.45625111336E+03  0.21854083857E+03  0.16071156932E+03  0.53080446974E+03  0.50400001928E-02 0. -1.
</event>
<event>
 5   0  0.4527503E-05  0.1400099E+04  0.7818609E-02  0.8953747E-01
        2   -1    0    0  501    0  0.00000000000E+00  0.00000000000E+00  0.93493542613E+03  0.93493542613E+03  0.25500000920E-02 0. -1.
       -2   -1    0    0    0  501  0.00000000000E+00  0.00000000000E+00 -0.52417421995E+03  0.52417421996E+03  0.25500000920E-02 0.  1.
    10030    2    1    2    0    0  0.00000000000E+00  0.00000000000E+00  0.41076120618E+03  0.14591096461E+04  0.14000986361E+04 0.  0.
        4    1    3    3  502    0 -0.62120403169E+02 -0.58198287922E+03  0.60563103670E+03  0.84223131129E+03  0.12699999809E+01 0. -1.
       -4    1    3    3    0  502  0.62120403169E+02  0.58198287922E+03 -0.19486983052E+03  0.61687833480E+03  0.12699999809E+01 0.  1.
</event>
<event>
 5   0  0.2316714E-05  0.1400053E+04  0.7818609E-02  0.8953780E-01
       -1   -1    0    0    0  501  0.00000000000E+00  0.00000000000E+00  0.58871793395E+03  0.58871793397E+03  0.50400001928E-02 0.  1.
        1   -1    0    0  501    0  0.00000000000E+00  0.00000000000E+00 -0.83237997822E+03  0.83237997824E+03  0.50400001928E-02 0. -1.
    10030    2    1    2    0    0  0.00000000000E+00  0.00000000000E+00 -0.24366204427E+03  0.14210979122E+04  0.14000528862E+04 0.  0.
        5    1    3    3  502    0 -0.12617391179E+03  0.68854542199E+03 -0.12129689756E+03  0.71045737488E+03  0.46999998093E+01 0.  1.
       -5    1    3    3    0  502  0.12617391179E+03 -0.68854542199E+03 -0.12236514671E+03  0.71064053733E+03  0.46999998093E+01 0. -1.
</event>
<event>
 5   0  0.4460282E-05  0.1400014E+04  0.7818609E-02  0.8953809E-01
        2   -1    0    0  501    0  0.00000000000E+00  0.00000000000E+00  0.86082087986E+03  0.86082087987E+03  0.25500000920E-02 0.  1.
       -2   -1    0    0    0  501  0.00000000000E+00  0.00000000000E+00 -0.56923510504E+03  0.56923510504E+03  0.25500000920E-02 0. -1.
    10030    2    1    2    0    0  0.00000000000E+00  0.00000000000E+00  0.29158577483E+03  0.14300559849E+04  0.14000135199E+04 0.  0.
        1    1    3    3  502    0 -0.32829197558E+03 -0.39931835042E+03  0.62791565473E+03  0.81333193450E+03  0.50400001928E-02 0.  1.
       -1    1    3    3    0  502  0.32829197558E+03  0.39931835042E+03 -0.33632987990E+03  0.61672405040E+03  0.50400001928E-02 0. -1.
</event>
<event>
 5   0  0.2467303E-05  0.1400479E+04  0.7818609E-02  0.8953472E-01
       -1   -1    0    0    0  501  0.00000000000E+00  0.00000000000E+00  0.23831929944E+03  0.23831929949E+03  0.50400001928E-02 0.  1.
        1   -1    0    0  501    0  0.00000000000E+00  0.00000000000E+00 -0.20574723174E+04  0.20574723175E+04  0.50400001928E-02 0. -1.
    10030    2    1    2    0    0  0.00000000000E+00  0.00000000000E+00 -0.18191530180E+04  0.22957916169E+04  0.14004790057E+04 0.  0.
        3    1    3    3  502    0 -0.56137942063E+03 -0.10303802854E+03 -0.24455852446E+03  0.62094490200E+03  0.10100000352E+00 0.  1.
       -3    1    3    3    0  502  0.56137942063E+03  0.10303802854E+03 -0.15745944936E+04  0.16748467149E+04  0.10100000352E+00 0. -1.
</event>
<event>
 5   0  0.2316714E-05  0.1400241E+04  0.7818609E-02  0.8953644E-01
        1   -1    0    0  501    0  0.00000000000E+00  0.00000000000E+00  0.10566598724E+04  0.10566598724E+04  0.50400001928E-02 0. -1.
       -1   -1    0    0    0  501  0.00000000000E+00  0.00000000000E+00 -0.46388471905E+03  0.46388471908E+03  0.50400001928E-02 0.  1.
    10030    2    1    2    0    0  0.00000000000E+00  0.00000000000E+00  0.59277515330E+03  0.15205445914E+04  0.14002405051E+04 0.  0.
        5    1    3    3  502    0 -0.51096285311E+03 -0.26304042232E+03 -0.13780666090E+03  0.59100428663E+03  0.46999998093E+01 0.  1.
       -5    1    3    3    0  502  0.51096285311E+03  0.26304042232E+03  0.73058181420E+03  0.92954030481E+03  0.46999998093E+01 0. -1.
</event>
<event>
 5   0  0.2316714E-05  0.1399559E+04  0.7818609E-02  0.8954138E-01
       -1   -1    0    0    0  501  0.00000000000E+00  0.00000000000E+00  0.49843577306E+03  0.49843577309E+03  0.50400001928E-02 0. -1.
        1   -1    0    0  501    0  0.00000000000E+00  0.00000000000E+00 -0.98245590236E+03  0.98245590238E+03  0.50400001928E-02 0.  1.
    10030    2    1    2    0    0  0.00000000000E+00  0.00000000000E+00 -0.48402012930E+03  0.14808916755E+04  0.13995587408E+04 0.  0.
        5    1    3    3  502    0  0.25142548634E+03  0.29354546863E+03 -0.85924968195E+03  0.94218672421E+03  0.46999998093E+01 0.  1.
       -5    1    3    3    0  502 -0.25142548634E+03 -0.29354546863E+03  0.37522955265E+03  0.53870495126E+03  0.46999998093E+01 0. -1.
</event>
<event>
 5   0  0.1661000E-05  0.1401427E+04  0.7818609E-02  0.8952787E-01
        4   -1    0    0  501    0  0.00000000000E+00  0.00000000000E+00  0.71800468341E+03  0.71800580659E+03  0.12699999809E+01 0.  1.
       -4   -1    0    0    0  501  0.00000000000E+00  0.00000000000E+00 -0.68383613404E+03  0.68383731334E+03  0.12699999809E+01 0. -1.
    10030    2    1    2    0    0  0.00000000000E+00  0.00000000000E+00  0.34168549370E+02  0.14018431199E+04  0.14014266456E+04 0.  0.
        4    1    3    3  502    0 -0.19675506616E+03 -0.49744780930E+03  0.46980099582E+03  0.71195608545E+03  0.12699999809E+01 0.  1.
       -4    1    3    3    0  502  0.19675506616E+03  0.49744780930E+03 -0.43563244645E+03  0.68988703448E+03  0.12699999809E+01 0. -1.
</event>
<event>
 5   0  0.4621450E-05  0.1398067E+04  0.7818609E-02  0.8955219E-01
       -2   -1    0    0    0  501  0.00000000000E+00  0.00000000000E+00  0.10757398332E+04  0.10757398332E+04  0.25500000920E-02 0. -1.
        2   -1    0    0  501    0  0.00000000000E+00  0.00000000000E+00 -0.45424346367E+03  0.45424346367E+03  0.25500000920E-02 0.  1.
    10030    2    1    2    0    0  0.00000000000E+00  0.00000000000E+00  0.62149636949E+03  0.15299832968E+04  0.13980669338E+04 0.  0.
        5    1    3    3  502    0 -0.91378750141E+02 -0.38358565344E+03 -0.32089322805E+03  0.50841182451E+03  0.46999998093E+01 0.  1.
       -5    1    3    3    0  502  0.91378750141E+02  0.38358565344E+03  0.94238959754E+03  0.10215714723E+04  0.46999998093E+01 0. -1.
</event>
<event>
 5   0  0.4243281E-05  0.1400129E+04  0.7818609E-02  0.8953725E-01
       -2   -1    0    0    0  501  0.00000000000E+00  0.00000000000E+00  0.84128663867E+03  0.84128663868E+03  0.25500000920E-02 0.  1.
        2   -1    0    0  501    0  0.00000000000E+00  0.00000000000E+00 -0.58254854861E+03  0.58254854862E+03  0.25500000920E-02 0. -1.
    10030    2    1    2    0    0  0.00000000000E+00  0.00000000000E+00  0.25873809006E+03  0.14238351873E+04  0.14001290088E+04 0.  0.
        2    1    3    3  502    0 -0.34886109055E+03 -0.43199653481E+03  0.56292693035E+03  0.79070335493E+03  0.25500000920E-02 0.  1.
       -2    1    3    3    0  502  0.34886109055E+03  0.43199653481E+03 -0.30418884029E+03  0.63313183236E+03  0.25500000920E-02 0. -1.
</event>
<event>
 5   0  0.2427569E-05  0.1400622E+04  0.7818609E-02  0.8953368E-01
       -1   -1    0    0    0  501  0.00000000000E+00  0.00000000000E+00  0.27213053746E+03  0.27213053751E+03  0.50400001928E-02 0.  1.
        1   -1    0    0  501    0  0.00000000000E+00  0.00000000000E+00 -0.18022079314E+04  0.18022079314E+04  0.50400001928E-02 0. -1.
    10030    2    1    2    0    0  0.00000000000E+00  0.00000000000E+00 -0.15300773939E+04  0.20743384689E+04  0.14006224517E+04 0.  0.
        1    1    3    3  502    0 -0.38519588753E+03 -0.13175412269E+03 -0.16089566230E+04  0.16596615424E+04  0.50400001928E-02 0. -1.
       -1    1    3    3    0  502  0.38519588753E+03  0.13175412269E+03  0.78879229018E+02  0.41467692655E+03  0.50400001928E-02 0.  1.
</event>
<event>
 5   0  0.4621450E-05  0.1399624E+04  0.7818609E-02  0.8954091E-01
       -2   -1    0    0    0  501  0.00000000000E+00  0.00000000000E+00  0.46293018028E+03  0.46293018029E+03  0.25500000920E-02 0. -1.
        2   -1    0    0  501    0  0.00000000000E+00  0.00000000000E+00 -0.10579061510E+04  0.10579061510E+04  0.25500000920E-02 0.  1.
    10030    2    1    2    0    0  0.00000000000E+00  0.00000000000E+00 -0.59497597076E+03  0.15208363313E+04  0.13996237855E+04 0.  0.
        5    1    3    3  502    0  0.11777154970E+02  0.25016654704E+03 -0.10075255652E+04  0.10381964444E+04  0.46999998093E+01 0.  1.
       -5    1    3    3    0  502 -0.11777154970E+02 -0.25016654704E+03  0.41254959441E+03  0.48263988696E+03  0.46999998093E+01 0. -1.
</event>
<event>
 5   0  0.2316714E-05  0.1400569E+04  0.7818609E-02  0.8953407E-01
        1   -1    0    0  501    0  0.00000000000E+00  0.00000000000E+00  0.10379791790E+04  0.10379791790E+04  0.50400001928E-02 0.  1.
       -1   -1    0    0    0  501  0.00000000000E+00  0.00000000000E+00 -0.47245510889E+03  0.47245510891E+03  0.50400001928E-02 0. -1.
    10030    2    1    2    0    0  0.00000000000E+00  0.00000000000E+00  0.56552407014E+03  0.15104342880E+04  0.14005692644E+04 0.  0.
        5    1    3    3  502    0  0.19574759201E+03  0.43364340903E+03 -0.27136545370E+03  0.54774540202E+03  0.46999998093E+01 0. -1.
       -5    1    3    3    0  502 -0.19574759201E+03 -0.43364340903E+03  0.83688952384E+03  0.96268888593E+03  0.46999998093E+01 0.  1.
</event>
<event>
 5   0  0.4441253E-05  0.1399821E+04  0.7818609E-02  0.8953948E-01
       -2   -1    0    0    0  501  0.00000000000E+00  0.00000000000E+00  0.95761200739E+03  0.95761200739E+03  0.25500000920E-02 0. -1.
        2   -1    0    0  501    0  0.00000000000E+00  0.00000000000E+00 -0.51155847976E+03  0.51155847977E+03  0.25500000920E-02 0.  1.
    10030    2    1    2    0    0  0.00000000000E+00  0.00000000000E+00  0.44605352763E+03  0.14691704872E+04  0.13998207638E+04 0.  0.
        3    1    3    3  502    0 -0.58515654835E+03 -0.23534463380E+03  0.54150565348E+03  0.83127833227E+03  0.10100000352E+00 0. -1.
       -3    1    3    3    0  502  0.58515654835E+03  0.23534463380E+03 -0.95452125855E+02  0.63789215489E+03  0.10100000352E+00 0.  1.
</event>
<event>
 5   0  0.4621450E-05  0.1398694E+04  0.7818609E-02  0.8954764E-01
       -2   -1    0    0    0  501  0.00000000000E+00  0.00000000000E+00  0.40424460218E+03  0.40424460219E+03  0.25500000920E-02 0.  1.
        2   -1    0    0  501    0  0.00000000000E+00  0.00000000000E+00 -0.12098771605E+04  0.12098771605E+04  0.25500000920E-02 0. -1.
    10030    2    1    2    0    0  0.00000000000E+00  0.00000000000E+00 -0.80563255833E+03  0.16141217627E+04  0.13986941216E+04 0.  0.
        5    1    3    3  502    0 -0.56368179536E+03  0.19667493282E+03 -0.82311751282E+03  0.10168395771E+04  0.46999998093E+01 0. -1.
       -5    1    3    3    0  502  0.56368179536E+03 -0.19667493282E+03  0.17484954487E+02  0.59728218562E+03  0.46999998093E+01 0.  1.
</event>
<event>
 5   0  0.2428507E-05  0.1400617E+04  0.7818609E-02  0.8953372E-01
       -1   -1    0    0    0  501  0.00000000000E+00  0.00000000000E+00  0.34283977105E+03  0.34283977108E+03  0.50400001928E-02 0. -1.
        1   -1    0    0  501    0  0.00000000000E+00  0.00000000000E+00 -0.14305000351E+04  0.14305000351E+04  0.50400001928E-02 0.  1.
    10030    2    1    2    0    0  0.00000000000E+00  0.00000000000E+00 -0.10876602640E+04  0.17733398062E+04  0.14006174418E+04 0.  0.
        4    1    3    3  502    0  0.64624305701E+03 -0.15705700351E+03 -0.26605263613E+03  0.71629784948E+03  0.12699999809E+01 0. -1.
       -4    1    3    3    0  502 -0.64624305701E+03  0.15705700351E+03 -0.82160762792E+03  0.10570419567E+04  0.12699999809E+01 0.  1.
</event>
<event>
 5   0  0.4441253E-05  0.1399283E+04  0.7818609E-02  0.8954337E-01
        2   -1    0    0  501    0  0.00000000000E+00  0.00000000000E+00  0.87430150230E+03  0.87430150230E+03  0.25500000920E-02 0. -1.
       -2   -1    0    0    0  501  0.00000000000E+00  0.00000000000E+00 -0.55987384326E+03  0.55987384327E+03  0.25500000920E-02 0.  1.
    10030    2    1    2    0    0  0.00000000000E+00  0.00000000000E+00  0.31442765904E+03  0.14341753456E+04  0.13992834484E+04 0.  0.
        3    1    3    3  502    0  0.56214053744E+03  0.41569006111E+03  0.13012911831E+03  0.71114963852E+03  0.10100000352E+00 0.  1.
       -3    1    3    3    0  502 -0.56214053744E+03 -0.41569006111E+03  0.18429854073E+03  0.72302570705E+03  0.10100000352E+00 0. -1.
</event>
<event>
 5   0  0.4243281E-05  0.1405990E+04  0.7818609E-02  0.8949494E-01
        2   -1    0    0  501    0  0.00000000000E+00  0.00000000000E+00  0.85904407445E+03  0.85904407445E+03  0.25500000920E-02 0.  1.
       -2   -1    0    0    0  501  0.00000000000E+00  0.00000000000E+00 -0.57529298515E+03  0.57529298516E+03  0.25500000920E-02 0. -1.
    10030    2    1    2    0    0  0.00000000000E+00  0.00000000000E+00  0.28375108929E+03  0.14343370596E+04  0.14059900853E+04 0.  0.
        2    1    3    3  502    0 -0.35596452730E+03 -0.54148689042E+03 -0.13616898778E+03  0.66216371875E+03  0.25500000920E-02 0. -1.
       -2    1    3    3    0  502  0.35596452730E+03  0.54148689042E+03  0.41992007707E+03  0.77217334086E+03  0.25500000920E-02 0.  1.
</event>
<event>
 5   0  0.4527503E-05  0.1399762E+04  0.7818609E-02  0.8953991E-01
       -2   -1    0    0    0  501  0.00000000000E+00  0.00000000000E+00  0.36651089117E+03  0.36651089118E+03  0.25500000920E-02 0.  1.
        2   -1    0    0  501    0  0.00000000000E+00  0.00000000000E+00 -0.13364765001E+04  0.13364765001E+04  0.25500000920E-02 0. -1.
    10030    2    1    2    0    0  0.00000000000E+00  0.00000000000E+00 -0.96996560894E+03  0.17029873913E+04  0.13997616841E+04 0.  0.
        4    1    3    3  502    0 -0.18687960316E+03 -0.54996248323E+03 -0.96001103853E+03  0.11220541547E+04  0.12699999809E+01 0. -1.
       -4    1    3    3    0  502  0.18687960316E+03  0.54996248323E+03 -0.99545704125E+01  0.58093323662E+03  0.12699999809E+01 0.  1.
</event>
<event>
 5   0  0.4621450E-05  0.1399625E+04  0.7818609E-02  0.8954090E-01
        2   -1    0    0  501    0  0.00000000000E+00  0.00000000000E+00  0.99702280363E+03  0.99702280363E+03  0.25500000920E-02 0.  1.
       -2   -1    0    0    0  501  0.00000000000E+00  0.00000000000E+00 -0.49120009909E+03  0.49120009910E+03  0.25500000920E-02 0. -1.
    10030    2    1    2    0    0  0.00000000000E+00  0.00000000000E+00  0.50582270453E+03  0.14882229027E+04  0.13996252355E+04 0.  0.
        5    1    3    3  502    0  0.26073408500E+03  0.86454285627E+02  0.93728329665E+03  0.97671831905E+03  0.46999998093E+01 0.  1.
       -5    1    3    3    0  502 -0.26073408500E+03 -0.86454285627E+02 -0.43146059212E+03  0.51150458369E+03  0.46999998093E+01 0. -1.
</event>
<event>
 5   0  0.4460282E-05  0.1400066E+04  0.7818609E-02  0.8953771E-01
        2   -1    0    0  501    0  0.00000000000E+00  0.00000000000E+00  0.11955025116E+04  0.11955025116E+04  0.25500000920E-02 0.  1.
       -2   -1    0    0    0  501  0.00000000000E+00  0.00000000000E+00 -0.40990820923E+03  0.40990820924E+03  0.25500000920E-02 0. -1.
    10030    2    1    2    0    0  0.00000000000E+00  0.00000000000E+00  0.78559430240E+03  0.16054107209E+04  0.14000661323E+04 0.  0.
        1    1    3    3  502    0  0.62750715313E+03  0.39492244918E+02  0.39888967517E+02  0.63001269384E+03  0.50400001928E-02 0. -1.
       -1    1    3    3    0  502 -0.62750715313E+03 -0.39492244918E+02  0.74570533489E+03  0.97539802704E+03  0.50400001928E-02 0.  1.
</event>
<event>
 5   0  0.4460282E-05  0.1399812E+04  0.7818609E-02  0.8953955E-01
       -2   -1    0    0    0  501  0.00000000000E+00  0.00000000000E+00  0.49414076033E+03  0.49414076034E+03  0.25500000920E-02 0. -1.
        2   -1    0    0  501    0  0.00000000000E+00  0.00000000000E+00 -0.99135330988E+03  0.99135330989E+03  0.25500000920E-02 0.  1.
    10030    2    1    2    0    0  0.00000000000E+00  0.00000000000E+00 -0.49721254955E+03  0.14854940702E+04  0.13998115278E+04 0.  0.
        1    1    3    3  502    0 -0.33305036982E+03 -0.60872037689E+03 -0.15131563757E+03  0.71018270063E+03  0.50400001928E-02 0.  1.
       -1    1    3    3    0  502  0.33305036982E+03  0.60872037689E+03 -0.34589691198E+03  0.77531136959E+03  0.50400001928E-02 0. -1.
</event>
<event>
 5   0  0.2427569E-05  0.1396050E+04  0.7818609E-02  0.8956683E-01
        1   -1    0    0  501    0  0.00000000000E+00  0.00000000000E+00  0.82402325842E+03  0.82402325843E+03  0.50400001928E-02 0. -1.
       -1   -1    0    0    0  501  0.00000000000E+00  0.00000000000E+00 -0.59129250908E+03  0.59129250910E+03  0.50400001928E-02 0.  1.
    10030    2    1    2    0    0  0.00000000000E+00  0.00000000000E+00  0.23273074934E+03  0.14153157675E+04  0.13960498272E+04 0.  0.
        1    1    3    3  502    0  0.25714253587E+03 -0.25116587743E+03 -0.49025007682E+03  0.60790765712E+03  0.50400001928E-02 0.  1.
       -1    1    3    3    0  502 -0.25714253587E+03  0.25116587743E+03  0.72298082616E+03  0.80740811041E+03  0.50400001928E-02 0. -1.
</event>
<event>
 5   0  0.2363419E-05  0.1406101E+04  0.7818609E-02  0.8949414E-01
       -1   -1    0    0    0  501  0.00000000000E+00  0.00000000000E+00  0.31040412018E+03  0.31040412022E+03  0.50400001928E-02 0. -1.
        1   -1    0    0  501    0  0.00000000000E+00  0.00000000000E+00 -0.15923748134E+04  0.15923748134E+04  0.50400001928E-02 0.  1.
    10030    2    1    2    0    0  0.00000000000E+00  0.00000000000E+00 -0.12819706932E+04  0.19027789337E+04  0.14061005697E+04 0.  0.
        2    1    3    3  502    0 -0.13383123039E+03  0.32318443376E+03  0.18428671156E+03  0.39537396034E+03  0.25500000920E-02 0. -1.
       -2    1    3    3    0  502  0.13383123039E+03 -0.32318443376E+03 -0.14662574048E+04  0.15074049733E+04  0.25500000920E-02 0.  1.
</event>
<event>
 5   0  0.4460282E-05  0.1399678E+04  0.7818609E-02  0.8954051E-01
       -2   -1    0    0    0  501  0.00000000000E+00  0.00000000000E+00  0.27125904272E+03  0.27125904273E+03  0.25500000920E-02 0. -1.
        2   -1    0    0  501    0  0.00000000000E+00  0.00000000000E+00 -0.18055617022E+04  0.18055617022E+04  0.25500000920E-02 0.  1.
    10030    2    1    2    0    0  0.00000000000E+00  0.00000000000E+00 -0.15343026595E+04  0.20768207450E+04  0.13996784473E+04 0.  0.
        1    1    3    3  502    0 -0.37498126352E+03  0.11098435814E+03 -0.16283170499E+04  0.16746178343E+04  0.50400001928E-02 0.  1.
       -1    1    3    3    0  502  0.37498126352E+03 -0.11098435814E+03  0.94014390413E+02  0.40220291069E+03  0.50400001928E-02 0. -1.
</event>
<event>
 5   0  0.2316714E-05  0.1400181E+04  0.7818609E-02  0.8953687E-01
       -1   -1    0    0    0  501  0.00000000000E+00  0.00000000000E+00  0.48370672929E+03  0.48370672932E+03  0.50400001928E-02 0.  1.
        1   -1    0    0  501    0  0.00000000000E+00  0.00000000000E+00 -0.10132731347E+04  0.10132731347E+04  0.50400001928E-02 0. -1.
    10030    2    1    2    0    0  0.00000000000E+00  0.00000000000E+00 -0.52956640544E+03  0.14969798641E+04  0.14001814653E+04 0.  0.
        5    1    3    3  502    0  0.15713330456E+03 -0.27730841285E+03 -0.93118327233E+03  0.98423330970E+03  0.46999998093E+01 0. -1.
       -5    1    3    3    0  502 -0.15713330456E+03  0.27730841285E+03  0.40161686690E+03  0.51274655437E+03  0.46999998093E+01 0.  1.
</event>
<event>
 5   0  0.4621450E-05  0.1399761E+04  0.7818609E-02  0.8953992E-01
        2   -1    0    0  501    0  0.00000000000E+00  0.00000000000E+00  0.28376045114E+04  0.28376045114E+04  0.25500000920E-02 0.  1.
       -2   -1    0    0    0  501  0.00000000000E+00  0.00000000000E+00 -0.17262181814E+03  0.17262181816E+03  0.25500000920E-02 0. -1.
    10030    2    1    2    0    0  0.00000000000E+00  0.00000000000E+00  0.26649826932E+04  0.30102263296E+04  0.13997606223E+04 0.  0.
        5    1    3    3  502    0  0.55766086693E+03 -0.25122510186E+03  0.20640212337E+04  0.21527436999E+04  0.46999998093E+01 0.  1.
       -5    1    3    3    0  502 -0.55766086693E+03  0.25122510186E+03  0.60096145959E+03  0.85748262969E+03  0.46999998093E+01 0. -1.
</event>
<event>
 5   0  0.2467303E-05  0.1399037E+04  0.7818609E-02  0.8954516E-01
        1   -1    0    0  501    0  0.00000000000E+00  0.00000000000E+00  0.14886216455E+04  0.14886216456E+04  0.50400001928E-02 0. -1.
       -1   -1    0    0    0  501  0.00000000000E+00  0.00000000000E+00 -0.32871074081E+03  0.32871074085E+03  0.50400001928E-02 0.  1.
    10030    2    1    2    0    0  0.00000000000E+00  0.00000000000E+00  0.11599109047E+04  0.18173323864E+04  0.13990367028E+04 0.  0.
        3    1    3    3  502    0 -0.30254503344E+03 -0.18944203705E+03 -0.20149604622E+03  0.40990541531E+03  0.10100000352E+00 0.  1.
       -3    1    3    3    0  502  0.30254503344E+03  0.18944203705E+03  0.13614069510E+04  0.14074269711E+04  0.10100000352E+00 0. -1.
</event>
<event>
 5   0  0.4243281E-05  0.1399927E+04  0.7818609E-02  0.8953872E-01
        2   -1    0    0  501    0  0.00000000000E+00  0.00000000000E+00  0.11301197096E+04  0.11301197096E+04  0.25500000920E-02 0.  1.
       -2   -1    0    0    0  501  0.00000000000E+00  0.00000000000E+00 -0.43353705103E+03  0.43353705103E+03  0.25500000920E-02 0. -1.
    10030    2    1    2    0    0  0.00000000000E+00  0.00000000000E+00  0.69658265858E+03  0.15636567606E+04  0.13999268070E+04 0.  0.
        2    1    3    3  502    0  0.34749764146E+03  0.58462463048E+03  0.53320811227E+03  0.86420568175E+03  0.25500000920E-02 0. -1.
       -2    1    3    3    0  502 -0.34749764146E+03 -0.58462463048E+03  0.16337454631E+03  0.69945107889E+03  0.25500000920E-02 0.  1.
</event>
<event>
 5   0  0.2428507E-05  0.1400401E+04  0.7818609E-02  0.8953529E-01
       -1   -1    0    0    0  501  0.00000000000E+00  0.00000000000E+00  0.30501563992E+03  0.30501563996E+03  0.50400001928E-02 0. -1.
        1   -1    0    0  501    0  0.00000000000E+00  0.00000000000E+00 -0.16073946593E+04  0.16073946593E+04  0.50400001928E-02 0.  1.
    10030    2    1    2    0    0  0.00000000000E+00  0.00000000000E+00 -0.13023790194E+04  0.19124102992E+04  0.14004006722E+04 0.  0.
        4    1    3    3  502    0 -0.39945725030E+03  0.43710772137E+03 -0.14086235485E+03  0.60866499062E+03  0.12699999809E+01 0. -1.
       -4    1    3    3    0  502  0.39945725030E+03 -0.43710772137E+03 -0.11615166645E+04  0.13037453086E+04  0.12699999809E+01 0.  1.
</event>
<event>
 5   0  0.2316714E-05  0.1400281E+04  0.7818609E-02  0.8953615E-01
        1   -1    0    0  501    0  0.00000000000E+00  0.00000000000E+00  0.10275619153E+04  0.10275619153E+04  0.50400001928E-02 0.  1.
       -1   -1    0    0    0  501  0.00000000000E+00  0.00000000000E+00 -0.47704816990E+03  0.47704816992E+03  0.50400001928E-02 0. -1.
    10030    2    1    2    0    0  0.00000000000E+00  0.00000000000E+00  0.55051374542E+03  0.15046100853E+04  0.14002807307E+04 0.  0.
        5    1    3    3  502    0 -0.46661889682E+03  0.47201321337E+03  0.51466870995E+03  0.83990216065E+03  0.46999998093E+01 0. -1.
       -5    1    3    3    0  502  0.46661889682E+03 -0.47201321337E+03  0.35845035471E+02  0.66470792460E+03  0.46999998093E+01 0.  1.
</event>
<event>
 5   0  0.2427569E-05  0.1400191E+04  0.7818609E-02  0.8953680E-01
        1   -1    0    0  501    0  0.00000000000E+00  0.00000000000E+00  0.20911486445E+04  0.20911486445E+04  0.50400001928E-02 0.  1.
       -1   -1    0    0    0  501  0.00000000000E+00  0.00000000000E+00 -0.23438487795E+03  0.23438487800E+03  0.50400001928E-02 0. -1.
    10030    2    1    2    0    0  0.00000000000E+00  0.00000000000E+00  0.18567637665E+04  0.23255335225E+04  0.14001908725E+04 0.  0.
        1    1    3    3  502    0  0.38717320845E+02 -0.44541982910E+03  0.18231506706E+04  0.18771724009E+04  0.50400001928E-02 0.  1.
       -1    1    3    3    0  502 -0.38717320845E+02  0.44541982910E+03  0.33613095945E+02  0.44836112157E+03  0.50400001928E-02 0. -1.
</event>
<event>
 5   0  0.2363419E-05  0.1399706E+04  0.7818609E-02  0.8954031E-01
       -1   -1    0    0    0  501  0.00000000000E+00  0.00000000000E+00  0.70830193627E+03  0.70830193629E+03  0.50400001928E-02 0.  1.
        1   -1    0    0  501    0  0.00000000000E+00  0.00000000000E+00 -0.69150524111E+03  0.69150524113E+03  0.50400001928E-02 0. -1.
    10030    2    1    2    0    0  0.00000000000E+00  0.00000000000E+00  0.16796695166E+02  0.13998071774E+04  0.13997063996E+04 0.  0.
        2    1    3    3  502    0  0.34629311029E+03  0.10890896642E+03 -0.58998779485E+03  0.69272337861E+03  0.25500000920E-02 0. -1.
       -2    1    3    3    0  502 -0.34629311029E+03 -0.10890896642E+03  0.60678449001E+03  0.70708379880E+03  0.25500000920E-02 0.  1.
</event>
<event>
 5   0  0.4441253E-05  0.1400008E+04  0.7818609E-02  0.8953813E-01
        2   -1    0    0  501    0  0.00000000000E+00  0.00000000000E+00  0.51284454416E+03  0.51284454417E+03  0.25500000920E-02 0. -1.
       -2   -1    0    0    0  501  0.00000000000E+00  0.00000000000E+00 -0.95546642495E+03  0.95546642496E+03  0.25500000920E-02 0.  1.
    10030    2    1    2    0    0  0.00000000000E+00  0.00000000000E+00 -0.44262188079E+03  0.14683109691E+04  0.14000082045E+04 0.  0.
        3    1    3    3  502    0 -0.41755315564E+03 -0.34675567838E+03  0.24231430025E+03  0.59439580129E+03  0.10100000352E+00 0. -1.
       -3    1    3    3    0  502  0.41755315564E+03  0.34675567838E+03 -0.68493618104E+03  0.87391516784E+03  0.10100000352E+00 0.  1.
</event>
<event>
 5   0  0.4460282E-05  0.1399665E+04  0.7818609E-02  0.8954061E-01
       -2   -1    0    0    0  501  0.00000000000E+00  0.00000000000E+00  0.19936504831E+03  0.19936504833E+03  0.25500000920E-02 0. -1.
        2   -1    0    0  501    0  0.00000000000E+00  0.00000000000E+00 -0.24566284412E+04  0.24566284412E+04  0.25500000920E-02 0.  1.
    10030    2    1    2    0    0  0.00000000000E+00  0.00000000000E+00 -0.22572633929E+04  0.26559934895E+04  0.13996654570E+04 0.  0.
        1    1    3    3  502    0 -0.11779740305E+03 -0.55289312654E+03 -0.34577725185E+03  0.66266805074E+03  0.50400001928E-02 0. -1.
       -1    1    3    3    0  502  0.11779740305E+03  0.55289312654E+03 -0.19114861410E+04  0.19933254388E+04  0.50400001928E-02 0.  1.
</event>
<event>
 5   0  0.2363419E-05  0.1399513E+04  0.7818609E-02  0.8954171E-01
       -1   -1    0    0    0  501  0.00000000000E+00  0.00000000000E+00  0.69991398250E+03  0.69991398252E+03  0.50400001928E-02 0. -1.
        1   -1    0    0  501    0  0.00000000000E+00  0.00000000000E+00 -0.69959897535E+03  0.69959897536E+03  0.50400001928E-02 0.  1.
    10030    2    1    2    0    0  0.00000000000E+00  0.00000000000E+00  0.31500715707E+00  0.13995129579E+04  0.13995129224E+04 0.  0.
        2    1    3    3  502    0 -0.53328345989E+03  0.17982402549E+03 -0.41569245138E+03  0.69966287801E+03  0.25500000920E-02 0.  1.
       -2    1    3    3    0  502  0.53328345989E+03 -0.17982402549E+03  0.41600745853E+03  0.69985007987E+03  0.25500000920E-02 0. -1.
</event>
<event>
 5   0  0.2428507E-05  0.1399938E+04  0.7818609E-02  0.8953864E-01
        1   -1    0    0  501    0  0.00000000000E+00  0.00000000000E+00  0.10421133018E+04  0.10421133019E+04  0.50400001928E-02 0.  1.
       -1   -1    0    0    0  501  0.00000000000E+00  0.00000000000E+00 -0.47015656576E+03  0.47015656579E+03  0.50400001928E-02 0. -1.
    10030    2    1    2    0    0  0.00000000000E+00  0.00000000000E+00  0.57195673608E+03  0.15122698676E+04  0.13999377288E+04 0.  0.
        4    1    3    3  502    0 -0.11748638784E+03  0.60206128817E+03  0.65018769272E+03  0.89388281933E+03  0.12699999809E+01 0.  1.
       -4    1    3    3    0  502  0.11748638784E+03 -0.60206128817E+03 -0.78230956634E+02  0.61838704831E+03  0.12699999809E+01 0. -1.
</event>
<event>
 5   0  0.2467303E-05  0.1399962E+04  0.7818609E-02  0.8953846E-01
        1   -1    0    0  501    0  0.00000000000E+00  0.00000000000E+00  0.93530901882E+03  0.93530901883E+03  0.50400001928E-02 0.  1.
       -1   -1    0    0    0  501  0.00000000000E+00  0.00000000000E+00 -0.52386293959E+03  0.52386293961E+03  0.50400001928E-02 0. -1.
    10030    2    1    2    0    0  0.00000000000E+00  0.00000000000E+00  0.41144607923E+03  0.14591719584E+04  0.13999624738E+04 0.  0.
        3    1    3    3  502    0  0.50131307723E+03 -0.44663975853E+03  0.41201252990E+03  0.78775390211E+03  0.10100000352E+00 0.  1.
       -3    1    3    3    0  502 -0.50131307723E+03  0.44663975853E+03 -0.56645066670E+00  0.67141805633E+03  0.10100000352E+00 0. -1.
</event>
<event>
 5   0  0.2428507E-05  0.1399224E+04  0.7818609E-02  0.8954380E-01
        1   -1    0    0  501    0  0.00000000000E+00  0.00000000000E+00  0.14865611585E+04  0.14865611585E+04  0.50400001928E-02 0. -1.
       -1   -1    0    0    0  501  0.00000000000E+00  0.00000000000E+00 -0.32925451623E+03  0.32925451627E+03  0.50400001928E-02 0.  1.
    10030    2    1    2    0    0  0.00000000000E+00  0.00000000000E+00  0.11573066422E+04  0.18158156747E+04  0.13992240351E+04 0.  0.
        4    1    3    3  502    0 -0.58862415193E+03  0.37103858767E+03  0.67319489191E+03  0.96816372642E+03  0.12699999809E+01 0.  1.
       -4    1    3    3    0  502  0.58862415193E+03 -0.37103858767E+03  0.48411175031E+03  0.84765194830E+03  0.12699999809E+01 0. -1.
</event>
<event>
 5   0  0.4243281E-05  0.1400808E+04  0.7818609E-02  0.8953234E-01
       -2   -1    0    0    0  501  0.00000000000E+00  0.00000000000E+00  0.26969941013E+03  0.26969941014E+03  0.25500000920E-02 0.  1.
        2   -1    0    0  501    0  0.00000000000E+00  0.00000000000E+00 -0.18189343696E+04  0.18189343696E+04  0.25500000920E-02 0. -1.
    10030    2    1    2    0    0  0.00000000000E+00  0.00000000000E+00 -0.15492349595E+04  0.20886337798E+04  0.14008076621E+04 0.  0.
        2    1    3    3  502    0 -0.18818746555E+02  0.34535131607E+03  0.13349130418E+03  0.37073117624E+03  0.25500000920E-02 0.  1.
       -2    1    3    3    0  502  0.18818746555E+02 -0.34535131607E+03 -0.16827262637E+04  0.17179026035E+04  0.25500000920E-02 0. -1.
</event>
<event>
 5   0  0.4460282E-05  0.1399683E+04  0.7818609E-02  0.8954048E-01
       -2   -1    0    0    0  501  0.00000000000E+00  0.00000000000E+00  0.74590172953E+03  0.74590172954E+03  0.25500000920E-02 0. -1.
        2   -1    0    0  501    0  0.00000000000E+00  0.00000000000E+00 -0.65662592822E+03  0.65662592823E+03  0.25500000920E-02 0.  1.
    10030    2    1    2    0    0  0.00000000000E+00  0.00000000000E+00  0.89275801309E+02  0.14025276578E+04  0.13996834150E+04 0.  0.
        1    1    3    3  502    0 -0.29885697932E+03  0.29852809270E+03 -0.51447794139E+03  0.66567414582E+03  0.50400001928E-02 0.  1.
       -1    1    3    3    0  502  0.29885697932E+03 -0.29852809270E+03  0.60375374270E+03  0.73685351194E+03  0.50400001928E-02 0. -1.
</event>
<event>
 5   0  0.2427569E-05  0.1399624E+04  0.7818609E-02  0.8954091E-01
       -1   -1    0    0    0  501  0.00000000000E+00  0.00000000000E+00  0.86491611884E+03  0.86491611885E+03  0.50400001928E-02 0. -1.
        1   -1    0    0  501    0  0.00000000000E+00  0.00000000000E+00 -0.56622429506E+03  0.56622429508E+03  0.50400001928E-02 0.  1.
    10030    2    1    2    0    0  0.00000000000E+00  0.00000000000E+00  0.29869182378E+03  0.14311404139E+04  0.13996235490E+04 0.  0.
        1    1    3    3  502    0 -0.33149580744E+03 -0.40615623647E+03  0.62334030822E+03  0.81449708327E+03  0.50400001928E-02 0. -1.
       -1    1    3    3    0  502  0.33149580744E+03  0.40615623647E+03 -0.32464848444E+03  0.61664333066E+03  0.50400001928E-02 0.  1.
</event>
<event>
 5   0  0.4243281E-05  0.1400095E+04  0.7818609E-02  0.8953750E-01
        2   -1    0    0  501    0  0.00000000000E+00  0.00000000000E+00  0.10688749319E+04  0.10688749319E+04  0.25500000920E-02 0. -1.
       -2   -1    0    0    0  501  0.00000000000E+00  0.00000000000E+00 -0.45848803252E+03  0.45848803253E+03  0.25500000920E-02 0.  1.
    10030    2    1    2    0    0  0.00000000000E+00  0.00000000000E+00  0.61038689942E+03  0.15273629645E+04  0.14000948033E+04 0.  0.
        2    1    3    3  502    0  0.11948103866E+03  0.38630384971E+03  0.92859272555E+03  0.10128133258E+04  0.25500000920E-02 0. -1.
       -2    1    3    3    0  502 -0.11948103866E+03 -0.38630384971E+03 -0.31820582613E+03  0.51454963870E+03  0.25500000920E-02 0.  1.
</event>
<event>
 5   0  0.2467303E-05  0.1400272E+04  0.7818609E-02  0.8953622E-01
        1   -1    0    0  501    0  0.00000000000E+00  0.00000000000E+00  0.22110770521E+04  0.22110770521E+04  0.50400001928E-02 0.  1.
       -1   -1    0    0    0  501  0.00000000000E+00  0.00000000000E+00 -0.22169745739E+03  0.22169745745E+03  0.50400001928E-02 0. -1.
    10030    2    1    2    0    0  0.00000000000E+00  0.00000000000E+00  0.19893795947E+04  0.24327745096E+04  0.14002716317E+04 0.  0.
        3    1    3    3  502    0 -0.57659660087E+02 -0.12109914231E+03  0.21885481243E+04  0.21926542229E+04  0.10100000352E+00 0.  1.
       -3    1    3    3    0  502  0.57659660087E+02  0.12109914231E+03 -0.19916852960E+03  0.24012028664E+03  0.10100000352E+00 0. -1.
</event>
<event>
 5   0  0.4460282E-05  0.1400126E+04  0.7818609E-02  0.8953727E-01
       -2   -1    0    0    0  501  0.00000000000E+00  0.00000000000E+00  0.44052256052E+03  0.44052256053E+03  0.25500000920E-02 0.  1.
        2   -1    0    0  501    0  0.00000000000E+00  0.00000000000E+00 -0.11125161610E+04  0.11125161610E+04  0.25500000920E-02 0. -1.
    10030    2    1    2    0    0  0.00000000000E+00  0.00000000000E+00 -0.67199360052E+03  0.15530387216E+04  0.14001263770E+04 0.  0.
        1    1    3    3  502    0 -0.35317888250E+03 -0.51337523088E+02 -0.10040320257E+04  0.10655755126E+04  0.50400001928E-02 0. -1.
       -1    1    3    3    0  502  0.35317888250E+03  0.51337523088E+02  0.33203842518E+03  0.48746320901E+03  0.50400001928E-02 0.  1.
</event>
<event>
 5   0  0.2467303E-05  0.1400031E+04  0.7818609E-02  0.8953796E-01
        1   -1    0    0  501    0  0.00000000000E+00  0.00000000000E+00  0.10278502640E+04  0.10278502640E+04  0.50400001928E-02 0.  1.
       -1   -1    0    0    0  501  0.00000000000E+00  0.00000000000E+00 -0.47674433797E+03  0.47674433800E+03  0.50400001928E-02 0. -1.
    10030    2    1    2    0    0  0.00000000000E+00  0.00000000000E+00  0.55110592602E+03  0.15045946020E+04  0.14000311335E+04 0.  0.
        3    1    3    3  502    0  0.48904157768E+03  0.38469071177E+03  0.62024629158E+03  0.87855226415E+03  0.10100000352E+00 0.  1.
       -3    1    3    3    0  502 -0.48904157768E+03 -0.38469071177E+03 -0.69140365561E+02  0.62604233785E+03  0.10100000352E+00 0. -1.
</event>
<event>
 5   0  0.4621450E-05  0.1401109E+04  0.7818609E-02  0.8953016E-01
       -2   -1    0    0    0  501  0.00000000000E+00  0.00000000000E+00  0.44995867888E+03  0.44995867889E+03  0.25500000920E-02 0. -1.
        2   -1    0    0  501    0  0.00000000000E+00  0.00000000000E+00 -0.10907145131E+04  0.10907145131E+04  0.25500000920E-02 0.  1.
    10030    2    1    2    0    0  0.00000000000E+00  0.00000000000E+00 -0.64075583418E+03  0.15406731919E+04  0.14011087914E+04 0.  0.
        5    1    3    3  502    0 -0.34482251042E+03  0.17301114271E+03 -0.96336204820E+03  0.10377494616E+04  0.46999998093E+01 0.  1.
       -5    1    3    3    0  502  0.34482251042E+03 -0.17301114271E+03  0.32260621402E+03  0.50292373032E+03  0.46999998093E+01 0. -1.
</event>
<event>
 5   0  0.4460282E-05  0.1399939E+04  0.7818609E-02  0.8953863E-01
       -2   -1    0    0    0  501  0.00000000000E+00  0.00000000000E+00  0.46578665519E+03  0.46578665519E+03  0.25500000920E-02 0. -1.
        2   -1    0    0  501    0  0.00000000000E+00  0.00000000000E+00 -0.10518920503E+04  0.10518920503E+04  0.25500000920E-02 0.  1.
    10030    2    1    2    0    0  0.00000000000E+00  0.00000000000E+00 -0.58610539512E+03  0.15176787055E+04  0.13999389697E+04 0.  0.
        1    1    3    3  502    0  0.30604925491E+03 -0.19223927193E+03  0.35680851418E+03  0.50787242484E+03  0.50400001928E-02 0. -1.
       -1    1    3    3    0  502 -0.30604925491E+03  0.19223927193E+03 -0.94291390930E+03  0.10098062807E+04  0.50400001928E-02 0.  1.
</event>
<event>
 5   0  0.2363419E-05  0.1399023E+04  0.7818609E-02  0.8954526E-01
       -1   -1    0    0    0  501  0.00000000000E+00  0.00000000000E+00  0.35775268703E+03  0.35775268706E+03  0.50400001928E-02 0.  1.
        1   -1    0    0  501    0  0.00000000000E+00  0.00000000000E+00 -0.13677497920E+04  0.13677497920E+04  0.50400001928E-02 0. -1.
    10030    2    1    2    0    0  0.00000000000E+00  0.00000000000E+00 -0.10099971050E+04  0.17255024791E+04  0.13990227494E+04 0.  0.
        2    1    3    3  502    0  0.65735769138E+03 -0.20268099139E+03 -0.66157949544E+03  0.95440355588E+03  0.25500000920E-02 0.  1.
       -2    1    3    3    0  502 -0.65735769138E+03  0.20268099139E+03 -0.34841760951E+03  0.77109892317E+03  0.25500000920E-02 0. -1.
</event>
<event>
 5   0  0.4243281E-05  0.1399968E+04  0.7818609E-02  0.8953841E-01
        2   -1    0    0  501    0  0.00000000000E+00  0.00000000000E+00  0.13517629658E+04  0.13517629658E+04  0.25500000920E-02 0. -1.
       -2   -1    0    0    0  501  0.00000000000E+00  0.00000000000E+00 -0.36247321023E+03  0.36247321024E+03  0.25500000920E-02 0.  1.
    10030    2    1    2    0    0  0.00000000000E+00  0.00000000000E+00  0.98928975557E+03  0.17142361760E+04  0.13999683735E+04 0.  0.
        2    1    3    3  502    0  0.43871269037E+03 -0.52345137337E+03  0.30690459371E+03  0.74877272562E+03  0.25500000920E-02 0.  1.
       -2    1    3    3    0  502 -0.43871269037E+03  0.52345137337E+03  0.68238516185E+03  0.96546345042E+03  0.25500000920E-02 0. -1.
</event>
<event>
 5   0  0.4460282E-05  0.1399415E+04  0.7818609E-02  0.8954242E-01
       -2   -1    0    0    0  501  0.00000000000E+00  0.00000000000E+00  0.61326868991E+03  0.61326868992E+03  0.25500000920E-02 0.  1.
        2   -1    0    0  501    0  0.00000000000E+00  0.00000000000E+00 -0.79832979688E+03  0.79832979689E+03  0.25500000920E-02 0. -1.
    10030    2    1    2    0    0  0.00000000000E+00  0.00000000000E+00 -0.18506110697E+03  0.14115984868E+04  0.13994151188E+04 0.  0.
        1    1    3    3  502    0 -0.66646144785E+03 -0.21209290651E+03 -0.11360276231E+03  0.70856181812E+03  0.50400001928E-02 0.  1.
       -1    1    3    3    0  502  0.66646144785E+03  0.21209290651E+03 -0.71458344660E+02  0.70303666869E+03  0.50400001928E-02 0. -1.
</event>
<event>
 5   0  0.2363419E-05  0.1400561E+04  0.7818609E-02  0.8953412E-01
       -1   -1    0    0    0  501  0.00000000000E+00  0.00000000000E+00  0.60165180387E+03  0.60165180389E+03  0.50400001928E-02 0. -1.
        1   -1    0    0  501    0  0.00000000000E+00  0.00000000000E+00 -0.81507772950E+03  0.81507772951E+03  0.50400001928E-02 0.  1.
    10030    2    1    2    0    0  0.00000000000E+00  0.00000000000E+00 -0.21342592562E+03  0.14167295334E+04  0.14005612964E+04 0.  0.
        2    1    3    3  502    0  0.34455048619E+03 -0.28057861961E+03  0.44078717975E+03  0.62588556234E+03  0.25500000920E-02 0. -1.
       -2    1    3    3    0  502 -0.34455048619E+03  0.28057861961E+03 -0.65421310537E+03  0.79084397106E+03  0.25500000920E-02 0.  1.
</event>
<event>
 5   0  0.2428507E-05  0.1400368E+04  0.7818609E-02  0.8953552E-01
        1   -1    0    0  501    0  0.00000000000E+00  0.00000000000E+00  0.11365447538E+04  0.11365447539E+04  0.50400001928E-02 0. -1.
       -1   -1    0    0    0  501  0.00000000000E+00  0.00000000000E+00 -0.43135810116E+03  0.43135810119E+03  0.50400001928E-02 0.  1.
    10030    2    1    2    0    0  0.00000000000E+00  0.00000000000E+00  0.70518665269E+03  0.15679028550E+04  0.14003682186E+04 0.  0.
        4    1    3    3  502    0 -0.17383660028E+03  0.24731803844E+03 -0.35452651954E+03  0.46591419992E+03  0.12699999809E+01 0.  1.
       -4    1    3    3    0  502  0.17383660028E+03 -0.24731803844E+03  0.10597131722E+04  0.11019886551E+04  0.12699999809E+01 0. -1.
</event>
<event>
 5   0  0.4621450E-05  0.1396232E+04  0.7818609E-02  0.8956550E-01
       -2   -1    0    0    0  501  0.00000000000E+00  0.00000000000E+00  0.65569983068E+03  0.65569983068E+03  0.25500000920E-02 0.  1.
        2   -1    0    0  501    0  0.00000000000E+00  0.00000000000E+00 -0.74327617401E+03  0.74327617402E+03  0.25500000920E-02 0. -1.
    10030    2    1    2    0    0  0.00000000000E+00  0.00000000000E+00 -0.87576343337E+02  0.13989760047E+04  0.13962321604E+04 0.  0.
        5    1    3    3  502    0 -0.66923187648E+03 -0.16480347922E+03 -0.15496784683E+03  0.70644788541E+03  0.46999998093E+01 0.  1.
       -5    1    3    3    0  502  0.66923187648E+03  0.16480347922E+03  0.67391503494E+02  0.69252811928E+03  0.46999998093E+01 0. -1.
</event>
<event>
 5   0  0.2467303E-05  0.1399955E+04  0.7818609E-02  0.8953851E-01
       -1   -1    0    0    0  501  0.00000000000E+00  0.00000000000E+00  0.97820554753E+03  0.97820554754E+03  0.50400001928E-02 0.  1.
        1   -1    0    0  501    0  0.00000000000E+00  0.00000000000E+00 -0.50088511642E+03  0.50088511645E+03  0.50400001928E-02 0. -1.
    10030    2    1    2    0    0  0.00000000000E+00  0.00000000000E+00  0.47732043111E+03  0.14790906640E+04  0.13999551415E+04 0.  0.
        3    1    3    3  502    0  0.51860208131E+03 -0.28495077510E+03  0.63372725823E+03  0.86703824079E+03  0.10100000352E+00 0.  1.
       -3    1    3    3    0  502 -0.51860208131E+03  0.28495077510E+03 -0.15640682712E+03  0.61205242320E+03  0.10100000352E+00 0. -1.
</event>
<event>
 5   0  0.2467303E-05  0.1399503E+04  0.7818609E-02  0.8954179E-01
        1   -1    0    0  501    0  0.00000000000E+00  0.00000000000E+00  0.13229207566E+04  0.13229207566E+04  0.50400001928E-02 0.  1.
       -1   -1    0    0    0  501  0.00000000000E+00  0.00000000000E+00 -0.37012939720E+03  0.37012939723E+03  0.50400001928E-02 0. -1.
    10030    2    1    2    0    0  0.00000000000E+00  0.00000000000E+00  0.95279135942E+03  0.16930501539E+04  0.13995025719E+04 0.  0.
        3    1    3    3  502    0  0.11503100188E+03  0.37025846575E+03 -0.22830748260E+03  0.44994197366E+03  0.10100000352E+00 0. -1.
       -3    1    3    3    0  502 -0.11503100188E+03 -0.37025846575E+03  0.11810988420E+04  0.12431081802E+04  0.10100000352E+00 0.  1.
</event>
<event>
 5   0  0.4441253E-05  0.1400402E+04  0.7818609E-02  0.8953528E-01
       -2   -1    0    0    0  501  0.00000000000E+00  0.00000000000E+00  0.47767502092E+03  0.47767502093E+03  0.25500000920E-02 0.  1.
        2   -1    0    0  501    0  0.00000000000E+00  0.00000000000E+00 -0.10263912169E+04  0.10263912169E+04  0.25500000920E-02 0. -1.
    10030    2    1    2    0    0  0.00000000000E+00  0.00000000000E+00 -0.54871619598E+03  0.15040662378E+04  0.14004020080E+04 0.  0.
        3    1    3    3  502    0  0.25406614478E+03 -0.34742716424E+03  0.31881685806E+03  0.53562994647E+03  0.10100000352E+00 0.  1.
       -3    1    3    3    0  502 -0.25406614478E+03  0.34742716424E+03 -0.86753305405E+03  0.96843629137E+03  0.10100000352E+00 0. -1.
</event>
<event>
 5   0  0.4621450E-05  0.1400072E+04  0.7818609E-02  0.8953766E-01
        2   -1    0    0  501    0  0.00000000000E+00  0.00000000000E+00  0.24263801748E+04  0.24263801748E+04  0.25500000920E-02 0.  1.
       -2   -1    0    0    0  501  0.00000000000E+00  0.00000000000E+00 -0.20196775816E+03  0.20196775818E+03  0.25500000920E-02 0. -1.
    10030    2    1    2    0    0  0.00000000000E+00  0.00000000000E+00  0.22244124166E+04  0.26283479329E+04  0.14000722329E+04 0.  0.
        5    1    3    3  502    0 -0.37957273149E+03 -0.32410929573E+03  0.19078886247E+03  0.53436389671E+03  0.46999998093E+01 0. -1.
       -5    1    3    3    0  502  0.37957273149E+03  0.32410929573E+03  0.20336235541E+04  0.20939840362E+04  0.46999998093E+01 0.  1.
</event>
<event>
 5   0  0.2316714E-05  0.1401699E+04  0.7818609E-02  0.8952590E-01
       -1   -1    0    0    0  501  0.00000000000E+00  0.00000000000E+00  0.67072967516E+03  0.67072967518E+03  0.50400001928E-02 0.  1.
        1   -1    0    0  501    0  0.00000000000E+00  0.00000000000E+00 -0.73232155418E+03  0.73232155420E+03  0.50400001928E-02 0. -1.
    10030    2    1    2    0    0  0.00000000000E+00  0.00000000000E+00 -0.61591879020E+02  0.14030512294E+04  0.14016986811E+04 0.  0.
        5    1    3    3  502    0 -0.46963429411E+03 -0.14682868644E+03  0.46873738874E+03  0.67959683855E+03  0.46999998093E+01 0.  1.
       -5    1    3    3    0  502  0.46963429411E+03  0.14682868644E+03 -0.53032926776E+03  0.72345439083E+03  0.46999998093E+01 0. -1.
</event>
<event>
 5   0  0.2363419E-05  0.1400027E+04  0.7818609E-02  0.8953799E-01
        1   -1    0    0  501    0  0.00000000000E+00  0.00000000000E+00  0.16586499456E+04  0.16586499456E+04  0.50400001928E-02 0. -1.
       -1   -1    0    0    0  501  0.00000000000E+00  0.00000000000E+00 -0.29543222955E+03  0.29543222959E+03  0.50400001928E-02 0.  1.
    10030    2    1    2    0    0  0.00000000000E+00  0.00000000000E+00  0.13632177161E+04  0.19540821752E+04  0.14000266448E+04 0.  0.
        2    1    3    3  502    0 -0.56131679413E+03 -0.41297752651E+03  0.77410452911E+03  0.10415684340E+04  0.25500000920E-02 0.  1.
       -2    1    3    3    0  502  0.56131679413E+03  0.41297752651E+03  0.58911318695E+03  0.91251374117E+03  0.25500000920E-02 0. -1.
</event>
<event>
 5   0  0.4527503E-05  0.1401814E+04  0.7818609E-02  0.8952506E-01
        2   -1    0    0  501    0  0.00000000000E+00  0.00000000000E+00  0.18258330535E+04  0.18258330535E+04  0.25500000920E-02 0. -1.
       -2   -1    0    0    0  501  0.00000000000E+00  0.00000000000E+00 -0.26906669356E+03  0.26906669357E+03  0.25500000920E-02 0.  1.
    10030    2    1    2    0    0  0.00000000000E+00  0.00000000000E+00  0.15567663599E+04  0.20948997471E+04  0.14018143425E+04 0.  0.
        4    1    3    3  502    0  0.50385670185E+03  0.27435892217E+03  0.17665888545E+03  0.60029523476E+03  0.12699999809E+01 0.  1.
       -4    1    3    3    0  502 -0.50385670185E+03 -0.27435892217E+03  0.13801074745E+04  0.14946045123E+04  0.12699999809E+01 0. -1.
</event>
<event>
 5   0  0.4621450E-05  0.1400220E+04  0.7818609E-02  0.8953659E-01
        2   -1    0    0  501    0  0.00000000000E+00  0.00000000000E+00  0.24451089626E+04  0.24451089626E+04  0.25500000920E-02 0.  1.
       -2   -1    0    0    0  501  0.00000000000E+00  0.00000000000E+00 -0.20046310482E+03  0.20046310484E+03  0.25500000920E-02 0. -1.
    10030    2    1    2    0    0  0.00000000000E+00  0.00000000000E+00  0.22446458577E+04  0.26455720674E+04  0.14002201745E+04 0.  0.
        5    1    3    3  502    0 -0.37578264465E+03  0.41143715276E+03  0.19231218523E+04  0.20022269790E+04  0.46999998093E+01 0.  1.
       -5    1    3    3    0  502  0.37578264465E+03 -0.41143715276E+03  0.32152400546E+03  0.64334508841E+03  0.46999998093E+01 0. -1.
</event>
<event>
 5   0  0.2427569E-05  0.1399374E+04  0.7818609E-02  0.8954272E-01
        1   -1    0    0  501    0  0.00000000000E+00  0.00000000000E+00  0.33042936111E+03  0.33042936115E+03  0.50400001928E-02 0. -1.
       -1   -1    0    0    0  501  0.00000000000E+00  0.00000000000E+00 -0.14815934250E+04  0.14815934250E+04  0.50400001928E-02 0.  1.
    10030    2    1    2    0    0  0.00000000000E+00  0.00000000000E+00 -0.11511640639E+04  0.18120227861E+04  0.13993741013E+04 0.  0.
        1    1    3    3  502    0 -0.60650984134E+03 -0.23784908511E+03 -0.24510672749E+03  0.69606298768E+03  0.50400001928E-02 0.  1.
       -1    1    3    3    0  502  0.60650984134E+03  0.23784908511E+03 -0.90605733637E+03  0.11159597984E+04  0.50400001928E-02 0. -1.
</event>
<event>
 5   0  0.4243281E-05  0.1399620E+04  0.7818609E-02  0.8954094E-01
        2   -1    0    0  501    0  0.00000000000E+00  0.00000000000E+00  0.16455947524E+04  0.16455947524E+04  0.25500000920E-02 0.  1.
       -2   -1    0    0    0  501  0.00000000000E+00  0.00000000000E+00 -0.29760314639E+03  0.29760314640E+03  0.25500000920E-02 0. -1.
    10030    2    1    2    0    0  0.00000000000E+00  0.00000000000E+00  0.13479916060E+04  0.19431978988E+04  0.13996201999E+04 0.  0.
        2    1    3    3  502    0  0.67354837635E+02 -0.40962249143E+03  0.14561907811E+04  0.15142056831E+04  0.25500000920E-02 0.  1.
       -2    1    3    3    0  502 -0.67354837635E+02  0.40962249143E+03 -0.10819917512E+03  0.42899221571E+03  0.25500000920E-02 0. -1.
</event>
<event>
 5   0  0.2363419E-05  0.1400681E+04  0.7818609E-02  0.8953325E-01
        1   -1    0    0  501    0  0.00000000000E+00  0.00000000000E+00  0.72441005957E+03  0.72441005958E+03  0.50400001928E-02 0. -1.
       -1   -1    0    0    0  501  0.00000000000E+00  0.00000000000E+00 -0.67707108315E+03  0.67707108317E+03  0.50400001928E-02 0.  1.
    10030    2    1    2    0    0  0.00000000000E+00  0.00000000000E+00  0.47338976410E+02  0.14014811428E+04  0.14006814109E+04 0.  0.
        2    1    3    3  502    0 -0.56236962466E+03 -0.35311672184E+03  0.24634113123E+03  0.70826193384E+03  0.25500000920E-02 0. -1.
       -2    1    3    3    0  502  0.56236962466E+03  0.35311672184E+03 -0.19900215482E+03  0.69321920892E+03  0.25500000920E-02 0.  1.
</event>
<event>
 5   0  0.4460282E-05  0.1400026E+04  0.7818609E-02  0.8953800E-01
        2   -1    0    0  501    0  0.00000000000E+00  0.00000000000E+00  0.14798011340E+04  0.14798011340E+04  0.25500000920E-02 0. -1.
       -2   -1    0    0    0  501  0.00000000000E+00  0.00000000000E+00 -0.33113784790E+03  0.33113784791E+03  0.25500000920E-02 0.  1.
    10030    2    1    2    0    0  0.00000000000E+00  0.00000000000E+00  0.11486632861E+04  0.18109389819E+04  0.14000259467E+04 0.  0.
        1    1    3    3  502    0 -0.74741111381E+02  0.55141427455E+03  0.24974249085E+02  0.55701674037E+03  0.50400001928E-02 0. -1.
       -1    1    3    3    0  502  0.74741111381E+02 -0.55141427455E+03  0.11236890371E+04  0.12539222416E+04  0.50400001928E-02 0.  1.
</event>
<event>
 5   0  0.2467303E-05  0.1400722E+04  0.7818609E-02  0.8953296E-01
       -1   -1    0    0    0  501  0.00000000000E+00  0.00000000000E+00  0.33041987913E+03  0.33041987917E+03  0.50400001928E-02 0. -1.
        1   -1    0    0  501    0  0.00000000000E+00  0.00000000000E+00 -0.14844921839E+04  0.14844921839E+04  0.50400001928E-02 0.  1.
    10030    2    1    2    0    0  0.00000000000E+00  0.00000000000E+00 -0.11540723048E+04  0.18149120631E+04  0.14007222823E+04 0.  0.
        3    1    3    3  502    0  0.63839673042E+03 -0.21113704857E+03 -0.32321014777E+03  0.74605230950E+03  0.10100000352E+00 0. -1.
       -3    1    3    3    0  502 -0.63839673042E+03  0.21113704857E+03 -0.83086215702E+03  0.10688597536E+04  0.10100000352E+00 0.  1.
</event>
<event>
 5   0  0.2467303E-05  0.1399989E+04  0.7818609E-02  0.8953826E-01
       -1   -1    0    0    0  501  0.00000000000E+00  0.00000000000E+00  0.30089876024E+03  0.30089876028E+03  0.50400001928E-02 0. -1.
        1   -1    0    0  501    0  0.00000000000E+00  0.00000000000E+00 -0.16284298392E+04  0.16284298392E+04  0.50400001928E-02 0.  1.
    10030    2    1    2    0    0  0.00000000000E+00  0.00000000000E+00 -0.13275310790E+04  0.19293285995E+04  0.13999893140E+04 0.  0.
        3    1    3    3  502    0  0.26763501183E+03 -0.10169283530E+03  0.21652002238E+03  0.35895802345E+03  0.10100000352E+00 0. -1.
       -3    1    3    3    0  502 -0.26763501183E+03  0.10169283530E+03 -0.15440511014E+04  0.15703705761E+04  0.10100000352E+00 0.  1.
</event>
<event>
 5   0  0.4527503E-05  0.1400366E+04  0.7818609E-02  0.8953553E-01
        2   -1    0    0  501    0  0.00000000000E+00  0.00000000000E+00  0.13831009767E+04  0.13831009767E+04  0.25500000920E-02 0.  1.
       -2   -1    0    0    0  501  0.00000000000E+00  0.00000000000E+00 -0.35446188588E+03  0.35446188589E+03  0.25500000920E-02 0. -1.
    10030    2    1    2    0    0  0.00000000000E+00  0.00000000000E+00  0.10286390908E+04  0.17375628626E+04  0.14003664957E+04 0.  0.
        4    1    3    3  502    0  0.19811762588E+02  0.25635035579E+03  0.13224044460E+04  0.13471685650E+04  0.12699999809E+01 0.  1.
       -4    1    3    3    0  502 -0.19811762588E+02 -0.25635035579E+03 -0.29376535513E+03  0.39039429763E+03  0.12699999809E+01 0. -1.
</event>
<event>
 5   0  0.4460282E-05  0.1399887E+04  0.7818609E-02  0.8953901E-01
       -2   -1    0    0    0  501  0.00000000000E+00  0.00000000000E+00  0.41480338951E+03  0.41480338951E+03  0.25500000920E-02 0.  1.
        2   -1    0    0  501    0  0.00000000000E+00  0.00000000000E+00 -0.11810913036E+04  0.11810913036E+04  0.25500000920E-02 0. -1.
    10030    2    1    2    0    0  0.00000000000E+00  0.00000000000E+00 -0.76628791406E+03  0.15958946931E+04  0.13998866755E+04 0.  0.
        1    1    3    3  502    0  0.45784290526E+03 -0.48772143113E+03 -0.61796631867E+03  0.91070011053E+03  0.50400001928E-02 0. -1.
       -1    1    3    3    0  502 -0.45784290526E+03  0.48772143113E+03 -0.14832159538E+03  0.68519458255E+03  0.50400001928E-02 0.  1.
</event>
<event>
 5   0  0.1661000E-05  0.1400077E+04  0.7818609E-02  0.8953763E-01
       -4   -1    0    0    0  501  0.00000000000E+00  0.00000000000E+00  0.93579460048E+03  0.93579546226E+03  0.12699999809E+01 0. -1.
        4   -1    0    0  501    0  0.00000000000E+00  0.00000000000E+00 -0.52367498935E+03  0.52367652932E+03  0.12699999809E+01 0.  1.
    10030    2    1    2    0    0  0.00000000000E+00  0.00000000000E+00  0.41211961114E+03  0.14594719916E+04  0.14000771123E+04 0.  0.
        3    1    3    3  502    0  0.17242885594E+03 -0.46920435250E+03 -0.30480121614E+03  0.58548119212E+03  0.10100000352E+00 0.  1.
       -3    1    3    3    0  502 -0.17242885594E+03  0.46920435250E+03  0.71692082728E+03  0.87399079947E+03  0.10100000352E+00 0. -1.
</event>
<event>
 5   0  0.2428507E-05  0.1399355E+04  0.7818609E-02  0.8954286E-01
        1   -1    0    0  501    0  0.00000000000E+00  0.00000000000E+00  0.11664774034E+04  0.11664774035E+04  0.50400001928E-02 0. -1.
       -1   -1    0    0    0  501  0.00000000000E+00  0.00000000000E+00 -0.41968090061E+03  0.41968090065E+03  0.50400001928E-02 0.  1.
    10030    2    1    2    0    0  0.00000000000E+00  0.00000000000E+00  0.74679650283E+03  0.15861583041E+04  0.13993545473E+04 0.  0.
        4    1    3    3  502    0 -0.40069858298E+03 -0.39108166029E+03 -0.10218600995E+03  0.56916413533E+03  0.12699999809E+01 0.  1.
       -4    1    3    3    0  502  0.40069858298E+03  0.39108166029E+03  0.84898251278E+03  0.10169941688E+04  0.12699999809E+01 0. -1.
</event>
<event>
 5   0  0.2316714E-05  0.1399191E+04  0.7818609E-02  0.8954404E-01
        1   -1    0    0  501    0  0.00000000000E+00  0.00000000000E+00  0.98176298536E+03  0.98176298537E+03  0.50400001928E-02 0. -1.
       -1   -1    0    0    0  501  0.00000000000E+00  0.00000000000E+00 -0.49852551984E+03  0.49852551986E+03  0.50400001928E-02 0.  1.
    10030    2    1    2    0    0  0.00000000000E+00  0.00000000000E+00  0.48323746553E+03  0.14802885052E+04  0.13991910558E+04 0.  0.
        5    1    3    3  502    0  0.15052053843E+03  0.47573070395E+03  0.76038150487E+03  0.90949340740E+03  0.46999998093E+01 0. -1.
       -5    1    3    3    0  502 -0.15052053843E+03 -0.47573070395E+03 -0.27714403934E+03  0.57079509783E+03  0.46999998093E+01 0.  1.
</event>
<event>
 5   0  0.4243281E-05  0.1400469E+04  0.7818609E-02  0.8953479E-01
       -2   -1    0    0    0  501  0.00000000000E+00  0.00000000000E+00  0.28527660929E+03  0.28527660930E+03  0.25500000920E-02 0. -1.
        2   -1    0    0  501    0  0.00000000000E+00  0.00000000000E+00 -0.17187830513E+04  0.17187830513E+04  0.25500000920E-02 0.  1.
    10030    2    1    2    0    0  0.00000000000E+00  0.00000000000E+00 -0.14335064420E+04  0.20040596606E+04  0.14004693513E+04 0.  0.
        2    1    3    3  502    0  0.90342331645E+02  0.58167407934E+03 -0.12594408166E+04  0.13902149625E+04  0.25500000920E-02 0.  1.
       -2    1    3    3    0  502 -0.90342331645E+02 -0.58167407934E+03 -0.17406562545E+03  0.61384469814E+03  0.25500000920E-02 0. -1.
</event>
<event>
 5   0  0.2428507E-05  0.1400204E+04  0.7818609E-02  0.8953671E-01
        1   -1    0    0  501    0  0.00000000000E+00  0.00000000000E+00  0.42500432281E+03  0.42500432284E+03  0.50400001928E-02 0. -1.
       -1   -1    0    0    0  501  0.00000000000E+00  0.00000000000E+00 -0.11532652238E+04  0.11532652238E+04  0.50400001928E-02 0.  1.
    10030    2    1    2    0    0  0.00000000000E+00  0.00000000000E+00 -0.72826090097E+03  0.15782695466E+04  0.14002038501E+04 0.  0.
        4    1    3    3  502    0  0.25559066601E+02 -0.45870577059E+03 -0.95958937643E+03  0.10638973795E+04  0.12699999809E+01 0.  1.
       -4    1    3    3    0  502 -0.25559066601E+02  0.45870577059E+03  0.23132847545E+03  0.51437216712E+03  0.12699999809E+01 0. -1.
</event>
<event>
 5   0  0.4621450E-05  0.1401103E+04  0.7818609E-02  0.8953020E-01
        2   -1    0    0  501    0  0.00000000000E+00  0.00000000000E+00  0.84342239147E+03  0.84342239147E+03  0.25500000920E-02 0.  1.
       -2   -1    0    0    0  501  0.00000000000E+00  0.00000000000E+00 -0.58188251826E+03  0.58188251827E+03  0.25500000920E-02 0. -1.
    10030    2    1    2    0    0  0.00000000000E+00  0.00000000000E+00  0.26153987320E+03  0.14253049097E+04  0.14011034867E+04 0.  0.
        5    1    3    3  502    0 -0.30709409462E+03 -0.56254373101E+03  0.41847740412E+03  0.76544605297E+03  0.46999998093E+01 0.  1.
       -5    1    3    3    0  502  0.30709409462E+03  0.56254373101E+03 -0.15693753092E+03  0.65985885677E+03  0.46999998093E+01 0. -1.
</event>
<event>
 5   0  0.2316714E-05  0.1399882E+04  0.7818609E-02  0.8953904E-01
        1   -1    0    0  501    0  0.00000000000E+00  0.00000000000E+00  0.71947881332E+03  0.71947881334E+03  0.50400001928E-02 0. -1.
       -1   -1    0    0    0  501  0.00000000000E+00  0.00000000000E+00 -0.68093419720E+03  0.68093419722E+03  0.50400001928E-02 0.  1.
    10030    2    1    2    0    0  0.00000000000E+00  0.00000000000E+00  0.38544616120E+02  0.14004130106E+04  0.13998824639E+04 0.  0.
        5    1    3    3  502    0 -0.53987531918E+03  0.12252587364E+03 -0.40916291792E+03  0.68841436168E+03  0.46999998093E+01 0.  1.
       -5    1    3    3    0  502  0.53987531918E+03 -0.12252587364E+03  0.44770753404E+03  0.71199864888E+03  0.46999998093E+01 0. -1.
</event>
<event>
 5   0  0.2427569E-05  0.1399314E+04  0.7818609E-02  0.8954315E-01
        1   -1    0    0  501    0  0.00000000000E+00  0.00000000000E+00  0.10577324283E+04  0.10577324283E+04  0.50400001928E-02 0. -1.
       -1   -1    0    0    0  501  0.00000000000E+00  0.00000000000E+00 -0.46280109439E+03  0.46280109442E+03  0.50400001928E-02 0.  1.
    10030    2    1    2    0    0  0.00000000000E+00  0.00000000000E+00  0.59493133392E+03  0.15205335227E+04  0.13993137253E+04 0.  0.
        1    1    3    3  502    0  0.52633028385E+02 -0.52417694700E+03 -0.20284131371E+03  0.56451422127E+03  0.50400001928E-02 0.  1.
       -1    1    3    3    0  502 -0.52633028385E+02  0.52417694700E+03  0.79777264763E+03  0.95601930147E+03  0.50400001928E-02 0. -1.
</event>
<event>
 5   0  0.4243281E-05  0.1400746E+04  0.7818609E-02  0.8953279E-01
        2   -1    0    0  501    0  0.00000000000E+00  0.00000000000E+00  0.55214490453E+03  0.55214490453E+03  0.25500000920E-02 0.  1.
       -2   -1    0    0    0  501  0.00000000000E+00  0.00000000000E+00 -0.88839461830E+03  0.88839461830E+03  0.25500000920E-02 0. -1.
    10030    2    1    2    0    0  0.00000000000E+00  0.00000000000E+00 -0.33624971377E+03  0.14405395228E+04  0.14007463178E+04 0.  0.
        2    1    3    3  502    0 -0.46394775175E+02  0.15206159716E+03 -0.86959250504E+03  0.88400584236E+03  0.25500000920E-02 0. -1.
       -2    1    3    3    0  502  0.46394775175E+02 -0.15206159716E+03  0.53334279127E+03  0.55653368047E+03  0.25500000920E-02 0.  1.
</event>
<event>
 5   0  0.2316714E-05  0.1398282E+04  0.7818609E-02  0.8955063E-01
       -1   -1    0    0    0  501  0.00000000000E+00  0.00000000000E+00  0.40868620892E+03  0.40868620895E+03  0.50400001928E-02 0. -1.
        1   -1    0    0  501    0  0.00000000000E+00  0.00000000000E+00 -0.11960230326E+04  0.11960230326E+04  0.50400001928E-02 0.  1.
    10030    2    1    2    0    0  0.00000000000E+00  0.00000000000E+00 -0.78733682368E+03  0.16047092416E+04  0.13982819730E+04 0.  0.
        5    1    3    3  502    0 -0.41192590908E+03  0.18230996731E+02  0.25427038416E+03  0.48444900874E+03  0.46999998093E+01 0. -1.
       -5    1    3    3    0  502  0.41192590908E+03 -0.18230996731E+02 -0.10416072078E+04  0.11202602328E+04  0.46999998093E+01 0.  1.
</event>
<event>
 5   0  0.4460282E-05  0.1400830E+04  0.7818609E-02  0.8953218E-01
       -2   -1    0    0    0  501  0.00000000000E+00  0.00000000000E+00  0.41749220995E+03  0.41749220995E+03  0.25500000920E-02 0.  1.
        2   -1    0    0  501    0  0.00000000000E+00  0.00000000000E+00 -0.11750671625E+04  0.11750671625E+04  0.25500000920E-02 0. -1.
    10030    2    1    2    0    0  0.00000000000E+00  0.00000000000E+00 -0.75757495254E+03  0.15925593724E+04  0.14008303059E+04 0.  0.
        1    1    3    3  502    0  0.69966376950E+03 -0.30857568079E+02 -0.36742979210E+03  0.79087687538E+03  0.50400001928E-02 0.  1.
       -1    1    3    3    0  502 -0.69966376950E+03  0.30857568079E+02 -0.39014516043E+03  0.80168249706E+03  0.50400001928E-02 0. -1.
</event>
<event>
 5   0  0.2427569E-05  0.1400463E+04  0.7818609E-02  0.8953484E-01
       -1   -1    0    0    0  501  0.00000000000E+00  0.00000000000E+00  0.91089607450E+03  0.91089607451E+03  0.50400001928E-02 0. -1.
        1   -1    0    0  501    0  0.00000000000E+00  0.00000000000E+00 -0.53828766149E+03  0.53828766151E+03  0.50400001928E-02 0.  1.
    10030    2    1    2    0    0  0.00000000000E+00  0.00000000000E+00  0.37260841301E+03  0.14491837360E+04  0.14004629489E+04 0.  0.
        1    1    3    3  502    0 -0.45004445586E+03  0.50067101108E+03  0.38565261693E+03  0.77584754595E+03  0.50400001928E-02 0. -1.
       -1    1    3    3    0  502  0.45004445586E+03 -0.50067101108E+03 -0.13044203925E+02  0.67333619008E+03  0.50400001928E-02 0.  1.
</event>
<event>
 5   0  0.2363419E-05  0.1399754E+04  0.7818609E-02  0.8953996E-01
        1   -1    0    0  501    0  0.00000000000E+00  0.00000000000E+00  0.12198054334E+04  0.12198054334E+04  0.50400001928E-02 0. -1.
       -1   -1    0    0    0  501  0.00000000000E+00  0.00000000000E+00 -0.40156247630E+03  0.40156247633E+03  0.50400001928E-02 0.  1.
    10030    2    1    2    0    0  0.00000000000E+00  0.00000000000E+00  0.81824295711E+03  0.16213679098E+04  0.13997543934E+04 0.  0.
        2    1    3    3  502    0  0.22396686002E+03 -0.43390039796E+03 -0.17165645633E+03  0.51758733442E+03  0.25500000920E-02 0.  1.
       -2    1    3    3    0  502 -0.22396686002E+03  0.43390039796E+03  0.98989941345E+03  0.11037805753E+04  0.25500000920E-02 0. -1.
</event>
<event>
 5   0  0.4527503E-05  0.1400301E+04  0.7818609E-02  0.8953600E-01
        2   -1    0    0  501    0  0.00000000000E+00  0.00000000000E+00  0.11137968001E+04  0.11137968001E+04  0.25500000920E-02 0.  1.
       -2   -1    0    0    0  501  0.00000000000E+00  0.00000000000E+00 -0.44012606876E+03  0.44012606876E+03  0.25500000920E-02 0. -1.
    10030    2    1    2    0    0  0.00000000000E+00  0.00000000000E+00  0.67367073137E+03  0.15539228689E+04  0.14003014062E+04 0.  0.
        4    1    3    3  502    0 -0.37249962332E+03  0.13468772567E+03 -0.30383380472E+03  0.49921272682E+03  0.12699999809E+01 0. -1.
       -4    1    3    3    0  502  0.37249962332E+03 -0.13468772567E+03  0.97750453609E+03  0.10547101421E+04  0.12699999809E+01 0.  1.
</event>
<event>
 5   0  0.4243281E-05  0.1398747E+04  0.7818609E-02  0.8954726E-01
        2   -1    0    0  501    0  0.00000000000E+00  0.00000000000E+00  0.52418592923E+03  0.52418592923E+03  0.25500000920E-02 0. -1.
       -2   -1    0    0    0  501  0.00000000000E+00  0.00000000000E+00 -0.93310988478E+03  0.93310988479E+03  0.25500000920E-02 0.  1.
    10030    2    1    2    0    0  0.00000000000E+00  0.00000000000E+00 -0.40892395556E+03  0.14572958140E+04  0.13987466848E+04 0.  0.
        2    1    3    3  502    0  0.25617025893E+03  0.19197640446E+03 -0.85229757428E+03  0.91043357614E+03  0.25500000920E-02 0.  1.
       -2    1    3    3    0  502 -0.25617025893E+03 -0.19197640446E+03  0.44337361873E+03  0.54686223788E+03  0.25500000920E-02 0. -1.
</event>
<event>
 5   0  0.4527503E-05  0.1400289E+04  0.7818609E-02  0.8953609E-01
        2   -1    0    0  501    0  0.00000000000E+00  0.00000000000E+00  0.81145142102E+03  0.81145142102E+03  0.25500000920E-02 0. -1.
       -2   -1    0    0    0  501  0.00000000000E+00  0.00000000000E+00 -0.60410555634E+03  0.60410555634E+03  0.25500000920E-02 0.  1.
    10030    2    1    2    0    0  0.00000000000E+00  0.00000000000E+00  0.20734586468E+03  0.14155569774E+04  0.14002889875E+04 0.  0.
        4    1    3    3  502    0 -0.62561990680E+03 -0.21592747257E+03 -0.12723777157E+03  0.67395549156E+03  0.12699999809E+01 0.  1.
       -4    1    3    3    0  502  0.62561990680E+03  0.21592747257E+03  0.33458363625E+03  0.74160148580E+03  0.12699999809E+01 0. -1.
</event>
<event>
 5   0  0.2363419E-05  0.1399095E+04  0.7818609E-02  0.8954474E-01
        1   -1    0    0  501    0  0.00000000000E+00  0.00000000000E+00  0.46655673507E+03  0.46655673509E+03  0.50400001928E-02 0. -1.
       -1   -1    0    0    0  501  0.00000000000E+00  0.00000000000E+00 -0.10488899795E+04  0.10488899795E+04  0.50400001928E-02 0.  1.
    10030    2    1    2    0    0  0.00000000000E+00  0.00000000000E+00 -0.58233324442E+03  0.15154467146E+04  0.13990949708E+04 0.  0.
        2    1    3    3  502    0 -0.57333515236E+03 -0.17616832683E+03 -0.68113238669E+03  0.90757358077E+03  0.25500000920E-02 0.  1.
       -2    1    3    3    0  502  0.57333515236E+03  0.17616832683E+03  0.98799142265E+02  0.60787313383E+03  0.25500000920E-02 0. -1.
</event>
<event>
 5   0  0.4460282E-05  0.1399435E+04  0.7818609E-02  0.8954227E-01
        2   -1    0    0  501    0  0.00000000000E+00  0.00000000000E+00  0.13192353561E+04  0.13192353561E+04  0.25500000920E-02 0. -1.
       -2   -1    0    0    0  501  0.00000000000E+00  0.00000000000E+00 -0.37112776319E+03  0.37112776320E+03  0.25500000920E-02 0.  1.
    10030    2    1    2    0    0  0.00000000000E+00  0.00000000000E+00  0.94810759294E+03  0.16903631193E+04  0.13994354102E+04 0.  0.
        1    1    3    3  502    0 -0.64772464526E+03  0.24988725829E+03  0.36865543972E+03  0.78606468639E+03  0.50400001928E-02 0.  1.
       -1    1    3    3    0  502  0.64772464526E+03 -0.24988725829E+03  0.57945215322E+03  0.90429843295E+03  0.50400001928E-02 0. -1.
</event>
<event>
 5   0  0.2428507E-05  0.1400324E+04  0.7818609E-02  0.8953584E-01
       -1   -1    0    0    0  501  0.00000000000E+00  0.00000000000E+00  0.52899393699E+03  0.52899393701E+03  0.50400001928E-02 0.  1.
        1   -1    0    0  501    0  0.00000000000E+00  0.00000000000E+00 -0.92671603255E+03  0.92671603256E+03  0.50400001928E-02 0. -1.
    10030    2    1    2    0    0  0.00000000000E+00  0.00000000000E+00 -0.39772209556E+03  0.14557099696E+04  0.14003244803E+04 0.  0.
        4    1    3    3  502    0 -0.48803370316E+03 -0.37554930643E+03  0.14750069130E+03  0.63322369176E+03  0.12699999809E+01 0.  1.
       -4    1    3    3    0  502  0.48803370316E+03  0.37554930643E+03 -0.54522278686E+03  0.82248627781E+03  0.12699999809E+01 0. -1.
</event>
<event>
 5   0  0.2363419E-05  0.1399561E+04  0.7818609E-02  0.8954136E-01
       -1   -1    0    0    0  501  0.00000000000E+00  0.00000000000E+00  0.67173104882E+03  0.67173104883E+03  0.50400001928E-02 0. -1.
        1   -1    0    0  501    0  0.00000000000E+00  0.00000000000E+00 -0.72900142560E+03  0.72900142562E+03  0.50400001928E-02 0.  1.
    10030    2    1    2    0    0  0.00000000000E+00  0.00000000000E+00 -0.57270376784E+02  0.14007324745E+04  0.13995612059E+04 0.  0.
        2    1    3    3  502    0  0.50165174550E+03  0.48153505637E+03  0.49931513747E+02  0.69715395743E+03  0.25500000920E-02 0.  1.
       -2    1    3    3    0  502 -0.50165174550E+03 -0.48153505637E+03 -0.10720189053E+03  0.70357851703E+03  0.25500000920E-02 0. -1.
</event>
<event>
 5   0  0.2427569E-05  0.1399125E+04  0.7818609E-02  0.8954452E-01
       -1   -1    0    0    0  501  0.00000000000E+00  0.00000000000E+00  0.15924880761E+04  0.15924880762E+04  0.50400001928E-02 0.  1.
        1   -1    0    0  501    0  0.00000000000E+00  0.00000000000E+00 -0.30731010325E+03  0.30731010330E+03  0.50400001928E-02 0. -1.
    10030    2    1    2    0    0  0.00000000000E+00  0.00000000000E+00  0.12851779729E+04  0.18997981794E+04  0.13991249768E+04 0.  0.
        1    1    3    3  502    0 -0.24159681451E+02  0.28711730273E+03 -0.22299759579E+03  0.36434593931E+03  0.50400001928E-02 0. -1.
       -1    1    3    3    0  502  0.24159681451E+02 -0.28711730273E+03  0.15081755687E+04  0.15354522401E+04  0.50400001928E-02 0.  1.
</event>
<event>
 5   0  0.4460282E-05  0.1400299E+04  0.7818609E-02  0.8953602E-01
       -2   -1    0    0    0  501  0.00000000000E+00  0.00000000000E+00  0.27450088692E+03  0.27450088694E+03  0.25500000920E-02 0.  1.
        2   -1    0    0  501    0  0.00000000000E+00  0.00000000000E+00 -0.17858205772E+04  0.17858205772E+04  0.25500000920E-02 0. -1.
    10030    2    1    2    0    0  0.00000000000E+00  0.00000000000E+00 -0.15113196902E+04  0.20603214641E+04  0.14002990143E+04 0.  0.
        1    1    3    3  502    0 -0.32269111032E+03 -0.52789905345E+03 -0.12378531036E+04  0.13838667817E+04  0.50400001928E-02 0. -1.
       -1    1    3    3    0  502  0.32269111032E+03  0.52789905345E+03 -0.27346658660E+03  0.67645468239E+03  0.50400001928E-02 0.  1.
</event>
<event>
 5   0  0.2467303E-05  0.1399777E+04  0.7818609E-02  0.8953980E-01
        1   -1    0    0  501    0  0.00000000000E+00  0.00000000000E+00  0.70357978635E+03  0.70357978636E+03  0.50400001928E-02 0.  1.
       -1   -1    0    0    0  501  0.00000000000E+00  0.00000000000E+00 -0.69621703806E+03  0.69621703808E+03  0.50400001928E-02 0. -1.
    10030    2    1    2    0    0  0.00000000000E+00  0.00000000000E+00  0.73627482877E+01  0.13997968244E+04  0.13997774608E+04 0.  0.
        3    1    3    3  502    0 -0.47245676278E+03 -0.42102701172E+03  0.30262544898E+03  0.70147081897E+03  0.10100000352E+00 0.  1.
       -3    1    3    3    0  502  0.47245676278E+03  0.42102701172E+03 -0.29526270069E+03  0.69832600547E+03  0.10100000352E+00 0. -1.
</event>
<event>
 5   0  0.2316714E-05  0.1399945E+04  0.7818609E-02  0.8953858E-01
        1   -1    0    0  501    0  0.00000000000E+00  0.00000000000E+00  0.11401688608E+04  0.11401688608E+04  0.50400001928E-02 0.  1.
       -1   -1    0    0    0  501  0.00000000000E+00  0.00000000000E+00 -0.42972702712E+03  0.42972702715E+03  0.50400001928E-02 0. -1.
    10030    2    1    2    0    0  0.00000000000E+00  0.00000000000E+00  0.71044183366E+03  0.15698958879E+04  0.13999448203E+04 0.  0.
        5    1    3    3  502    0 -0.19468612225E+03 -0.65478751381E+03  0.52635788906E+03  0.86239439459E+03  0.46999998093E+01 0.  1.
       -5    1    3    3    0  502  0.19468612225E+03  0.65478751381E+03  0.18408394460E+03  0.70750149335E+03  0.46999998093E+01 0. -1.
</event>
<event>
 5   0  0.2467303E-05  0.1398651E+04  0.7818609E-02  0.8954796E-01
       -1   -1    0    0    0  501  0.00000000000E+00  0.00000000000E+00  0.64379168057E+03  0.64379168059E+03  0.50400001928E-02 0.  1.
        1   -1    0    0  501    0  0.00000000000E+00  0.00000000000E+00 -0.75964923822E+03  0.75964923824E+03  0.50400001928E-02 0. -1.
    10030    2    1    2    0    0  0.00000000000E+00  0.00000000000E+00 -0.11585755765E+03  0.14034409188E+04  0.13986505779E+04 0.  0.
        3    1    3    3  502    0  0.53264842350E+03  0.15002721600E+03 -0.48698341905E+03  0.73713999297E+03  0.10100000352E+00 0. -1.
       -3    1    3    3    0  502 -0.53264842350E+03 -0.15002721600E+03  0.37112586140E+03  0.66630092586E+03  0.10100000352E+00 0.  1.
</event>
<event>
 5   0  0.4243281E-05  0.1403768E+04  0.7818609E-02  0.8951095E-01
       -2   -1    0    0    0  501  0.00000000000E+00  0.00000000000E+00  0.10548635510E+04  0.10548635510E+04  0.25500000920E-02 0.  1.
        2   -1    0    0  501    0  0.00000000000E+00  0.00000000000E+00 -0.46701892178E+03  0.46701892178E+03  0.25500000920E-02 0. -1.
    10030    2    1    2    0    0  0.00000000000E+00  0.00000000000E+00  0.58784462924E+03  0.15218824728E+04  0.14037681265E+04 0.  0.
        2    1    3    3  502    0  0.42576565950E+03 -0.30670003505E+01  0.89886462922E+03  0.99460717118E+03  0.25500000920E-02 0.  1.
       -2    1    3    3    0  502 -0.42576565950E+03  0.30670003505E+01 -0.31101999998E+03  0.52727530162E+03  0.25500000920E-02 0. -1.
</event>
<event>
 5   0  0.4243281E-05  0.1399695E+04  0.7818609E-02  0.8954039E-01
        2   -1    0    0  501    0  0.00000000000E+00  0.00000000000E+00  0.65793146808E+03  0.65793146809E+03  0.25500000920E-02 0. -1.
       -2   -1    0    0    0  501  0.00000000000E+00  0.00000000000E+00 -0.74443422950E+03  0.74443422951E+03  0.25500000920E-02 0.  1.
    10030    2    1    2    0    0  0.00000000000E+00  0.00000000000E+00 -0.86502761418E+02  0.14023656976E+04  0.13996952604E+04 0.  0.
        2    1    3    3  502    0 -0.68949460796E+03  0.99219918806E+02 -0.11075424079E+03  0.70534665843E+03  0.25500000920E-02 0.  1.
       -2    1    3    3    0  502  0.68949460796E+03 -0.99219918806E+02  0.24251479368E+02  0.69701903916E+03  0.25500000920E-02 0. -1.
</event>
<event>
 5   0  0.4527503E-05  0.1400863E+04  0.7818609E-02  0.8953194E-01
        2   -1    0    0  501    0  0.00000000000E+00  0.00000000000E+00  0.65109023902E+03  0.65109023903E+03  0.25500000920E-02 0.  1.
       -2   -1    0    0    0  501  0.00000000000E+00  0.00000000000E+00 -0.75351176599E+03  0.75351176600E+03  0.25500000920E-02 0. -1.
    10030    2    1    2    0    0  0.00000000000E+00  0.00000000000E+00 -0.10242152697E+03  0.14046020050E+04  0.14008628139E+04 0.  0.
        4    1    3    3  502    0 -0.55691933057E+03 -0.11179641418E+03 -0.46211552111E+03  0.73226357736E+03  0.12699999809E+01 0.  1.
       -4    1    3    3    0  502  0.55691933057E+03  0.11179641418E+03  0.35969399414E+03  0.67233842766E+03  0.12699999809E+01 0. -1.
</event>
<event>
 5   0  0.1661000E-05  0.1399772E+04  0.7818609E-02  0.8953983E-01
       -3   -1    0    0    0  501  0.00000000000E+00  0.00000000000E+00  0.66837615116E+03  0.66837615879E+03  0.10100000352E+00 0.  1.
        3   -1    0    0  501    0  0.00000000000E+00  0.00000000000E+00 -0.73288166274E+03  0.73288166970E+03  0.10100000352E+00 0. -1.
    10030    2    1    2    0    0  0.00000000000E+00  0.00000000000E+00 -0.64505511583E+02  0.14012578285E+04  0.13997723175E+04 0.  0.
        4    1    3    3  502    0 -0.38791271852E+03 -0.51070615904E+03 -0.31280356814E+03  0.71354379208E+03  0.12699999809E+01 0. -1.
       -4    1    3    3    0  502  0.38791271852E+03  0.51070615904E+03  0.24829805656E+03  0.68771403640E+03  0.12699999809E+01 0.  1.
</event>
<event>
 5   0  0.2467303E-05  0.1399547E+04  0.7818609E-02  0.8954147E-01
       -1   -1    0    0    0  501  0.00000000000E+00  0.00000000000E+00  0.10361564685E+04  0.10361564685E+04  0.50400001928E-02 0. -1.
        1   -1    0    0  501    0  0.00000000000E+00  0.00000000000E+00 -0.47259532179E+03  0.47259532181E+03  0.50400001928E-02 0.  1.
    10030    2    1    2    0    0  0.00000000000E+00  0.00000000000E+00  0.56356114671E+03  0.15087517903E+04  0.13995466404E+04 0.  0.
        3    1    3    3  502    0  0.69430944645E+03  0.63490706154E+02  0.21722461855E+03  0.73026243385E+03  0.10100000352E+00 0.  1.
       -3    1    3    3    0  502 -0.69430944645E+03 -0.63490706154E+02  0.34633652817E+03  0.77848935647E+03  0.10100000352E+00 0. -1.
</event>
<event>
 5   0  0.2428507E-05  0.1400601E+04  0.7818609E-02  0.8953384E-01
        1   -1    0    0  501    0  0.00000000000E+00  0.00000000000E+00  0.33630513882E+03  0.33630513886E+03  0.50400001928E-02 0. -1.
       -1   -1    0    0    0  501  0.00000000000E+00  0.00000000000E+00 -0.14582608615E+04  0.14582608615E+04  0.50400001928E-02 0.  1.
    10030    2    1    2    0    0  0.00000000000E+00  0.00000000000E+00 -0.11219557227E+04  0.17945660004E+04  0.14006007590E+04 0.  0.
        4    1    3    3  502    0 -0.23455609478E+03  0.57521394857E+03 -0.14672226971E+03  0.63829200650E+03  0.12699999809E+01 0.  1.
       -4    1    3    3    0  502  0.23455609478E+03 -0.57521394857E+03 -0.97523345301E+03  0.11562739939E+04  0.12699999809E+01 0. -1.
</event>
<event>
 5   0  0.4621450E-05  0.1399433E+04  0.7818609E-02  0.8954229E-01
        2   -1    0    0  501    0  0.00000000000E+00  0.00000000000E+00  0.50914169427E+03  0.50914169428E+03  0.25500000920E-02 0.  1.
       -2   -1    0    0    0  501  0.00000000000E+00  0.00000000000E+00 -0.96162471786E+03  0.96162471786E+03  0.25500000920E-02 0. -1.
    10030    2    1    2    0    0  0.00000000000E+00  0.00000000000E+00 -0.45248302358E+03  0.14707664121E+04  0.13994330825E+04 0.  0.
        5    1    3    3  502    0 -0.87349019601E+02 -0.28798542158E+03 -0.89011688055E+03  0.93962524726E+03  0.46999998093E+01 0. -1.
       -5    1    3    3    0  502  0.87349019601E+02  0.28798542158E+03  0.43763385696E+03  0.53114116487E+03  0.46999998093E+01 0.  1.
</event>
<event>
 5   0  0.2316714E-05  0.1400486E+04  0.7818609E-02  0.8953467E-01
       -1   -1    0    0    0  501  0.00000000000E+00  0.00000000000E+00  0.38090069907E+03  0.38090069910E+03  0.50400001928E-02 0.  1.
        1   -1    0    0  501    0  0.00000000000E+00  0.00000000000E+00 -0.12873174784E+04  0.12873174784E+04  0.50400001928E-02 0. -1.
    10030    2    1    2    0    0  0.00000000000E+00  0.00000000000E+00 -0.90641677934E+03  0.16682181775E+04  0.14004858121E+04 0.  0.
        5    1    3    3  502    0 -0.34429645942E+03  0.37978846031E+03 -0.10214091131E+04  0.11428376931E+04  0.46999998093E+01 0. -1.
       -5    1    3    3    0  502  0.34429645942E+03 -0.37978846031E+03  0.11499233375E+03  0.52538048439E+03  0.46999998093E+01 0.  1.
</event>
<event>
 5   0  0.2363419E-05  0.1400621E+04  0.7818609E-02  0.8953369E-01
       -1   -1    0    0    0  501  0.00000000000E+00  0.00000000000E+00  0.42244025726E+03  0.42244025729E+03  0.50400001928E-02 0. -1.
        1   -1    0    0  501    0  0.00000000000E+00  0.00000000000E+00 -0.11609571060E+04  0.11609571060E+04  0.50400001928E-02 0.  1.
    10030    2    1    2    0    0  0.00000000000E+00  0.00000000000E+00 -0.73851684877E+03  0.15833973633E+04  0.14006213172E+04 0.  0.
        2    1    3    3  502    0 -0.88280385825E+02 -0.69417457940E+03 -0.33802631836E+03  0.77713162664E+03  0.25500000920E-02 0.  1.
       -2    1    3    3    0  502  0.88280385825E+02  0.69417457940E+03 -0.40049053041E+03  0.80626573669E+03  0.25500000920E-02 0. -1.
</event>
<event>
 5   0  0.4441253E-05  0.1399107E+04  0.7818609E-02  0.8954465E-01
        2   -1    0    0  501    0  0.00000000000E+00  0.00000000000E+00  0.36345165820E+03  0.36345165821E+03  0.25500000920E-02 0. -1.
       -2   -1    0    0    0  501  0.00000000000E+00  0.00000000000E+00 -0.13464661937E+04  0.13464661937E+04  0.25500000920E-02 0.  1.
    10030    2    1    2    0    0  0.00000000000E+00  0.00000000000E+00 -0.98301453553E+03  0.17099178520E+04  0.13991073881E+04 0.  0.
        3    1    3    3  502    0  0.19452308176E+02  0.41834689079E+03 -0.11763284078E+04  0.12486556958E+04  0.10100000352E+00 0.  1.
       -3    1    3    3    0  502 -0.19452308176E+02 -0.41834689079E+03  0.19331387228E+03  0.46126215620E+03  0.10100000352E+00 0. -1.
</event>
<event>
 5   0  0.2467303E-05  0.1400040E+04  0.7818609E-02  0.8953790E-01
        1   -1    0    0  501    0  0.00000000000E+00  0.00000000000E+00  0.76035827573E+03  0.76035827575E+03  0.50400001928E-02 0.  1.
       -1   -1    0    0    0  501  0.00000000000E+00  0.00000000000E+00 -0.64446967572E+03  0.64446967574E+03  0.50400001928E-02 0. -1.
    10030    2    1    2    0    0  0.00000000000E+00  0.00000000000E+00  0.11588860001E+03  0.14048279515E+04  0.14000397872E+04 0.  0.
        3    1    3    3  502    0  0.44074743070E+03 -0.46404572539E+03  0.34251801820E+03  0.72588934137E+03  0.10100000352E+00 0. -1.
       -3    1    3    3    0  502 -0.44074743070E+03  0.46404572539E+03 -0.22662941820E+03  0.67893861012E+03  0.10100000352E+00 0.  1.
</event>
<event>
 5   0  0.2467303E-05  0.1400335E+04  0.7818609E-02  0.8953576E-01
       -1   -1    0    0    0  501  0.00000000000E+00  0.00000000000E+00  0.53859954839E+03  0.53859954841E+03  0.50400001928E-02 0.  1.
        1   -1    0    0  501    0  0.00000000000E+00  0.00000000000E+00 -0.91020276515E+03  0.91020276516E+03  0.50400001928E-02 0. -1.
    10030    2    1    2    0    0  0.00000000000E+00  0.00000000000E+00 -0.37160321676E+03  0.14488023136E+04  0.14003353859E+04 0.  0.
        3    1    3    3  502    0  0.62022748069E+03 -0.10093409183E+03 -0.50530208050E+03  0.80634981333E+03  0.10100000352E+00 0.  1.
       -3    1    3    3    0  502 -0.62022748069E+03  0.10093409183E+03  0.13369886375E+03  0.64245250024E+03  0.10100000352E+00 0. -1.
</event>
<event>
 5   0  0.2467303E-05  0.1400423E+04  0.7818609E-02  0.8953513E-01
       -1   -1    0    0    0  501  0.00000000000E+00  0.00000000000E+00  0.62367012949E+03  0.62367012951E+03  0.50400001928E-02 0.  1.
        1   -1    0    0  501    0  0.00000000000E+00  0.00000000000E+00 -0.78614635110E+03  0.78614635111E+03  0.50400001928E-02 0. -1.
    10030    2    1    2    0    0  0.00000000000E+00  0.00000000000E+00 -0.16247622161E+03  0.14098164806E+04  0.14004227885E+04 0.  0.
        3    1    3    3  502    0  0.12234356576E+03 -0.68446174788E+03  0.20218791788E+01  0.69531282930E+03  0.10100000352E+00 0.  1.
       -3    1    3    3    0  502 -0.12234356576E+03  0.68446174788E+03 -0.16449810079E+03  0.71450365133E+03  0.10100000352E+00 0. -1.
</event>
<event>
 5   0  0.1661000E-05  0.1399965E+04  0.7818609E-02  0.8953844E-01
       -4   -1    0    0    0  501  0.00000000000E+00  0.00000000000E+00  0.38395168061E+03  0.38395378100E+03  0.12699999809E+01 0. -1.
        4   -1    0    0  501    0  0.00000000000E+00  0.00000000000E+00 -0.12761334280E+04  0.12761340599E+04  0.12699999809E+01 0.  1.
    10030    2    1    2    0    0  0.00000000000E+00  0.00000000000E+00 -0.89218174736E+03  0.16600878409E+04  0.13999654886E+04 0.  0.
        3    1    3    3  502    0 -0.29969324883E+03 -0.18796808844E+03 -0.11623294249E+04  0.12149723239E+04  0.10100000352E+00 0.  1.
       -3    1    3    3    0  502  0.29969324883E+03  0.18796808844E+03  0.27014767749E+03  0.44511551705E+03  0.10100000352E+00 0. -1.
</event>
<event>
 5   0  0.2428507E-05  0.1399641E+04  0.7818609E-02  0.8954079E-01
       -1   -1    0    0    0  501  0.00000000000E+00  0.00000000000E+00  0.40544885869E+03  0.40544885872E+03  0.50400001928E-02 0.  1.
        1   -1    0    0  501    0  0.00000000000E+00  0.00000000000E+00 -0.12079167409E+04  0.12079167409E+04  0.50400001928E-02 0. -1.
    10030    2    1    2    0    0  0.00000000000E+00  0.00000000000E+00 -0.80246788217E+03  0.16133655996E+04  0.13996406167E+04 0.  0.
        4    1    3    3  502    0  0.64679323416E+03  0.25019079051E+03 -0.50942777895E+03  0.86049706233E+03  0.12699999809E+01 0. -1.
       -4    1    3    3    0  502 -0.64679323416E+03 -0.25019079051E+03 -0.29304010321E+03  0.75286853726E+03  0.12699999809E+01 0.  1.
</event>
<event>
 5   0  0.2428507E-05  0.1399804E+04  0.7818609E-02  0.8953961E-01
       -1   -1    0    0    0  501  0.00000000000E+00  0.00000000000E+00  0.10129737830E+04  0.10129737830E+04  0.50400001928E-02 0.  1.
        1   -1    0    0  501    0  0.00000000000E+00  0.00000000000E+00 -0.48358876079E+03  0.48358876081E+03  0.50400001928E-02 0. -1.
    10030    2    1    2    0    0  0.00000000000E+00  0.00000000000E+00  0.52938502222E+03  0.14965625438E+04  0.13998038955E+04 0.  0.
        4    1    3    3  502    0  0.23715981972E+03  0.62077632199E+03  0.29842659360E+02  0.66520689958E+03  0.12699999809E+01 0. -1.
       -4    1    3    3    0  502 -0.23715981972E+03 -0.62077632199E+03  0.49954236286E+03  0.83135564425E+03  0.12699999809E+01 0.  1.
</event>
<event>
 5   0  0.4441253E-05  0.1399498E+04  0.7818609E-02  0.8954182E-01
        2   -1    0    0  501    0  0.00000000000E+00  0.00000000000E+00  0.19320067962E+04  0.19320067962E+04  0.25500000920E-02 0.  1.
       -2   -1    0    0    0  501  0.00000000000E+00  0.00000000000E+00 -0.25344034781E+03  0.25344034783E+03  0.25500000920E-02 0. -1.
    10030    2    1    2    0    0  0.00000000000E+00  0.00000000000E+00  0.16785664484E+04  0.21854471440E+04  0.13994977305E+04 0.  0.
        3    1    3    3  502    0  0.29640921174E+02 -0.65249626372E+03  0.12312977500E+04  0.13938163859E+04  0.10100000352E+00 0.  1.
       -3    1    3    3    0  502 -0.29640921174E+02  0.65249626372E+03  0.44726869839E+03  0.79163075808E+03  0.10100000352E+00 0. -1.
</event>
<event>
 5   0  0.4527503E-05  0.1399749E+04  0.7818609E-02  0.8954000E-01
        2   -1    0    0  501    0  0.00000000000E+00  0.00000000000E+00  0.13980660689E+04  0.13980660689E+04  0.25500000920E-02 0. -1.
       -2   -1    0    0    0  501  0.00000000000E+00  0.00000000000E+00 -0.35035861996E+03  0.35035861997E+03  0.25500000920E-02 0.  1.
    10030    2    1    2    0    0  0.00000000000E+00  0.00000000000E+00  0.10477074490E+04  0.17484246889E+04  0.13997492612E+04 0.  0.
        4    1    3    3  502    0 -0.22237079916E+03  0.55137447219E+03  0.98510827636E+03  0.11506096254E+04  0.12699999809E+01 0. -1.
       -4    1    3    3    0  502  0.22237079916E+03 -0.55137447219E+03  0.62599172606E+02  0.59781506355E+03  0.12699999809E+01 0.  1.
</event>
<event>
 5   0  0.4527503E-05  0.1399951E+04  0.7818609E-02  0.8953854E-01
        2   -1    0    0  501    0  0.00000000000E+00  0.00000000000E+00  0.98597702111E+03  0.98597702112E+03  0.25500000920E-02 0.  1.
       -2   -1    0    0    0  501  0.00000000000E+00  0.00000000000E+00 -0.49693407484E+03  0.49693407485E+03  0.25500000920E-02 0. -1.
    10030    2    1    2    0    0  0.00000000000E+00  0.00000000000E+00  0.48904294627E+03  0.14829110960E+04  0.13999508260E+04 0.  0.
        4    1    3    3  502    0 -0.21650749200E+03 -0.31327349086E+02  0.94883505482E+03  0.97372812995E+03  0.12699999809E+01 0.  1.
       -4    1    3    3    0  502  0.21650749200E+03  0.31327349086E+02 -0.45979210855E+03  0.50918296601E+03  0.12699999809E+01 0. -1.
</event>
<event>
 5   0  0.2316714E-05  0.1400103E+04  0.7818609E-02  0.8953744E-01
        1   -1    0    0  501    0  0.00000000000E+00  0.00000000000E+00  0.15019581549E+04  0.15019581549E+04  0.50400001928E-02 0.  1.
       -1   -1    0    0    0  501  0.00000000000E+00  0.00000000000E+00 -0.32628868492E+03  0.32628868496E+03  0.50400001928E-02 0. -1.
    10030    2    1    2    0    0  0.00000000000E+00  0.00000000000E+00  0.11756694700E+04  0.18282468398E+04  0.14001027836E+04 0.  0.
        5    1    3    3  502    0  0.74646553596E+02  0.47734089988E+03 -0.73654918014E+02  0.48874694844E+03  0.46999998093E+01 0. -1.
       -5    1    3    3    0  502 -0.74646553596E+02 -0.47734089988E+03  0.12493243880E+04  0.13394998914E+04  0.46999998093E+01 0.  1.
</event>
<event>
 5   0  0.2467303E-05  0.1399706E+04  0.7818609E-02  0.8954031E-01
       -1   -1    0    0    0  501  0.00000000000E+00  0.00000000000E+00  0.32849965128E+03  0.32849965131E+03  0.50400001928E-02 0. -1.
        1   -1    0    0  501    0  0.00000000000E+00  0.00000000000E+00 -0.14910042749E+04  0.14910042749E+04  0.50400001928E-02 0.  1.
    10030    2    1    2    0    0  0.00000000000E+00  0.00000000000E+00 -0.11625046236E+04  0.18195039262E+04  0.13997062326E+04 0.  0.
        3    1    3    3  502    0 -0.89036331430E+01  0.63786220913E+03 -0.20709500037E+03  0.67069801096E+03  0.10100000352E+00 0. -1.
       -3    1    3    3    0  502  0.89036331430E+01 -0.63786220913E+03 -0.95540962322E+03  0.11488059152E+04  0.10100000352E+00 0.  1.
</event>
<event>
 5   0  0.4527503E-05  0.1399749E+04  0.7818609E-02  0.8954000E-01
        2   -1    0    0  501    0  0.00000000000E+00  0.00000000000E+00  0.98148259322E+03  0.98148259322E+03  0.25500000920E-02 0. -1.
       -2   -1    0    0    0  501  0.00000000000E+00  0.00000000000E+00 -0.49906560563E+03  0.49906560564E+03  0.25500000920E-02 0.  1.
    10030    2    1    2    0    0  0.00000000000E+00  0.00000000000E+00  0.48241698759E+03  0.14805481989E+04  0.13997488415E+04 0.  0.
        4    1    3    3  502    0  0.33493657544E+03 -0.26424745014E+03 -0.34562672710E+03  0.54906162847E+03  0.12699999809E+01 0.  1.
       -4    1    3    3    0  502 -0.33493657544E+03  0.26424745014E+03  0.82804371469E+03  0.93148657038E+03  0.12699999809E+01 0. -1.
</event>
<event>
 5   0  0.4621450E-05  0.1400025E+04  0.7818609E-02  0.8953800E-01
       -2   -1    0    0    0  501  0.00000000000E+00  0.00000000000E+00  0.17393968269E+04  0.17393968269E+04  0.25500000920E-02 0. -1.
        2   -1    0    0  501    0  0.00000000000E+00  0.00000000000E+00 -0.28171709213E+03  0.28171709214E+03  0.25500000920E-02 0.  1.
    10030    2    1    2    0    0  0.00000000000E+00  0.00000000000E+00  0.14576797347E+04  0.20211139190E+04  0.14000254514E+04 0.  0.
        5    1    3    3  502    0 -0.19869145310E+02 -0.38095633325E+03 -0.11845112910E+03  0.39946873565E+03  0.46999998093E+01 0.  1.
       -5    1    3    3    0  502  0.19869145310E+02  0.38095633325E+03  0.15761308638E+04  0.16216451834E+04  0.46999998093E+01 0. -1.
</event>
<event>
 5   0  0.2316714E-05  0.1400065E+04  0.7818609E-02  0.8953772E-01
       -1   -1    0    0    0  501  0.00000000000E+00  0.00000000000E+00  0.45676184235E+03  0.45676184238E+03  0.50400001928E-02 0. -1.
        1   -1    0    0  501    0  0.00000000000E+00  0.00000000000E+00 -0.10728680776E+04  0.10728680776E+04  0.50400001928E-02 0.  1.
    10030    2    1    2    0    0  0.00000000000E+00  0.00000000000E+00 -0.61610623520E+03  0.15296299199E+04  0.14000645696E+04 0.  0.
        5    1    3    3  502    0  0.23646899335E+01 -0.52810472620E+03 -0.81005574773E+03  0.96701220159E+03  0.46999998093E+01 0.  1.
       -5    1    3    3    0  502 -0.23646899335E+01  0.52810472620E+03  0.19394951253E+03  0.56261771835E+03  0.46999998093E+01 0. -1.
</event>
<event>
 5   0  0.2467303E-05  0.1398556E+04  0.7818609E-02  0.8954865E-01
       -1   -1    0    0    0  501  0.00000000000E+00  0.00000000000E+00  0.65950307608E+03  0.65950307610E+03  0.50400001928E-02 0.  1.
        1   -1    0    0  501    0  0.00000000000E+00  0.00000000000E+00 -0.74145143025E+03  0.74145143027E+03  0.50400001928E-02 0. -1.
    10030    2    1    2    0    0  0.00000000000E+00  0.00000000000E+00 -0.81948354170E+02  0.14009545064E+04  0.13985556822E+04 0.  0.
        3    1    3    3  502    0  0.18999644637E+03  0.34002006048E+03  0.54077765660E+03  0.66644787887E+03  0.10100000352E+00 0.  1.
       -3    1    3    3    0  502 -0.18999644637E+03 -0.34002006048E+03 -0.62272601077E+03  0.73450662751E+03  0.10100000352E+00 0. -1.
</event>
<event>
 5   0  0.4243281E-05  0.1400042E+04  0.7818609E-02  0.8953788E-01
       -2   -1    0    0    0  501  0.00000000000E+00  0.00000000000E+00  0.39683360745E+03  0.39683360746E+03  0.25500000920E-02 0. -1.
        2   -1    0    0  501    0  0.00000000000E+00  0.00000000000E+00 -0.12348491615E+04  0.12348491615E+04  0.25500000920E-02 0.  1.
    10030    2    1    2    0    0  0.00000000000E+00  0.00000000000E+00 -0.83801555408E+03  0.16316827690E+04  0.14000423528E+04 0.  0.
        2    1    3    3  502    0 -0.25732961897E+03 -0.62542055416E+03 -0.62963003929E+03  0.92401482063E+03  0.25500000920E-02 0.  1.
       -2    1    3    3    0  502  0.25732961897E+03  0.62542055416E+03 -0.20838551479E+03  0.70766794836E+03  0.25500000920E-02 0. -1.
</event>
<event>
 5   0  0.4621450E-05  0.1400201E+04  0.7818609E-02  0.8953673E-01
       -2   -1    0    0    0  501  0.00000000000E+00  0.00000000000E+00  0.36575361489E+03  0.36575361490E+03  0.25500000920E-02 0. -1.
        2   -1    0    0  501    0  0.00000000000E+00  0.00000000000E+00 -0.13400853424E+04  0.13400853424E+04  0.25500000920E-02 0.  1.
    10030    2    1    2    0    0  0.00000000000E+00  0.00000000000E+00 -0.97433172747E+03  0.17058389573E+04  0.14002014973E+04 0.  0.
        5    1    3    3  502    0  0.52007673720E+03 -0.16794558697E+03  0.45869947388E+02  0.54846301136E+03  0.46999998093E+01 0. -1.
       -5    1    3    3    0  502 -0.52007673720E+03  0.16794558697E+03 -0.10202016749E+04  0.11573759459E+04  0.46999998093E+01 0.  1.
</event>
<event>
 5   0  0.4460282E-05  0.1400602E+04  0.7818609E-02  0.8953383E-01
       -2   -1    0    0    0  501  0.00000000000E+00  0.00000000000E+00  0.36750412442E+03  0.36750412443E+03  0.25500000920E-02 0. -1.
        2   -1    0    0  501    0  0.00000000000E+00  0.00000000000E+00 -0.13344659892E+04  0.13344659892E+04  0.25500000920E-02 0.  1.
    10030    2    1    2    0    0  0.00000000000E+00  0.00000000000E+00 -0.96696186478E+03  0.17019701136E+04  0.14006023775E+04 0.  0.
        1    1    3    3  502    0  0.42273027927E+02 -0.50659008907E+03  0.10182403777E+03  0.51844832137E+03  0.50400001928E-02 0. -1.
       -1    1    3    3    0  502 -0.42273027927E+02  0.50659008907E+03 -0.10687859025E+04  0.11835217923E+04  0.50400001928E-02 0.  1.
</event>
<event>
 5   0  0.4527503E-05  0.1404383E+04  0.7818609E-02  0.8950652E-01
        2   -1    0    0  501    0  0.00000000000E+00  0.00000000000E+00  0.74057676826E+03  0.74057676827E+03  0.25500000920E-02 0. -1.
       -2   -1    0    0    0  501  0.00000000000E+00  0.00000000000E+00 -0.66579585566E+03  0.66579585566E+03  0.25500000920E-02 0.  1.
    10030    2    1    2    0    0  0.00000000000E+00  0.00000000000E+00  0.74780912604E+02  0.14063726239E+04  0.14043830576E+04 0.  0.
        4    1    3    3  502    0  0.16357384668E+03 -0.46133107793E+03 -0.46679928807E+03  0.67637708049E+03  0.12699999809E+01 0.  1.
       -4    1    3    3    0  502 -0.16357384668E+03  0.46133107793E+03  0.54158020067E+03  0.72999554344E+03  0.12699999809E+01 0. -1.
</event>
<event>
 5   0  0.4621450E-05  0.1399760E+04  0.7818609E-02  0.8953992E-01
        2   -1    0    0  501    0  0.00000000000E+00  0.00000000000E+00  0.13713042295E+04  0.13713042295E+04  0.25500000920E-02 0. -1.
       -2   -1    0    0    0  501  0.00000000000E+00  0.00000000000E+00 -0.35720173466E+03  0.35720173467E+03  0.25500000920E-02 0.  1.
    10030    2    1    2    0    0  0.00000000000E+00  0.00000000000E+00  0.10141024948E+04  0.17285059641E+04  0.13997603359E+04 0.  0.
        5    1    3    3  502    0 -0.67955103530E+03 -0.86241608263E+02  0.68421335985E+03  0.96819276819E+03  0.46999998093E+01 0. -1.
       -5    1    3    3    0  502  0.67955103530E+03  0.86241608263E+02  0.32988913496E+03  0.76031319595E+03  0.46999998093E+01 0.  1.
</event>
<event>
 5   0  0.4441253E-05  0.1393008E+04  0.7818609E-02  0.8958896E-01
       -2   -1    0    0    0  501  0.00000000000E+00  0.00000000000E+00  0.68164950835E+03  0.68164950835E+03  0.25500000920E-02 0.  1.
        2   -1    0    0  501    0  0.00000000000E+00  0.00000000000E+00 -0.71168176085E+03  0.71168176085E+03  0.25500000920E-02 0. -1.
    10030    2    1    2    0    0  0.00000000000E+00  0.00000000000E+00 -0.30032252498E+02  0.13933312692E+04  0.13930075698E+04 0.  0.
        3    1    3    3  502    0 -0.47444841887E+03 -0.15728243892E+03  0.47015168238E+03  0.68620819174E+03  0.10100000352E+00 0.  1.
       -3    1    3    3    0  502  0.47444841887E+03  0.15728243892E+03 -0.50018393488E+03  0.70712307746E+03  0.10100000352E+00 0. -1.
</event>
<event>
 5   0  0.2428507E-05  0.1408871E+04  0.7818609E-02  0.8947422E-01
        1   -1    0    0  501    0  0.00000000000E+00  0.00000000000E+00  0.53148458522E+03  0.53148458524E+03  0.50400001928E-02 0. -1.
       -1   -1    0    0    0  501  0.00000000000E+00  0.00000000000E+00 -0.93366662952E+03  0.93366662954E+03  0.50400001928E-02 0.  1.
    10030    2    1    2    0    0  0.00000000000E+00  0.00000000000E+00 -0.40218204430E+03  0.14651512148E+04  0.14088710677E+04 0.  0.
        4    1    3    3  502    0  0.11578431016E+03  0.62828269913E+03 -0.50973399234E+03  0.81729768895E+03  0.12699999809E+01 0.  1.
       -4    1    3    3    0  502 -0.11578431016E+03 -0.62828269913E+03  0.10755194804E+03  0.64785352583E+03  0.12699999809E+01 0. -1.
</event>
<event>
 5   0  0.4621450E-05  0.1406829E+04  0.7818609E-02  0.8948890E-01
        2   -1    0    0  501    0  0.00000000000E+00  0.00000000000E+00  0.81557461900E+03  0.81557461900E+03  0.25500000920E-02 0. -1.
       -2   -1    0    0    0  501  0.00000000000E+00  0.00000000000E+00 -0.60667896006E+03  0.60667896007E+03  0.25500000920E-02 0.  1.
    10030    2    1    2    0    0  0.00000000000E+00  0.00000000000E+00  0.20889565893E+03  0.14222535791E+04  0.14068290041E+04 0.  0.
        5    1    3    3  502    0 -0.54630595283E+03  0.41644794774E+03 -0.48508009238E+02  0.68866116795E+03  0.46999998093E+01 0.  1.
       -5    1    3    3    0  502  0.54630595283E+03 -0.41644794774E+03  0.25740366817E+03  0.73359241113E+03  0.46999998093E+01 0. -1.
</event>
<event>
 5   0  0.2316714E-05  0.1400252E+04  0.7818609E-02  0.8953636E-01
        1   -1    0    0  501    0  0.00000000000E+00  0.00000000000E+00  0.75604256467E+03  0.75604256469E+03  0.50400001928E-02 0. -1.
       -1   -1    0    0    0  501  0.00000000000E+00  0.00000000000E+00 -0.64834505006E+03  0.64834505008E+03  0.50400001928E-02 0.  1.
    10030    2    1    2    0    0  0.00000000000E+00  0.00000000000E+00  0.10769751461E+03  0.14043876148E+04  0.14002520551E+04 0.  0.
        5    1    3    3  502    0  0.16463995209E+02 -0.47094988479E+03 -0.46545406195E+03  0.66237031252E+03  0.46999998093E+01 0.  1.
       -5    1    3    3    0  502 -0.16463995209E+02  0.47094988479E+03  0.57315157656E+03  0.74201730225E+03  0.46999998093E+01 0. -1.
</event>
<event>
 5   0  0.2316714E-05  0.1400405E+04  0.7818609E-02  0.8953526E-01
       -1   -1    0    0    0  501  0.00000000000E+00  0.00000000000E+00  0.51279881663E+03  0.51279881665E+03  0.50400001928E-02 0. -1.
        1   -1    0    0  501    0  0.00000000000E+00  0.00000000000E+00 -0.95609317059E+03  0.95609317060E+03  0.50400001928E-02 0.  1.
    10030    2    1    2    0    0  0.00000000000E+00  0.00000000000E+00 -0.44329435396E+03  0.14688919873E+04  0.14004048650E+04 0.  0.
        5    1    3    3  502    0  0.29237143117E+03 -0.60038579811E+03 -0.44245903333E+03  0.80108441909E+03  0.46999998093E+01 0.  1.
       -5    1    3    3    0  502 -0.29237143117E+03  0.60038579811E+03 -0.83532062761E+00  0.66780756816E+03  0.46999998093E+01 0. -1.
</event>
<event>
 5   0  0.2316714E-05  0.1406192E+04  0.7818609E-02  0.8949349E-01
        1   -1    0    0  501    0  0.00000000000E+00  0.00000000000E+00  0.38513280738E+03  0.38513280741E+03  0.50400001928E-02 0. -1.
       -1   -1    0    0    0  501  0.00000000000E+00  0.00000000000E+00 -0.12835676084E+04  0.12835676084E+04  0.50400001928E-02 0.  1.
    10030    2    1    2    0    0  0.00000000000E+00  0.00000000000E+00 -0.89843480099E+03  0.16687004158E+04  0.14061920161E+04 0.  0.
        5    1    3    3  502    0 -0.30012724760E+03  0.22640807763E+03 -0.11542542638E+04  0.12139448002E+04  0.46999998093E+01 0.  1.
       -5    1    3    3    0  502  0.30012724760E+03 -0.22640807763E+03  0.25581946282E+03  0.45475561560E+03  0.46999998093E+01 0. -1.
</event>
<event>
 5   0  0.2427569E-05  0.1399904E+04  0.7818609E-02  0.8953888E-01
        1   -1    0    0  501    0  0.00000000000E+00  0.00000000000E+00  0.10530557903E+04  0.10530557903E+04  0.50400001928E-02 0.  1.
       -1   -1    0    0    0  501  0.00000000000E+00  0.00000000000E+00 -0.46524895556E+03  0.46524895559E+03  0.50400001928E-02 0. -1.
    10030    2    1    2    0    0  0.00000000000E+00  0.00000000000E+00  0.58780683471E+03  0.15183047459E+04  0.13999044347E+04 0.  0.
        1    1    3    3  502    0  0.16995499194E+03 -0.65238215233E+03  0.89709041447E+02  0.68009917225E+03  0.50400001928E-02 0.  1.
       -1    1    3    3    0  502 -0.16995499194E+03  0.65238215233E+03  0.49809779326E+03  0.83820557361E+03  0.50400001928E-02 0. -1.
</event>
<event>
 5   0  0.4441253E-05  0.1399631E+04  0.7818609E-02  0.8954086E-01
       -2   -1    0    0    0  501  0.00000000000E+00  0.00000000000E+00  0.82787091005E+03  0.82787091005E+03  0.25500000920E-02 0. -1.
        2   -1    0    0  501    0  0.00000000000E+00  0.00000000000E+00 -0.59156781817E+03  0.59156781817E+03  0.25500000920E-02 0.  1.
    10030    2    1    2    0    0  0.00000000000E+00  0.00000000000E+00  0.23630309188E+03  0.14194387282E+04  0.13996310771E+04 0.  0.
        3    1    3    3  502    0  0.46672084961E+03 -0.23536058519E+03  0.59005254914E+03  0.78827975837E+03  0.10100000352E+00 0. -1.
       -3    1    3    3    0  502 -0.46672084961E+03  0.23536058519E+03 -0.35374945725E+03  0.63115896985E+03  0.10100000352E+00 0.  1.
</event>
<event>
 5   0  0.1661000E-05  0.1399837E+04  0.7818609E-02  0.8953937E-01
       -4   -1    0    0    0  501  0.00000000000E+00  0.00000000000E+00  0.88927045497E+03  0.88927136184E+03  0.12699999809E+01 0.  1.
        4   -1    0    0  501    0  0.00000000000E+00  0.00000000000E+00 -0.55088323878E+03  0.55088470270E+03  0.12699999809E+01 0. -1.
    10030    2    1    2    0    0  0.00000000000E+00  0.00000000000E+00  0.33838721619E+03  0.14401560645E+04  0.13998369841E+04 0.  0.
        1    1    3    3  502    0  0.56960651932E+03 -0.39921391705E+03  0.89088536177E+02  0.70125609140E+03  0.50400001928E-02 0. -1.
       -1    1    3    3    0  502 -0.56960651932E+03  0.39921391705E+03  0.24929868002E+03  0.73889997314E+03  0.50400001928E-02 0.  1.
</event>
<event>
 5   0  0.2428507E-05  0.1399481E+04  0.7818609E-02  0.8954194E-01
       -1   -1    0    0    0  501  0.00000000000E+00  0.00000000000E+00  0.62459948315E+03  0.62459948317E+03  0.50400001928E-02 0.  1.
        1   -1    0    0  501    0  0.00000000000E+00  0.00000000000E+00 -0.78392091389E+03  0.78392091390E+03  0.50400001928E-02 0. -1.
    10030    2    1    2    0    0  0.00000000000E+00  0.00000000000E+00 -0.15932143074E+03  0.14085203971E+04  0.13994807575E+04 0.  0.
        4    1    3    3  502    0 -0.23575735362E+03 -0.53290792500E+03 -0.46954204657E+03  0.74836069693E+03  0.12699999809E+01 0. -1.
       -4    1    3    3    0  502  0.23575735362E+03  0.53290792500E+03  0.31022061583E+03  0.66015970014E+03  0.12699999809E+01 0.  1.
</event>
<event>
 5   0  0.4243281E-05  0.1399164E+04  0.7818609E-02  0.8954424E-01
       -2   -1    0    0    0  501  0.00000000000E+00  0.00000000000E+00  0.97927662107E+03  0.97927662108E+03  0.25500000920E-02 0. -1.
        2   -1    0    0  501    0  0.00000000000E+00  0.00000000000E+00 -0.49977221067E+03  0.49977221067E+03  0.25500000920E-02 0.  1.
    10030    2    1    2    0    0  0.00000000000E+00  0.00000000000E+00  0.47950441041E+03  0.14790488317E+04  0.13991643817E+04 0.  0.
        2    1    3    3  502    0  0.20708212525E+03 -0.49963564852E+03  0.70881687099E+03  0.89159415907E+03  0.25500000920E-02 0. -1.
       -2    1    3    3    0  502 -0.20708212525E+03  0.49963564852E+03 -0.22931246058E+03  0.58745467268E+03  0.25500000920E-02 0.  1.
</event>
<event>
 5   0  0.4243281E-05  0.1399927E+04  0.7818609E-02  0.8953872E-01
        2   -1    0    0  501    0  0.00000000000E+00  0.00000000000E+00  0.10177923323E+04  0.10177923323E+04  0.25500000920E-02 0. -1.
       -2   -1    0    0    0  501  0.00000000000E+00  0.00000000000E+00 -0.48138374145E+03  0.48138374146E+03  0.25500000920E-02 0.  1.
    10030    2    1    2    0    0  0.00000000000E+00  0.00000000000E+00  0.53640859086E+03  0.14991760738E+04  0.13999266852E+04 0.  0.
        2    1    3    3  502    0 -0.33986906491E+03 -0.53723913467E+02  0.92096924268E+03  0.98314881179E+03  0.25500000920E-02 0. -1.
       -2    1    3    3    0  502  0.33986906491E+03  0.53723913467E+02 -0.38456065183E+03  0.51602726197E+03  0.25500000920E-02 0.  1.
</event>
<event>
 5   0  0.2427569E-05  0.1399223E+04  0.7818609E-02  0.8954381E-01
        1   -1    0    0  501    0  0.00000000000E+00  0.00000000000E+00  0.12622019814E+04  0.12622019814E+04  0.50400001928E-02 0.  1.
       -1   -1    0    0    0  501  0.00000000000E+00  0.00000000000E+00 -0.38777958760E+03  0.38777958763E+03  0.50400001928E-02 0. -1.
    10030    2    1    2    0    0  0.00000000000E+00  0.00000000000E+00  0.87442239375E+03  0.16499815690E+04  0.13992228755E+04 0.  0.
        1    1    3    3  502    0  0.63948220622E+03  0.20612283378E+03  0.20724338182E+03  0.70311729748E+03  0.50400001928E-02 0. -1.
       -1    1    3    3    0  502 -0.63948220622E+03 -0.20612283378E+03  0.66717901194E+03  0.94686427152E+03  0.50400001928E-02 0.  1.
</event>
<event>
 5   0  0.4621450E-05  0.1399613E+04  0.7818609E-02  0.8954099E-01
       -2   -1    0    0    0  501  0.00000000000E+00  0.00000000000E+00  0.71963541255E+03  0.71963541255E+03  0.25500000920E-02 0. -1.
        2   -1    0    0  501    0  0.00000000000E+00  0.00000000000E+00 -0.68052388705E+03  0.68052388705E+03  0.25500000920E-02 0.  1.
    10030    2    1    2    0    0  0.00000000000E+00  0.00000000000E+00  0.39111525500E+02  0.14001592996E+04  0.13996129296E+04 0.  0.
        5    1    3    3  502    0 -0.20534616812E+03 -0.37777942986E+03  0.57187875417E+03  0.71550803339E+03  0.46999998093E+01 0. -1.
       -5    1    3    3    0  502  0.20534616812E+03  0.37777942986E+03 -0.53276722867E+03  0.68465126621E+03  0.46999998093E+01 0.  1.
</event>
<event>
 5   0  0.2467303E-05  0.1399504E+04  0.7818609E-02  0.8954178E-01
       -1   -1    0    0    0  501  0.00000000000E+00  0.00000000000E+00  0.45328077170E+03  0.45328077173E+03  0.50400001928E-02 0.  1.
        1   -1    0    0  501    0  0.00000000000E+00  0.00000000000E+00 -0.10802421370E+04  0.10802421370E+04  0.50400001928E-02 0. -1.
    10030    2    1    2    0    0  0.00000000000E+00  0.00000000000E+00 -0.62696136530E+03  0.15335229087E+04  0.13995041829E+04 0.  0.
        3    1    3    3  502    0 -0.56087669555E+03 -0.62439234330E+02  0.13986761631E+03  0.58141575992E+03  0.10100000352E+00 0.  1.
       -3    1    3    3    0  502  0.56087669555E+03  0.62439234330E+02 -0.76682898160E+03  0.95210714881E+03  0.10100000352E+00 0. -1.
</event>
<event>
 5   0  0.4527503E-05  0.1397839E+04  0.7818609E-02  0.8955384E-01
       -2   -1    0    0    0  501  0.00000000000E+00  0.00000000000E+00  0.37862529125E+03  0.37862529126E+03  0.25500000920E-02 0.  1.
        2   -1    0    0  501    0  0.00000000000E+00  0.00000000000E+00 -0.12901637133E+04  0.12901637133E+04  0.25500000920E-02 0. -1.
    10030    2    1    2    0    0  0.00000000000E+00  0.00000000000E+00 -0.91153842204E+03  0.16687890045E+04  0.13978392064E+04 0.  0.
        4    1    3    3  502    0 -0.62770879332E+03  0.10242748482E+03 -0.80172859416E+03  0.10233670263E+04  0.12699999809E+01 0. -1.
       -4    1    3    3    0  502  0.62770879332E+03 -0.10242748482E+03 -0.10980982788E+03  0.64542197828E+03  0.12699999809E+01 0.  1.
</event>
<event>
 5   0  0.1661000E-05  0.1402603E+04  0.7818609E-02  0.8951937E-01
        3   -1    0    0  501    0  0.00000000000E+00  0.00000000000E+00  0.40351151088E+03  0.40351152352E+03  0.10100000352E+00 0. -1.
       -3   -1    0    0    0  501  0.00000000000E+00  0.00000000000E+00 -0.12188589964E+04  0.12188590006E+04  0.10100000352E+00 0.  1.
    10030    2    1    2    0    0  0.00000000000E+00  0.00000000000E+00 -0.81534748550E+03  0.16223705241E+04  0.14026027931E+04 0.  0.
        3    1    3    3  502    0 -0.40580409977E+03 -0.39537025197E+03 -0.88574891676E+03  0.10514493603E+04  0.10100000352E+00 0.  1.
       -3    1    3    3    0  502  0.40580409977E+03  0.39537025197E+03  0.70401431260E+02  0.57092116378E+03  0.10100000352E+00 0. -1.
</event>
<event>
 5   0  0.1661000E-05  0.1399712E+04  0.7818609E-02  0.8954027E-01
        4   -1    0    0  501    0  0.00000000000E+00  0.00000000000E+00  0.61011289455E+03  0.61011421635E+03  0.12699999809E+01 0. -1.
       -4   -1    0    0    0  501  0.00000000000E+00  0.00000000000E+00 -0.80279699187E+03  0.80279799641E+03  0.12699999809E+01 0.  1.
    10030    2    1    2    0    0  0.00000000000E+00  0.00000000000E+00 -0.19268409731E+03  0.14129122128E+04  0.13997120274E+04 0.  0.
        1    1    3    3  502    0  0.28241649675E+03  0.56474049906E+01 -0.74269891804E+03  0.79460219840E+03  0.50400001928E-02 0.  1.
       -1    1    3    3    0  502 -0.28241649675E+03 -0.56474049906E+01  0.55001482073E+03  0.61831001437E+03  0.50400001928E-02 0. -1.
</event>
<event>
 5   0  0.2427569E-05  0.1399700E+04  0.7818609E-02  0.8954036E-01
        1   -1    0    0  501    0  0.00000000000E+00  0.00000000000E+00  0.87468099969E+03  0.87468099970E+03  0.50400001928E-02 0. -1.
       -1   -1    0    0    0  501  0.00000000000E+00  0.00000000000E+00 -0.55996394665E+03  0.55996394667E+03  0.50400001928E-02 0.  1.
    10030    2    1    2    0    0  0.00000000000E+00  0.00000000000E+00  0.31471705304E+03  0.14346449464E+04  0.13996997173E+04 0.  0.
        1    1    3    3  502    0  0.48135379894E+02 -0.19014985419E+03 -0.53121424855E+03  0.56627074773E+03  0.50400001928E-02 0.  1.
       -1    1    3    3    0  502 -0.48135379894E+02  0.19014985419E+03  0.84593130159E+03  0.86837419865E+03  0.50400001928E-02 0. -1.
</event>
<event>
 5   0  0.2427569E-05  0.1399921E+04  0.7818609E-02  0.8953876E-01
       -1   -1    0    0    0  501  0.00000000000E+00  0.00000000000E+00  0.92549699587E+03  0.92549699589E+03  0.50400001928E-02 0.  1.
        1   -1    0    0  501    0  0.00000000000E+00  0.00000000000E+00 -0.52938520793E+03  0.52938520795E+03  0.50400001928E-02 0. -1.
    10030    2    1    2    0    0  0.00000000000E+00  0.00000000000E+00  0.39611178795E+03  0.14548822038E+04  0.13999205972E+04 0.  0.
        1    1    3    3  502    0 -0.13180611266E+03  0.32648821663E+03 -0.43065550157E+03  0.55626573505E+03  0.50400001928E-02 0. -1.
       -1    1    3    3    0  502  0.13180611266E+03 -0.32648821663E+03  0.82676728952E+03  0.89861646879E+03  0.50400001928E-02 0.  1.
</event>
<event>
 5   0  0.2467303E-05  0.1401254E+04  0.7818609E-02  0.8952911E-01
        1   -1    0    0  501    0  0.00000000000E+00  0.00000000000E+00  0.16875527738E+04  0.16875527738E+04  0.50400001928E-02 0. -1.
       -1   -1    0    0    0  501  0.00000000000E+00  0.00000000000E+00 -0.29088173727E+03  0.29088173732E+03  0.50400001928E-02 0.  1.
    10030    2    1    2    0    0  0.00000000000E+00  0.00000000000E+00  0.13966710365E+04  0.19784345111E+04  0.14012541277E+04 0.  0.
        3    1    3    3  502    0  0.28819363152E+02 -0.43790168526E+03 -0.72788087566E+02  0.44484441947E+03  0.10100000352E+00 0.  1.
       -3    1    3    3    0  502 -0.28819363152E+02  0.43790168526E+03  0.14694591241E+04  0.15335900916E+04  0.10100000352E+00 0. -1.
</event>
<event>
 5   0  0.4527503E-05  0.1400509E+04  0.7818609E-02  0.8953450E-01
        2   -1    0    0  501    0  0.00000000000E+00  0.00000000000E+00  0.64515946323E+03  0.64515946324E+03  0.25500000920E-02 0.  1.
       -2   -1    0    0    0  501  0.00000000000E+00  0.00000000000E+00 -0.76005429625E+03  0.76005429625E+03  0.25500000920E-02 0. -1.
    10030    2    1    2    0    0  0.00000000000E+00  0.00000000000E+00 -0.11489483302E+03  0.14052137595E+04  0.14005087958E+04 0.  0.
        4    1    3    3  502    0 -0.18074860125E+03  0.27639962331E+03  0.56211206521E+03  0.65194968776E+03  0.12699999809E+01 0.  1.
       -4    1    3    3    0  502  0.18074860125E+03 -0.27639962331E+03 -0.67700689823E+03  0.75326407173E+03  0.12699999809E+01 0. -1.
</event>
<event>
 5   0  0.4460282E-05  0.1400596E+04  0.7818609E-02  0.8953387E-01
        2   -1    0    0  501    0  0.00000000000E+00  0.00000000000E+00  0.23485529857E+03  0.23485529858E+03  0.25500000920E-02 0.  1.
       -2   -1    0    0    0  501  0.00000000000E+00  0.00000000000E+00 -0.20881671171E+04  0.20881671171E+04  0.25500000920E-02 0. -1.
    10030    2    1    2    0    0  0.00000000000E+00  0.00000000000E+00 -0.18533118186E+04  0.23230224157E+04  0.14005957472E+04 0.  0.
        1    1    3    3  502    0 -0.13967707098E+03  0.37712795540E+03  0.24230222101E+02  0.40289239580E+03  0.50400001928E-02 0.  1.
       -1    1    3    3    0  502  0.13967707098E+03 -0.37712795540E+03 -0.18775420407E+04  0.19201300199E+04  0.50400001928E-02 0. -1.
</event>
<event>
 5   0  0.1661000E-05  0.1400549E+04  0.7818609E-02  0.8953421E-01
       -4   -1    0    0    0  501  0.00000000000E+00  0.00000000000E+00  0.76607624210E+03  0.76607729480E+03  0.12699999809E+01 0. -1.
        4   -1    0    0  501    0  0.00000000000E+00  0.00000000000E+00 -0.64012298914E+03  0.64012424898E+03  0.12699999809E+01 0.  1.
    10030    2    1    2    0    0  0.00000000000E+00  0.00000000000E+00  0.12595325296E+03  0.14062015438E+04  0.14005493778E+04 0.  0.
        3    1    3    3  502    0  0.14571067619E+03 -0.54100959884E+03 -0.35879203188E+03  0.66532301894E+03  0.10100000352E+00 0.  1.
       -3    1    3    3    0  502 -0.14571067619E+03  0.54100959884E+03  0.48474528484E+03  0.74087852484E+03  0.10100000352E+00 0. -1.
</event>
<event>
 5   0  0.2363419E-05  0.1399666E+04  0.7818609E-02  0.8954060E-01
        1   -1    0    0  501    0  0.00000000000E+00  0.00000000000E+00  0.15066548434E+04  0.15066548434E+04  0.50400001928E-02 0.  1.
       -1   -1    0    0    0  501  0.00000000000E+00  0.00000000000E+00 -0.32506876358E+03  0.32506876362E+03  0.50400001928E-02 0. -1.
    10030    2    1    2    0    0  0.00000000000E+00  0.00000000000E+00  0.11815860798E+04  0.18317236070E+04  0.13996662847E+04 0.  0.
        2    1    3    3  502    0  0.16219916801E+03  0.62812096985E+03  0.24722395731E+03  0.69423642079E+03  0.25500000920E-02 0. -1.
       -2    1    3    3    0  502 -0.16219916801E+03 -0.62812096985E+03  0.93436212246E+03  0.11374871862E+04  0.25500000920E-02 0.  1.
</event>
<event>
 5   0  0.2316714E-05  0.1399698E+04  0.7818609E-02  0.8954038E-01
        1   -1    0    0  501    0  0.00000000000E+00  0.00000000000E+00  0.83377237350E+03  0.83377237351E+03  0.50400001928E-02 0. -1.
       -1   -1    0    0    0  501  0.00000000000E+00  0.00000000000E+00 -0.58743645610E+03  0.58743645612E+03  0.50400001928E-02 0.  1.
    10030    2    1    2    0    0  0.00000000000E+00  0.00000000000E+00  0.24633591740E+03  0.14212088296E+04  0.13996975220E+04 0.  0.
        5    1    3    3  502    0  0.39940701432E+03 -0.43160471083E+03  0.50841651098E+03  0.77737894758E+03  0.46999998093E+01 0. -1.
       -5    1    3    3    0  502 -0.39940701432E+03  0.43160471083E+03 -0.26208059358E+03  0.64382988206E+03  0.46999998093E+01 0.  1.
</event>
<event>
 5   0  0.4527503E-05  0.1400038E+04  0.7818609E-02  0.8953791E-01
        2   -1    0    0  501    0  0.00000000000E+00  0.00000000000E+00  0.11983744846E+04  0.11983744846E+04  0.25500000920E-02 0. -1.
       -2   -1    0    0    0  501  0.00000000000E+00  0.00000000000E+00 -0.40890914570E+03  0.40890914571E+03  0.25500000920E-02 0.  1.
    10030    2    1    2    0    0  0.00000000000E+00  0.00000000000E+00  0.78946533886E+03  0.16072836303E+04  0.14000375519E+04 0.  0.
        4    1    3    3  502    0  0.19538665579E+03  0.19876219712E+03  0.11319266676E+04  0.11657366555E+04  0.12699999809E+01 0. -1.
       -4    1    3    3    0  502 -0.19538665579E+03 -0.19876219712E+03 -0.34246132879E+03  0.44154697472E+03  0.12699999809E+01 0.  1.
</event>
<event>
 5   0  0.2467303E-05  0.1400040E+04  0.7818609E-02  0.8953790E-01
        1   -1    0    0  501    0  0.00000000000E+00  0.00000000000E+00  0.15390138406E+04  0.15390138406E+04  0.50400001928E-02 0.  1.
       -1   -1    0    0    0  501  0.00000000000E+00  0.00000000000E+00 -0.31840385343E+03  0.31840385347E+03  0.50400001928E-02 0. -1.
    10030    2    1    2    0    0  0.00000000000E+00  0.00000000000E+00  0.12206099872E+04  0.18574176941E+04  0.14000399100E+04 0.  0.
        3    1    3    3  502    0  0.78059806801E+02  0.46945536383E+03  0.12913841464E+04  0.13762829272E+04  0.10100000352E+00 0.  1.
       -3    1    3    3    0  502 -0.78059806801E+02 -0.46945536383E+03 -0.70774159203E+02  0.48113476685E+03  0.10100000352E+00 0. -1.
</event>
<event>
 5   0  0.4527503E-05  0.1400033E+04  0.7818609E-02  0.8953795E-01
       -2   -1    0    0    0  501  0.00000000000E+00  0.00000000000E+00  0.60862470941E+03  0.60862470941E+03  0.25500000920E-02 0. -1.
        2   -1    0    0  501    0  0.00000000000E+00  0.00000000000E+00 -0.80513150624E+03  0.80513150624E+03  0.25500000920E-02 0.  1.
    10030    2    1    2    0    0  0.00000000000E+00  0.00000000000E+00 -0.19650679683E+03  0.14137562157E+04  0.14000327554E+04 0.  0.
        4    1    3    3  502    0  0.37479475696E+03  0.40158201569E+03  0.33991478299E+03  0.64597437856E+03  0.12699999809E+01 0. -1.
       -4    1    3    3    0  502 -0.37479475696E+03 -0.40158201569E+03 -0.53642157982E+03  0.76778183709E+03  0.12699999809E+01 0.  1.
</event>
<event>
 5   0  0.2467303E-05  0.1399438E+04  0.7818609E-02  0.8954226E-01
       -1   -1    0    0    0  501  0.00000000000E+00  0.00000000000E+00  0.34398548972E+03  0.34398548976E+03  0.50400001928E-02 0.  1.
        1   -1    0    0  501    0  0.00000000000E+00  0.00000000000E+00 -0.14233342629E+04  0.14233342629E+04  0.50400001928E-02 0. -1.
    10030    2    1    2    0    0  0.00000000000E+00  0.00000000000E+00 -0.10793487732E+04  0.17673197526E+04  0.13994375063E+04 0.  0.
        3    1    3    3  502    0 -0.82332760262E+02 -0.47444559918E+03  0.10145144846E+03  0.49210742383E+03  0.10100000352E+00 0.  1.
       -3    1    3    3    0  502  0.82332760262E+02  0.47444559918E+03 -0.11808002216E+04  0.12752123288E+04  0.10100000352E+00 0. -1.
</event>
<event>
 5   0  0.2427569E-05  0.1399835E+04  0.7818609E-02  0.8953938E-01
       -1   -1    0    0    0  501  0.00000000000E+00  0.00000000000E+00  0.52545947934E+03  0.52545947936E+03  0.50400001928E-02 0.  1.
        1   -1    0    0  501    0  0.00000000000E+00  0.00000000000E+00 -0.93229806360E+03  0.93229806362E+03  0.50400001928E-02 0. -1.
    10030    2    1    2    0    0  0.00000000000E+00  0.00000000000E+00 -0.40683858427E+03  0.14577575430E+04  0.13998354976E+04 0.  0.
        1    1    3    3  502    0  0.19587457043E+03 -0.14670264778E+03 -0.88629344522E+03  0.91945885459E+03  0.50400001928E-02 0. -1.
       -1    1    3    3    0  502 -0.19587457043E+03  0.14670264778E+03  0.47945486096E+03  0.53829868840E+03  0.50400001928E-02 0.  1.
</event>
<event>
 5   0  0.4527503E-05  0.1393502E+04  0.7818609E-02  0.8958536E-01
       -2   -1    0    0    0  501  0.00000000000E+00  0.00000000000E+00  0.11718945476E+04  0.11718945476E+04  0.25500000920E-02 0. -1.
        2   -1    0    0  501    0  0.00000000000E+00  0.00000000000E+00 -0.41425392709E+03  0.41425392710E+03  0.25500000920E-02 0.  1.
    10030    2    1    2    0    0  0.00000000000E+00  0.00000000000E+00  0.75764062051E+03  0.15861484747E+04  0.13935019462E+04 0.  0.
        4    1    3    3  502    0  0.50276391566E+02 -0.35896536076E+03 -0.29848547553E+03  0.46955195429E+03  0.12699999809E+01 0.  1.
       -4    1    3    3    0  502 -0.50276391566E+02  0.35896536076E+03  0.10561260960E+04  0.11165965204E+04  0.12699999809E+01 0. -1.
</event>
<event>
 5   0  0.4460282E-05  0.1399855E+04  0.7818609E-02  0.8953924E-01
        2   -1    0    0  501    0  0.00000000000E+00  0.00000000000E+00  0.76477784631E+03  0.76477784631E+03  0.25500000920E-02 0.  1.
       -2   -1    0    0    0  501  0.00000000000E+00  0.00000000000E+00 -0.64057590923E+03  0.64057590923E+03  0.25500000920E-02 0. -1.
    10030    2    1    2    0    0  0.00000000000E+00  0.00000000000E+00  0.12420193708E+03  0.14053537555E+04  0.13998546557E+04 0.  0.
        1    1    3    3  502    0 -0.28439725828E+03 -0.20067344028E+03  0.67173155020E+03  0.75655462837E+03  0.50400001928E-02 0.  1.
       -1    1    3    3    0  502  0.28439725828E+03  0.20067344028E+03 -0.54752961312E+03  0.64879912717E+03  0.50400001928E-02 0. -1.
</event>
<event>
 5   0  0.4243281E-05  0.1400361E+04  0.7818609E-02  0.8953557E-01
       -2   -1    0    0    0  501  0.00000000000E+00  0.00000000000E+00  0.27188219078E+03  0.27188219080E+03  0.25500000920E-02 0. -1.
        2   -1    0    0  501    0  0.00000000000E+00  0.00000000000E+00 -0.18031808344E+04  0.18031808344E+04  0.25500000920E-02 0.  1.
    10030    2    1    2    0    0  0.00000000000E+00  0.00000000000E+00 -0.15312986436E+04  0.20750630252E+04  0.14003610330E+04 0.  0.
        2    1    3    3  502    0  0.31440647123E+03 -0.58636663686E+03 -0.10888579354E+04  0.12760442255E+04  0.25500000920E-02 0.  1.
       -2    1    3    3    0  502 -0.31440647123E+03  0.58636663686E+03 -0.44244070824E+03  0.79901879971E+03  0.25500000920E-02 0. -1.
</event>
<event>
 5   0  0.4527503E-05  0.1400222E+04  0.7818609E-02  0.8953658E-01
        2   -1    0    0  501    0  0.00000000000E+00  0.00000000000E+00  0.14853419743E+04  0.14853419743E+04  0.25500000920E-02 0. -1.
       -2   -1    0    0    0  501  0.00000000000E+00  0.00000000000E+00 -0.32999487834E+03  0.32999487835E+03  0.25500000920E-02 0.  1.
    10030    2    1    2    0    0  0.00000000000E+00  0.00000000000E+00  0.11553470960E+04  0.18153368527E+04  0.14002217598E+04 0.  0.
        4    1    3    3  502    0 -0.64475379309E+03  0.78625367990E+02  0.91640614883E+03  0.11232503037E+04  0.12699999809E+01 0.  1.
       -4    1    3    3    0  502  0.64475379309E+03 -0.78625367990E+02  0.23894094716E+03  0.69208654901E+03  0.12699999809E+01 0. -1.
</event>
<event>
 5   0  0.2427569E-05  0.1397971E+04  0.7818609E-02  0.8955289E-01
       -1   -1    0    0    0  501  0.00000000000E+00  0.00000000000E+00  0.39630432758E+03  0.39630432761E+03  0.50400001928E-02 0.  1.
        1   -1    0    0  501    0  0.00000000000E+00  0.00000000000E+00 -0.12328415091E+04  0.12328415091E+04  0.50400001928E-02 0. -1.
    10030    2    1    2    0    0  0.00000000000E+00  0.00000000000E+00 -0.83653718155E+03  0.16291458367E+04  0.13979705652E+04 0.  0.
        1    1    3    3  502    0 -0.18736143833E+03  0.25172023671E+03  0.30960702219E+03  0.44082183970E+03  0.50400001928E-02 0.  1.
       -1    1    3    3    0  502  0.18736143833E+03 -0.25172023671E+03 -0.11461442037E+04  0.11883239970E+04  0.50400001928E-02 0. -1.
</event>
<event>
 5   0  0.2467303E-05  0.1400242E+04  0.7818609E-02  0.8953643E-01
        1   -1    0    0  501    0  0.00000000000E+00  0.00000000000E+00  0.19658774854E+04  0.19658774854E+04  0.50400001928E-02 0. -1.
       -1   -1    0    0    0  501  0.00000000000E+00  0.00000000000E+00 -0.24933868961E+03  0.24933868966E+03  0.50400001928E-02 0.  1.
    10030    2    1    2    0    0  0.00000000000E+00  0.00000000000E+00  0.17165387958E+04  0.22152161751E+04  0.14002418594E+04 0.  0.
        3    1    3    3  502    0  0.33516694092E+03  0.44783082526E+03  0.19216407522E+03  0.59145276087E+03  0.10100000352E+00 0.  1.
       -3    1    3    3    0  502 -0.33516694092E+03 -0.44783082526E+03  0.15243747206E+04  0.16237634142E+04  0.10100000352E+00 0. -1.
</event>
<event>
 5   0  0.4243281E-05  0.1400062E+04  0.7818609E-02  0.8953774E-01
        2   -1    0    0  501    0  0.00000000000E+00  0.00000000000E+00  0.49471469900E+03  0.49471469901E+03  0.25500000920E-02 0. -1.
       -2   -1    0    0    0  501  0.00000000000E+00  0.00000000000E+00 -0.99055785325E+03  0.99055785325E+03  0.25500000920E-02 0.  1.
    10030    2    1    2    0    0  0.00000000000E+00  0.00000000000E+00 -0.49584315425E+03  0.14852725523E+04  0.14000621846E+04 0.  0.
        2    1    3    3  502    0 -0.50640093499E+03  0.10840128156E+03 -0.74759852612E+03  0.90944834986E+03  0.25500000920E-02 0.  1.
       -2    1    3    3    0  502  0.50640093499E+03 -0.10840128156E+03  0.25175537187E+03  0.57582420240E+03  0.25500000920E-02 0. -1.
</event>
<event>
 5   0  0.2363419E-05  0.1401509E+04  0.7818609E-02  0.8952727E-01
       -1   -1    0    0    0  501  0.00000000000E+00  0.00000000000E+00  0.66622827960E+03  0.66622827962E+03  0.50400001928E-02 0. -1.
        1   -1    0    0  501    0  0.00000000000E+00  0.00000000000E+00 -0.73706976655E+03  0.73706976657E+03  0.50400001928E-02 0.  1.
    10030    2    1    2    0    0  0.00000000000E+00  0.00000000000E+00 -0.70841486954E+02  0.14032980462E+04  0.14015087906E+04 0.  0.
        2    1    3    3  502    0  0.12142468134E+03 -0.30709407247E+03 -0.65427614586E+03  0.73289016751E+03  0.25500000920E-02 0.  1.
       -2    1    3    3    0  502 -0.12142468134E+03  0.30709407247E+03  0.58343465890E+03  0.67040787868E+03  0.25500000920E-02 0. -1.
</event>
<event>
 5   0  0.2428507E-05  0.1399893E+04  0.7818609E-02  0.8953896E-01
        1   -1    0    0  501    0  0.00000000000E+00  0.00000000000E+00  0.42037994453E+03  0.42037994457E+03  0.50400001928E-02 0. -1.
       -1   -1    0    0    0  501  0.00000000000E+00  0.00000000000E+00 -0.11654338562E+04  0.11654338562E+04  0.50400001928E-02 0.  1.
    10030    2    1    2    0    0  0.00000000000E+00  0.00000000000E+00 -0.74505391162E+03  0.15858138007E+04  0.13998928814E+04 0.  0.
        4    1    3    3  502    0 -0.35351032974E+03 -0.58813874370E+03 -0.52886581474E+03  0.86635870053E+03  0.12699999809E+01 0.  1.
       -4    1    3    3    0  502  0.35351032974E+03  0.58813874370E+03 -0.21618809688E+03  0.71945510020E+03  0.12699999809E+01 0. -1.
</event>
<event>
 5   0  0.2428507E-05  0.1400207E+04  0.7818609E-02  0.8953669E-01
       -1   -1    0    0    0  501  0.00000000000E+00  0.00000000000E+00  0.33238739364E+03  0.33238739367E+03  0.50400001928E-02 0. -1.
        1   -1    0    0  501    0  0.00000000000E+00  0.00000000000E+00 -0.14746193072E+04  0.14746193072E+04  0.50400001928E-02 0.  1.
    10030    2    1    2    0    0  0.00000000000E+00  0.00000000000E+00 -0.11422319135E+04  0.18070067009E+04  0.14002069392E+04 0.  0.
        4    1    3    3  502    0  0.12477886910E+03  0.38589981381E+03 -0.13075710916E+04  0.13690260059E+04  0.12699999809E+01 0.  1.
       -4    1    3    3    0  502 -0.12477886910E+03 -0.38589981381E+03  0.16533917801E+03  0.43798069496E+03  0.12699999809E+01 0. -1.
</event>
<event>
 5   0  0.4243281E-05  0.1400073E+04  0.7818609E-02  0.8953765E-01
       -2   -1    0    0    0  501  0.00000000000E+00  0.00000000000E+00  0.92773104719E+03  0.92773104720E+03  0.25500000920E-02 0.  1.
        2   -1    0    0  501    0  0.00000000000E+00  0.00000000000E+00 -0.52822568240E+03  0.52822568241E+03  0.25500000920E-02 0. -1.
    10030    2    1    2    0    0  0.00000000000E+00  0.00000000000E+00  0.39950536479E+03  0.14559567296E+04  0.14000733774E+04 0.  0.
        2    1    3    3  502    0 -0.29094758302E+03 -0.56047234258E+03 -0.11441792841E+03  0.64177192616E+03  0.25500000920E-02 0.  1.
       -2    1    3    3    0  502  0.29094758302E+03  0.56047234258E+03  0.51392329320E+03  0.81418480344E+03  0.25500000920E-02 0. -1.
</event>
<event>
 5   0  0.2427569E-05  0.1399918E+04  0.7818609E-02  0.8953878E-01
       -1   -1    0    0    0  501  0.00000000000E+00  0.00000000000E+00  0.36899257972E+03  0.36899257975E+03  0.50400001928E-02 0.  1.
        1   -1    0    0  501    0  0.00000000000E+00  0.00000000000E+00 -0.13277852416E+04  0.13277852416E+04  0.50400001928E-02 0. -1.
    10030    2    1    2    0    0  0.00000000000E+00  0.00000000000E+00 -0.95879266191E+03  0.16967778214E+04  0.13999184286E+04 0.  0.
        1    1    3    3  502    0 -0.40429899605E+03  0.18544131412E+03  0.17567049302E+03  0.47823245534E+03  0.50400001928E-02 0.  1.
       -1    1    3    3    0  502  0.40429899605E+03 -0.18544131412E+03 -0.11344631549E+04  0.12185453661E+04  0.50400001928E-02 0. -1.
</event>
<event>
 5   0  0.4243281E-05  0.1399827E+04  0.7818609E-02  0.8953943E-01
       -2   -1    0    0    0  501  0.00000000000E+00  0.00000000000E+00  0.53320496866E+03  0.53320496866E+03  0.25500000920E-02 0. -1.
        2   -1    0    0  501    0  0.00000000000E+00  0.00000000000E+00 -0.91874466025E+03  0.91874466025E+03  0.25500000920E-02 0.  1.
    10030    2    1    2    0    0  0.00000000000E+00  0.00000000000E+00 -0.38553969159E+03  0.14519496289E+04  0.13998274433E+04 0.  0.
        2    1    3    3  502    0  0.25250263646E+03  0.65218176762E+03 -0.22174897235E+03  0.73366971192E+03  0.25500000920E-02 0.  1.
       -2    1    3    3    0  502 -0.25250263646E+03 -0.65218176762E+03 -0.16379071925E+03  0.71827991700E+03  0.25500000920E-02 0. -1.
</event>
<event>
 5   0  0.4243281E-05  0.1404263E+04  0.7818609E-02  0.8950739E-01
        2   -1    0    0  501    0  0.00000000000E+00  0.00000000000E+00  0.98121288649E+03  0.98121288649E+03  0.25500000920E-02 0.  1.
       -2   -1    0    0    0  501  0.00000000000E+00  0.00000000000E+00 -0.50242766967E+03  0.50242766968E+03  0.25500000920E-02 0. -1.
    10030    2    1    2    0    0  0.00000000000E+00  0.00000000000E+00  0.47878521681E+03  0.14836405562E+04  0.14042628016E+04 0.  0.
        2    1    3    3  502    0 -0.66247397205E+03  0.14998759031E+03  0.51519587778E+02  0.68119182968E+03  0.25500000920E-02 0.  1.
       -2    1    3    3    0  502  0.66247397205E+03 -0.14998759031E+03  0.42726562903E+03  0.80244872649E+03  0.25500000920E-02 0. -1.
</event>
<event>
 5   0  0.4243281E-05  0.1399428E+04  0.7818609E-02  0.8954233E-01
       -2   -1    0    0    0  501  0.00000000000E+00  0.00000000000E+00  0.48743301647E+03  0.48743301648E+03  0.25500000920E-02 0.  1.
        2   -1    0    0  501    0  0.00000000000E+00  0.00000000000E+00 -0.10044449540E+04  0.10044449540E+04  0.25500000920E-02 0. -1.
    10030    2    1    2    0    0  0.00000000000E+00  0.00000000000E+00 -0.51701193757E+03  0.14918779705E+04  0.13994279315E+04 0.  0.
        2    1    3    3  502    0 -0.20914861091E+03 -0.53241161835E+03  0.17109795133E+03  0.59705927826E+03  0.25500000920E-02 0.  1.
       -2    1    3    3    0  502  0.20914861091E+03  0.53241161835E+03 -0.68810988890E+03  0.89481869226E+03  0.25500000920E-02 0. -1.
</event>
<event>
 5   0  0.4460282E-05  0.1400045E+04  0.7818609E-02  0.8953786E-01
        2   -1    0    0  501    0  0.00000000000E+00  0.00000000000E+00  0.10657899107E+04  0.10657899107E+04  0.25500000920E-02 0.  1.
       -2   -1    0    0    0  501  0.00000000000E+00  0.00000000000E+00 -0.45978226517E+03  0.45978226518E+03  0.25500000920E-02 0. -1.
    10030    2    1    2    0    0  0.00000000000E+00  0.00000000000E+00  0.60600764553E+03  0.15255721759E+04  0.14000447126E+04 0.  0.
        1    1    3    3  502    0  0.30212938555E+03  0.46233973593E+02 -0.38323223506E+03  0.49019046497E+03  0.50400001928E-02 0. -1.
       -1    1    3    3    0  502 -0.30212938555E+03 -0.46233973593E+02  0.98923988060E+03  0.10353817109E+04  0.50400001928E-02 0.  1.
</event>
<event>
 5   0  0.2363419E-05  0.1400083E+04  0.7818609E-02  0.8953759E-01
       -1   -1    0    0    0  501  0.00000000000E+00  0.00000000000E+00  0.35268448748E+03  0.35268448751E+03  0.50400001928E-02 0. -1.
        1   -1    0    0  501    0  0.00000000000E+00  0.00000000000E+00 -0.13895078313E+04  0.13895078313E+04  0.50400001928E-02 0.  1.
    10030    2    1    2    0    0  0.00000000000E+00  0.00000000000E+00 -0.10368233438E+04  0.17421923188E+04  0.14000826509E+04 0.  0.
        2    1    3    3  502    0  0.44542689272E+03  0.41160192831E+03 -0.83357798923E+02  0.61218443855E+03  0.25500000920E-02 0.  1.
       -2    1    3    3    0  502 -0.44542689272E+03 -0.41160192831E+03 -0.95346554486E+03  0.11300078802E+04  0.25500000920E-02 0. -1.
</event>
<event>
 5   0  0.4527503E-05  0.1400192E+04  0.7818609E-02  0.8953680E-01
       -2   -1    0    0    0  501  0.00000000000E+00  0.00000000000E+00  0.53238922365E+03  0.53238922366E+03  0.25500000920E-02 0.  1.
        2   -1    0    0  501    0  0.00000000000E+00  0.00000000000E+00 -0.92063150546E+03  0.92063150547E+03  0.25500000920E-02 0. -1.
    10030    2    1    2    0    0  0.00000000000E+00  0.00000000000E+00 -0.38824228182E+03  0.14530207291E+04  0.14001918332E+04 0.  0.
        4    1    3    3  502    0 -0.28226472974E+03  0.52787972425E+03 -0.57086463565E+03  0.82717496702E+03  0.12699999809E+01 0. -1.
       -4    1    3    3    0  502  0.28226472974E+03 -0.52787972425E+03  0.18262235383E+03  0.62584576211E+03  0.12699999809E+01 0.  1.
</event>
<event>
 5   0  0.4621450E-05  0.1399915E+04  0.7818609E-02  0.8953880E-01
       -2   -1    0    0    0  501  0.00000000000E+00  0.00000000000E+00  0.59043013460E+03  0.59043013461E+03  0.25500000920E-02 0. -1.
        2   -1    0    0  501    0  0.00000000000E+00  0.00000000000E+00 -0.82980268560E+03  0.82980268560E+03  0.25500000920E-02 0.  1.
    10030    2    1    2    0    0  0.00000000000E+00  0.00000000000E+00 -0.23937255099E+03  0.14202328202E+04  0.13999150136E+04 0.  0.
        5    1    3    3  502    0  0.36576874240E+03  0.39819081443E+03  0.33125985439E+03  0.63411188188E+03  0.46999998093E+01 0. -1.
       -5    1    3    3    0  502 -0.36576874240E+03 -0.39819081443E+03 -0.57063240538E+03  0.78612093833E+03  0.46999998093E+01 0.  1.
</event>
<event>
 5   0  0.2467303E-05  0.1399405E+04  0.7818609E-02  0.8954249E-01
       -1   -1    0    0    0  501  0.00000000000E+00  0.00000000000E+00  0.54051785198E+03  0.54051785200E+03  0.50400001928E-02 0. -1.
        1   -1    0    0  501    0  0.00000000000E+00  0.00000000000E+00 -0.90576772573E+03  0.90576772575E+03  0.50400001928E-02 0.  1.
    10030    2    1    2    0    0  0.00000000000E+00  0.00000000000E+00 -0.36524987375E+03  0.14462855778E+04  0.13994050529E+04 0.  0.
        3    1    3    3  502    0 -0.18351066801E+03  0.26343905384E+03 -0.82514911773E+03  0.88540802857E+03  0.10100000352E+00 0.  1.
       -3    1    3    3    0  502  0.18351066801E+03 -0.26343905384E+03  0.45989924398E+03  0.56087754918E+03  0.10100000352E+00 0. -1.
</event>
<event>
 5   0  0.4621450E-05  0.1400078E+04  0.7818609E-02  0.8953762E-01
       -2   -1    0    0    0  501  0.00000000000E+00  0.00000000000E+00  0.34299473023E+03  0.34299473024E+03  0.25500000920E-02 0.  1.
        2   -1    0    0  501    0  0.00000000000E+00  0.00000000000E+00 -0.14287529995E+04  0.14287529995E+04  0.25500000920E-02 0. -1.
    10030    2    1    2    0    0  0.00000000000E+00  0.00000000000E+00 -0.10857582692E+04  0.17717477297E+04  0.14000782116E+04 0.  0.
        5    1    3    3  502    0 -0.57632709781E+03 -0.37498544434E+03 -0.37659872498E+03  0.78397429600E+03  0.46999998093E+01 0.  1.
       -5    1    3    3    0  502  0.57632709781E+03  0.37498544434E+03 -0.70915954426E+03  0.98777343371E+03  0.46999998093E+01 0. -1.
</event>
<event>
 5   0  0.2316714E-05  0.1401173E+04  0.7818609E-02  0.8952970E-01
        1   -1    0    0  501    0  0.00000000000E+00  0.00000000000E+00  0.59760663216E+03  0.59760663218E+03  0.50400001928E-02 0. -1.
       -1   -1    0    0    0  501  0.00000000000E+00  0.00000000000E+00 -0.82131155051E+03  0.82131155052E+03  0.50400001928E-02 0.  1.
    10030    2    1    2    0    0  0.00000000000E+00  0.00000000000E+00 -0.22370491835E+03  0.14189181827E+04  0.14011726941E+04 0.  0.
        5    1    3    3  502    0  0.57207639873E+03  0.11685929627E+03  0.28018305983E+03  0.64765124730E+03  0.46999998093E+01 0. -1.
       -5    1    3    3    0  502 -0.57207639873E+03 -0.11685929627E+03 -0.50388797818E+03  0.77126693541E+03  0.46999998093E+01 0.  1.
</event>
<event>
 5   0  0.4621450E-05  0.1399607E+04  0.7818609E-02  0.8954103E-01
        2   -1    0    0  501    0  0.00000000000E+00  0.00000000000E+00  0.19093999474E+04  0.19093999474E+04  0.25500000920E-02 0.  1.
       -2   -1    0    0    0  501  0.00000000000E+00  0.00000000000E+00 -0.25648096911E+03  0.25648096912E+03  0.25500000920E-02 0. -1.
    10030    2    1    2    0    0  0.00000000000E+00  0.00000000000E+00  0.16529189783E+04  0.21658809166E+04  0.13996067290E+04 0.  0.
        5    1    3    3  502    0 -0.35490094497E+02 -0.58831395299E+03  0.14102761437E+04  0.15284874044E+04  0.46999998093E+01 0.  1.
       -5    1    3    3    0  502  0.35490094497E+02  0.58831395299E+03  0.24264283466E+03  0.63739351213E+03  0.46999998093E+01 0. -1.
</event>
<event>
 5   0  0.4243281E-05  0.1400645E+04  0.7818609E-02  0.8953352E-01
       -2   -1    0    0    0  501  0.00000000000E+00  0.00000000000E+00  0.53345552046E+03  0.53345552047E+03  0.25500000920E-02 0.  1.
        2   -1    0    0  501    0  0.00000000000E+00  0.00000000000E+00 -0.91938607052E+03  0.91938607053E+03  0.25500000920E-02 0. -1.
    10030    2    1    2    0    0  0.00000000000E+00  0.00000000000E+00 -0.38593055006E+03  0.14528415910E+04  0.14006449582E+04 0.  0.
        2    1    3    3  502    0  0.38124109275E+03  0.37687852249E+03  0.27446025226E+03  0.60225461525E+03  0.25500000920E-02 0.  1.
       -2    1    3    3    0  502 -0.38124109275E+03 -0.37687852249E+03 -0.66039080232E+03  0.85058697574E+03  0.25500000920E-02 0. -1.
</event>
<event>
 5   0  0.2427569E-05  0.1399731E+04  0.7818609E-02  0.8954013E-01
       -1   -1    0    0    0  501  0.00000000000E+00  0.00000000000E+00  0.43176347502E+03  0.43176347505E+03  0.50400001928E-02 0.  1.
        1   -1    0    0  501    0  0.00000000000E+00  0.00000000000E+00 -0.11344442253E+04  0.11344442253E+04  0.50400001928E-02 0. -1.
    10030    2    1    2    0    0  0.00000000000E+00  0.00000000000E+00 -0.70268075028E+03  0.15662077004E+04  0.13997308041E+04 0.  0.
        1    1    3    3  502    0 -0.47204496441E+03 -0.24561190065E+03 -0.86000668021E+03  0.10113175289E+04  0.50400001928E-02 0. -1.
       -1    1    3    3    0  502  0.47204496441E+03  0.24561190065E+03  0.15732592993E+03  0.55489017149E+03  0.50400001928E-02 0.  1.
</event>
<event>
 5   0  0.2467303E-05  0.1393210E+04  0.7818609E-02  0.8958748E-01
       -1   -1    0    0    0  501  0.00000000000E+00  0.00000000000E+00  0.66395257315E+03  0.66395257317E+03  0.50400001928E-02 0.  1.
        1   -1    0    0  501    0  0.00000000000E+00  0.00000000000E+00 -0.73086329923E+03  0.73086329924E+03  0.50400001928E-02 0. -1.
    10030    2    1    2    0    0  0.00000000000E+00  0.00000000000E+00 -0.66910726073E+02  0.13948158724E+04  0.13932100605E+04 0.  0.
        3    1    3    3  502    0 -0.17892194870E+03 -0.10423841251E+03  0.63242766577E+03  0.66546485482E+03  0.10100000352E+00 0.  1.
       -3    1    3    3    0  502  0.17892194870E+03  0.10423841251E+03 -0.69933839184E+03  0.72935101760E+03  0.10100000352E+00 0. -1.
</event>
<event>
 5   0  0.4527503E-05  0.1400107E+04  0.7818609E-02  0.8953741E-01
        2   -1    0    0  501    0  0.00000000000E+00  0.00000000000E+00  0.12373025895E+04  0.12373025895E+04  0.25500000920E-02 0.  1.
       -2   -1    0    0    0  501  0.00000000000E+00  0.00000000000E+00 -0.39608317743E+03  0.39608317744E+03  0.25500000920E-02 0. -1.
    10030    2    1    2    0    0  0.00000000000E+00  0.00000000000E+00  0.84121941206E+03  0.16333857669E+04  0.14001067689E+04 0.  0.
        4    1    3    3  502    0 -0.43237544557E+02  0.40031939163E+03 -0.24747283621E+03  0.47261984526E+03  0.12699999809E+01 0. -1.
       -4    1    3    3    0  502  0.43237544557E+02 -0.40031939163E+03  0.10886922483E+04  0.11607659217E+04  0.12699999809E+01 0.  1.
</event>
<event>
 5   0  0.4527503E-05  0.1400333E+04  0.7818609E-02  0.8953577E-01
        2   -1    0    0  501    0  0.00000000000E+00  0.00000000000E+00  0.11496863918E+04  0.11496863918E+04  0.25500000920E-02 0. -1.
       -2   -1    0    0    0  501  0.00000000000E+00  0.00000000000E+00 -0.42640600502E+03  0.42640600503E+03  0.25500000920E-02 0.  1.
    10030    2    1    2    0    0  0.00000000000E+00  0.00000000000E+00  0.72328038679E+03  0.15760923968E+04  0.14003330766E+04 0.  0.
        4    1    3    3  502    0 -0.52570177910E+03  0.31605337343E+03 -0.18342353377E+02  0.61366941445E+03  0.12699999809E+01 0.  1.
       -4    1    3    3    0  502  0.52570177910E+03 -0.31605337343E+03  0.74162274016E+03  0.96242298239E+03  0.12699999809E+01 0. -1.
</event>
<event>
 5   0  0.4460282E-05  0.1395701E+04  0.7818609E-02  0.8956936E-01
       -2   -1    0    0    0  501  0.00000000000E+00  0.00000000000E+00  0.39884862907E+03  0.39884862908E+03  0.25500000920E-02 0. -1.
        2   -1    0    0  501    0  0.00000000000E+00  0.00000000000E+00 -0.12210025296E+04  0.12210025296E+04  0.25500000920E-02 0.  1.
    10030    2    1    2    0    0  0.00000000000E+00  0.00000000000E+00 -0.82215390058E+03  0.16198511587E+04  0.13957008061E+04 0.  0.
        1    1    3    3  502    0 -0.37605260372E+02 -0.10044864748E+03 -0.12113790884E+04  0.12161181613E+04  0.50400001928E-02 0.  1.
       -1    1    3    3    0  502  0.37605260372E+02  0.10044864748E+03  0.38922518780E+03  0.40373299745E+03  0.50400001928E-02 0. -1.
</event>
<event>
 5   0  0.1661000E-05  0.1399557E+04  0.7818609E-02  0.8954139E-01
        4   -1    0    0  501    0  0.00000000000E+00  0.00000000000E+00  0.13709975272E+04  0.13709981154E+04  0.12699999809E+01 0.  1.
       -4   -1    0    0    0  501  0.00000000000E+00  0.00000000000E+00 -0.35717620221E+03  0.35717846005E+03  0.12699999809E+01 0. -1.
    10030    2    1    2    0    0  0.00000000000E+00  0.00000000000E+00  0.10138213250E+04  0.17281765755E+04  0.13995572861E+04 0.  0.
        2    1    3    3  502    0  0.54642057149E+03 -0.39683113510E+03  0.73338754042E+03  0.99694918385E+03  0.25500000920E-02 0. -1.
       -2    1    3    3    0  502 -0.54642057149E+03  0.39683113510E+03  0.28043378457E+03  0.73122739162E+03  0.25500000920E-02 0.  1.
</event>
<event>
 5   0  0.2467303E-05  0.1400084E+04  0.7818609E-02  0.8953757E-01
        1   -1    0    0  501    0  0.00000000000E+00  0.00000000000E+00  0.18098419600E+04  0.18098419600E+04  0.50400001928E-02 0. -1.
       -1   -1    0    0    0  501  0.00000000000E+00  0.00000000000E+00 -0.27077454634E+03  0.27077454638E+03  0.50400001928E-02 0.  1.
    10030    2    1    2    0    0  0.00000000000E+00  0.00000000000E+00  0.15390674137E+04  0.20806165064E+04  0.14000844770E+04 0.  0.
        3    1    3    3  502    0  0.38567265571E+03 -0.52990081832E+03  0.11351203428E+04  0.13107389052E+04  0.10100000352E+00 0. -1.
       -3    1    3    3    0  502 -0.38567265571E+03  0.52990081832E+03  0.40394707082E+03  0.76987760121E+03  0.10100000352E+00 0.  1.
</event>
<event>
 5   0  0.2427569E-05  0.1400110E+04  0.7818609E-02  0.8953739E-01
       -1   -1    0    0    0  501  0.00000000000E+00  0.00000000000E+00  0.47481293620E+03  0.47481293623E+03  0.50400001928E-02 0.  1.
        1   -1    0    0  501    0  0.00000000000E+00  0.00000000000E+00 -0.10321469570E+04  0.10321469570E+04  0.50400001928E-02 0. -1.
    10030    2    1    2    0    0  0.00000000000E+00  0.00000000000E+00 -0.55733402083E+03  0.15069598933E+04  0.14001096061E+04 0.  0.
        1    1    3    3  502    0 -0.24805221353E+03 -0.48784615044E+03  0.19117030737E+03  0.57971532116E+03  0.50400001928E-02 0.  1.
       -1    1    3    3    0  502  0.24805221353E+03  0.48784615044E+03 -0.74850432820E+03  0.92724457211E+03  0.50400001928E-02 0. -1.
</event>
<event>
 5   0  0.4243281E-05  0.1400121E+04  0.7818609E-02  0.8953731E-01
       -2   -1    0    0    0  501  0.00000000000E+00  0.00000000000E+00  0.38273750431E+03  0.38273750432E+03  0.25500000920E-02 0. -1.
        2   -1    0    0  501    0  0.00000000000E+00  0.00000000000E+00 -0.12804726689E+04  0.12804726689E+04  0.25500000920E-02 0.  1.
    10030    2    1    2    0    0  0.00000000000E+00  0.00000000000E+00 -0.89773516460E+03  0.16632101732E+04  0.14001213000E+04 0.  0.
        2    1    3    3  502    0  0.37282267630E+03  0.39775186810E+03  0.72839688622E+02  0.55000810611E+03  0.25500000920E-02 0. -1.
       -2    1    3    3    0  502 -0.37282267630E+03 -0.39775186810E+03 -0.97057485322E+03  0.11132020671E+04  0.25500000920E-02 0.  1.
</event>
<event>
 5   0  0.2316714E-05  0.1389566E+04  0.7818609E-02  0.8961406E-01
       -1   -1    0    0    0  501  0.00000000000E+00  0.00000000000E+00  0.54068427038E+03  0.54068427040E+03  0.50400001928E-02 0. -1.
        1   -1    0    0  501    0  0.00000000000E+00  0.00000000000E+00 -0.89280029095E+03  0.89280029096E+03  0.50400001928E-02 0.  1.
    10030    2    1    2    0    0  0.00000000000E+00  0.00000000000E+00 -0.35211602057E+03  0.14334845614E+04  0.13895655061E+04 0.  0.
        5    1    3    3  502    0  0.38005818439E+03  0.23549971567E+03  0.37253607512E+03  0.58198759167E+03  0.46999998093E+01 0.  1.
       -5    1    3    3    0  502 -0.38005818439E+03 -0.23549971567E+03 -0.72465209569E+03  0.85149696969E+03  0.46999998093E+01 0. -1.
</event>
<event>
 5   0  0.2467303E-05  0.1401005E+04  0.7818609E-02  0.8953092E-01
       -1   -1    0    0    0  501  0.00000000000E+00  0.00000000000E+00  0.61415374713E+03  0.61415374715E+03  0.50400001928E-02 0.  1.
        1   -1    0    0  501    0  0.00000000000E+00  0.00000000000E+00 -0.79899135696E+03  0.79899135697E+03  0.50400001928E-02 0. -1.
    10030    2    1    2    0    0  0.00000000000E+00  0.00000000000E+00 -0.18483760983E+03  0.14131451041E+04  0.14010046907E+04 0.  0.
        3    1    3    3  502    0  0.42984053816E+03  0.25571346049E+03  0.40229153779E+03  0.64186505880E+03  0.10100000352E+00 0.  1.
       -3    1    3    3    0  502 -0.42984053816E+03 -0.25571346049E+03 -0.58712914763E+03  0.77128004532E+03  0.10100000352E+00 0. -1.
</event>
<event>
 5   0  0.2363419E-05  0.1399622E+04  0.7818609E-02  0.8954092E-01
       -1   -1    0    0    0  501  0.00000000000E+00  0.00000000000E+00  0.69459073333E+03  0.69459073334E+03  0.50400001928E-02 0.  1.
        1   -1    0    0  501    0  0.00000000000E+00  0.00000000000E+00 -0.70507066894E+03  0.70507066896E+03  0.50400001928E-02 0. -1.
    10030    2    1    2    0    0  0.00000000000E+00  0.00000000000E+00 -0.10479935612E+02  0.13996614023E+04  0.13996221676E+04 0.  0.
        2    1    3    3  502    0 -0.25809602635E+03 -0.47318949719E+03  0.44110615680E+03  0.69648869383E+03  0.25500000920E-02 0. -1.
       -2    1    3    3    0  502  0.25809602635E+03  0.47318949719E+03 -0.45158609241E+03  0.70317270847E+03  0.25500000920E-02 0.  1.
</event>
<event>
 5   0  0.4243281E-05  0.1400053E+04  0.7818609E-02  0.8953780E-01
       -2   -1    0    0    0  501  0.00000000000E+00  0.00000000000E+00  0.53666154163E+03  0.53666154164E+03  0.25500000920E-02 0.  1.
        2   -1    0    0  501    0  0.00000000000E+00  0.00000000000E+00 -0.91312121500E+03  0.91312121501E+03  0.25500000920E-02 0. -1.
    10030    2    1    2    0    0  0.00000000000E+00  0.00000000000E+00 -0.37645967337E+03  0.14497827566E+04  0.14000529118E+04 0.  0.
        2    1    3    3  502    0 -0.76771055395E+02  0.31574857841E+03  0.45383102746E+03  0.55816983187E+03  0.25500000920E-02 0.  1.
       -2    1    3    3    0  502  0.76771055395E+02 -0.31574857841E+03 -0.83029070084E+03  0.89161292477E+03  0.25500000920E-02 0. -1.
</event>
<event>
 5   0  0.4441253E-05  0.1399580E+04  0.7818609E-02  0.8954122E-01
       -2   -1    0    0    0  501  0.00000000000E+00  0.00000000000E+00  0.29856665908E+03  0.29856665909E+03  0.25500000920E-02 0. -1.
        2   -1    0    0  501    0  0.00000000000E+00  0.00000000000E+00 -0.16401908462E+04  0.16401908462E+04  0.25500000920E-02 0.  1.
    10030    2    1    2    0    0  0.00000000000E+00  0.00000000000E+00 -0.13416241872E+04  0.19387575053E+04  0.13995803674E+04 0.  0.
        3    1    3    3  502    0  0.24151130259E+03  0.50527153475E+03 -0.89539629841E+02  0.56713701045E+03  0.10100000352E+00 0.  1.
       -3    1    3    3    0  502 -0.24151130259E+03 -0.50527153475E+03 -0.12520845573E+04  0.13716204949E+04  0.10100000352E+00 0. -1.
</event>
<event>
 5   0  0.2316714E-05  0.1399582E+04  0.7818609E-02  0.8954121E-01
        1   -1    0    0  501    0  0.00000000000E+00  0.00000000000E+00  0.81300192028E+03  0.81300192030E+03  0.50400001928E-02 0. -1.
       -1   -1    0    0    0  501  0.00000000000E+00  0.00000000000E+00 -0.60234441055E+03  0.60234441057E+03  0.50400001928E-02 0.  1.
    10030    2    1    2    0    0  0.00000000000E+00  0.00000000000E+00  0.21065750973E+03  0.14153463309E+04  0.13995815982E+04 0.  0.
        5    1    3    3  502    0  0.53430641513E+03 -0.36416277296E+03  0.37590034493E+03  0.74794453656E+03  0.46999998093E+01 0. -1.
       -5    1    3    3    0  502 -0.53430641513E+03  0.36416277296E+03 -0.16524283519E+03  0.66740179430E+03  0.46999998093E+01 0.  1.
</event>
<event>
 5   0  0.2427569E-05  0.1404947E+04  0.7818609E-02  0.8950245E-01
       -1   -1    0    0    0  501  0.00000000000E+00  0.00000000000E+00  0.37087538845E+03  0.37087538849E+03  0.50400001928E-02 0.  1.
        1   -1    0    0  501    0  0.00000000000E+00  0.00000000000E+00 -0.13305528264E+04  0.13305528264E+04  0.50400001928E-02 0. -1.
    10030    2    1    2    0    0  0.00000000000E+00  0.00000000000E+00 -0.95967743797E+03  0.17014282149E+04  0.14049473960E+04 0.  0.
        1    1    3    3  502    0  0.65626972039E+03  0.25054416305E+03 -0.48303656851E+03  0.85251782978E+03  0.50400001928E-02 0.  1.
       -1    1    3    3    0  502 -0.65626972039E+03 -0.25054416305E+03 -0.47664086945E+03  0.84891038514E+03  0.50400001928E-02 0. -1.
</event>
<event>
 5   0  0.2467303E-05  0.1399933E+04  0.7818609E-02  0.8953867E-01
       -1   -1    0    0    0  501  0.00000000000E+00  0.00000000000E+00  0.31847151461E+03  0.31847151465E+03  0.50400001928E-02 0.  1.
        1   -1    0    0  501    0  0.00000000000E+00  0.00000000000E+00 -0.15384523097E+04  0.15384523097E+04  0.50400001928E-02 0. -1.
    10030    2    1    2    0    0  0.00000000000E+00  0.00000000000E+00 -0.12199807951E+04  0.18569238243E+04  0.13999331945E+04 0.  0.
        3    1    3    3  502    0 -0.60536425396E+03  0.29138198226E+02 -0.10745055228E+04  0.12336438073E+04  0.10100000352E+00 0. -1.
       -3    1    3    3    0  502  0.60536425396E+03 -0.29138198226E+02 -0.14547527223E+03  0.62328001700E+03  0.10100000352E+00 0.  1.
</event>
<event>
 5   0  0.4621450E-05  0.1400511E+04  0.7818609E-02  0.8953449E-01
        2   -1    0    0  501    0  0.00000000000E+00  0.00000000000E+00  0.10654349164E+04  0.10654349164E+04  0.25500000920E-02 0. -1.
       -2   -1    0    0    0  501  0.00000000000E+00  0.00000000000E+00 -0.46024198116E+03  0.46024198117E+03  0.25500000920E-02 0.  1.
    10030    2    1    2    0    0  0.00000000000E+00  0.00000000000E+00  0.60519293528E+03  0.15256768976E+04  0.14005111592E+04 0.  0.
        5    1    3    3  502    0 -0.29447057433E+03  0.18592132018E+02  0.99439212440E+03  0.10372542473E+04  0.46999998093E+01 0. -1.
       -5    1    3    3    0  502  0.29447057433E+03 -0.18592132018E+02 -0.38919918912E+03  0.48842265030E+03  0.46999998093E+01 0.  1.
</event>
<event>
 5   0  0.1661000E-05  0.1399470E+04  0.7818609E-02  0.8954202E-01
       -3   -1    0    0    0  501  0.00000000000E+00  0.00000000000E+00  0.12110138736E+04  0.12110138778E+04  0.10100000352E+00 0.  1.
        3   -1    0    0  501    0  0.00000000000E+00  0.00000000000E+00 -0.40431354735E+03  0.40431355997E+03  0.10100000352E+00 0. -1.
    10030    2    1    2    0    0  0.00000000000E+00  0.00000000000E+00  0.80670032627E+03  0.16153274378E+04  0.13994703694E+04 0.  0.
        4    1    3    3  502    0  0.55833449232E+03 -0.26978468894E+03  0.29143327973E+02  0.62078348091E+03  0.12699999809E+01 0. -1.
       -4    1    3    3    0  502 -0.55833449232E+03  0.26978468894E+03  0.77755699830E+03  0.99454395690E+03  0.12699999809E+01 0.  1.
</event>
<event>
 5   0  0.4243281E-05  0.1398596E+04  0.7818609E-02  0.8954836E-01
       -2   -1    0    0    0  501  0.00000000000E+00  0.00000000000E+00  0.54556033361E+03  0.54556033361E+03  0.25500000920E-02 0.  1.
        2   -1    0    0  501    0  0.00000000000E+00  0.00000000000E+00 -0.89635807422E+03  0.89635807422E+03  0.25500000920E-02 0. -1.
    10030    2    1    2    0    0  0.00000000000E+00  0.00000000000E+00 -0.35079774061E+03  0.14419184078E+04  0.13985955956E+04 0.  0.
        2    1    3    3  502    0 -0.19141077760E+03 -0.65199617418E+02 -0.86555878607E+03  0.88886505615E+03  0.25500000920E-02 0. -1.
       -2    1    3    3    0  502  0.19141077760E+03  0.65199617418E+02  0.51476104546E+03  0.55305335169E+03  0.25500000920E-02 0.  1.
</event>
<event>
 5   0  0.4243281E-05  0.1400451E+04  0.7818609E-02  0.8953492E-01
        2   -1    0    0  501    0  0.00000000000E+00  0.00000000000E+00  0.10421611999E+04  0.10421611999E+04  0.25500000920E-02 0. -1.
       -2   -1    0    0    0  501  0.00000000000E+00  0.00000000000E+00 -0.47047982154E+03  0.47047982155E+03  0.25500000920E-02 0.  1.
    10030    2    1    2    0    0  0.00000000000E+00  0.00000000000E+00  0.57168137832E+03  0.15126410214E+04  0.14004510921E+04 0.  0.
        2    1    3    3  502    0 -0.48100424438E+03 -0.36969800428E+03  0.66353043710E+03  0.89906303363E+03  0.25500000920E-02 0.  1.
       -2    1    3    3    0  502  0.48100424438E+03  0.36969800428E+03 -0.91849058789E+02  0.61357798778E+03  0.25500000920E-02 0. -1.
</event>
<event>
 5   0  0.4621450E-05  0.1399640E+04  0.7818609E-02  0.8954079E-01
       -2   -1    0    0    0  501  0.00000000000E+00  0.00000000000E+00  0.45510602502E+03  0.45510602503E+03  0.25500000920E-02 0.  1.
        2   -1    0    0  501    0  0.00000000000E+00  0.00000000000E+00 -0.10761182281E+04  0.10761182281E+04  0.25500000920E-02 0. -1.
    10030    2    1    2    0    0  0.00000000000E+00  0.00000000000E+00 -0.62101220312E+03  0.15312242532E+04  0.13996397955E+04 0.  0.
        5    1    3    3  502    0  0.24601845818E+02 -0.55081768078E+02 -0.10732510115E+04  0.10749553831E+04  0.46999998093E+01 0. -1.
       -5    1    3    3    0  502 -0.24601845818E+02  0.55081768078E+02  0.45223880838E+03  0.45626887007E+03  0.46999998093E+01 0.  1.
</event>
<event>
 5   0  0.4460282E-05  0.1399662E+04  0.7818609E-02  0.8954064E-01
        2   -1    0    0  501    0  0.00000000000E+00  0.00000000000E+00  0.18572408199E+04  0.18572408199E+04  0.25500000920E-02 0. -1.
       -2   -1    0    0    0  501  0.00000000000E+00  0.00000000000E+00 -0.26370470012E+03  0.26370470013E+03  0.25500000920E-02 0.  1.
    10030    2    1    2    0    0  0.00000000000E+00  0.00000000000E+00  0.15935361197E+04  0.21209455200E+04  0.13996615783E+04 0.  0.
        1    1    3    3  502    0  0.52051894268E+03  0.29618284392E+03  0.13454314389E+04  0.14727016003E+04  0.50400001928E-02 0. -1.
       -1    1    3    3    0  502 -0.52051894268E+03 -0.29618284392E+03  0.24810468083E+03  0.64824391968E+03  0.50400001928E-02 0.  1.
</event>
<event>
 5   0  0.4243281E-05  0.1400266E+04  0.7818609E-02  0.8953626E-01
       -2   -1    0    0    0  501  0.00000000000E+00  0.00000000000E+00  0.58168218465E+03  0.58168218466E+03  0.25500000920E-02 0. -1.
        2   -1    0    0  501    0  0.00000000000E+00  0.00000000000E+00 -0.84270501464E+03  0.84270501465E+03  0.25500000920E-02 0.  1.
    10030    2    1    2    0    0  0.00000000000E+00  0.00000000000E+00 -0.26102282999E+03  0.14243871993E+04  0.14002663946E+04 0.  0.
        2    1    3    3  502    0  0.10082693234E+03 -0.48708481090E+03 -0.63171462205E+03  0.80404045110E+03  0.25500000920E-02 0.  1.
       -2    1    3    3    0  502 -0.10082693234E+03  0.48708481090E+03  0.37069179205E+03  0.62034674820E+03  0.25500000920E-02 0. -1.
</event>
<event>
 5   0  0.4460282E-05  0.1399373E+04  0.7818609E-02  0.8954272E-01
        2   -1    0    0  501    0  0.00000000000E+00  0.00000000000E+00  0.71156093465E+03  0.71156093465E+03  0.25500000920E-02 0.  1.
       -2   -1    0    0    0  501  0.00000000000E+00  0.00000000000E+00 -0.68801029244E+03  0.68801029244E+03  0.25500000920E-02 0. -1.
    10030    2    1    2    0    0  0.00000000000E+00  0.00000000000E+00  0.23550642210E+02  0.13995712271E+04  0.13993730693E+04 0.  0.
        1    1    3    3  502    0  0.23168255593E+03  0.94921337825E+01  0.67201601146E+03  0.71089551061E+03  0.50400001928E-02 0.  1.
       -1    1    3    3    0  502 -0.23168255593E+03 -0.94921337825E+01 -0.64846536925E+03  0.68867571648E+03  0.50400001928E-02 0. -1.
</event>
<event>
 5   0  0.2428507E-05  0.1400701E+04  0.7818609E-02  0.8953311E-01
        1   -1    0    0  501    0  0.00000000000E+00  0.00000000000E+00  0.61899676352E+03  0.61899676354E+03  0.50400001928E-02 0.  1.
       -1   -1    0    0    0  501  0.00000000000E+00  0.00000000000E+00 -0.79239690816E+03  0.79239690817E+03  0.50400001928E-02 0. -1.
    10030    2    1    2    0    0  0.00000000000E+00  0.00000000000E+00 -0.17340014464E+03  0.14113936717E+04  0.14007014266E+04 0.  0.
        4    1    3    3  502    0 -0.21184185765E+03 -0.50933212944E+03 -0.52149517168E+03  0.75911462752E+03  0.12699999809E+01 0. -1.
       -4    1    3    3    0  502  0.21184185765E+03  0.50933212944E+03  0.34809502704E+03  0.65227904419E+03  0.12699999809E+01 0.  1.
</event>
<event>
 5   0  0.2428507E-05  0.1400366E+04  0.7818609E-02  0.8953554E-01
        1   -1    0    0  501    0  0.00000000000E+00  0.00000000000E+00  0.10495182703E+04  0.10495182703E+04  0.50400001928E-02 0. -1.
       -1   -1    0    0    0  501  0.00000000000E+00  0.00000000000E+00 -0.46712493137E+03  0.46712493140E+03  0.50400001928E-02 0.  1.
    10030    2    1    2    0    0  0.00000000000E+00  0.00000000000E+00  0.58239333891E+03  0.15166432017E+04  0.14003658808E+04 0.  0.
        4    1    3    3  502    0  0.48082953236E+03 -0.23810753518E+03  0.77839602471E+03  0.94540690800E+03  0.12699999809E+01 0. -1.
       -4    1    3    3    0  502 -0.48082953236E+03  0.23810753518E+03 -0.19600268581E+03  0.57123629370E+03  0.12699999809E+01 0.  1.
</event>
<event>
 5   0  0.2428507E-05  0.1400013E+04  0.7818609E-02  0.8953809E-01
        1   -1    0    0  501    0  0.00000000000E+00  0.00000000000E+00  0.10217390764E+04  0.10217390764E+04  0.50400001928E-02 0. -1.
       -1   -1    0    0    0  501  0.00000000000E+00  0.00000000000E+00 -0.47958372028E+03  0.47958372031E+03  0.50400001928E-02 0.  1.
    10030    2    1    2    0    0  0.00000000000E+00  0.00000000000E+00  0.54215535609E+03  0.15013227967E+04  0.14000134677E+04 0.  0.
        4    1    3    3  502    0  0.47671959586E+03  0.12282774572E+03 -0.26258820226E+03  0.55794480468E+03  0.12699999809E+01 0.  1.
       -4    1    3    3    0  502 -0.47671959586E+03 -0.12282774572E+03  0.80474355836E+03  0.94337799201E+03  0.12699999809E+01 0. -1.
</event>
<event>
 5   0  0.4527503E-05  0.1394349E+04  0.7818609E-02  0.8957919E-01
        2   -1    0    0  501    0  0.00000000000E+00  0.00000000000E+00  0.10878448126E+04  0.10878448126E+04  0.25500000920E-02 0. -1.
       -2   -1    0    0    0  501  0.00000000000E+00  0.00000000000E+00 -0.44680284571E+03  0.44680284572E+03  0.25500000920E-02 0.  1.
    10030    2    1    2    0    0  0.00000000000E+00  0.00000000000E+00  0.64104196686E+03  0.15346476583E+04  0.13943488200E+04 0.  0.
        4    1    3    3  502    0  0.12342909461E+03 -0.10744485821E+03 -0.42536415024E+03  0.45575806319E+03  0.12699999809E+01 0.  1.
       -4    1    3    3    0  502 -0.12342909461E+03  0.10744485821E+03  0.10664061171E+04  0.10788895951E+04  0.12699999809E+01 0. -1.
</event>
<event>
 5   0  0.2316714E-05  0.1400351E+04  0.7818609E-02  0.8953565E-01
       -1   -1    0    0    0  501  0.00000000000E+00  0.00000000000E+00  0.64120014165E+03  0.64120014167E+03  0.50400001928E-02 0.  1.
        1   -1    0    0  501    0  0.00000000000E+00  0.00000000000E+00 -0.76457516034E+03  0.76457516036E+03  0.50400001928E-02 0. -1.
    10030    2    1    2    0    0  0.00000000000E+00  0.00000000000E+00 -0.12337501870E+03  0.14057753020E+04  0.14003509576E+04 0.  0.
        5    1    3    3  502    0 -0.64027021216E+03  0.14176244192E+03  0.18458106295E+03  0.68127438916E+03  0.46999998093E+01 0.  1.
       -5    1    3    3    0  502  0.64027021216E+03 -0.14176244192E+03 -0.30795608165E+03  0.72450091287E+03  0.46999998093E+01 0. -1.
</event>
<event>
 5   0  0.2363419E-05  0.1399797E+04  0.7818609E-02  0.8953965E-01
       -1   -1    0    0    0  501  0.00000000000E+00  0.00000000000E+00  0.22606393691E+03  0.22606393696E+03  0.50400001928E-02 0. -1.
        1   -1    0    0  501    0  0.00000000000E+00  0.00000000000E+00 -0.21669006863E+04  0.21669006864E+04  0.50400001928E-02 0.  1.
    10030    2    1    2    0    0  0.00000000000E+00  0.00000000000E+00 -0.19408367494E+04  0.23929646233E+04  0.13997972712E+04 0.  0.
        2    1    3    3  502    0 -0.35602492777E+03  0.45985967639E+03 -0.30473361596E+03  0.65657234778E+03  0.25500000920E-02 0. -1.
       -2    1    3    3    0  502  0.35602492777E+03 -0.45985967639E+03 -0.16361031335E+04  0.17363922755E+04  0.25500000920E-02 0.  1.
</event>
<event>
 5   0  0.2428507E-05  0.1399604E+04  0.7818609E-02  0.8954105E-01
       -1   -1    0    0    0  501  0.00000000000E+00  0.00000000000E+00  0.34232910700E+03  0.34232910704E+03  0.50400001928E-02 0. -1.
        1   -1    0    0  501    0  0.00000000000E+00  0.00000000000E+00 -0.14305623307E+04  0.14305623307E+04  0.50400001928E-02 0.  1.
    10030    2    1    2    0    0  0.00000000000E+00  0.00000000000E+00 -0.10882332237E+04  0.17728914378E+04  0.13996044087E+04 0.  0.
        4    1    3    3  502    0  0.64550379910E+03 -0.26211619210E+03 -0.62757975163E+03  0.93767692217E+03  0.12699999809E+01 0. -1.
       -4    1    3    3    0  502 -0.64550379910E+03  0.26211619210E+03 -0.46065347208E+03  0.83521451559E+03  0.12699999809E+01 0.  1.
</event>
<event>
 5   0  0.2428507E-05  0.1399198E+04  0.7818609E-02  0.8954399E-01
        1   -1    0    0  501    0  0.00000000000E+00  0.00000000000E+00  0.97421349270E+03  0.97421349271E+03  0.50400001928E-02 0.  1.
       -1   -1    0    0    0  501  0.00000000000E+00  0.00000000000E+00 -0.50239387664E+03  0.50239387666E+03  0.50400001928E-02 0. -1.
    10030    2    1    2    0    0  0.00000000000E+00  0.00000000000E+00  0.47181961606E+03  0.14766073694E+04  0.13991981894E+04 0.  0.
        4    1    3    3  502    0 -0.65087557199E+03 -0.26094038368E+02 -0.33388873661E+02  0.65225481128E+03  0.12699999809E+01 0. -1.
       -4    1    3    3    0  502  0.65087557199E+03  0.26094038368E+02  0.50520848972E+03  0.82435255810E+03  0.12699999809E+01 0.  1.
</event>
<event>
 5   0  0.4441253E-05  0.1395841E+04  0.7818609E-02  0.8956834E-01
       -2   -1    0    0    0  501  0.00000000000E+00  0.00000000000E+00  0.37394172059E+03  0.37394172059E+03  0.25500000920E-02 0. -1.
        2   -1    0    0  501    0  0.00000000000E+00  0.00000000000E+00 -0.13025914850E+04  0.13025914850E+04  0.25500000920E-02 0.  1.
    10030    2    1    2    0    0  0.00000000000E+00  0.00000000000E+00 -0.92864976438E+03  0.16765332056E+04  0.13958413966E+04 0.  0.
        3    1    3    3  502    0 -0.20725907222E+03 -0.19513584682E+03 -0.12296934794E+04  0.12622124961E+04  0.10100000352E+00 0.  1.
       -3    1    3    3    0  502  0.20725907222E+03  0.19513584682E+03  0.30104371505E+03  0.41432070948E+03  0.10100000352E+00 0. -1.
</event>
<event>
 5   0  0.2363419E-05  0.1399994E+04  0.7818609E-02  0.8953823E-01
       -1   -1    0    0    0  501  0.00000000000E+00  0.00000000000E+00  0.33044792506E+03  0.33044792510E+03  0.50400001928E-02 0. -1.
        1   -1    0    0  501    0  0.00000000000E+00  0.00000000000E+00 -0.14828225124E+04  0.14828225124E+04  0.50400001928E-02 0.  1.
    10030    2    1    2    0    0  0.00000000000E+00  0.00000000000E+00 -0.11523745874E+04  0.18132704375E+04  0.13999937464E+04 0.  0.
        2    1    3    3  502    0  0.48473840123E+01  0.19841440670E+03  0.29324132924E+03  0.35409356263E+03  0.25500000920E-02 0. -1.
       -2    1    3    3    0  502 -0.48473840123E+01 -0.19841440670E+03 -0.14456159166E+04  0.14591768749E+04  0.25500000920E-02 0.  1.
</event>
<event>
 5   0  0.4441253E-05  0.1399070E+04  0.7818609E-02  0.8954492E-01
        2   -1    0    0  501    0  0.00000000000E+00  0.00000000000E+00  0.37891902508E+03  0.37891902509E+03  0.25500000920E-02 0.  1.
       -2   -1    0    0    0  501  0.00000000000E+00  0.00000000000E+00 -0.12914347138E+04  0.12914347138E+04  0.25500000920E-02 0. -1.
    10030    2    1    2    0    0  0.00000000000E+00  0.00000000000E+00 -0.91251568867E+03  0.16703537388E+04  0.13990699521E+04 0.  0.
        3    1    3    3  502    0 -0.58031620680E+03  0.38748077635E+03 -0.39727226515E+03  0.80295299662E+03  0.10100000352E+00 0.  1.
       -3    1    3    3    0  502  0.58031620680E+03 -0.38748077635E+03 -0.51524342353E+03  0.86740074222E+03  0.10100000352E+00 0. -1.
</event>
<event>
 5   0  0.2316714E-05  0.1399499E+04  0.7818609E-02  0.8954181E-01
        1   -1    0    0  501    0  0.00000000000E+00  0.00000000000E+00  0.99880149374E+03  0.99880149376E+03  0.50400001928E-02 0. -1.
       -1   -1    0    0    0  501  0.00000000000E+00  0.00000000000E+00 -0.49023683253E+03  0.49023683256E+03  0.50400001928E-02 0.  1.
    10030    2    1    2    0    0  0.00000000000E+00  0.00000000000E+00  0.50856466121E+03  0.14890383263E+04  0.13994988827E+04 0.  0.
        5    1    3    3  502    0 -0.41439503821E+03  0.21217419372E+03  0.81008930382E+03  0.93434892109E+03  0.46999998093E+01 0. -1.
       -5    1    3    3    0  502  0.41439503821E+03 -0.21217419372E+03 -0.30152464261E+03  0.55468940523E+03  0.46999998093E+01 0.  1.
</event>
<event>
 5   0  0.4441253E-05  0.1399696E+04  0.7818609E-02  0.8954039E-01
       -2   -1    0    0    0  501  0.00000000000E+00  0.00000000000E+00  0.70371144842E+03  0.70371144842E+03  0.25500000920E-02 0.  1.
        2   -1    0    0  501    0  0.00000000000E+00  0.00000000000E+00 -0.69600589826E+03  0.69600589826E+03  0.25500000920E-02 0. -1.
    10030    2    1    2    0    0  0.00000000000E+00  0.00000000000E+00  0.77055501564E+01  0.13997173467E+04  0.13996961367E+04 0.  0.
        3    1    3    3  502    0  0.25843797102E+03  0.65037647699E+03  0.11028452445E+01  0.69984353477E+03  0.10100000352E+00 0. -1.
       -3    1    3    3    0  502 -0.25843797102E+03 -0.65037647699E+03  0.66027049119E+01  0.69987381191E+03  0.10100000352E+00 0.  1.
</event>
<event>
 5   0  0.2467303E-05  0.1398272E+04  0.7818609E-02  0.8955070E-01
        1   -1    0    0  501    0  0.00000000000E+00  0.00000000000E+00  0.24186054248E+04  0.24186054248E+04  0.50400001928E-02 0. -1.
       -1   -1    0    0    0  501  0.00000000000E+00  0.00000000000E+00 -0.20209631984E+03  0.20209631990E+03  0.50400001928E-02 0.  1.
    10030    2    1    2    0    0  0.00000000000E+00  0.00000000000E+00  0.22165091049E+04  0.26207017447E+04  0.13982721560E+04 0.  0.
        3    1    3    3  502    0 -0.53552420028E+02  0.69231675382E+03  0.95574948555E+03  0.11813667672E+04  0.10100000352E+00 0.  1.
       -3    1    3    3    0  502  0.53552420028E+02 -0.69231675382E+03  0.12607596194E+04  0.14393349775E+04  0.10100000352E+00 0. -1.
</event>
<event>
 5   0  0.2316714E-05  0.1397843E+04  0.7818609E-02  0.8955381E-01
        1   -1    0    0  501    0  0.00000000000E+00  0.00000000000E+00  0.15597622643E+04  0.15597622643E+04  0.50400001928E-02 0.  1.
       -1   -1    0    0    0  501  0.00000000000E+00  0.00000000000E+00 -0.31318336486E+03  0.31318336490E+03  0.50400001928E-02 0. -1.
    10030    2    1    2    0    0  0.00000000000E+00  0.00000000000E+00  0.12465788994E+04  0.18729456292E+04  0.13978434739E+04 0.  0.
        5    1    3    3  502    0 -0.99534260211E+02  0.56204715089E+03  0.82890785035E+02  0.57679896066E+03  0.46999998093E+01 0. -1.
       -5    1    3    3    0  502  0.99534260211E+02 -0.56204715089E+03  0.11636881144E+04  0.12961466685E+04  0.46999998093E+01 0.  1.
</event>
<event>
 5   0  0.4621450E-05  0.1399929E+04  0.7818609E-02  0.8953870E-01
        2   -1    0    0  501    0  0.00000000000E+00  0.00000000000E+00  0.47400691926E+03  0.47400691927E+03  0.25500000920E-02 0.  1.
       -2   -1    0    0    0  501  0.00000000000E+00  0.00000000000E+00 -0.10336350249E+04  0.10336350249E+04  0.25500000920E-02 0. -1.
    10030    2    1    2    0    0  0.00000000000E+00  0.00000000000E+00 -0.55962810566E+03  0.15076419442E+04  0.13999287894E+04 0.  0.
        5    1    3    3  502    0  0.21998071435E+03 -0.39378346400E+03 -0.85622563558E+03  0.96778166971E+03  0.46999998093E+01 0. -1.
       -5    1    3    3    0  502 -0.21998071435E+03  0.39378346400E+03  0.29659752992E+03  0.53986027448E+03  0.46999998093E+01 0.  1.
</event>
<event>
 5   0  0.2467303E-05  0.1400336E+04  0.7818609E-02  0.8953576E-01
        1   -1    0    0  501    0  0.00000000000E+00  0.00000000000E+00  0.52654810905E+03  0.52654810908E+03  0.50400001928E-02 0. -1.
       -1   -1    0    0    0  501  0.00000000000E+00  0.00000000000E+00 -0.93103550822E+03  0.93103550823E+03  0.50400001928E-02 0.  1.
    10030    2    1    2    0    0  0.00000000000E+00  0.00000000000E+00 -0.40448739917E+03  0.14575836173E+04  0.14003356545E+04 0.  0.
        3    1    3    3  502    0  0.63711641403E+03 -0.11183395082E+03 -0.48117436972E+03  0.80619659008E+03  0.10100000352E+00 0.  1.
       -3    1    3    3    0  502 -0.63711641403E+03  0.11183395082E+03  0.76686970551E+02  0.65138702723E+03  0.10100000352E+00 0. -1.
</event>
<event>
 5   0  0.2363419E-05  0.1399710E+04  0.7818609E-02  0.8954028E-01
       -1   -1    0    0    0  501  0.00000000000E+00  0.00000000000E+00  0.12004651794E+04  0.12004651794E+04  0.50400001928E-02 0.  1.
        1   -1    0    0  501    0  0.00000000000E+00  0.00000000000E+00 -0.40800611544E+03  0.40800611547E+03  0.50400001928E-02 0. -1.
    10030    2    1    2    0    0  0.00000000000E+00  0.00000000000E+00  0.79245906400E+03  0.16084712949E+04  0.13997101623E+04 0.  0.
        2    1    3    3  502    0 -0.27956300282E+03 -0.56325548740E+03  0.43187429803E+02  0.63029942942E+03  0.25500000920E-02 0. -1.
       -2    1    3    3    0  502  0.27956300282E+03  0.56325548740E+03  0.74927163419E+03  0.97817186550E+03  0.25500000920E-02 0.  1.
</event>
<event>
 5   0  0.4243281E-05  0.1399675E+04  0.7818609E-02  0.8954054E-01
       -2   -1    0    0    0  501  0.00000000000E+00  0.00000000000E+00  0.18760964669E+03  0.18760964671E+03  0.25500000920E-02 0. -1.
        2   -1    0    0  501    0  0.00000000000E+00  0.00000000000E+00 -0.26105927194E+04  0.26105927194E+04  0.25500000920E-02 0.  1.
    10030    2    1    2    0    0  0.00000000000E+00  0.00000000000E+00 -0.24229830728E+04  0.27982023662E+04  0.13996747876E+04 0.  0.
        2    1    3    3  502    0  0.53217634560E+03  0.20579809364E+03 -0.20216107825E+04  0.21005891255E+04  0.25500000920E-02 0.  1.
       -2    1    3    3    0  502 -0.53217634560E+03 -0.20579809364E+03 -0.40137229024E+03  0.69761324066E+03  0.25500000920E-02 0. -1.
</event>
<event>
 5   0  0.4243281E-05  0.1400045E+04  0.7818609E-02  0.8953786E-01
        2   -1    0    0  501    0  0.00000000000E+00  0.00000000000E+00  0.10331049827E+04  0.10331049827E+04  0.25500000920E-02 0.  1.
       -2   -1    0    0    0  501  0.00000000000E+00  0.00000000000E+00 -0.47432913591E+03  0.47432913592E+03  0.25500000920E-02 0. -1.
    10030    2    1    2    0    0  0.00000000000E+00  0.00000000000E+00  0.55877584674E+03  0.15074341186E+04  0.14000454189E+04 0.  0.
        2    1    3    3  502    0  0.67212919844E+02  0.51553011155E+03 -0.22533573539E+03  0.56662603732E+03  0.25500000920E-02 0. -1.
       -2    1    3    3    0  502 -0.67212919844E+02 -0.51553011155E+03  0.78411158214E+03  0.94080808126E+03  0.25500000920E-02 0.  1.
</event>
<event>
 5   0  0.4527503E-05  0.1400320E+04  0.7818609E-02  0.8953587E-01
        2   -1    0    0  501    0  0.00000000000E+00  0.00000000000E+00  0.10076385963E+04  0.10076385964E+04  0.25500000920E-02 0. -1.
       -2   -1    0    0    0  501  0.00000000000E+00  0.00000000000E+00 -0.48650799639E+03  0.48650799639E+03  0.25500000920E-02 0.  1.
    10030    2    1    2    0    0  0.00000000000E+00  0.00000000000E+00  0.52113059996E+03  0.14941465927E+04  0.14003202985E+04 0.  0.
        4    1    3    3  502    0  0.86455986784E+02  0.40341006877E+03  0.86416142945E+03  0.95759642350E+03  0.12699999809E+01 0. -1.
       -4    1    3    3    0  502 -0.86455986784E+02 -0.40341006877E+03 -0.34303082949E+03  0.53655016925E+03  0.12699999809E+01 0.  1.
</event>
<event>
 5   0  0.4460282E-05  0.1399996E+04  0.7818609E-02  0.8953822E-01
       -2   -1    0    0    0  501  0.00000000000E+00  0.00000000000E+00  0.37339028392E+03  0.37339028393E+03  0.25500000920E-02 0.  1.
        2   -1    0    0  501    0  0.00000000000E+00  0.00000000000E+00 -0.13122917349E+04  0.13122917349E+04  0.25500000920E-02 0. -1.
    10030    2    1    2    0    0  0.00000000000E+00  0.00000000000E+00 -0.93890145101E+03  0.16856820189E+04  0.13999956907E+04 0.  0.
        1    1    3    3  502    0 -0.52076541998E+03 -0.15744770877E+03 -0.99979961297E+03  0.11382379671E+04  0.50400001928E-02 0. -1.
       -1    1    3    3    0  502  0.52076541998E+03  0.15744770877E+03  0.60898161958E+02  0.54744405175E+03  0.50400001928E-02 0.  1.
</event>
<event>
 5   0  0.1661000E-05  0.1400314E+04  0.7818609E-02  0.8953591E-01
       -4   -1    0    0    0  501  0.00000000000E+00  0.00000000000E+00  0.58058378106E+03  0.58058517009E+03  0.12699999809E+01 0. -1.
        4   -1    0    0  501    0  0.00000000000E+00  0.00000000000E+00 -0.84435399461E+03  0.84435494972E+03  0.12699999809E+01 0.  1.
    10030    2    1    2    0    0  0.00000000000E+00  0.00000000000E+00 -0.26377021356E+03  0.14249401198E+04  0.14003141146E+04 0.  0.
        3    1    3    3  502    0  0.46026382135E+03 -0.52614640341E+03 -0.17190964740E+03  0.71987898992E+03  0.10100000352E+00 0.  1.
       -3    1    3    3    0  502 -0.46026382135E+03  0.52614640341E+03 -0.91860566156E+02  0.70506112989E+03  0.10100000352E+00 0. -1.
</event>
<event>
 5   0  0.4243281E-05  0.1400942E+04  0.7818609E-02  0.8953137E-01
        2   -1    0    0  501    0  0.00000000000E+00  0.00000000000E+00  0.65924098975E+03  0.65924098975E+03  0.25500000920E-02 0.  1.
       -2   -1    0    0    0  501  0.00000000000E+00  0.00000000000E+00 -0.74427978384E+03  0.74427978385E+03  0.25500000920E-02 0. -1.
    10030    2    1    2    0    0  0.00000000000E+00  0.00000000000E+00 -0.85038794095E+02  0.14035207736E+04  0.14009421706E+04 0.  0.
        2    1    3    3  502    0 -0.27299063989E+03  0.13411001782E+02  0.60361421178E+03  0.66261139524E+03  0.25500000920E-02 0.  1.
       -2    1    3    3    0  502  0.27299063989E+03 -0.13411001782E+02 -0.68865300587E+03  0.74090937836E+03  0.25500000920E-02 0. -1.
</event>
<event>
 5   0  0.4441253E-05  0.1399630E+04  0.7818609E-02  0.8954087E-01
        2   -1    0    0  501    0  0.00000000000E+00  0.00000000000E+00  0.23200545594E+04  0.23200545594E+04  0.25500000920E-02 0.  1.
       -2   -1    0    0    0  501  0.00000000000E+00  0.00000000000E+00 -0.21109026554E+03  0.21109026556E+03  0.25500000920E-02 0. -1.
    10030    2    1    2    0    0  0.00000000000E+00  0.00000000000E+00  0.21089642939E+04  0.25311448250E+04  0.13996298554E+04 0.  0.
        3    1    3    3  502    0 -0.45981994685E+03 -0.38601151807E+03  0.17047702758E+04  0.18073961877E+04  0.10100000352E+00 0. -1.
       -3    1    3    3    0  502  0.45981994685E+03  0.38601151807E+03  0.40419401804E+03  0.72374863732E+03  0.10100000352E+00 0.  1.
</event>
<event>
 5   0  0.1661000E-05  0.1399359E+04  0.7818609E-02  0.8954283E-01
       -3   -1    0    0    0  501  0.00000000000E+00  0.00000000000E+00  0.92170995655E+03  0.92170996208E+03  0.10100000352E+00 0.  1.
        3   -1    0    0  501    0  0.00000000000E+00  0.00000000000E+00 -0.53113402887E+03  0.53113403847E+03  0.10100000352E+00 0. -1.
    10030    2    1    2    0    0  0.00000000000E+00  0.00000000000E+00  0.39057592768E+03  0.14528440006E+04  0.13993591872E+04 0.  0.
        1    1    3    3  502    0  0.24270632786E+03 -0.49554419495E+03 -0.25136564140E+03  0.60634569054E+03  0.50400001928E-02 0. -1.
       -1    1    3    3    0  502 -0.24270632786E+03  0.49554419495E+03  0.64194156908E+03  0.84649831002E+03  0.50400001928E-02 0.  1.
</event>
<event>
 5   0  0.1661000E-05  0.1399766E+04  0.7818609E-02  0.8953988E-01
       -3   -1    0    0    0  501  0.00000000000E+00  0.00000000000E+00  0.28646439327E+03  0.28646441107E+03  0.10100000352E+00 0.  1.
        3   -1    0    0  501    0  0.00000000000E+00  0.00000000000E+00 -0.17099375240E+04  0.17099375270E+04  0.10100000352E+00 0. -1.
    10030    2    1    2    0    0  0.00000000000E+00  0.00000000000E+00 -0.14234731307E+04  0.19964019380E+04  0.13997660320E+04 0.  0.
        1    1    3    3  502    0 -0.26657378051E+03 -0.21909715870E+03 -0.15801878556E+04  0.16174235080E+04  0.50400001928E-02 0. -1.
       -1    1    3    3    0  502  0.26657378051E+03  0.21909715870E+03  0.15671472485E+03  0.37897843001E+03  0.50400001928E-02 0.  1.
</event>
<event>
 5   0  0.2467303E-05  0.1400386E+04  0.7818609E-02  0.8953539E-01
        1   -1    0    0  501    0  0.00000000000E+00  0.00000000000E+00  0.13068263762E+04  0.13068263762E+04  0.50400001928E-02 0.  1.
       -1   -1    0    0    0  501  0.00000000000E+00  0.00000000000E+00 -0.37516093957E+03  0.37516093960E+03  0.50400001928E-02 0. -1.
    10030    2    1    2    0    0  0.00000000000E+00  0.00000000000E+00  0.93166543665E+03  0.16819873158E+04  0.14003859628E+04 0.  0.
        3    1    3    3  502    0 -0.63307218609E+03 -0.26910665525E+03  0.62276408030E+03  0.92791912073E+03  0.10100000352E+00 0. -1.
       -3    1    3    3    0  502  0.63307218609E+03  0.26910665525E+03  0.30890135636E+03  0.75406819510E+03  0.10100000352E+00 0.  1.
</event>
<event>
 5   0  0.4621450E-05  0.1393077E+04  0.7818609E-02  0.8958845E-01
       -2   -1    0    0    0  501  0.00000000000E+00  0.00000000000E+00  0.35897798979E+03  0.35897798980E+03  0.25500000920E-02 0.  1.
        2   -1    0    0  501    0  0.00000000000E+00  0.00000000000E+00 -0.13515189819E+04  0.13515189819E+04  0.25500000920E-02 0. -1.
    10030    2    1    2    0    0  0.00000000000E+00  0.00000000000E+00 -0.99254099213E+03  0.17104969717E+04  0.13930765482E+04 0.  0.
        5    1    3    3  502    0 -0.20943606863E+03 -0.58606418198E+03 -0.88027494917E+03  0.10780727102E+04  0.46999998093E+01 0. -1.
       -5    1    3    3    0  502  0.20943606863E+03  0.58606418198E+03 -0.11226604297E+03  0.63242426158E+03  0.46999998093E+01 0.  1.
</event>
<event>
 5   0  0.2428507E-05  0.1399012E+04  0.7818609E-02  0.8954534E-01
       -1   -1    0    0    0  501  0.00000000000E+00  0.00000000000E+00  0.61413127220E+03  0.61413127222E+03  0.50400001928E-02 0.  1.
        1   -1    0    0  501    0  0.00000000000E+00  0.00000000000E+00 -0.79674887796E+03  0.79674887798E+03  0.50400001928E-02 0. -1.
    10030    2    1    2    0    0  0.00000000000E+00  0.00000000000E+00 -0.18261760576E+03  0.14108801502E+04  0.13990116541E+04 0.  0.
        4    1    3    3  502    0 -0.36281930388E+03 -0.16559550657E+03  0.48823768428E+03  0.63042633853E+03  0.12699999809E+01 0.  1.
       -4    1    3    3    0  502  0.36281930388E+03  0.16559550657E+03 -0.67085529005E+03  0.78045381167E+03  0.12699999809E+01 0. -1.
</event>
<event>
 5   0  0.4460282E-05  0.1400367E+04  0.7818609E-02  0.8953553E-01
       -2   -1    0    0    0  501  0.00000000000E+00  0.00000000000E+00  0.27405446085E+03  0.27405446087E+03  0.25500000920E-02 0.  1.
        2   -1    0    0  501    0  0.00000000000E+00  0.00000000000E+00 -0.17889037188E+04  0.17889037188E+04  0.25500000920E-02 0. -1.
    10030    2    1    2    0    0  0.00000000000E+00  0.00000000000E+00 -0.15148492579E+04  0.20629581796E+04  0.14003671578E+04 0.  0.
        1    1    3    3  502    0 -0.44196191387E+03 -0.48474113437E+03 -0.39671890180E+03  0.76660954060E+03  0.50400001928E-02 0.  1.
       -1    1    3    3    0  502  0.44196191387E+03  0.48474113437E+03 -0.11181303561E+04  0.12963486390E+04  0.50400001928E-02 0. -1.
</event>
<event>
 5   0  0.1661000E-05  0.1399744E+04  0.7818609E-02  0.8954004E-01
        3   -1    0    0  501    0  0.00000000000E+00  0.00000000000E+00  0.92298930121E+03  0.92298930673E+03  0.10100000352E+00 0.  1.
       -3   -1    0    0    0  501  0.00000000000E+00  0.00000000000E+00 -0.53068946348E+03  0.53068947309E+03  0.10100000352E+00 0. -1.
    10030    2    1    2    0    0  0.00000000000E+00  0.00000000000E+00  0.39229983773E+03  0.14536787798E+04  0.13997438452E+04 0.  0.
        5    1    3    3  502    0  0.58883642497E+03  0.39339148245E+01 -0.19664974927E+03  0.62083574715E+03  0.46999998093E+01 0. -1.
       -5    1    3    3    0  502 -0.58883642497E+03 -0.39339148245E+01  0.58894958699E+03  0.83284303267E+03  0.46999998093E+01 0.  1.
</event>
<event>
 5   0  0.4243281E-05  0.1400115E+04  0.7818609E-02  0.8953735E-01
        2   -1    0    0  501    0  0.00000000000E+00  0.00000000000E+00  0.73597058844E+03  0.73597058844E+03  0.25500000920E-02 0. -1.
       -2   -1    0    0    0  501  0.00000000000E+00  0.00000000000E+00 -0.66589708566E+03  0.66589708567E+03  0.25500000920E-02 0.  1.
    10030    2    1    2    0    0  0.00000000000E+00  0.00000000000E+00  0.70073502772E+02  0.14018676741E+04  0.14001152381E+04 0.  0.
        2    1    3    3  502    0  0.14706838473E+02 -0.36770023270E+03  0.63131628885E+03  0.73073935764E+03  0.25500000920E-02 0. -1.
       -2    1    3    3    0  502 -0.14706838473E+02  0.36770023270E+03 -0.56124278608E+03  0.67112831647E+03  0.25500000920E-02 0.  1.
</event>
<event>
 5   0  0.2316714E-05  0.1399743E+04  0.7818609E-02  0.8954004E-01
        1   -1    0    0  501    0  0.00000000000E+00  0.00000000000E+00  0.53035068281E+03  0.53035068283E+03  0.50400001928E-02 0.  1.
       -1   -1    0    0    0  501  0.00000000000E+00  0.00000000000E+00 -0.92357835403E+03  0.92357835405E+03  0.50400001928E-02 0. -1.
    10030    2    1    2    0    0  0.00000000000E+00  0.00000000000E+00 -0.39322767122E+03  0.14539290369E+04  0.13997434204E+04 0.  0.
        5    1    3    3  502    0  0.58131600758E+03  0.37942240928E+03 -0.28898705953E+03  0.75194765503E+03  0.46999998093E+01 0. -1.
       -5    1    3    3    0  502 -0.58131600758E+03 -0.37942240928E+03 -0.10424061170E+03  0.70198138185E+03  0.46999998093E+01 0.  1.
</event>
<event>
 5   0  0.4527503E-05  0.1400054E+04  0.7818609E-02  0.8953780E-01
       -2   -1    0    0    0  501  0.00000000000E+00  0.00000000000E+00  0.31123947460E+03  0.31123947461E+03  0.25500000920E-02 0. -1.
        2   -1    0    0  501    0  0.00000000000E+00  0.00000000000E+00 -0.15744716363E+04  0.15744716363E+04  0.25500000920E-02 0.  1.
    10030    2    1    2    0    0  0.00000000000E+00  0.00000000000E+00 -0.12632321617E+04  0.18857111109E+04  0.14000538916E+04 0.  0.
        4    1    3    3  502    0 -0.25053209238E+03  0.30652408799E+03  0.14598414993E+03  0.42194351608E+03  0.12699999809E+01 0. -1.
       -4    1    3    3    0  502  0.25053209238E+03 -0.30652408799E+03 -0.14092163116E+04  0.14637675948E+04  0.12699999809E+01 0.  1.
</event>
<event>
 5   0  0.4621450E-05  0.1400181E+04  0.7818609E-02  0.8953688E-01
       -2   -1    0    0    0  501  0.00000000000E+00  0.00000000000E+00  0.24487550763E+03  0.24487550764E+03  0.25500000920E-02 0. -1.
        2   -1    0    0  501    0  0.00000000000E+00  0.00000000000E+00 -0.20015330823E+04  0.20015330823E+04  0.25500000920E-02 0.  1.
    10030    2    1    2    0    0  0.00000000000E+00  0.00000000000E+00 -0.17566575746E+04  0.22464085899E+04  0.14001806020E+04 0.  0.
        5    1    3    3  502    0  0.36143130169E+03  0.35113859061E+03 -0.16580156663E+04  0.17329076535E+04  0.46999998093E+01 0. -1.
       -5    1    3    3    0  502 -0.36143130169E+03 -0.35113859061E+03 -0.98641908311E+02  0.51350093644E+03  0.46999998093E+01 0.  1.
</event>
<event>
 5   0  0.2428507E-05  0.1400331E+04  0.7818609E-02  0.8953579E-01
        1   -1    0    0  501    0  0.00000000000E+00  0.00000000000E+00  0.93203646593E+03  0.93203646595E+03  0.50400001928E-02 0. -1.
       -1   -1    0    0    0  501  0.00000000000E+00  0.00000000000E+00 -0.52597939176E+03  0.52597939178E+03  0.50400001928E-02 0.  1.
    10030    2    1    2    0    0  0.00000000000E+00  0.00000000000E+00  0.40605707418E+03  0.14580158577E+04  0.14003313515E+04 0.  0.
        4    1    3    3  502    0  0.10297808582E+01  0.68897928990E+03  0.33281002742E+03  0.76515204346E+03  0.12699999809E+01 0.  1.
       -4    1    3    3    0  502 -0.10297808582E+01 -0.68897928990E+03  0.73247046761E+02  0.69286381427E+03  0.12699999809E+01 0. -1.
</event>
<event>
 5   0  0.4441253E-05  0.1399912E+04  0.7818609E-02  0.8953882E-01
       -2   -1    0    0    0  501  0.00000000000E+00  0.00000000000E+00  0.50086532268E+03  0.50086532268E+03  0.25500000920E-02 0.  1.
        2   -1    0    0  501    0  0.00000000000E+00  0.00000000000E+00 -0.97818368786E+03  0.97818368786E+03  0.25500000920E-02 0. -1.
    10030    2    1    2    0    0  0.00000000000E+00  0.00000000000E+00 -0.47731836518E+03  0.14790490105E+04  0.13999118379E+04 0.  0.
        3    1    3    3  502    0  0.24328610495E+03  0.58063323100E+03 -0.56192148737E+03  0.84384764382E+03  0.10100000352E+00 0. -1.
       -3    1    3    3    0  502 -0.24328610495E+03 -0.58063323100E+03  0.84603122190E+02  0.63520136673E+03  0.10100000352E+00 0.  1.
</event>
<event>
 5   0  0.2316714E-05  0.1403339E+04  0.7818609E-02  0.8951405E-01
       -1   -1    0    0    0  501  0.00000000000E+00  0.00000000000E+00  0.43539937694E+03  0.43539937697E+03  0.50400001928E-02 0. -1.
        1   -1    0    0  501    0  0.00000000000E+00  0.00000000000E+00 -0.11307782032E+04  0.11307782032E+04  0.50400001928E-02 0.  1.
    10030    2    1    2    0    0  0.00000000000E+00  0.00000000000E+00 -0.69537882625E+03  0.15661775802E+04  0.14033390541E+04 0.  0.
        5    1    3    3  502    0 -0.11887964353E+03  0.38868045057E+03  0.29061435466E+03  0.49968355530E+03  0.46999998093E+01 0. -1.
       -5    1    3    3    0  502  0.11887964353E+03 -0.38868045057E+03 -0.98599318090E+03  0.10664940249E+04  0.46999998093E+01 0.  1.
</event>
<event>
 5   0  0.2467303E-05  0.1399964E+04  0.7818609E-02  0.8953845E-01
       -1   -1    0    0    0  501  0.00000000000E+00  0.00000000000E+00  0.65310139798E+03  0.65310139800E+03  0.50400001928E-02 0.  1.
        1   -1    0    0  501    0  0.00000000000E+00  0.00000000000E+00 -0.75022763513E+03  0.75022763515E+03  0.50400001928E-02 0. -1.
    10030    2    1    2    0    0  0.00000000000E+00  0.00000000000E+00 -0.97126237154E+02  0.14033290331E+04  0.13999638814E+04 0.  0.
        3    1    3    3  502    0  0.13646309903E+03 -0.54592400871E+03  0.36875419303E+03  0.67278143982E+03  0.10100000352E+00 0.  1.
       -3    1    3    3    0  502 -0.13646309903E+03  0.54592400871E+03 -0.46588043018E+03  0.73054759333E+03  0.10100000352E+00 0. -1.
</event>
<event>
 5   0  0.2467303E-05  0.1400493E+04  0.7818609E-02  0.8953462E-01
       -1   -1    0    0    0  501  0.00000000000E+00  0.00000000000E+00  0.16069699732E+04  0.16069699732E+04  0.50400001928E-02 0. -1.
        1   -1    0    0  501    0  0.00000000000E+00  0.00000000000E+00 -0.30513650358E+03  0.30513650363E+03  0.50400001928E-02 0.  1.
    10030    2    1    2    0    0  0.00000000000E+00  0.00000000000E+00  0.13018334696E+04  0.19121064768E+04  0.14004930547E+04 0.  0.
        3    1    3    3  502    0  0.57451086933E+03 -0.14902693571E+02  0.10468993132E+03  0.58416163960E+03  0.10100000352E+00 0.  1.
       -3    1    3    3    0  502 -0.57451086933E+03  0.14902693571E+02  0.11971435383E+04  0.13279448372E+04  0.10100000352E+00 0. -1.
</event>
<event>
 5   0  0.2427569E-05  0.1399958E+04  0.7818609E-02  0.8953849E-01
        1   -1    0    0  501    0  0.00000000000E+00  0.00000000000E+00  0.20671291791E+04  0.20671291791E+04  0.50400001928E-02 0.  1.
       -1   -1    0    0    0  501  0.00000000000E+00  0.00000000000E+00 -0.23702945568E+03  0.23702945573E+03  0.50400001928E-02 0. -1.
    10030    2    1    2    0    0  0.00000000000E+00  0.00000000000E+00  0.18300997234E+04  0.23041586348E+04  0.13999578625E+04 0.  0.
        1    1    3    3  502    0 -0.45478860039E+03  0.39766946499E+03  0.33315179958E+03  0.68990129440E+03  0.50400001928E-02 0. -1.
       -1    1    3    3    0  502  0.45478860039E+03 -0.39766946499E+03  0.14969479238E+04  0.16142573404E+04  0.50400001928E-02 0.  1.
</event>
<event>
 5   0  0.4441253E-05  0.1400138E+04  0.7818609E-02  0.8953719E-01
       -2   -1    0    0    0  501  0.00000000000E+00  0.00000000000E+00  0.41212252004E+03  0.41212252005E+03  0.25500000920E-02 0. -1.
        2   -1    0    0  501    0  0.00000000000E+00  0.00000000000E+00 -0.11892011700E+04  0.11892011700E+04  0.25500000920E-02 0.  1.
    10030    2    1    2    0    0  0.00000000000E+00  0.00000000000E+00 -0.77707864995E+03  0.16013236900E+04  0.14001379689E+04 0.  0.
        3    1    3    3  502    0  0.58955468873E+03 -0.31195797519E+03 -0.63170206810E+03  0.91866208278E+03  0.10100000352E+00 0.  1.
       -3    1    3    3    0  502 -0.58955468873E+03  0.31195797519E+03 -0.14537658185E+03  0.68266160727E+03  0.10100000352E+00 0. -1.
</event>
<event>
 5   0  0.1661000E-05  0.1401042E+04  0.7818609E-02  0.8953065E-01
       -3   -1    0    0    0  501  0.00000000000E+00  0.00000000000E+00  0.42495528921E+03  0.42495530121E+03  0.10100000352E+00 0.  1.
        3   -1    0    0  501    0  0.00000000000E+00  0.00000000000E+00 -0.11547794902E+04  0.11547794946E+04  0.10100000352E+00 0. -1.
    10030    2    1    2    0    0  0.00000000000E+00  0.00000000000E+00 -0.72982420100E+03  0.15797347958E+04  0.14010419911E+04 0.  0.
        2    1    3    3  502    0  0.30000158811E+03  0.44103997221E+03 -0.87693629013E+03  0.10264182709E+04  0.25500000920E-02 0. -1.
       -2    1    3    3    0  502 -0.30000158811E+03 -0.44103997221E+03  0.14711208913E+03  0.55331652490E+03  0.25500000920E-02 0.  1.
</event>
<event>
 5   0  0.4441253E-05  0.1399806E+04  0.7818609E-02  0.8953959E-01
       -2   -1    0    0    0  501  0.00000000000E+00  0.00000000000E+00  0.55921352469E+03  0.55921352469E+03  0.25500000920E-02 0. -1.
        2   -1    0    0  501    0  0.00000000000E+00  0.00000000000E+00 -0.87598723430E+03  0.87598723431E+03  0.25500000920E-02 0.  1.
    10030    2    1    2    0    0  0.00000000000E+00  0.00000000000E+00 -0.31677370961E+03  0.14352007590E+04  0.13998055706E+04 0.  0.
        3    1    3    3  502    0 -0.24338425839E+03  0.55316711943E+03  0.20357553553E+03  0.63770899956E+03  0.10100000352E+00 0. -1.
       -3    1    3    3    0  502  0.24338425839E+03 -0.55316711943E+03 -0.52034924514E+03  0.79749175944E+03  0.10100000352E+00 0.  1.
</event>
<event>
 5   0  0.4621450E-05  0.1400204E+04  0.7818609E-02  0.8953671E-01
        2   -1    0    0  501    0  0.00000000000E+00  0.00000000000E+00  0.86313058322E+03  0.86313058322E+03  0.25500000920E-02 0.  1.
       -2   -1    0    0    0  501  0.00000000000E+00  0.00000000000E+00 -0.56786662696E+03  0.56786662697E+03  0.25500000920E-02 0. -1.
    10030    2    1    2    0    0  0.00000000000E+00  0.00000000000E+00  0.29526395625E+03  0.14309972102E+04  0.14002043464E+04 0.  0.
        5    1    3    3  502    0  0.26325139439E+03  0.36953480592E+03  0.69252100615E+03  0.82792795785E+03  0.46999998093E+01 0.  1.
       -5    1    3    3    0  502 -0.26325139439E+03 -0.36953480592E+03 -0.39725704989E+03  0.60306925234E+03  0.46999998093E+01 0. -1.
</event>
<event>
 5   0  0.2363419E-05  0.1400143E+04  0.7818609E-02  0.8953715E-01
       -1   -1    0    0    0  501  0.00000000000E+00  0.00000000000E+00  0.49974300146E+03  0.49974300149E+03  0.50400001928E-02 0. -1.
        1   -1    0    0  501    0  0.00000000000E+00  0.00000000000E+00 -0.98070439706E+03  0.98070439707E+03  0.50400001928E-02 0.  1.
    10030    2    1    2    0    0  0.00000000000E+00  0.00000000000E+00 -0.48096139560E+03  0.14804473986E+04  0.14001430769E+04 0.  0.
        2    1    3    3  502    0 -0.13773738275E+03  0.59717700017E+03  0.11731808856E+03  0.62398356552E+03  0.25500000920E-02 0. -1.
       -2    1    3    3    0  502  0.13773738275E+03 -0.59717700017E+03 -0.59827948416E+03  0.85646383304E+03  0.25500000920E-02 0.  1.
</event>
<event>
 5   0  0.2428507E-05  0.1399954E+04  0.7818609E-02  0.8953852E-01
        1   -1    0    0  501    0  0.00000000000E+00  0.00000000000E+00  0.17322035481E+04  0.17322035482E+04  0.50400001928E-02 0.  1.
       -1   -1    0    0    0  501  0.00000000000E+00  0.00000000000E+00 -0.28285823485E+03  0.28285823489E+03  0.50400001928E-02 0. -1.
    10030    2    1    2    0    0  0.00000000000E+00  0.00000000000E+00  0.14493453133E+04  0.20150617830E+04  0.13999543394E+04 0.  0.
        4    1    3    3  502    0  0.49593170586E+03 -0.16037165012E+03  0.13971853256E+04  0.14912396756E+04  0.12699999809E+01 0.  1.
       -4    1    3    3    0  502 -0.49593170586E+03  0.16037165012E+03  0.52159987680E+02  0.52382210745E+03  0.12699999809E+01 0. -1.
</event>
<event>
 5   0  0.4243281E-05  0.1401397E+04  0.7818609E-02  0.8952808E-01
       -2   -1    0    0    0  501  0.00000000000E+00  0.00000000000E+00  0.54882126695E+03  0.54882126696E+03  0.25500000920E-02 0.  1.
        2   -1    0    0  501    0  0.00000000000E+00  0.00000000000E+00 -0.89460583717E+03  0.89460583718E+03  0.25500000920E-02 0. -1.
    10030    2    1    2    0    0  0.00000000000E+00  0.00000000000E+00 -0.34578457022E+03  0.14434271041E+04  0.14013974582E+04 0.  0.
        2    1    3    3  502    0 -0.60870816173E+03 -0.12087179092E+03 -0.50798485010E+03  0.80198767068E+03  0.25500000920E-02 0.  1.
       -2    1    3    3    0  502  0.60870816173E+03  0.12087179092E+03  0.16220027988E+03  0.64143943345E+03  0.25500000920E-02 0. -1.
</event>
<event>
 5   0  0.4441253E-05  0.1399830E+04  0.7818609E-02  0.8953942E-01
        2   -1    0    0  501    0  0.00000000000E+00  0.00000000000E+00  0.59201644323E+03  0.59201644323E+03  0.25500000920E-02 0.  1.
       -2   -1    0    0    0  501  0.00000000000E+00  0.00000000000E+00 -0.82747876196E+03  0.82747876196E+03  0.25500000920E-02 0. -1.
    10030    2    1    2    0    0  0.00000000000E+00  0.00000000000E+00 -0.23546231873E+03  0.14194952052E+04  0.13998300376E+04 0.  0.
        3    1    3    3  502    0  0.57605243976E+02 -0.44804030213E+03 -0.65986543265E+03  0.79967548160E+03  0.10100000352E+00 0. -1.
       -3    1    3    3    0  502 -0.57605243976E+02  0.44804030213E+03  0.42440311391E+03  0.61981972360E+03  0.10100000352E+00 0.  1.
</event>
<event>
 5   0  0.2427569E-05  0.1400103E+04  0.7818609E-02  0.8953744E-01
        1   -1    0    0  501    0  0.00000000000E+00  0.00000000000E+00  0.21343240567E+04  0.21343240567E+04  0.50400001928E-02 0.  1.
       -1   -1    0    0    0  501  0.00000000000E+00  0.00000000000E+00 -0.22961453285E+03  0.22961453291E+03  0.50400001928E-02 0. -1.
    10030    2    1    2    0    0  0.00000000000E+00  0.00000000000E+00  0.19047095238E+04  0.23639385896E+04  0.14001025981E+04 0.  0.
        1    1    3    3  502    0 -0.58096107949E+03 -0.40876547488E+02  0.29651222196E+03  0.65353359961E+03  0.50400001928E-02 0. -1.
       -1    1    3    3    0  502  0.58096107949E+03  0.40876547488E+02  0.16081973019E+04  0.17104049900E+04  0.50400001928E-02 0.  1.
</event>
<event>
 5   0  0.4621450E-05  0.1399701E+04  0.7818609E-02  0.8954035E-01
       -2   -1    0    0    0  501  0.00000000000E+00  0.00000000000E+00  0.29458643572E+03  0.29458643573E+03  0.25500000920E-02 0. -1.
        2   -1    0    0  501    0  0.00000000000E+00  0.00000000000E+00 -0.16626379862E+04  0.16626379862E+04  0.25500000920E-02 0.  1.
    10030    2    1    2    0    0  0.00000000000E+00  0.00000000000E+00 -0.13680515505E+04  0.19572244219E+04  0.13997008227E+04 0.  0.
        5    1    3    3  502    0  0.63783863043E+03 -0.21202026969E+02 -0.10856149604E+04  0.12593131368E+04  0.46999998093E+01 0. -1.
       -5    1    3    3    0  502 -0.63783863043E+03  0.21202026969E+02 -0.28243659007E+03  0.69791128507E+03  0.46999998093E+01 0.  1.
</event>
<event>
 5   0  0.2428507E-05  0.1399972E+04  0.7818609E-02  0.8953839E-01
        1   -1    0    0  501    0  0.00000000000E+00  0.00000000000E+00  0.98555756851E+03  0.98555756852E+03  0.50400001928E-02 0. -1.
       -1   -1    0    0    0  501  0.00000000000E+00  0.00000000000E+00 -0.49716088528E+03  0.49716088531E+03  0.50400001928E-02 0.  1.
    10030    2    1    2    0    0  0.00000000000E+00  0.00000000000E+00  0.48839668323E+03  0.14827184538E+04  0.13999723901E+04 0.  0.
        4    1    3    3  502    0  0.24266379604E+03 -0.16531530507E+03 -0.42878315349E+03  0.51968401323E+03  0.12699999809E+01 0.  1.
       -4    1    3    3    0  502 -0.24266379604E+03  0.16531530507E+03  0.91717983672E+03  0.96303444060E+03  0.12699999809E+01 0. -1.
</event>
<event>
 5   0  0.2316714E-05  0.1399299E+04  0.7818609E-02  0.8954326E-01
       -1   -1    0    0    0  501  0.00000000000E+00  0.00000000000E+00  0.37322700872E+03  0.37322700876E+03  0.50400001928E-02 0.  1.
        1   -1    0    0  501    0  0.00000000000E+00  0.00000000000E+00 -0.13115597537E+04  0.13115597537E+04  0.50400001928E-02 0. -1.
    10030    2    1    2    0    0  0.00000000000E+00  0.00000000000E+00 -0.93833274495E+03  0.16847867624E+04  0.13992991441E+04 0.  0.
        5    1    3    3  502    0 -0.37412412169E+03 -0.19699138515E+03  0.20197508049E+03  0.46860483073E+03  0.46999998093E+01 0.  1.
       -5    1    3    3    0  502  0.37412412169E+03  0.19699138515E+03 -0.11403078254E+04  0.12161819317E+04  0.46999998093E+01 0. -1.
</event>
<event>
 5   0  0.4243281E-05  0.1398820E+04  0.7818609E-02  0.8954673E-01
       -2   -1    0    0    0  501  0.00000000000E+00  0.00000000000E+00  0.22870879512E+03  0.22870879513E+03  0.25500000920E-02 0. -1.
        2   -1    0    0  501    0  0.00000000000E+00  0.00000000000E+00 -0.21388517032E+04  0.21388517032E+04  0.25500000920E-02 0.  1.
    10030    2    1    2    0    0  0.00000000000E+00  0.00000000000E+00 -0.19101429081E+04  0.23675604984E+04  0.13988197825E+04 0.  0.
        2    1    3    3  502    0 -0.17375555769E+03  0.48328090528E+03 -0.17586682743E+04  0.18321204999E+04  0.25500000920E-02 0.  1.
       -2    1    3    3    0  502  0.17375555769E+03 -0.48328090528E+03 -0.15147463383E+03  0.53543999845E+03  0.25500000920E-02 0. -1.
</event>
<event>
 5   0  0.2427569E-05  0.1400809E+04  0.7818609E-02  0.8953233E-01
       -1   -1    0    0    0  501  0.00000000000E+00  0.00000000000E+00  0.40878794115E+03  0.40878794118E+03  0.50400001928E-02 0.  1.
        1   -1    0    0  501    0  0.00000000000E+00  0.00000000000E+00 -0.12000512963E+04  0.12000512963E+04  0.50400001928E-02 0. -1.
    10030    2    1    2    0    0  0.00000000000E+00  0.00000000000E+00 -0.79126335512E+03  0.16088392375E+04  0.14008090501E+04 0.  0.
        1    1    3    3  502    0  0.26564529026E+03 -0.29499355805E+03 -0.10583689592E+04  0.11303687334E+04  0.50400001928E-02 0. -1.
       -1    1    3    3    0  502 -0.26564529026E+03  0.29499355805E+03  0.26710560409E+03  0.47847050410E+03  0.50400001928E-02 0.  1.
</event>
<event>
 5   0  0.2363419E-05  0.1399709E+04  0.7818609E-02  0.8954029E-01
       -1   -1    0    0    0  501  0.00000000000E+00  0.00000000000E+00  0.38678668640E+03  0.38678668643E+03  0.50400001928E-02 0. -1.
        1   -1    0    0  501    0  0.00000000000E+00  0.00000000000E+00 -0.12663219462E+04  0.12663219462E+04  0.50400001928E-02 0.  1.
    10030    2    1    2    0    0  0.00000000000E+00  0.00000000000E+00 -0.87953525978E+03  0.16531086326E+04  0.13997092120E+04 0.  0.
        2    1    3    3  502    0  0.19096630048E+03 -0.32739160376E+03 -0.11346181700E+04  0.11962490467E+04  0.25500000920E-02 0.  1.
       -2    1    3    3    0  502 -0.19096630048E+03  0.32739160376E+03  0.25508291021E+03  0.45685958589E+03  0.25500000920E-02 0. -1.
</event>
<event>
 5   0  0.4621450E-05  0.1400700E+04  0.7818609E-02  0.8953312E-01
       -2   -1    0    0    0  501  0.00000000000E+00  0.00000000000E+00  0.79403273336E+03  0.79403273336E+03  0.25500000920E-02 0. -1.
        2   -1    0    0  501    0  0.00000000000E+00  0.00000000000E+00 -0.61772036060E+03  0.61772036061E+03  0.25500000920E-02 0.  1.
    10030    2    1    2    0    0  0.00000000000E+00  0.00000000000E+00  0.17631237276E+03  0.14117530940E+04  0.14007000912E+04 0.  0.
        5    1    3    3  502    0  0.68378615962E+03  0.11729972225E+03  0.18454219166E+03  0.71791409474E+03  0.46999998093E+01 0. -1.
       -5    1    3    3    0  502 -0.68378615962E+03 -0.11729972225E+03 -0.82298189030E+01  0.69383899923E+03  0.46999998093E+01 0.  1.
</event>
<event>
 5   0  0.4527503E-05  0.1399613E+04  0.7818609E-02  0.8954099E-01
        2   -1    0    0  501    0  0.00000000000E+00  0.00000000000E+00  0.92802022526E+03  0.92802022526E+03  0.25500000920E-02 0. -1.
       -2   -1    0    0    0  501  0.00000000000E+00  0.00000000000E+00 -0.52771352909E+03  0.52771352909E+03  0.25500000920E-02 0.  1.
    10030    2    1    2    0    0  0.00000000000E+00  0.00000000000E+00  0.40030669617E+03  0.14557337544E+04  0.13996125580E+04 0.  0.
        4    1    3    3  502    0  0.18338115907E+03  0.51174528388E+03 -0.25821632448E+03  0.60182154183E+03  0.12699999809E+01 0.  1.
       -4    1    3    3    0  502 -0.18338115907E+03 -0.51174528388E+03  0.65852302065E+03  0.85391221253E+03  0.12699999809E+01 0. -1.
</event>
<event>
 5   0  0.2363419E-05  0.1399655E+04  0.7818609E-02  0.8954068E-01
       -1   -1    0    0    0  501  0.00000000000E+00  0.00000000000E+00  0.96325674265E+03  0.96325674267E+03  0.50400001928E-02 0.  1.
        1   -1    0    0  501    0  0.00000000000E+00  0.00000000000E+00 -0.50844019389E+03  0.50844019392E+03  0.50400001928E-02 0. -1.
    10030    2    1    2    0    0  0.00000000000E+00  0.00000000000E+00  0.45481654876E+03  0.14716969366E+04  0.13996548789E+04 0.  0.
        2    1    3    3  502    0  0.22107512662E+03  0.64476146238E+03  0.39421447841E+03  0.78739863473E+03  0.25500000920E-02 0. -1.
       -2    1    3    3    0  502 -0.22107512662E+03 -0.64476146238E+03  0.60602070352E+02  0.68429830185E+03  0.25500000920E-02 0.  1.
</event>
<event>
 5   0  0.2467303E-05  0.1399191E+04  0.7818609E-02  0.8954404E-01
        1   -1    0    0  501    0  0.00000000000E+00  0.00000000000E+00  0.15435316695E+04  0.15435316695E+04  0.50400001928E-02 0.  1.
       -1   -1    0    0    0  501  0.00000000000E+00  0.00000000000E+00 -0.31708722184E+03  0.31708722188E+03  0.50400001928E-02 0. -1.
    10030    2    1    2    0    0  0.00000000000E+00  0.00000000000E+00  0.12264444477E+04  0.18606188914E+04  0.13991914364E+04 0.  0.
        3    1    3    3  502    0 -0.58201805375E+02 -0.61197411133E+03  0.16911821145E+03  0.63757410764E+03  0.10100000352E+00 0. -1.
       -3    1    3    3    0  502  0.58201805375E+02  0.61197411133E+03  0.10573262362E+04  0.12230447838E+04  0.10100000352E+00 0.  1.
</event>
<event>
 5   0  0.2363419E-05  0.1400133E+04  0.7818609E-02  0.8953722E-01
        1   -1    0    0  501    0  0.00000000000E+00  0.00000000000E+00  0.41398510076E+03  0.41398510079E+03  0.50400001928E-02 0.  1.
       -1   -1    0    0    0  501  0.00000000000E+00  0.00000000000E+00 -0.11838423141E+04  0.11838423141E+04  0.50400001928E-02 0. -1.
    10030    2    1    2    0    0  0.00000000000E+00  0.00000000000E+00 -0.76985721336E+03  0.15978274149E+04  0.14001329647E+04 0.  0.
        2    1    3    3  502    0  0.25125540485E+03 -0.50354243256E+03 -0.86015021405E+03  0.10278826055E+04  0.25500000920E-02 0. -1.
       -2    1    3    3    0  502 -0.25125540485E+03  0.50354243256E+03  0.90293000697E+02  0.56994480946E+03  0.25500000920E-02 0.  1.
</event>
<event>
 5   0  0.4441253E-05  0.1398908E+04  0.7818609E-02  0.8954609E-01
       -2   -1    0    0    0  501  0.00000000000E+00  0.00000000000E+00  0.19425445737E+04  0.19425445737E+04  0.25500000920E-02 0. -1.
        2   -1    0    0  501    0  0.00000000000E+00  0.00000000000E+00 -0.25185315929E+03  0.25185315931E+03  0.25500000920E-02 0.  1.
    10030    2    1    2    0    0  0.00000000000E+00  0.00000000000E+00  0.16906914144E+04  0.21943977330E+04  0.13989081285E+04 0.  0.
        3    1    3    3  502    0 -0.26306065446E+03 -0.64186763838E+03  0.98600917148E+03  0.12055741659E+04  0.10100000352E+00 0. -1.
       -3    1    3    3    0  502  0.26306065446E+03  0.64186763838E+03  0.70468224296E+03  0.98882356711E+03  0.10100000352E+00 0.  1.
</event>
<event>
 5   0  0.2316714E-05  0.1399542E+04  0.7818609E-02  0.8954150E-01
        1   -1    0    0  501    0  0.00000000000E+00  0.00000000000E+00  0.89173355031E+03  0.89173355033E+03  0.50400001928E-02 0. -1.
       -1   -1    0    0    0  501  0.00000000000E+00  0.00000000000E+00 -0.54913204927E+03  0.54913204929E+03  0.50400001928E-02 0.  1.
    10030    2    1    2    0    0  0.00000000000E+00  0.00000000000E+00  0.34260150104E+03  0.14408655996E+04  0.13995420278E+04 0.  0.
        5    1    3    3  502    0  0.59619103612E+03 -0.33822044201E+02 -0.20425733495E+03  0.63113455864E+03  0.46999998093E+01 0.  1.
       -5    1    3    3    0  502 -0.59619103612E+03  0.33822044201E+02  0.54685883599E+03  0.80973104098E+03  0.46999998093E+01 0. -1.
</event>
<event>
 5   0  0.2428507E-05  0.1399646E+04  0.7818609E-02  0.8954075E-01
       -1   -1    0    0    0  501  0.00000000000E+00  0.00000000000E+00  0.68465935646E+03  0.68465935648E+03  0.50400001928E-02 0.  1.
        1   -1    0    0  501    0  0.00000000000E+00  0.00000000000E+00 -0.71532217380E+03  0.71532217382E+03  0.50400001928E-02 0. -1.
    10030    2    1    2    0    0  0.00000000000E+00  0.00000000000E+00 -0.30662817343E+02  0.13999815303E+04  0.13996456969E+04 0.  0.
        4    1    3    3  502    0  0.21935632841E+03 -0.63688355597E+02 -0.67698616155E+03  0.71448252693E+03  0.12699999809E+01 0. -1.
       -4    1    3    3    0  502 -0.21935632841E+03  0.63688355597E+02  0.64632334421E+03  0.68549900337E+03  0.12699999809E+01 0.  1.
</event>
<event>
 5   0  0.2467303E-05  0.1400203E+04  0.7818609E-02  0.8953672E-01
       -1   -1    0    0    0  501  0.00000000000E+00  0.00000000000E+00  0.71225967079E+03  0.71225967081E+03  0.50400001928E-02 0. -1.
        1   -1    0    0  501    0  0.00000000000E+00  0.00000000000E+00 -0.68815083710E+03  0.68815083712E+03  0.50400001928E-02 0.  1.
    10030    2    1    2    0    0  0.00000000000E+00  0.00000000000E+00  0.24108833691E+02  0.14004105079E+04  0.14002029692E+04 0.  0.
        3    1    3    3  502    0  0.42823819506E+03 -0.33706560415E+03  0.45159754832E+03  0.70777222965E+03  0.10100000352E+00 0. -1.
       -3    1    3    3    0  502 -0.42823819506E+03  0.33706560415E+03 -0.42748871463E+03  0.69263827829E+03  0.10100000352E+00 0.  1.
</event>
<event>
 5   0  0.4460282E-05  0.1399712E+04  0.7818609E-02  0.8954027E-01
        2   -1    0    0  501    0  0.00000000000E+00  0.00000000000E+00  0.44800250593E+03  0.44800250594E+03  0.25500000920E-02 0.  1.
       -2   -1    0    0    0  501  0.00000000000E+00  0.00000000000E+00 -0.10932931911E+04  0.10932931911E+04  0.25500000920E-02 0. -1.
    10030    2    1    2    0    0  0.00000000000E+00  0.00000000000E+00 -0.64529068518E+03  0.15412956971E+04  0.13997115265E+04 0.  0.
        1    1    3    3  502    0  0.26703544925E+03 -0.28244382825E+03  0.31821744347E+03  0.50233931623E+03  0.50400001928E-02 0.  1.
       -1    1    3    3    0  502 -0.26703544925E+03  0.28244382825E+03 -0.96350812865E+03  0.10389563808E+04  0.50400001928E-02 0. -1.
</event>
<event>
 5   0  0.2427569E-05  0.1399919E+04  0.7818609E-02  0.8953877E-01
       -1   -1    0    0    0  501  0.00000000000E+00  0.00000000000E+00  0.74808948989E+03  0.74808948991E+03  0.50400001928E-02 0. -1.
        1   -1    0    0  501    0  0.00000000000E+00  0.00000000000E+00 -0.65492585279E+03  0.65492585281E+03  0.50400001928E-02 0.  1.
    10030    2    1    2    0    0  0.00000000000E+00  0.00000000000E+00  0.93163637104E+02  0.14030153427E+04  0.13999187793E+04 0.  0.
        1    1    3    3  502    0  0.10318492766E+03 -0.52352252341E+03 -0.40743257200E+03  0.67136000965E+03  0.50400001928E-02 0.  1.
       -1    1    3    3    0  502 -0.10318492766E+03  0.52352252341E+03  0.50059620910E+03  0.73165533307E+03  0.50400001928E-02 0. -1.
</event>
<event>
 5   0  0.4441253E-05  0.1401366E+04  0.7818609E-02  0.8952831E-01
        2   -1    0    0  501    0  0.00000000000E+00  0.00000000000E+00  0.57706647284E+03  0.57706647284E+03  0.25500000920E-02 0.  1.
       -2   -1    0    0    0  501  0.00000000000E+00  0.00000000000E+00 -0.85077952480E+03  0.85077952480E+03  0.25500000920E-02 0. -1.
    10030    2    1    2    0    0  0.00000000000E+00  0.00000000000E+00 -0.27371305196E+03  0.14278459976E+04  0.14013655334E+04 0.  0.
        3    1    3    3  502    0  0.64027420782E+03  0.10172097293E+03  0.13398231743E+03  0.66200414585E+03  0.10100000352E+00 0.  1.
       -3    1    3    3    0  502 -0.64027420782E+03 -0.10172097293E+03 -0.40769536939E+03  0.76584185180E+03  0.10100000352E+00 0. -1.
</event>
<event>
 5   0  0.4441253E-05  0.1400990E+04  0.7818609E-02  0.8953102E-01
       -2   -1    0    0    0  501  0.00000000000E+00  0.00000000000E+00  0.12367010085E+04  0.12367010085E+04  0.25500000920E-02 0. -1.
        2   -1    0    0  501    0  0.00000000000E+00  0.00000000000E+00 -0.39677599739E+03  0.39677599740E+03  0.25500000920E-02 0.  1.
    10030    2    1    2    0    0  0.00000000000E+00  0.00000000000E+00  0.83992501116E+03  0.16334770059E+04  0.14009900444E+04 0.  0.
        3    1    3    3  502    0 -0.23839569267E+03 -0.17476034590E+03 -0.32049924594E+03  0.43599708902E+03  0.10100000352E+00 0.  1.
       -3    1    3    3    0  502  0.23839569267E+03  0.17476034590E+03  0.11604242571E+04  0.11974799169E+04  0.10100000352E+00 0. -1.
</event>
<event>
 5   0  0.4527503E-05  0.1398965E+04  0.7818609E-02  0.8954568E-01
       -2   -1    0    0    0  501  0.00000000000E+00  0.00000000000E+00  0.25127226035E+03  0.25127226036E+03  0.25500000920E-02 0. -1.
        2   -1    0    0  501    0  0.00000000000E+00  0.00000000000E+00 -0.19471946317E+04  0.19471946317E+04  0.25500000920E-02 0.  1.
    10030    2    1    2    0    0  0.00000000000E+00  0.00000000000E+00 -0.16959223714E+04  0.21984668921E+04  0.13989653269E+04 0.  0.
        4    1    3    3  502    0  0.65379873500E+03 -0.92053914524E+02 -0.12109311806E+04  0.13792326294E+04  0.12699999809E+01 0.  1.
       -4    1    3    3    0  502 -0.65379873500E+03  0.92053914524E+02 -0.48499119081E+03  0.81923426267E+03  0.12699999809E+01 0. -1.
</event>
<event>
 5   0  0.2467303E-05  0.1400459E+04  0.7818609E-02  0.8953486E-01
       -1   -1    0    0    0  501  0.00000000000E+00  0.00000000000E+00  0.80306265031E+03  0.80306265032E+03  0.50400001928E-02 0.  1.
        1   -1    0    0  501    0  0.00000000000E+00  0.00000000000E+00 -0.61056456314E+03  0.61056456317E+03  0.50400001928E-02 0. -1.
    10030    2    1    2    0    0  0.00000000000E+00  0.00000000000E+00  0.19249808716E+03  0.14136272135E+04  0.14004593479E+04 0.  0.
        3    1    3    3  502    0  0.52532395686E+03  0.13600968467E+03  0.54296833391E+03  0.76764478491E+03  0.10100000352E+00 0.  1.
       -3    1    3    3    0  502 -0.52532395686E+03 -0.13600968467E+03 -0.35047024674E+03  0.64598242858E+03  0.10100000352E+00 0. -1.
</event>
<event>
 5   0  0.4527503E-05  0.1400542E+04  0.7818609E-02  0.8953426E-01
        2   -1    0    0  501    0  0.00000000000E+00  0.00000000000E+00  0.13801916142E+04  0.13801916142E+04  0.25500000920E-02 0. -1.
       -2   -1    0    0    0  501  0.00000000000E+00  0.00000000000E+00 -0.35529823315E+03  0.35529823316E+03  0.25500000920E-02 0.  1.
    10030    2    1    2    0    0  0.00000000000E+00  0.00000000000E+00  0.10248933811E+04  0.17354898474E+04  0.14005422406E+04 0.  0.
        4    1    3    3  502    0  0.58593554542E+03  0.22029952092E+03  0.90140280311E+03  0.10974429227E+04  0.12699999809E+01 0. -1.
       -4    1    3    3    0  502 -0.58593554542E+03 -0.22029952092E+03  0.12349057795E+03  0.63804692464E+03  0.12699999809E+01 0.  1.
</event>
<event>
 5   0  0.2316714E-05  0.1400548E+04  0.7818609E-02  0.8953422E-01
        1   -1    0    0  501    0  0.00000000000E+00  0.00000000000E+00  0.83305441056E+03  0.83305441057E+03  0.50400001928E-02 0. -1.
       -1   -1    0    0    0  501  0.00000000000E+00  0.00000000000E+00 -0.58865750382E+03  0.58865750384E+03  0.50400001928E-02 0.  1.
    10030    2    1    2    0    0  0.00000000000E+00  0.00000000000E+00  0.24439690674E+03  0.14217119144E+04  0.14005480783E+04 0.  0.
        5    1    3    3  502    0 -0.48802371508E+03  0.20369088051E+03 -0.34376355195E+03  0.63075557146E+03  0.46999998093E+01 0.  1.
       -5    1    3    3    0  502  0.48802371508E+03 -0.20369088051E+03  0.58816045869E+03  0.79095634295E+03  0.46999998093E+01 0. -1.
</event>
<event>
 5   0  0.4460282E-05  0.1401440E+04  0.7818609E-02  0.8952777E-01
        2   -1    0    0  501    0  0.00000000000E+00  0.00000000000E+00  0.59549061746E+03  0.59549061747E+03  0.25500000920E-02 0.  1.
       -2   -1    0    0    0  501  0.00000000000E+00  0.00000000000E+00 -0.82454448711E+03  0.82454448712E+03  0.25500000920E-02 0. -1.
    10030    2    1    2    0    0  0.00000000000E+00  0.00000000000E+00 -0.22905386965E+03  0.14200351046E+04  0.14014399820E+04 0.  0.
        1    1    3    3  502    0  0.96730120888E+01  0.24350582783E+03 -0.78022191520E+03  0.81739518737E+03  0.50400001928E-02 0. -1.
       -1    1    3    3    0  502 -0.96730120888E+01 -0.24350582783E+03  0.55116804555E+03  0.60263991721E+03  0.50400001928E-02 0.  1.
</event>
<event>
 5   0  0.2363419E-05  0.1405687E+04  0.7818609E-02  0.8949712E-01
       -1   -1    0    0    0  501  0.00000000000E+00  0.00000000000E+00  0.15690652981E+04  0.15690652981E+04  0.50400001928E-02 0.  1.
        1   -1    0    0  501    0  0.00000000000E+00  0.00000000000E+00 -0.31483006967E+03  0.31483006971E+03  0.50400001928E-02 0. -1.
    10030    2    1    2    0    0  0.00000000000E+00  0.00000000000E+00  0.12542352284E+04  0.18838953678E+04  0.14056869312E+04 0.  0.
        2    1    3    3  502    0  0.40512836356E+03  0.43567751383E+03  0.11286535459E+04  0.12758537196E+04  0.25500000920E-02 0.  1.
       -2    1    3    3    0  502 -0.40512836356E+03 -0.43567751383E+03  0.12558168251E+03  0.60804164825E+03  0.25500000920E-02 0. -1.
</event>
<event>
 5   0  0.4621450E-05  0.1399785E+04  0.7818609E-02  0.8953974E-01
        2   -1    0    0  501    0  0.00000000000E+00  0.00000000000E+00  0.22250928228E+04  0.22250928228E+04  0.25500000920E-02 0.  1.
       -2   -1    0    0    0  501  0.00000000000E+00  0.00000000000E+00 -0.22014803509E+03  0.22014803511E+03  0.25500000920E-02 0. -1.
    10030    2    1    2    0    0  0.00000000000E+00  0.00000000000E+00  0.20049447877E+04  0.24452408579E+04  0.13997854305E+04 0.  0.
        5    1    3    3  502    0  0.48378440427E+03  0.13702695669E+03  0.15204351365E+03  0.52532186011E+03  0.46999998093E+01 0. -1.
       -5    1    3    3    0  502 -0.48378440427E+03 -0.13702695669E+03  0.18529012740E+04  0.19199189978E+04  0.46999998093E+01 0.  1.
</event>
<event>
 5   0  0.2467303E-05  0.1400762E+04  0.7818609E-02  0.8953267E-01
       -1   -1    0    0    0  501  0.00000000000E+00  0.00000000000E+00  0.30398552871E+03  0.30398552875E+03  0.50400001928E-02 0.  1.
        1   -1    0    0  501    0  0.00000000000E+00  0.00000000000E+00 -0.16136736851E+04  0.16136736851E+04  0.50400001928E-02 0. -1.
    10030    2    1    2    0    0  0.00000000000E+00  0.00000000000E+00 -0.13096881564E+04  0.19176592138E+04  0.14007618618E+04 0.  0.
        3    1    3    3  502    0  0.26817258129E+03  0.28110472420E+03 -0.14526349631E+04  0.15036903755E+04  0.10100000352E+00 0. -1.
       -3    1    3    3    0  502 -0.26817258129E+03 -0.28110472420E+03  0.14294680672E+03  0.41396883829E+03  0.10100000352E+00 0.  1.
</event>
<event>
 5   0  0.2467303E-05  0.1399795E+04  0.7818609E-02  0.8953967E-01
        1   -1    0    0  501    0  0.00000000000E+00  0.00000000000E+00  0.66966624936E+03  0.66966624938E+03  0.50400001928E-02 0.  1.
       -1   -1    0    0    0  501  0.00000000000E+00  0.00000000000E+00 -0.73149358426E+03  0.73149358428E+03  0.50400001928E-02 0. -1.
    10030    2    1    2    0    0  0.00000000000E+00  0.00000000000E+00 -0.61827334898E+02  0.14011598337E+04  0.13997950779E+04 0.  0.
        3    1    3    3  502    0  0.44649002443E+03  0.50468482596E+03 -0.22029760069E+03  0.70893663930E+03  0.10100000352E+00 0. -1.
       -3    1    3    3    0  502 -0.44649002443E+03 -0.50468482596E+03  0.15847026579E+03  0.69222319436E+03  0.10100000352E+00 0.  1.
</event>
<event>
 5   0  0.1661000E-05  0.1400037E+04  0.7818609E-02  0.8953791E-01
       -3   -1    0    0    0  501  0.00000000000E+00  0.00000000000E+00  0.69888431383E+03  0.69888432113E+03  0.10100000352E+00 0. -1.
        3   -1    0    0  501    0  0.00000000000E+00  0.00000000000E+00 -0.70115490353E+03  0.70115491080E+03  0.10100000352E+00 0.  1.
    10030    2    1    2    0    0  0.00000000000E+00  0.00000000000E+00 -0.22705896983E+01  0.14000392319E+04  0.14000373907E+04 0.  0.
        4    1    3    3  502    0  0.41813619759E+03 -0.88230592877E+02  0.55330392836E+03  0.69912042403E+03  0.12699999809E+01 0. -1.
       -4    1    3    3    0  502 -0.41813619759E+03  0.88230592877E+02 -0.55557451806E+03  0.70091880790E+03  0.12699999809E+01 0.  1.
</event>
<event>
 5   0  0.2427569E-05  0.1401220E+04  0.7818609E-02  0.8952936E-01
        1   -1    0    0  501    0  0.00000000000E+00  0.00000000000E+00  0.18768746797E+04  0.18768746797E+04  0.50400001928E-02 0. -1.
       -1   -1    0    0    0  501  0.00000000000E+00  0.00000000000E+00 -0.26152751419E+03  0.26152751424E+03  0.50400001928E-02 0.  1.
    10030    2    1    2    0    0  0.00000000000E+00  0.00000000000E+00  0.16153471655E+04  0.21384021939E+04  0.14012199963E+04 0.  0.
        1    1    3    3  502    0 -0.44815431186E+03 -0.39364378490E+03  0.24683090252E+03  0.64554102200E+03  0.50400001928E-02 0.  1.
       -1    1    3    3    0  502  0.44815431186E+03  0.39364378490E+03  0.13685162630E+04  0.14928611719E+04  0.50400001928E-02 0. -1.
</event>
<event>
 5   0  0.2363419E-05  0.1394285E+04  0.7818609E-02  0.8957966E-01
       -1   -1    0    0    0  501  0.00000000000E+00  0.00000000000E+00  0.52758443589E+03  0.52758443592E+03  0.50400001928E-02 0.  1.
        1   -1    0    0  501    0  0.00000000000E+00  0.00000000000E+00 -0.92119415924E+03  0.92119415926E+03  0.50400001928E-02 0. -1.
    10030    2    1    2    0    0  0.00000000000E+00  0.00000000000E+00 -0.39360972335E+03  0.14487785952E+04  0.13942850510E+04 0.  0.
        2    1    3    3  502    0  0.21522707590E+03  0.63000333249E+03  0.18114202009E+02  0.66599926237E+03  0.25500000920E-02 0.  1.
       -2    1    3    3    0  502 -0.21522707590E+03 -0.63000333249E+03 -0.41172392536E+03  0.78277933281E+03  0.25500000920E-02 0. -1.
</event>
<event>
 5   0  0.2316714E-05  0.1400423E+04  0.7818609E-02  0.8953512E-01
       -1   -1    0    0    0  501  0.00000000000E+00  0.00000000000E+00  0.67935258207E+03  0.67935258209E+03  0.50400001928E-02 0. -1.
        1   -1    0    0  501    0  0.00000000000E+00  0.00000000000E+00 -0.72171122636E+03  0.72171122638E+03  0.50400001928E-02 0.  1.
    10030    2    1    2    0    0  0.00000000000E+00  0.00000000000E+00 -0.42358644292E+02  0.14010638085E+04  0.14004233434E+04 0.  0.
        5    1    3    3  502    0  0.54721692961E+03 -0.40774921457E+03 -0.17799444395E+03  0.70527292739E+03  0.46999998093E+01 0.  1.
       -5    1    3    3    0  502 -0.54721692961E+03  0.40774921457E+03  0.13563579966E+03  0.69579088108E+03  0.46999998093E+01 0. -1.
</event>
<event>
 5   0  0.4621450E-05  0.1400127E+04  0.7818609E-02  0.8953727E-01
        2   -1    0    0  501    0  0.00000000000E+00  0.00000000000E+00  0.62902834599E+03  0.62902834599E+03  0.25500000920E-02 0. -1.
       -2   -1    0    0    0  501  0.00000000000E+00  0.00000000000E+00 -0.77912056787E+03  0.77912056787E+03  0.25500000920E-02 0.  1.
    10030    2    1    2    0    0  0.00000000000E+00  0.00000000000E+00 -0.15009222188E+03  0.14081489139E+04  0.14001270259E+04 0.  0.
        5    1    3    3  502    0  0.19980096137E+03 -0.53024212789E+03  0.33839271186E+03  0.66000670890E+03  0.46999998093E+01 0. -1.
       -5    1    3    3    0  502 -0.19980096137E+03  0.53024212789E+03 -0.48848493374E+03  0.74814220496E+03  0.46999998093E+01 0.  1.
</event>
<event>
 5   0  0.2316714E-05  0.1399383E+04  0.7818609E-02  0.8954266E-01
       -1   -1    0    0    0  501  0.00000000000E+00  0.00000000000E+00  0.33324011748E+03  0.33324011752E+03  0.50400001928E-02 0. -1.
        1   -1    0    0  501    0  0.00000000000E+00  0.00000000000E+00 -0.14691146732E+04  0.14691146732E+04  0.50400001928E-02 0.  1.
    10030    2    1    2    0    0  0.00000000000E+00  0.00000000000E+00 -0.11358745557E+04  0.18023547907E+04  0.13993826443E+04 0.  0.
        5    1    3    3  502    0 -0.65110868554E+03 -0.82322942275E+02 -0.25555279378E+03  0.70430739568E+03  0.46999998093E+01 0. -1.
       -5    1    3    3    0  502  0.65110868554E+03  0.82322942275E+02 -0.88032176191E+03  0.10980473950E+04  0.46999998093E+01 0.  1.
</event>
<event>
 5   0  0.4460282E-05  0.1400617E+04  0.7818609E-02  0.8953372E-01
       -2   -1    0    0    0  501  0.00000000000E+00  0.00000000000E+00  0.16061835393E+04  0.16061835393E+04  0.25500000920E-02 0. -1.
        2   -1    0    0  501    0  0.00000000000E+00  0.00000000000E+00 -0.30534014583E+03  0.30534014584E+03  0.25500000920E-02 0.  1.
    10030    2    1    2    0    0  0.00000000000E+00  0.00000000000E+00  0.13008433935E+04  0.19115236852E+04  0.14006174583E+04 0.  0.
        1    1    3    3  502    0 -0.11365687722E+03  0.33159378629E+03  0.14778383631E+04  0.15188411873E+04  0.50400001928E-02 0. -1.
       -1    1    3    3    0  502  0.11365687722E+03 -0.33159378629E+03 -0.17699496958E+03  0.39268249786E+03  0.50400001928E-02 0.  1.
</event>
<event>
 5   0  0.2427569E-05  0.1397063E+04  0.7818609E-02  0.8955947E-01
       -1   -1    0    0    0  501  0.00000000000E+00  0.00000000000E+00  0.80287479769E+03  0.80287479771E+03  0.50400001928E-02 0.  1.
        1   -1    0    0  501    0  0.00000000000E+00  0.00000000000E+00 -0.60774917537E+03  0.60774917539E+03  0.50400001928E-02 0. -1.
    10030    2    1    2    0    0  0.00000000000E+00  0.00000000000E+00  0.19512562233E+03  0.14106239731E+04  0.13970633432E+04 0.  0.
        1    1    3    3  502    0  0.37492513925E+03 -0.39238425002E+03 -0.34649256879E+03  0.64388769204E+03  0.50400001928E-02 0. -1.
       -1    1    3    3    0  502 -0.37492513925E+03  0.39238425002E+03  0.54161819112E+03  0.76673628105E+03  0.50400001928E-02 0.  1.
</event>
<event>
 5   0  0.4527503E-05  0.1401179E+04  0.7818609E-02  0.8952966E-01
       -2   -1    0    0    0  501  0.00000000000E+00  0.00000000000E+00  0.43636922022E+03  0.43636922023E+03  0.25500000920E-02 0.  1.
        2   -1    0    0  501    0  0.00000000000E+00  0.00000000000E+00 -0.11247942208E+04  0.11247942208E+04  0.25500000920E-02 0. -1.
    10030    2    1    2    0    0  0.00000000000E+00  0.00000000000E+00 -0.68842500053E+03  0.15611634410E+04  0.14011788994E+04 0.  0.
        4    1    3    3  502    0 -0.29786413385E+03 -0.22810919179E+03 -0.10034326049E+04  0.10712774856E+04  0.12699999809E+01 0. -1.
       -4    1    3    3    0  502  0.29786413385E+03  0.22810919179E+03  0.31500760436E+03  0.48988595542E+03  0.12699999809E+01 0.  1.
</event>
<event>
 5   0  0.4441253E-05  0.1400615E+04  0.7818609E-02  0.8953373E-01
       -2   -1    0    0    0  501  0.00000000000E+00  0.00000000000E+00  0.44886592472E+03  0.44886592472E+03  0.25500000920E-02 0.  1.
        2   -1    0    0  501    0  0.00000000000E+00  0.00000000000E+00 -0.10925999395E+04  0.10925999395E+04  0.25500000920E-02 0. -1.
    10030    2    1    2    0    0  0.00000000000E+00  0.00000000000E+00 -0.64373401482E+03  0.15414658643E+04  0.14006154108E+04 0.  0.
        3    1    3    3  502    0 -0.40503728717E+03  0.67669083791E+00 -0.95061063061E+03  0.10333035581E+04  0.10100000352E+00 0. -1.
       -3    1    3    3    0  502  0.40503728717E+03 -0.67669083791E+00  0.30687661579E+03  0.50816230618E+03  0.10100000352E+00 0.  1.
</event>
<event>
 5   0  0.2467303E-05  0.1400744E+04  0.7818609E-02  0.8953280E-01
        1   -1    0    0  501    0  0.00000000000E+00  0.00000000000E+00  0.14449754759E+04  0.14449754759E+04  0.50400001928E-02 0. -1.
       -1   -1    0    0    0  501  0.00000000000E+00  0.00000000000E+00 -0.33946664531E+03  0.33946664535E+03  0.50400001928E-02 0.  1.
    10030    2    1    2    0    0  0.00000000000E+00  0.00000000000E+00  0.11055088306E+04  0.17844421213E+04  0.14007440557E+04 0.  0.
        3    1    3    3  502    0 -0.43505999005E+03 -0.51463485330E+03  0.30972267952E+03  0.74165650782E+03  0.10100000352E+00 0.  1.
       -3    1    3    3    0  502  0.43505999005E+03  0.51463485330E+03  0.79578615111E+03  0.10427856135E+04  0.10100000352E+00 0. -1.
</event>
<event>
 5   0  0.2316714E-05  0.1399211E+04  0.7818609E-02  0.8954390E-01
        1   -1    0    0  501    0  0.00000000000E+00  0.00000000000E+00  0.60283462056E+03  0.60283462058E+03  0.50400001928E-02 0.  1.
       -1   -1    0    0    0  501  0.00000000000E+00  0.00000000000E+00 -0.81191100716E+03  0.81191100717E+03  0.50400001928E-02 0. -1.
    10030    2    1    2    0    0  0.00000000000E+00  0.00000000000E+00 -0.20907638659E+03  0.14147456278E+04  0.13992112978E+04 0.  0.
        5    1    3    3  502    0 -0.28663930069E+03 -0.37888909586E+03  0.41468709428E+03  0.63063976390E+03  0.46999998093E+01 0.  1.
       -5    1    3    3    0  502  0.28663930069E+03  0.37888909586E+03 -0.62376348087E+03  0.78410586385E+03  0.46999998093E+01 0. -1.
</event>
<event>
 5   0  0.1661000E-05  0.1400213E+04  0.7818609E-02  0.8953665E-01
        3   -1    0    0  501    0  0.00000000000E+00  0.00000000000E+00  0.10770351740E+04  0.10770351787E+04  0.10100000352E+00 0.  1.
       -3   -1    0    0    0  501  0.00000000000E+00  0.00000000000E+00 -0.45509086535E+03  0.45509087656E+03  0.10100000352E+00 0. -1.
    10030    2    1    2    0    0  0.00000000000E+00  0.00000000000E+00  0.62194430864E+03  0.15321260553E+04  0.14002126718E+04 0.  0.
        1    1    3    3  502    0  0.29636882493E+03  0.56997496000E+02  0.10022023284E+04  0.10466578725E+04  0.50400001928E-02 0.  1.
       -1    1    3    3    0  502 -0.29636882493E+03 -0.56997496000E+02 -0.38025801973E+03  0.48546818283E+03  0.50400001928E-02 0. -1.
</event>
<event>
 5   0  0.2428507E-05  0.1400262E+04  0.7818609E-02  0.8953629E-01
        1   -1    0    0  501    0  0.00000000000E+00  0.00000000000E+00  0.10380936469E+04  0.10380936469E+04  0.50400001928E-02 0. -1.
       -1   -1    0    0    0  501  0.00000000000E+00  0.00000000000E+00 -0.47219585133E+03  0.47219585136E+03  0.50400001928E-02 0.  1.
    10030    2    1    2    0    0  0.00000000000E+00  0.00000000000E+00  0.56589779552E+03  0.15102894982E+04  0.14002621374E+04 0.  0.
        4    1    3    3  502    0  0.41640548967E+03 -0.28997431862E+03  0.80324682223E+03  0.95009773582E+03  0.12699999809E+01 0. -1.
       -4    1    3    3    0  502 -0.41640548967E+03  0.28997431862E+03 -0.23734902671E+03  0.56019176241E+03  0.12699999809E+01 0.  1.
</event>
<event>
 5   0  0.4621450E-05  0.1399971E+04  0.7818609E-02  0.8953839E-01
        2   -1    0    0  501    0  0.00000000000E+00  0.00000000000E+00  0.91429019338E+03  0.91429019338E+03  0.25500000920E-02 0. -1.
       -2   -1    0    0    0  501  0.00000000000E+00  0.00000000000E+00 -0.53591296824E+03  0.53591296824E+03  0.25500000920E-02 0.  1.
    10030    2    1    2    0    0  0.00000000000E+00  0.00000000000E+00  0.37837722514E+03  0.14502031616E+04  0.13999713874E+04 0.  0.
        5    1    3    3  502    0 -0.64853272992E+03  0.23896604888E+03  0.30387891756E+03  0.75502580143E+03  0.46999998093E+01 0. -1.
       -5    1    3    3    0  502  0.64853272992E+03 -0.23896604888E+03  0.74498307581E+02  0.69517736019E+03  0.46999998093E+01 0.  1.
</event>
<event>
 5   0  0.4243281E-05  0.1403318E+04  0.7818609E-02  0.8951420E-01
        2   -1    0    0  501    0  0.00000000000E+00  0.00000000000E+00  0.10483038939E+04  0.10483038939E+04  0.25500000920E-02 0.  1.
       -2   -1    0    0    0  501  0.00000000000E+00  0.00000000000E+00 -0.46963978917E+03  0.46963978918E+03  0.25500000920E-02 0. -1.
    10030    2    1    2    0    0  0.00000000000E+00  0.00000000000E+00  0.57866410469E+03  0.15179436830E+04  0.14033178111E+04 0.  0.
        2    1    3    3  502    0 -0.65085083629E+02 -0.96140136894E+02  0.10378421373E+04  0.10443157070E+04  0.25500000920E-02 0.  1.
       -2    1    3    3    0  502  0.65085083629E+02  0.96140136894E+02 -0.45917803259E+03  0.47362797601E+03  0.25500000920E-02 0. -1.
</event>
<event>
 5   0  0.4441253E-05  0.1401911E+04  0.7818609E-02  0.8952436E-01
        2   -1    0    0  501    0  0.00000000000E+00  0.00000000000E+00  0.95996923293E+03  0.95996923293E+03  0.25500000920E-02 0. -1.
       -2   -1    0    0    0  501  0.00000000000E+00  0.00000000000E+00 -0.51182765500E+03  0.51182765501E+03  0.25500000920E-02 0.  1.
    10030    2    1    2    0    0  0.00000000000E+00  0.00000000000E+00  0.44814157793E+03  0.14717968879E+04  0.14019112688E+04 0.  0.
        3    1    3    3  502    0 -0.33808224109E+03  0.97179036977E+02 -0.41244972085E+03  0.54208684674E+03  0.10100000352E+00 0.  1.
       -3    1    3    3    0  502  0.33808224109E+03 -0.97179036977E+02  0.86059129878E+03  0.92971004120E+03  0.10100000352E+00 0. -1.
</event>
<event>
 5   0  0.4243281E-05  0.1400655E+04  0.7818609E-02  0.8953345E-01
       -2   -1    0    0    0  501  0.00000000000E+00  0.00000000000E+00  0.50525308037E+03  0.50525308038E+03  0.25500000920E-02 0.  1.
        2   -1    0    0  501    0  0.00000000000E+00  0.00000000000E+00 -0.97071878469E+03  0.97071878470E+03  0.25500000920E-02 0. -1.
    10030    2    1    2    0    0  0.00000000000E+00  0.00000000000E+00 -0.46546570432E+03  0.14759718651E+04  0.14006550698E+04 0.  0.
        2    1    3    3  502    0 -0.43235736079E+03 -0.42522409984E+03  0.13640388826E+03  0.62157416553E+03  0.25500000920E-02 0.  1.
       -2    1    3    3    0  502  0.43235736079E+03  0.42522409984E+03 -0.60186959258E+03  0.85439769955E+03  0.25500000920E-02 0. -1.
</event>
<event>
 5   0  0.4441253E-05  0.1400131E+04  0.7818609E-02  0.8953724E-01
       -2   -1    0    0    0  501  0.00000000000E+00  0.00000000000E+00  0.70777604583E+03  0.70777604584E+03  0.25500000920E-02 0.  1.
        2   -1    0    0  501    0  0.00000000000E+00  0.00000000000E+00 -0.69243915515E+03  0.69243915515E+03  0.25500000920E-02 0. -1.
    10030    2    1    2    0    0  0.00000000000E+00  0.00000000000E+00  0.15336890686E+02  0.14002152010E+04  0.14001312042E+04 0.  0.
        3    1    3    3  502    0  0.58013116637E+03 -0.99268705091E+02 -0.37141285399E+03  0.69595543271E+03  0.10100000352E+00 0. -1.
       -3    1    3    3    0  502 -0.58013116637E+03  0.99268705091E+02  0.38674974468E+03  0.70425976828E+03  0.10100000352E+00 0.  1.
</event>
<event>
 5   0  0.4621450E-05  0.1401132E+04  0.7818609E-02  0.8952999E-01
        2   -1    0    0  501    0  0.00000000000E+00  0.00000000000E+00  0.23671243888E+04  0.23671243888E+04  0.25500000920E-02 0. -1.
       -2   -1    0    0    0  501  0.00000000000E+00  0.00000000000E+00 -0.20733716804E+03  0.20733716806E+03  0.25500000920E-02 0.  1.
    10030    2    1    2    0    0  0.00000000000E+00  0.00000000000E+00  0.21597872208E+04  0.25744615569E+04  0.14011322096E+04 0.  0.
        5    1    3    3  502    0 -0.16846417310E+03 -0.56385047312E+03  0.38152296716E+03  0.70134827163E+03  0.46999998093E+01 0.  1.
       -5    1    3    3    0  502  0.16846417310E+03  0.56385047312E+03  0.17782642536E+04  0.18731132852E+04  0.46999998093E+01 0. -1.
</event>
<event>
 5   0  0.4527503E-05  0.1400077E+04  0.7818609E-02  0.8953763E-01
        2   -1    0    0  501    0  0.00000000000E+00  0.00000000000E+00  0.86803676004E+03  0.86803676005E+03  0.25500000920E-02 0.  1.
       -2   -1    0    0    0  501  0.00000000000E+00  0.00000000000E+00 -0.56455429717E+03  0.56455429718E+03  0.25500000920E-02 0. -1.
    10030    2    1    2    0    0  0.00000000000E+00  0.00000000000E+00  0.30348246287E+03  0.14325910572E+04  0.14000769736E+04 0.  0.
        4    1    3    3  502    0 -0.34285643292E+03  0.51143384461E+03 -0.18906603261E+03  0.64409835320E+03  0.12699999809E+01 0. -1.
       -4    1    3    3    0  502  0.34285643292E+03 -0.51143384461E+03  0.49254849548E+03  0.78849270403E+03  0.12699999809E+01 0.  1.
</event>
<event>
 5   0  0.4527503E-05  0.1400852E+04  0.7818609E-02  0.8953202E-01
        2   -1    0    0  501    0  0.00000000000E+00  0.00000000000E+00  0.14020669185E+04  0.14020669185E+04  0.25500000920E-02 0. -1.
       -2   -1    0    0    0  501  0.00000000000E+00  0.00000000000E+00 -0.34990950040E+03  0.34990950041E+03  0.25500000920E-02 0.  1.
    10030    2    1    2    0    0  0.00000000000E+00  0.00000000000E+00  0.10521574181E+04  0.17519764189E+04  0.14008519336E+04 0.  0.
        4    1    3    3  502    0 -0.25420057675E+03  0.64497800726E+03  0.65102089637E+03  0.95102280912E+03  0.12699999809E+01 0.  1.
       -4    1    3    3    0  502  0.25420057675E+03 -0.64497800726E+03  0.40113652174E+03  0.80095360979E+03  0.12699999809E+01 0. -1.
</event>
<event>
 5   0  0.2427569E-05  0.1400083E+04  0.7818609E-02  0.8953758E-01
        1   -1    0    0  501    0  0.00000000000E+00  0.00000000000E+00  0.56639133487E+03  0.56639133489E+03  0.50400001928E-02 0. -1.
       -1   -1    0    0    0  501  0.00000000000E+00  0.00000000000E+00 -0.86522900759E+03  0.86522900760E+03  0.50400001928E-02 0.  1.
    10030    2    1    2    0    0  0.00000000000E+00  0.00000000000E+00 -0.29883767272E+03  0.14316203425E+04  0.14000831584E+04 0.  0.
        1    1    3    3  502    0  0.55616828781E+03 -0.42329416814E+03 -0.10906994154E+03  0.70738770792E+03  0.50400001928E-02 0.  1.
       -1    1    3    3    0  502 -0.55616828781E+03  0.42329416814E+03 -0.18976773118E+03  0.72423263457E+03  0.50400001928E-02 0. -1.
</event>
<event>
 5   0  0.4243281E-05  0.1399530E+04  0.7818609E-02  0.8954159E-01
        2   -1    0    0  501    0  0.00000000000E+00  0.00000000000E+00  0.10824566566E+04  0.10824566566E+04  0.25500000920E-02 0. -1.
       -2   -1    0    0    0  501  0.00000000000E+00  0.00000000000E+00 -0.45237028497E+03  0.45237028498E+03  0.25500000920E-02 0.  1.
    10030    2    1    2    0    0  0.00000000000E+00  0.00000000000E+00  0.63008637164E+03  0.15348269416E+04  0.13995302444E+04 0.  0.
        2    1    3    3  502    0 -0.67057341535E+03 -0.19620953589E+03  0.27250784021E+03  0.74995160533E+03  0.25500000920E-02 0.  1.
       -2    1    3    3    0  502  0.67057341535E+03  0.19620953589E+03  0.35757853143E+03  0.78487533628E+03  0.25500000920E-02 0. -1.
</event>
<event>
 5   0  0.2316714E-05  0.1399550E+04  0.7818609E-02  0.8954144E-01
       -1   -1    0    0    0  501  0.00000000000E+00  0.00000000000E+00  0.44360020089E+03  0.44360020092E+03  0.50400001928E-02 0.  1.
        1   -1    0    0  501    0  0.00000000000E+00  0.00000000000E+00 -0.11038882480E+04  0.11038882480E+04  0.50400001928E-02 0. -1.
    10030    2    1    2    0    0  0.00000000000E+00  0.00000000000E+00 -0.66028804713E+03  0.15474884490E+04  0.13995499971E+04 0.  0.
        5    1    3    3  502    0  0.28665668884E+03 -0.50592134206E+03  0.10027826681E+03  0.59009006296E+03  0.46999998093E+01 0.  1.
       -5    1    3    3    0  502 -0.28665668884E+03  0.50592134206E+03 -0.76056631395E+03  0.95739838600E+03  0.46999998093E+01 0. -1.
</event>
<event>
 5   0  0.2428507E-05  0.1399841E+04  0.7818609E-02  0.8953934E-01
        1   -1    0    0  501    0  0.00000000000E+00  0.00000000000E+00  0.13190679897E+04  0.13190679897E+04  0.50400001928E-02 0.  1.
       -1   -1    0    0    0  501  0.00000000000E+00  0.00000000000E+00 -0.37139001963E+03  0.37139001967E+03  0.50400001928E-02 0. -1.
    10030    2    1    2    0    0  0.00000000000E+00  0.00000000000E+00  0.94767797003E+03  0.16904580093E+04  0.13998409718E+04 0.  0.
        4    1    3    3  502    0  0.56450738692E+03 -0.18420721142E+03  0.92128341736E+03  0.10960682618E+04  0.12699999809E+01 0.  1.
       -4    1    3    3    0  502 -0.56450738692E+03  0.18420721142E+03  0.26394552674E+02  0.59438974750E+03  0.12699999809E+01 0. -1.
</event>
<event>
 5   0  0.2316714E-05  0.1399298E+04  0.7818609E-02  0.8954327E-01
       -1   -1    0    0    0  501  0.00000000000E+00  0.00000000000E+00  0.44089537795E+03  0.44089537798E+03  0.50400001928E-02 0.  1.
        1   -1    0    0  501    0  0.00000000000E+00  0.00000000000E+00 -0.11102601353E+04  0.11102601354E+04  0.50400001928E-02 0. -1.
    10030    2    1    2    0    0  0.00000000000E+00  0.00000000000E+00 -0.66936475739E+03  0.15511555133E+04  0.13992977696E+04 0.  0.
        5    1    3    3  502    0 -0.59192519492E+03 -0.28368379367E+03 -0.66257995830E+02  0.65974551395E+03  0.46999998093E+01 0. -1.
       -5    1    3    3    0  502  0.59192519492E+03  0.28368379367E+03 -0.60310676156E+03  0.89140999939E+03  0.46999998093E+01 0.  1.
</event>
<event>
 5   0  0.4460282E-05  0.1399889E+04  0.7818609E-02  0.8953899E-01
       -2   -1    0    0    0  501  0.00000000000E+00  0.00000000000E+00  0.91556328275E+03  0.91556328276E+03  0.25500000920E-02 0.  1.
        2   -1    0    0  501    0  0.00000000000E+00  0.00000000000E+00 -0.53510450199E+03  0.53510450200E+03  0.25500000920E-02 0. -1.
    10030    2    1    2    0    0  0.00000000000E+00  0.00000000000E+00  0.38045878076E+03  0.14506677848E+04  0.13998886162E+04 0.  0.
        1    1    3    3  502    0 -0.31595493950E+03  0.29613663198E+03 -0.37962468562E+03  0.57588135111E+03  0.50400001928E-02 0. -1.
       -1    1    3    3    0  502  0.31595493950E+03 -0.29613663198E+03  0.76008346638E+03  0.87478643365E+03  0.50400001928E-02 0.  1.
</event>
<event>
 5   0  0.4441253E-05  0.1400914E+04  0.7818609E-02  0.8953157E-01
       -2   -1    0    0    0  501  0.00000000000E+00  0.00000000000E+00  0.31548665467E+03  0.31548665468E+03  0.25500000920E-02 0.  1.
        2   -1    0    0  501    0  0.00000000000E+00  0.00000000000E+00 -0.15551840542E+04  0.15551840542E+04  0.25500000920E-02 0. -1.
    10030    2    1    2    0    0  0.00000000000E+00  0.00000000000E+00 -0.12396973995E+04  0.18706707089E+04  0.14009137228E+04 0.  0.
        3    1    3    3  502    0 -0.31699559404E+03  0.11534522558E+03  0.19987913902E+03  0.39209999761E+03  0.10100000352E+00 0.  1.
       -3    1    3    3    0  502  0.31699559404E+03 -0.11534522558E+03 -0.14395765385E+04  0.14785707112E+04  0.10100000352E+00 0. -1.
</event>
<event>
 5   0  0.4621450E-05  0.1400888E+04  0.7818609E-02  0.8953176E-01
       -2   -1    0    0    0  501  0.00000000000E+00  0.00000000000E+00  0.28838593157E+03  0.28838593158E+03  0.25500000920E-02 0. -1.
        2   -1    0    0  501    0  0.00000000000E+00  0.00000000000E+00 -0.17012679919E+04  0.17012679919E+04  0.25500000920E-02 0.  1.
    10030    2    1    2    0    0  0.00000000000E+00  0.00000000000E+00 -0.14128820603E+04  0.19896539235E+04  0.14008879394E+04 0.  0.
        5    1    3    3  502    0  0.69613531183E+03  0.57772924715E+01 -0.81610577806E+03  0.10727014871E+04  0.46999998093E+01 0.  1.
       -5    1    3    3    0  502 -0.69613531183E+03 -0.57772924715E+01 -0.59677628228E+03  0.91695243638E+03  0.46999998093E+01 0. -1.
</event>
<event>
 5   0  0.2316714E-05  0.1399853E+04  0.7818609E-02  0.8953925E-01
        1   -1    0    0  501    0  0.00000000000E+00  0.00000000000E+00  0.88095511460E+03  0.88095511462E+03  0.50400001928E-02 0. -1.
       -1   -1    0    0    0  501  0.00000000000E+00  0.00000000000E+00 -0.55609759934E+03  0.55609759936E+03  0.50400001928E-02 0.  1.
    10030    2    1    2    0    0  0.00000000000E+00  0.00000000000E+00  0.32485751526E+03  0.14370527140E+04  0.13998528842E+04 0.  0.
        5    1    3    3  502    0  0.41328496617E+03 -0.76882087205E+02 -0.41204894711E+03  0.58866097493E+03  0.46999998093E+01 0.  1.
       -5    1    3    3    0  502 -0.41328496617E+03  0.76882087205E+02  0.73690646237E+03  0.84839173905E+03  0.46999998093E+01 0. -1.
</event>
<event>
 5   0  0.4441253E-05  0.1399408E+04  0.7818609E-02  0.8954247E-01
        2   -1    0    0  501    0  0.00000000000E+00  0.00000000000E+00  0.96209445571E+03  0.96209445572E+03  0.25500000920E-02 0.  1.
       -2   -1    0    0    0  501  0.00000000000E+00  0.00000000000E+00 -0.50887485133E+03  0.50887485133E+03  0.25500000920E-02 0. -1.
    10030    2    1    2    0    0  0.00000000000E+00  0.00000000000E+00  0.45321960439E+03  0.14709693071E+04  0.13994079793E+04 0.  0.
        3    1    3    3  502    0  0.41865612192E+03  0.52661999273E+03  0.24463044819E+02  0.67320131902E+03  0.10100000352E+00 0. -1.
       -3    1    3    3    0  502 -0.41865612192E+03 -0.52661999273E+03  0.42875655957E+03  0.79776798804E+03  0.10100000352E+00 0.  1.
</event>
<event>
 5   0  0.4527503E-05  0.1399777E+04  0.7818609E-02  0.8953980E-01
        2   -1    0    0  501    0  0.00000000000E+00  0.00000000000E+00  0.61772273270E+03  0.61772273270E+03  0.25500000920E-02 0. -1.
       -2   -1    0    0    0  501  0.00000000000E+00  0.00000000000E+00 -0.79298328896E+03  0.79298328896E+03  0.25500000920E-02 0.  1.
    10030    2    1    2    0    0  0.00000000000E+00  0.00000000000E+00 -0.17526055626E+03  0.14107060217E+04  0.13997768454E+04 0.  0.
        4    1    3    3  502    0 -0.71603872904E+02 -0.69397968817E+03 -0.14380839155E+03  0.71233235824E+03  0.12699999809E+01 0.  1.
       -4    1    3    3    0  502  0.71603872904E+02  0.69397968817E+03 -0.31452164712E+02  0.69837366343E+03  0.12699999809E+01 0. -1.
</event>
<event>
 5   0  0.4621450E-05  0.1399956E+04  0.7818609E-02  0.8953850E-01
        2   -1    0    0  501    0  0.00000000000E+00  0.00000000000E+00  0.93626256115E+03  0.93626256115E+03  0.25500000920E-02 0.  1.
       -2   -1    0    0    0  501  0.00000000000E+00  0.00000000000E+00 -0.52332463684E+03  0.52332463684E+03  0.25500000920E-02 0. -1.
    10030    2    1    2    0    0  0.00000000000E+00  0.00000000000E+00  0.41293792431E+03  0.14595871980E+04  0.13999560919E+04 0.  0.
        5    1    3    3  502    0  0.10160086706E+03 -0.43669712527E+03 -0.35393923424E+03  0.57124617017E+03  0.46999998093E+01 0. -1.
       -5    1    3    3    0  502 -0.10160086706E+03  0.43669712527E+03  0.76687715856E+03  0.88834102782E+03  0.46999998093E+01 0.  1.
</event>
<event>
 5   0  0.2316714E-05  0.1399956E+04  0.7818609E-02  0.8953850E-01
       -1   -1    0    0    0  501  0.00000000000E+00  0.00000000000E+00  0.51657694545E+03  0.51657694548E+03  0.50400001928E-02 0.  1.
        1   -1    0    0  501    0  0.00000000000E+00  0.00000000000E+00 -0.94849252991E+03  0.94849252992E+03  0.50400001928E-02 0. -1.
    10030    2    1    2    0    0  0.00000000000E+00  0.00000000000E+00 -0.43191558446E+03  0.14650694754E+04  0.13999562478E+04 0.  0.
        5    1    3    3  502    0 -0.65819015801E+03 -0.22664667040E+03 -0.13930998347E+03  0.70993827816E+03  0.46999998093E+01 0.  1.
       -5    1    3    3    0  502  0.65819015801E+03  0.22664667040E+03 -0.29260560099E+03  0.75513119723E+03  0.46999998093E+01 0. -1.
</event>
<event>
 5   0  0.4441253E-05  0.1400556E+04  0.7818609E-02  0.8953416E-01
       -2   -1    0    0    0  501  0.00000000000E+00  0.00000000000E+00  0.85359393792E+03  0.85359393792E+03  0.25500000920E-02 0. -1.
        2   -1    0    0  501    0  0.00000000000E+00  0.00000000000E+00 -0.57449939130E+03  0.57449939130E+03  0.25500000920E-02 0.  1.
    10030    2    1    2    0    0  0.00000000000E+00  0.00000000000E+00  0.27909454662E+03  0.14280933292E+04  0.14005558864E+04 0.  0.
        3    1    3    3  502    0  0.55209745626E+03  0.37587123692E+02 -0.29803473150E+03  0.62852931869E+03  0.10100000352E+00 0.  1.
       -3    1    3    3    0  502 -0.55209745626E+03 -0.37587123692E+02  0.57712927812E+03  0.79956401053E+03  0.10100000352E+00 0. -1.
</event>
<event>
 5   0  0.4460282E-05  0.1404000E+04  0.7818609E-02  0.8950929E-01
       -2   -1    0    0    0  501  0.00000000000E+00  0.00000000000E+00  0.72956350558E+03  0.72956350558E+03  0.25500000920E-02 0. -1.
        2   -1    0    0  501    0  0.00000000000E+00  0.00000000000E+00 -0.67547745881E+03  0.67547745882E+03  0.25500000920E-02 0.  1.
    10030    2    1    2    0    0  0.00000000000E+00  0.00000000000E+00  0.54086046765E+02  0.14050409644E+04  0.14039995766E+04 0.  0.
        1    1    3    3  502    0 -0.20040572368E+03 -0.64097333903E+03 -0.17754546760E+03  0.69464499460E+03  0.50400001928E-02 0.  1.
       -1    1    3    3    0  502  0.20040572368E+03  0.64097333903E+03  0.23163151436E+03  0.71039596980E+03  0.50400001928E-02 0. -1.
</event>
<event>
 5   0  0.4527503E-05  0.1399393E+04  0.7818609E-02  0.8954258E-01
        2   -1    0    0  501    0  0.00000000000E+00  0.00000000000E+00  0.51662057625E+03  0.51662057626E+03  0.25500000920E-02 0. -1.
       -2   -1    0    0    0  501  0.00000000000E+00  0.00000000000E+00 -0.94765009522E+03  0.94765009523E+03  0.25500000920E-02 0.  1.
    10030    2    1    2    0    0  0.00000000000E+00  0.00000000000E+00 -0.43102951897E+03  0.14642706715E+04  0.13993934947E+04 0.  0.
        4    1    3    3  502    0  0.34742616652E+03 -0.40317270237E+03  0.25976899886E+03  0.59222860011E+03  0.12699999809E+01 0. -1.
       -4    1    3    3    0  502 -0.34742616652E+03  0.40317270237E+03 -0.69079851783E+03  0.87204207138E+03  0.12699999809E+01 0.  1.
</event>
<event>
 5   0  0.4460282E-05  0.1400300E+04  0.7818609E-02  0.8953601E-01
       -2   -1    0    0    0  501  0.00000000000E+00  0.00000000000E+00  0.41096566167E+03  0.41096566168E+03  0.25500000920E-02 0. -1.
        2   -1    0    0  501    0  0.00000000000E+00  0.00000000000E+00 -0.11928246604E+04  0.11928246604E+04  0.25500000920E-02 0.  1.
    10030    2    1    2    0    0  0.00000000000E+00  0.00000000000E+00 -0.78185899873E+03  0.16037903221E+04  0.14002999333E+04 0.  0.
        1    1    3    3  502    0 -0.61627661964E+03 -0.49794477972E+02 -0.14654919491E+02  0.61845867173E+03  0.50400001928E-02 0.  1.
       -1    1    3    3    0  502  0.61627661964E+03  0.49794477972E+02 -0.76720407924E+03  0.98533165035E+03  0.50400001928E-02 0. -1.
</event>
<event>
 5   0  0.4441253E-05  0.1400952E+04  0.7818609E-02  0.8953130E-01
       -2   -1    0    0    0  501  0.00000000000E+00  0.00000000000E+00  0.71356059793E+03  0.71356059794E+03  0.25500000920E-02 0. -1.
        2   -1    0    0  501    0  0.00000000000E+00  0.00000000000E+00 -0.68763094110E+03  0.68763094111E+03  0.25500000920E-02 0.  1.
    10030    2    1    2    0    0  0.00000000000E+00  0.00000000000E+00  0.25929656830E+02  0.14011915390E+04  0.14009515987E+04 0.  0.
        3    1    3    3  502    0 -0.62091805699E+03 -0.66928233522E+02 -0.30433974465E+03  0.69472391085E+03  0.10100000352E+00 0.  1.
       -3    1    3    3    0  502  0.62091805699E+03  0.66928233522E+02  0.33026940148E+03  0.70646762820E+03  0.10100000352E+00 0. -1.
</event>
<event>
 5   0  0.4243281E-05  0.1400224E+04  0.7818609E-02  0.8953656E-01
        2   -1    0    0  501    0  0.00000000000E+00  0.00000000000E+00  0.10961239586E+04  0.10961239586E+04  0.25500000920E-02 0. -1.
       -2   -1    0    0    0  501  0.00000000000E+00  0.00000000000E+00 -0.44717307360E+03  0.44717307361E+03  0.25500000920E-02 0.  1.
    10030    2    1    2    0    0  0.00000000000E+00  0.00000000000E+00  0.64895088502E+03  0.15432970322E+04  0.14002244386E+04 0.  0.
        2    1    3    3  502    0 -0.28336104834E+03 -0.64018688967E+03  0.32991781698E+03  0.77393701513E+03  0.25500000920E-02 0.  1.
       -2    1    3    3    0  502  0.28336104834E+03  0.64018688967E+03  0.31903306804E+03  0.76936001711E+03  0.25500000920E-02 0. -1.
</event>
<event>
 5   0  0.4460282E-05  0.1400143E+04  0.7818609E-02  0.8953715E-01
       -2   -1    0    0    0  501  0.00000000000E+00  0.00000000000E+00  0.70658975537E+03  0.70658975538E+03  0.25500000920E-02 0.  1.
        2   -1    0    0  501    0  0.00000000000E+00  0.00000000000E+00 -0.69361348365E+03  0.69361348366E+03  0.25500000920E-02 0. -1.
    10030    2    1    2    0    0  0.00000000000E+00  0.00000000000E+00  0.12976271719E+02  0.14002032390E+04  0.14001431095E+04 0.  0.
        1    1    3    3  502    0  0.59695600298E+03 -0.33979251106E+03  0.14171510127E+03  0.70135482462E+03  0.50400001928E-02 0. -1.
       -1    1    3    3    0  502 -0.59695600298E+03  0.33979251106E+03 -0.12873882955E+03  0.69884841441E+03  0.50400001928E-02 0.  1.
</event>
<event>
 5   0  0.4243281E-05  0.1400229E+04  0.7818609E-02  0.8953653E-01
       -2   -1    0    0    0  501  0.00000000000E+00  0.00000000000E+00  0.27857580000E+03  0.27857580001E+03  0.25500000920E-02 0. -1.
        2   -1    0    0  501    0  0.00000000000E+00  0.00000000000E+00 -0.17595223358E+04  0.17595223359E+04  0.25500000920E-02 0.  1.
    10030    2    1    2    0    0  0.00000000000E+00  0.00000000000E+00 -0.14809465359E+04  0.20380981359E+04  0.14002290417E+04 0.  0.
        2    1    3    3  502    0  0.13957669596E+03 -0.11548605386E+03  0.24386958536E+03  0.30379443274E+03  0.25500000920E-02 0. -1.
       -2    1    3    3    0  502 -0.13957669596E+03  0.11548605386E+03 -0.17248161212E+04  0.17343037031E+04  0.25500000920E-02 0.  1.
</event>
<event>
 5   0  0.2427569E-05  0.1399913E+04  0.7818609E-02  0.8953881E-01
       -1   -1    0    0    0  501  0.00000000000E+00  0.00000000000E+00  0.47317838691E+03  0.47317838694E+03  0.50400001928E-02 0.  1.
        1   -1    0    0  501    0  0.00000000000E+00  0.00000000000E+00 -0.10354222652E+04  0.10354222652E+04  0.50400001928E-02 0. -1.
    10030    2    1    2    0    0  0.00000000000E+00  0.00000000000E+00 -0.56224387827E+03  0.15086006521E+04  0.13999134791E+04 0.  0.
        1    1    3    3  502    0  0.47994324591E+03 -0.11100108966E+03  0.25475017830E+03  0.55458490294E+03  0.50400001928E-02 0.  1.
       -1    1    3    3    0  502 -0.47994324591E+03  0.11100108966E+03 -0.81699405657E+03  0.95401574919E+03  0.50400001928E-02 0. -1.
</event>
<event>
 5   0  0.2363419E-05  0.1400109E+04  0.7818609E-02  0.8953740E-01
       -1   -1    0    0    0  501  0.00000000000E+00  0.00000000000E+00  0.29069194511E+03  0.29069194515E+03  0.50400001928E-02 0. -1.
        1   -1    0    0  501    0  0.00000000000E+00  0.00000000000E+00 -0.16858960748E+04  0.16858960748E+04  0.50400001928E-02 0.  1.
    10030    2    1    2    0    0  0.00000000000E+00  0.00000000000E+00 -0.13952041297E+04  0.19765880200E+04  0.14001091519E+04 0.  0.
        2    1    3    3  502    0  0.27524179797E+02  0.69315572340E+02  0.28506751150E+03  0.29466203549E+03  0.25500000920E-02 0. -1.
       -2    1    3    3    0  502 -0.27524179797E+02 -0.69315572340E+02 -0.16802716412E+04  0.16819259845E+04  0.25500000920E-02 0.  1.
</event>
<event>
 5   0  0.2428507E-05  0.1399790E+04  0.7818609E-02  0.8953970E-01
        1   -1    0    0  501    0  0.00000000000E+00  0.00000000000E+00  0.54374890441E+03  0.54374890444E+03  0.50400001928E-02 0. -1.
       -1   -1    0    0    0  501  0.00000000000E+00  0.00000000000E+00 -0.90088107425E+03  0.90088107427E+03  0.50400001928E-02 0.  1.
    10030    2    1    2    0    0  0.00000000000E+00  0.00000000000E+00 -0.35713216984E+03  0.14446299787E+04  0.13997901231E+04 0.  0.
        4    1    3    3  502    0 -0.27107040543E+03  0.14847101413E+03  0.46950534984E+03  0.56210292044E+03  0.12699999809E+01 0. -1.
       -4    1    3    3    0  502  0.27107040543E+03 -0.14847101413E+03 -0.82663751968E+03  0.88252705827E+03  0.12699999809E+01 0.  1.
</event>
<event>
 5   0  0.2316714E-05  0.1400192E+04  0.7818609E-02  0.8953679E-01
       -1   -1    0    0    0  501  0.00000000000E+00  0.00000000000E+00  0.31322935450E+03  0.31322935454E+03  0.50400001928E-02 0.  1.
        1   -1    0    0  501    0  0.00000000000E+00  0.00000000000E+00 -0.15647783562E+04  0.15647783562E+04  0.50400001928E-02 0. -1.
    10030    2    1    2    0    0  0.00000000000E+00  0.00000000000E+00 -0.12515490017E+04  0.18780077107E+04  0.14001921504E+04 0.  0.
        5    1    3    3  502    0 -0.23745359488E+03 -0.32215736380E+03 -0.13961972384E+04  0.14524318900E+04  0.46999998093E+01 0. -1.
       -5    1    3    3    0  502  0.23745359488E+03  0.32215736380E+03  0.14464823669E+03  0.42557582068E+03  0.46999998093E+01 0.  1.
</event>
<event>
 5   0  0.4441253E-05  0.1400222E+04  0.7818609E-02  0.8953658E-01
       -2   -1    0    0    0  501  0.00000000000E+00  0.00000000000E+00  0.42186105137E+03  0.42186105138E+03  0.25500000920E-02 0.  1.
        2   -1    0    0  501    0  0.00000000000E+00  0.00000000000E+00 -0.11618876152E+04  0.11618876152E+04  0.25500000920E-02 0. -1.
    10030    2    1    2    0    0  0.00000000000E+00  0.00000000000E+00 -0.74002656379E+03  0.15837486665E+04  0.14002215981E+04 0.  0.
        3    1    3    3  502    0  0.32595304890E+03 -0.17111361127E+03  0.30354804206E+03  0.47714429902E+03  0.10100000352E+00 0.  1.
       -3    1    3    3    0  502 -0.32595304890E+03  0.17111361127E+03 -0.10435746059E+04  0.11066043675E+04  0.10100000352E+00 0. -1.
</event>
<event>
 5   0  0.1661000E-05  0.1400237E+04  0.7818609E-02  0.8953647E-01
       -3   -1    0    0    0  501  0.00000000000E+00  0.00000000000E+00  0.47088493964E+03  0.47088495047E+03  0.10100000352E+00 0. -1.
        3   -1    0    0  501    0  0.00000000000E+00  0.00000000000E+00 -0.10409460036E+04  0.10409460085E+04  0.10100000352E+00 0.  1.
    10030    2    1    2    0    0  0.00000000000E+00  0.00000000000E+00 -0.57006106400E+03  0.15118309590E+04  0.14002368485E+04 0.  0.
        3    1    3    3  502    0  0.42869209759E+03  0.16262475996E+03  0.28623210137E+03  0.54051138114E+03  0.10100000352E+00 0. -1.
       -3    1    3    3    0  502 -0.42869209759E+03 -0.16262475996E+03 -0.85629316537E+03  0.97131957787E+03  0.10100000352E+00 0.  1.
</event>
<event>
 5   0  0.4441253E-05  0.1399718E+04  0.7818609E-02  0.8954023E-01
       -2   -1    0    0    0  501  0.00000000000E+00  0.00000000000E+00  0.40922203307E+03  0.40922203308E+03  0.25500000920E-02 0. -1.
        2   -1    0    0  501    0  0.00000000000E+00  0.00000000000E+00 -0.11969115383E+04  0.11969115383E+04  0.25500000920E-02 0.  1.
    10030    2    1    2    0    0  0.00000000000E+00  0.00000000000E+00 -0.78768950521E+03  0.16061335714E+04  0.13997179332E+04 0.  0.
        3    1    3    3  502    0  0.67923628130E+03  0.80304393427E+01 -0.58713852493E+03  0.89786305830E+03  0.10100000352E+00 0.  1.
       -3    1    3    3    0  502 -0.67923628130E+03 -0.80304393427E+01 -0.20055098028E+03  0.70827051307E+03  0.10100000352E+00 0. -1.
</event>
<event>
 5   0  0.2467303E-05  0.1399508E+04  0.7818609E-02  0.8954175E-01
        1   -1    0    0  501    0  0.00000000000E+00  0.00000000000E+00  0.20038873542E+04  0.20038873542E+04  0.50400001928E-02 0.  1.
       -1   -1    0    0    0  501  0.00000000000E+00  0.00000000000E+00 -0.24435298917E+03  0.24435298922E+03  0.50400001928E-02 0. -1.
    10030    2    1    2    0    0  0.00000000000E+00  0.00000000000E+00  0.17595343650E+04  0.22482403434E+04  0.13995082922E+04 0.  0.
        3    1    3    3  502    0  0.53153436977E+03  0.43623212618E+03  0.10881640867E+04  0.12872172870E+04  0.10100000352E+00 0.  1.
       -3    1    3    3    0  502 -0.53153436977E+03 -0.43623212618E+03  0.67137027837E+03  0.96102305646E+03  0.10100000352E+00 0. -1.
</event>
<event>
 5   0  0.2428507E-05  0.1399344E+04  0.7818609E-02  0.8954294E-01
       -1   -1    0    0    0  501  0.00000000000E+00  0.00000000000E+00  0.48689411067E+03  0.48689411069E+03  0.50400001928E-02 0. -1.
        1   -1    0    0  501    0  0.00000000000E+00  0.00000000000E+00 -0.10054360953E+04  0.10054360953E+04  0.50400001928E-02 0.  1.
    10030    2    1    2    0    0  0.00000000000E+00  0.00000000000E+00 -0.51854198464E+03  0.14923302060E+04  0.13993440084E+04 0.  0.
        4    1    3    3  502    0 -0.51861569438E+03  0.98384121874E+01 -0.76002599969E+03  0.92016311919E+03  0.12699999809E+01 0. -1.
       -4    1    3    3    0  502  0.51861569438E+03 -0.98384121874E+01  0.24148401506E+03  0.57216708682E+03  0.12699999809E+01 0.  1.
</event>
<event>
 5   0  0.2316714E-05  0.1399992E+04  0.7818609E-02  0.8953824E-01
       -1   -1    0    0    0  501  0.00000000000E+00  0.00000000000E+00  0.41416655118E+03  0.41416655121E+03  0.50400001928E-02 0. -1.
        1   -1    0    0  501    0  0.00000000000E+00  0.00000000000E+00 -0.11830852824E+04  0.11830852824E+04  0.50400001928E-02 0.  1.
    10030    2    1    2    0    0  0.00000000000E+00  0.00000000000E+00 -0.76891873120E+03  0.15972518336E+04  0.13999919302E+04 0.  0.
        5    1    3    3  502    0 -0.38225781290E+03  0.45596004406E+01  0.28453124407E+03  0.47657312590E+03  0.46999998093E+01 0. -1.
       -5    1    3    3    0  502  0.38225781290E+03 -0.45596004406E+01 -0.10534499753E+04  0.11206787077E+04  0.46999998093E+01 0.  1.
</event>
<event>
 5   0  0.4527503E-05  0.1399872E+04  0.7818609E-02  0.8953911E-01
       -2   -1    0    0    0  501  0.00000000000E+00  0.00000000000E+00  0.43303834263E+03  0.43303834264E+03  0.25500000920E-02 0.  1.
        2   -1    0    0  501    0  0.00000000000E+00  0.00000000000E+00 -0.11313326455E+04  0.11313326455E+04  0.25500000920E-02 0. -1.
    10030    2    1    2    0    0  0.00000000000E+00  0.00000000000E+00 -0.69829430284E+03  0.15643709881E+04  0.13998720138E+04 0.  0.
        4    1    3    3  502    0  0.34537486396E+03  0.51712392848E+03  0.98638695041E+01  0.62193236199E+03  0.12699999809E+01 0.  1.
       -4    1    3    3    0  502 -0.34537486396E+03 -0.51712392848E+03 -0.70815817234E+03  0.94243862613E+03  0.12699999809E+01 0. -1.
</event>
<event>
 5   0  0.4527503E-05  0.1399741E+04  0.7818609E-02  0.8954006E-01
        2   -1    0    0  501    0  0.00000000000E+00  0.00000000000E+00  0.12929277584E+04  0.12929277584E+04  0.25500000920E-02 0. -1.
       -2   -1    0    0    0  501  0.00000000000E+00  0.00000000000E+00 -0.37884448143E+03  0.37884448144E+03  0.25500000920E-02 0.  1.
    10030    2    1    2    0    0  0.00000000000E+00  0.00000000000E+00  0.91408327697E+03  0.16717722398E+04  0.13997407562E+04 0.  0.
        4    1    3    3  502    0 -0.44173240313E+03 -0.34038159231E+03 -0.48025872812E+02  0.55972782825E+03  0.12699999809E+01 0.  1.
       -4    1    3    3    0  502  0.44173240313E+03  0.34038159231E+03  0.96210914978E+03  0.11120444116E+04  0.12699999809E+01 0. -1.
</event>
<event>
 5   0  0.4441253E-05  0.1396814E+04  0.7818609E-02  0.8956128E-01
       -2   -1    0    0    0  501  0.00000000000E+00  0.00000000000E+00  0.39159085663E+03  0.39159085664E+03  0.25500000920E-02 0.  1.
        2   -1    0    0  501    0  0.00000000000E+00  0.00000000000E+00 -0.12456163978E+04  0.12456163978E+04  0.25500000920E-02 0. -1.
    10030    2    1    2    0    0  0.00000000000E+00  0.00000000000E+00 -0.85402554119E+03  0.16372072545E+04  0.13968135055E+04 0.  0.
        3    1    3    3  502    0 -0.51154494760E+03 -0.15850710492E+03  0.98435584459E+02  0.54451107446E+03  0.10100000352E+00 0.  1.
       -3    1    3    3    0  502  0.51154494760E+03  0.15850710492E+03 -0.95246112565E+03  0.10926961800E+04  0.10100000352E+00 0. -1.
</event>
<event>
 5   0  0.2427569E-05  0.1400176E+04  0.7818609E-02  0.8953691E-01
        1   -1    0    0  501    0  0.00000000000E+00  0.00000000000E+00  0.65398561703E+03  0.65398561705E+03  0.50400001928E-02 0.  1.
       -1   -1    0    0    0  501  0.00000000000E+00  0.00000000000E+00 -0.74943995455E+03  0.74943995457E+03  0.50400001928E-02 0. -1.
    10030    2    1    2    0    0  0.00000000000E+00  0.00000000000E+00 -0.95454337522E+02  0.14034255716E+04  0.14001756334E+04 0.  0.
        1    1    3    3  502    0  0.69142913533E+03 -0.60290399791E+02  0.44212339747E+02  0.69545949739E+03  0.50400001928E-02 0.  1.
       -1    1    3    3    0  502 -0.69142913533E+03  0.60290399791E+02 -0.13966667727E+03  0.70796607423E+03  0.50400001928E-02 0. -1.
</event>
<event>
 5   0  0.4527503E-05  0.1402049E+04  0.7818609E-02  0.8952337E-01
        2   -1    0    0  501    0  0.00000000000E+00  0.00000000000E+00  0.96056747909E+03  0.96056747909E+03  0.25500000920E-02 0. -1.
       -2   -1    0    0    0  501  0.00000000000E+00  0.00000000000E+00 -0.51160959436E+03  0.51160959437E+03  0.25500000920E-02 0.  1.
    10030    2    1    2    0    0  0.00000000000E+00  0.00000000000E+00  0.44895788472E+03  0.14721770735E+04  0.14020492692E+04 0.  0.
        4    1    3    3  502    0 -0.36192589607E+03 -0.43186182750E+03  0.66239934129E+03  0.86963756390E+03  0.12699999809E+01 0. -1.
       -4    1    3    3    0  502  0.36192589607E+03  0.43186182750E+03 -0.21344145656E+03  0.60253950956E+03  0.12699999809E+01 0.  1.
</event>
<event>
 5   0  0.2428507E-05  0.1400334E+04  0.7818609E-02  0.8953577E-01
        1   -1    0    0  501    0  0.00000000000E+00  0.00000000000E+00  0.11988099115E+04  0.11988099115E+04  0.50400001928E-02 0. -1.
       -1   -1    0    0    0  501  0.00000000000E+00  0.00000000000E+00 -0.40893351897E+03  0.40893351901E+03  0.50400001928E-02 0.  1.
    10030    2    1    2    0    0  0.00000000000E+00  0.00000000000E+00  0.78987639252E+03  0.16077434305E+04  0.14003336113E+04 0.  0.
        4    1    3    3  502    0  0.42135072442E+02 -0.22937259454E+03 -0.36303030962E+03  0.43148553864E+03  0.12699999809E+01 0.  1.
       -4    1    3    3    0  502 -0.42135072442E+02  0.22937259454E+03  0.11529067021E+04  0.11762578919E+04  0.12699999809E+01 0. -1.
</event>
<event>
 5   0  0.4460282E-05  0.1399737E+04  0.7818609E-02  0.8954009E-01
        2   -1    0    0  501    0  0.00000000000E+00  0.00000000000E+00  0.10952786183E+04  0.10952786183E+04  0.25500000920E-02 0. -1.
       -2   -1    0    0    0  501  0.00000000000E+00  0.00000000000E+00 -0.44720690086E+03  0.44720690087E+03  0.25500000920E-02 0.  1.
    10030    2    1    2    0    0  0.00000000000E+00  0.00000000000E+00  0.64807171744E+03  0.15424855192E+04  0.13997373418E+04 0.  0.
        1    1    3    3  502    0 -0.26023756558E+02  0.15017926966E+03  0.10767671727E+04  0.10875010773E+04  0.50400001928E-02 0. -1.
       -1    1    3    3    0  502  0.26023756558E+02 -0.15017926966E+03 -0.42869545526E+03  0.45498444185E+03  0.50400001928E-02 0.  1.
</event>
<event>
 5   0  0.4621450E-05  0.1399877E+04  0.7818609E-02  0.8953907E-01
       -2   -1    0    0    0  501  0.00000000000E+00  0.00000000000E+00  0.12720338607E+04  0.12720338607E+04  0.25500000920E-02 0.  1.
        2   -1    0    0  501    0  0.00000000000E+00  0.00000000000E+00 -0.38514243384E+03  0.38514243385E+03  0.25500000920E-02 0. -1.
    10030    2    1    2    0    0  0.00000000000E+00  0.00000000000E+00  0.88689142687E+03  0.16571762946E+04  0.13998774476E+04 0.  0.
        5    1    3    3  502    0  0.49052184849E+03 -0.34896056307E+03  0.20732663338E+02  0.60235960335E+03  0.46999998093E+01 0. -1.
       -5    1    3    3    0  502 -0.49052184849E+03  0.34896056307E+03  0.86615876353E+03  0.10548166912E+04  0.46999998093E+01 0.  1.
</event>
<event>
 5   0  0.2427569E-05  0.1400139E+04  0.7818609E-02  0.8953718E-01
       -1   -1    0    0    0  501  0.00000000000E+00  0.00000000000E+00  0.30808632210E+03  0.30808632214E+03  0.50400001928E-02 0.  1.
        1   -1    0    0  501    0  0.00000000000E+00  0.00000000000E+00 -0.15907789060E+04  0.15907789060E+04  0.50400001928E-02 0. -1.
    10030    2    1    2    0    0  0.00000000000E+00  0.00000000000E+00 -0.12826925839E+04  0.18988652281E+04  0.14001388823E+04 0.  0.
        1    1    3    3  502    0  0.39060252157E+03 -0.10500943971E+03  0.13358742740E+03  0.42596116381E+03  0.50400001928E-02 0.  1.
       -1    1    3    3    0  502 -0.39060252157E+03  0.10500943971E+03 -0.14162800113E+04  0.14729040643E+04  0.50400001928E-02 0. -1.
</event>
<event>
 5   0  0.2427569E-05  0.1399715E+04  0.7818609E-02  0.8954025E-01
        1   -1    0    0  501    0  0.00000000000E+00  0.00000000000E+00  0.12402410093E+04  0.12402410093E+04  0.50400001928E-02 0.  1.
       -1   -1    0    0    0  501  0.00000000000E+00  0.00000000000E+00 -0.39492345615E+03  0.39492345618E+03  0.50400001928E-02 0. -1.
    10030    2    1    2    0    0  0.00000000000E+00  0.00000000000E+00  0.84531755312E+03  0.16351644655E+04  0.13997146364E+04 0.  0.
        1    1    3    3  502    0  0.29539536678E+03  0.30714673851E+02 -0.31765861471E+03  0.43486642711E+03  0.50400001928E-02 0. -1.
       -1    1    3    3    0  502 -0.29539536678E+03 -0.30714673851E+02  0.11629761678E+04  0.12002980383E+04  0.50400001928E-02 0.  1.
</event>
<event>
 5   0  0.2428507E-05  0.1399999E+04  0.7818609E-02  0.8953819E-01
       -1   -1    0    0    0  501  0.00000000000E+00  0.00000000000E+00  0.94833839160E+03  0.94833839162E+03  0.50400001928E-02 0. -1.
        1   -1    0    0  501    0  0.00000000000E+00  0.00000000000E+00 -0.51669272080E+03  0.51669272082E+03  0.50400001928E-02 0.  1.
    10030    2    1    2    0    0  0.00000000000E+00  0.00000000000E+00  0.43164567081E+03  0.14650311124E+04  0.13999993483E+04 0.  0.
        4    1    3    3  502    0  0.32895801325E+03 -0.16466420756E+03  0.83902850830E+03  0.91613215551E+03  0.12699999809E+01 0. -1.
       -4    1    3    3    0  502 -0.32895801325E+03  0.16466420756E+03 -0.40738283749E+03  0.54889895692E+03  0.12699999809E+01 0.  1.
</event>
<event>
 5   0  0.4527503E-05  0.1400163E+04  0.7818609E-02  0.8953701E-01
        2   -1    0    0  501    0  0.00000000000E+00  0.00000000000E+00  0.21545952798E+04  0.21545952798E+04  0.25500000920E-02 0.  1.
       -2   -1    0    0    0  501  0.00000000000E+00  0.00000000000E+00 -0.22747381385E+03  0.22747381387E+03  0.25500000920E-02 0. -1.
    10030    2    1    2    0    0  0.00000000000E+00  0.00000000000E+00  0.19271214660E+04  0.23820690937E+04  0.14001628557E+04 0.  0.
        4    1    3    3  502    0  0.23189518316E+03  0.40098116205E+03  0.18566130383E+04  0.19135241977E+04  0.12699999809E+01 0.  1.
       -4    1    3    3    0  502 -0.23189518316E+03 -0.40098116205E+03  0.70508427671E+02  0.46854489599E+03  0.12699999809E+01 0. -1.
</event>
<event>
 5   0  0.2427569E-05  0.1400118E+04  0.7818609E-02  0.8953733E-01
       -1   -1    0    0    0  501  0.00000000000E+00  0.00000000000E+00  0.42246439738E+03  0.42246439741E+03  0.50400001928E-02 0. -1.
        1   -1    0    0  501    0  0.00000000000E+00  0.00000000000E+00 -0.11600569898E+04  0.11600569898E+04  0.50400001928E-02 0.  1.
    10030    2    1    2    0    0  0.00000000000E+00  0.00000000000E+00 -0.73759259240E+03  0.15825213872E+04  0.14001182481E+04 0.  0.
        1    1    3    3  502    0  0.13401464409E+03 -0.11610610008E+03  0.39666262743E+03  0.43449026609E+03  0.50400001928E-02 0. -1.
       -1    1    3    3    0  502 -0.13401464409E+03  0.11610610008E+03 -0.11342552198E+04  0.11480311211E+04  0.50400001928E-02 0.  1.
</event>
<event>
 5   0  0.4460282E-05  0.1399406E+04  0.7818609E-02  0.8954248E-01
       -2   -1    0    0    0  501  0.00000000000E+00  0.00000000000E+00  0.76267306890E+03  0.76267306890E+03  0.25500000920E-02 0.  1.
        2   -1    0    0  501    0  0.00000000000E+00  0.00000000000E+00 -0.64193236774E+03  0.64193236774E+03  0.25500000920E-02 0. -1.
    10030    2    1    2    0    0  0.00000000000E+00  0.00000000000E+00  0.12074070116E+03  0.14046054366E+04  0.13994063440E+04 0.  0.
        1    1    3    3  502    0  0.31859932396E+03  0.55486585585E+03  0.34462363602E+03  0.72673729624E+03  0.50400001928E-02 0.  1.
       -1    1    3    3    0  502 -0.31859932396E+03 -0.55486585585E+03 -0.22388293486E+03  0.67786814040E+03  0.50400001928E-02 0. -1.
</event>
<event>
 5   0  0.1661000E-05  0.1400662E+04  0.7818609E-02  0.8953339E-01
        3   -1    0    0  501    0  0.00000000000E+00  0.00000000000E+00  0.13625512087E+04  0.13625512125E+04  0.10100000352E+00 0.  1.
       -3   -1    0    0    0  501  0.00000000000E+00  0.00000000000E+00 -0.35995993390E+03  0.35995994807E+03  0.10100000352E+00 0. -1.
    10030    2    1    2    0    0  0.00000000000E+00  0.00000000000E+00  0.10025912748E+04  0.17225111605E+04  0.14006624982E+04 0.  0.
        1    1    3    3  502    0  0.20461635789E+03 -0.38643354180E+03  0.11740501139E+04  0.12528337504E+04  0.50400001928E-02 0.  1.
       -1    1    3    3    0  502 -0.20461635789E+03  0.38643354180E+03 -0.17145883902E+03  0.46967741020E+03  0.50400001928E-02 0. -1.
</event>
<event>
 5   0  0.2316714E-05  0.1400536E+04  0.7818609E-02  0.8953430E-01
        1   -1    0    0  501    0  0.00000000000E+00  0.00000000000E+00  0.71245092465E+03  0.71245092467E+03  0.50400001928E-02 0.  1.
       -1   -1    0    0    0  501  0.00000000000E+00  0.00000000000E+00 -0.68829362541E+03  0.68829362543E+03  0.50400001928E-02 0. -1.
    10030    2    1    2    0    0  0.00000000000E+00  0.00000000000E+00  0.24157299237E+02  0.14007445501E+04  0.14005362257E+04 0.  0.
        5    1    3    3  502    0  0.41598440879E+03  0.47238318396E+03  0.31898654187E+03  0.70566522143E+03  0.46999998093E+01 0.  1.
       -5    1    3    3    0  502 -0.41598440879E+03 -0.47238318396E+03 -0.29482924263E+03  0.69507932867E+03  0.46999998093E+01 0. -1.
</event>
<event>
 5   0  0.4441253E-05  0.1400135E+04  0.7818609E-02  0.8953721E-01
        2   -1    0    0  501    0  0.00000000000E+00  0.00000000000E+00  0.10398060527E+04  0.10398060527E+04  0.25500000920E-02 0. -1.
       -2   -1    0    0    0  501  0.00000000000E+00  0.00000000000E+00 -0.47133277058E+03  0.47133277058E+03  0.25500000920E-02 0.  1.
    10030    2    1    2    0    0  0.00000000000E+00  0.00000000000E+00  0.56847328210E+03  0.15111388233E+04  0.14001352330E+04 0.  0.
        3    1    3    3  502    0  0.13266742481E+03 -0.67228645416E+03  0.12961321967E+03  0.69740183464E+03  0.10100000352E+00 0. -1.
       -3    1    3    3    0  502 -0.13266742481E+03  0.67228645416E+03  0.43886006243E+03  0.81373698862E+03  0.10100000352E+00 0.  1.
</event>
<event>
 5   0  0.2427569E-05  0.1400362E+04  0.7818609E-02  0.8953556E-01
        1   -1    0    0  501    0  0.00000000000E+00  0.00000000000E+00  0.54770203666E+03  0.54770203668E+03  0.50400001928E-02 0.  1.
       -1   -1    0    0    0  501  0.00000000000E+00  0.00000000000E+00 -0.89511020063E+03  0.89511020064E+03  0.50400001928E-02 0. -1.
    10030    2    1    2    0    0  0.00000000000E+00  0.00000000000E+00 -0.34740816397E+03  0.14428122373E+04  0.14003623530E+04 0.  0.
        1    1    3    3  502    0  0.60313641977E+03  0.17674093280E+03  0.14426539023E+03  0.64484370279E+03  0.50400001928E-02 0. -1.
       -1    1    3    3    0  502 -0.60313641977E+03 -0.17674093280E+03 -0.49167355420E+03  0.79796853454E+03  0.50400001928E-02 0.  1.
</event>
<event>
 5   0  0.2316714E-05  0.1399858E+04  0.7818609E-02  0.8953922E-01
        1   -1    0    0  501    0  0.00000000000E+00  0.00000000000E+00  0.48230318815E+03  0.48230318818E+03  0.50400001928E-02 0. -1.
       -1   -1    0    0    0  501  0.00000000000E+00  0.00000000000E+00 -0.10157519113E+04  0.10157519113E+04  0.50400001928E-02 0.  1.
    10030    2    1    2    0    0  0.00000000000E+00  0.00000000000E+00 -0.53344872312E+03  0.14980550995E+04  0.13998576859E+04 0.  0.
        5    1    3    3  502    0  0.16647009765E+03  0.11096816219E+02 -0.99414402066E+03  0.10080574669E+04  0.46999998093E+01 0.  1.
       -5    1    3    3    0  502 -0.16647009765E+03 -0.11096816219E+02  0.46069529754E+03  0.48999763256E+03  0.46999998093E+01 0. -1.
</event>
<event>
 5   0  0.1661000E-05  0.1398838E+04  0.7818609E-02  0.8954660E-01
        3   -1    0    0  501    0  0.00000000000E+00  0.00000000000E+00  0.46820879947E+03  0.46820881036E+03  0.10100000352E+00 0. -1.
       -3   -1    0    0    0  501  0.00000000000E+00  0.00000000000E+00 -0.10448056228E+04  0.10448056277E+04  0.10100000352E+00 0.  1.
    10030    2    1    2    0    0  0.00000000000E+00  0.00000000000E+00 -0.57659682336E+03  0.15130144381E+04  0.13988383728E+04 0.  0.
        5    1    3    3  502    0  0.42271299091E+03 -0.53254589770E+03 -0.11098593869E+03  0.68893495661E+03  0.46999998093E+01 0.  1.
       -5    1    3    3    0  502 -0.42271299091E+03  0.53254589770E+03 -0.46561088467E+03  0.82407948146E+03  0.46999998093E+01 0. -1.
</event>
<event>
 5   0  0.4621450E-05  0.1398800E+04  0.7818609E-02  0.8954688E-01
        2   -1    0    0  501    0  0.00000000000E+00  0.00000000000E+00  0.13372591527E+04  0.13372591527E+04  0.25500000920E-02 0. -1.
       -2   -1    0    0    0  501  0.00000000000E+00  0.00000000000E+00 -0.36579325683E+03  0.36579325684E+03  0.25500000920E-02 0.  1.
    10030    2    1    2    0    0  0.00000000000E+00  0.00000000000E+00  0.97146589589E+03  0.17030524096E+04  0.13988000296E+04 0.  0.
        5    1    3    3  502    0  0.32950357975E+03  0.24038140477E+03  0.11774481893E+04  0.12460987751E+04  0.46999998093E+01 0. -1.
       -5    1    3    3    0  502 -0.32950357975E+03 -0.24038140477E+03 -0.20598229342E+03  0.45695363444E+03  0.46999998093E+01 0.  1.
</event>
<event>
 5   0  0.2427569E-05  0.1399662E+04  0.7818609E-02  0.8954063E-01
       -1   -1    0    0    0  501  0.00000000000E+00  0.00000000000E+00  0.78101941068E+03  0.78101941069E+03  0.50400001928E-02 0.  1.
        1   -1    0    0  501    0  0.00000000000E+00  0.00000000000E+00 -0.62708264103E+03  0.62708264105E+03  0.50400001928E-02 0. -1.
    10030    2    1    2    0    0  0.00000000000E+00  0.00000000000E+00  0.15393676964E+03  0.14081020517E+04  0.13996624090E+04 0.  0.
        1    1    3    3  502    0 -0.18989562664E+03  0.67354440981E+03  0.83433152977E+02  0.70475776835E+03  0.50400001928E-02 0. -1.
       -1    1    3    3    0  502  0.18989562664E+03 -0.67354440981E+03  0.70503616667E+02  0.70334428340E+03  0.50400001928E-02 0.  1.
</event>
<event>
 5   0  0.2316714E-05  0.1400259E+04  0.7818609E-02  0.8953631E-01
       -1   -1    0    0    0  501  0.00000000000E+00  0.00000000000E+00  0.58961883038E+03  0.58961883040E+03  0.50400001928E-02 0.  1.
        1   -1    0    0  501    0  0.00000000000E+00  0.00000000000E+00 -0.83135236982E+03  0.83135236983E+03  0.50400001928E-02 0. -1.
    10030    2    1    2    0    0  0.00000000000E+00  0.00000000000E+00 -0.24173353944E+03  0.14209712002E+04  0.14002585646E+04 0.  0.
        5    1    3    3  502    0 -0.33918056088E+02  0.35223964832E+03 -0.73390170408E+03  0.81477420530E+03  0.46999998093E+01 0. -1.
       -5    1    3    3    0  502  0.33918056088E+02 -0.35223964832E+03  0.49216816464E+03  0.60619699493E+03  0.46999998093E+01 0.  1.
</event>
<event>
 5   0  0.2467303E-05  0.1399633E+04  0.7818609E-02  0.8954084E-01
        1   -1    0    0  501    0  0.00000000000E+00  0.00000000000E+00  0.87160618823E+03  0.87160618824E+03  0.50400001928E-02 0. -1.
       -1   -1    0    0    0  501  0.00000000000E+00  0.00000000000E+00 -0.56188592824E+03  0.56188592826E+03  0.50400001928E-02 0.  1.
    10030    2    1    2    0    0  0.00000000000E+00  0.00000000000E+00  0.30972025999E+03  0.14334921165E+04  0.13996331693E+04 0.  0.
        3    1    3    3  502    0  0.37363605170E+02 -0.25930335397E+03 -0.50976740659E+03  0.57314665435E+03  0.10100000352E+00 0.  1.
       -3    1    3    3    0  502 -0.37363605170E+02  0.25930335397E+03  0.81948766658E+03  0.86034546215E+03  0.10100000352E+00 0. -1.
</event>
<event>
 5   0  0.4527503E-05  0.1399703E+04  0.7818609E-02  0.8954034E-01
       -2   -1    0    0    0  501  0.00000000000E+00  0.00000000000E+00  0.26436846157E+03  0.26436846158E+03  0.25500000920E-02 0. -1.
        2   -1    0    0  501    0  0.00000000000E+00  0.00000000000E+00 -0.18526861610E+04  0.18526861610E+04  0.25500000920E-02 0.  1.
    10030    2    1    2    0    0  0.00000000000E+00  0.00000000000E+00 -0.15883176994E+04  0.21170546225E+04  0.13997025258E+04 0.  0.
        4    1    3    3  502    0  0.66561494834E+03  0.18498594978E+03 -0.96344517184E+03  0.11855341721E+04  0.12699999809E+01 0.  1.
       -4    1    3    3    0  502 -0.66561494834E+03 -0.18498594978E+03 -0.62487252755E+03  0.93152045048E+03  0.12699999809E+01 0. -1.
</event>
<event>
 5   0  0.2363419E-05  0.1400513E+04  0.7818609E-02  0.8953447E-01
       -1   -1    0    0    0  501  0.00000000000E+00  0.00000000000E+00  0.22822568033E+03  0.22822568038E+03  0.50400001928E-02 0. -1.
        1   -1    0    0  501    0  0.00000000000E+00  0.00000000000E+00 -0.21485708874E+04  0.21485708874E+04  0.50400001928E-02 0.  1.
    10030    2    1    2    0    0  0.00000000000E+00  0.00000000000E+00 -0.19203452070E+04  0.23767965678E+04  0.14005128383E+04 0.  0.
        2    1    3    3  502    0 -0.28150489966E+03 -0.30869281987E+03 -0.19139052485E+04  0.19589715582E+04  0.25500000920E-02 0.  1.
       -2    1    3    3    0  502  0.28150489966E+03  0.30869281987E+03 -0.64399585829E+01  0.41782500960E+03  0.25500000920E-02 0. -1.
</event>
<event>
 5   0  0.1661000E-05  0.1399989E+04  0.7818609E-02  0.8953826E-01
       -3   -1    0    0    0  501  0.00000000000E+00  0.00000000000E+00  0.43009275638E+03  0.43009276824E+03  0.10100000352E+00 0.  1.
        3   -1    0    0  501    0  0.00000000000E+00  0.00000000000E+00 -0.11392713243E+04  0.11392713288E+04  0.10100000352E+00 0. -1.
    10030    2    1    2    0    0  0.00000000000E+00  0.00000000000E+00 -0.70917856790E+03  0.15693640970E+04  0.13999890813E+04 0.  0.
        4    1    3    3  502    0  0.16380207039E+03  0.12237511602E+00 -0.11174836443E+04  0.11294257131E+04  0.12699999809E+01 0. -1.
       -4    1    3    3    0  502 -0.16380207039E+03 -0.12237511602E+00  0.40830507645E+03  0.43993838386E+03  0.12699999809E+01 0.  1.
</event>
<event>
 5   0  0.4460282E-05  0.1399144E+04  0.7818609E-02  0.8954439E-01
       -2   -1    0    0    0  501  0.00000000000E+00  0.00000000000E+00  0.40109991445E+03  0.40109991446E+03  0.25500000920E-02 0.  1.
        2   -1    0    0  501    0  0.00000000000E+00  0.00000000000E+00 -0.12201465243E+04  0.12201465243E+04  0.25500000920E-02 0. -1.
    10030    2    1    2    0    0  0.00000000000E+00  0.00000000000E+00 -0.81904660982E+03  0.16212464387E+04  0.13991435473E+04 0.  0.
        1    1    3    3  502    0  0.55557047482E+01  0.13124738571E+03  0.38667997803E+03  0.40838480327E+03  0.50400001928E-02 0.  1.
       -1    1    3    3    0  502 -0.55557047482E+01 -0.13124738571E+03 -0.12057265878E+04  0.12128616355E+04  0.50400001928E-02 0. -1.
</event>
<event>
 5   0  0.4527503E-05  0.1399745E+04  0.7818609E-02  0.8954003E-01
       -2   -1    0    0    0  501  0.00000000000E+00  0.00000000000E+00  0.39049675394E+03  0.39049675395E+03  0.25500000920E-02 0. -1.
        2   -1    0    0  501    0  0.00000000000E+00  0.00000000000E+00 -0.12543554200E+04  0.12543554200E+04  0.25500000920E-02 0.  1.
    10030    2    1    2    0    0  0.00000000000E+00  0.00000000000E+00 -0.86385866605E+03  0.16448521739E+04  0.13997452908E+04 0.  0.
        4    1    3    3  502    0 -0.55212233553E+03  0.29034977649E+03 -0.80478885279E+03  0.10182478954E+04  0.12699999809E+01 0.  1.
       -4    1    3    3    0  502  0.55212233553E+03 -0.29034977649E+03 -0.59069813252E+02  0.62660427850E+03  0.12699999809E+01 0. -1.
</event>
<event>
 5   0  0.4527503E-05  0.1400155E+04  0.7818609E-02  0.8953706E-01
       -2   -1    0    0    0  501  0.00000000000E+00  0.00000000000E+00  0.38104041953E+03  0.38104041953E+03  0.25500000920E-02 0. -1.
        2   -1    0    0  501    0  0.00000000000E+00  0.00000000000E+00 -0.12862377849E+04  0.12862377849E+04  0.25500000920E-02 0.  1.
    10030    2    1    2    0    0  0.00000000000E+00  0.00000000000E+00 -0.90519736541E+03  0.16672782045E+04  0.14001551131E+04 0.  0.
        4    1    3    3  502    0  0.17836850810E+03 -0.66585057101E+03 -0.30707634579E+03  0.75463223006E+03  0.12699999809E+01 0. -1.
       -4    1    3    3    0  502 -0.17836850810E+03  0.66585057101E+03 -0.59812101962E+03  0.91264597441E+03  0.12699999809E+01 0.  1.
</event>
<event>
 5   0  0.4243281E-05  0.1400252E+04  0.7818609E-02  0.8953636E-01
        2   -1    0    0  501    0  0.00000000000E+00  0.00000000000E+00  0.64461516329E+03  0.64461516330E+03  0.25500000920E-02 0.  1.
       -2   -1    0    0    0  501  0.00000000000E+00  0.00000000000E+00 -0.76041718951E+03  0.76041718951E+03  0.25500000920E-02 0. -1.
    10030    2    1    2    0    0  0.00000000000E+00  0.00000000000E+00 -0.11580202621E+03  0.14050323528E+04  0.14002520499E+04 0.  0.
        2    1    3    3  502    0 -0.68179048221E+03 -0.12629813496E+03  0.39316124161E+02  0.69450359118E+03  0.25500000920E-02 0.  1.
       -2    1    3    3    0  502  0.68179048221E+03  0.12629813496E+03 -0.15511815038E+03  0.71052876164E+03  0.25500000920E-02 0. -1.
</event>
<event>
 5   0  0.4441253E-05  0.1400437E+04  0.7818609E-02  0.8953502E-01
       -2   -1    0    0    0  501  0.00000000000E+00  0.00000000000E+00  0.44582423291E+03  0.44582423292E+03  0.25500000920E-02 0. -1.
        2   -1    0    0  501    0  0.00000000000E+00  0.00000000000E+00 -0.10997745075E+04  0.10997745075E+04  0.25500000920E-02 0.  1.
    10030    2    1    2    0    0  0.00000000000E+00  0.00000000000E+00 -0.65395027454E+03  0.15455987404E+04  0.14004372548E+04 0.  0.
        3    1    3    3  502    0 -0.13822266942E+03  0.14853039251E+03  0.41267040488E+03  0.45985177732E+03  0.10100000352E+00 0. -1.
       -3    1    3    3    0  502  0.13822266942E+03 -0.14853039251E+03 -0.10666206794E+04  0.10857469631E+04  0.10100000352E+00 0.  1.
</event>
<event>
 5   0  0.2467303E-05  0.1399419E+04  0.7818609E-02  0.8954239E-01
        1   -1    0    0  501    0  0.00000000000E+00  0.00000000000E+00  0.86089802018E+03  0.86089802019E+03  0.50400001928E-02 0. -1.
       -1   -1    0    0    0  501  0.00000000000E+00  0.00000000000E+00 -0.56870101126E+03  0.56870101128E+03  0.50400001928E-02 0.  1.
    10030    2    1    2    0    0  0.00000000000E+00  0.00000000000E+00  0.29219700892E+03  0.14295990315E+04  0.13994192720E+04 0.  0.
        3    1    3    3  502    0  0.24281730286E+03  0.59367030041E+03 -0.13955459209E+03  0.65641462699E+03  0.10100000352E+00 0. -1.
       -3    1    3    3    0  502 -0.24281730286E+03 -0.59367030041E+03  0.43175160101E+03  0.77318440448E+03  0.10100000352E+00 0.  1.
</event>
<event>
 5   0  0.2428507E-05  0.1406978E+04  0.7818609E-02  0.8948783E-01
        1   -1    0    0  501    0  0.00000000000E+00  0.00000000000E+00  0.50461660384E+03  0.50461660387E+03  0.50400001928E-02 0.  1.
       -1   -1    0    0    0  501  0.00000000000E+00  0.00000000000E+00 -0.98073860435E+03  0.98073860437E+03  0.50400001928E-02 0. -1.
    10030    2    1    2    0    0  0.00000000000E+00  0.00000000000E+00 -0.47612200051E+03  0.14853552082E+04  0.14069782995E+04 0.  0.
        4    1    3    3  502    0  0.46857504350E+03 -0.52458924592E+03 -0.25050412216E+03  0.74666617470E+03  0.12699999809E+01 0. -1.
       -4    1    3    3    0  502 -0.46857504350E+03  0.52458924592E+03 -0.22561787835E+03  0.73868903353E+03  0.12699999809E+01 0.  1.
</event>
<event>
 5   0  0.4441253E-05  0.1400148E+04  0.7818609E-02  0.8953711E-01
       -2   -1    0    0    0  501  0.00000000000E+00  0.00000000000E+00  0.66724111603E+03  0.66724111604E+03  0.25500000920E-02 0. -1.
        2   -1    0    0  501    0  0.00000000000E+00  0.00000000000E+00 -0.73452289478E+03  0.73452289479E+03  0.25500000920E-02 0.  1.
    10030    2    1    2    0    0  0.00000000000E+00  0.00000000000E+00 -0.67281778753E+02  0.14017640108E+04  0.14001483865E+04 0.  0.
        3    1    3    3  502    0 -0.12680128969E+03 -0.68849070243E+03 -0.36062663365E+02  0.70099824556E+03  0.10100000352E+00 0.  1.
       -3    1    3    3    0  502  0.12680128969E+03  0.68849070243E+03 -0.31219115388E+02  0.70076576526E+03  0.10100000352E+00 0. -1.
</event>
<event>
 5   0  0.4243281E-05  0.1397955E+04  0.7818609E-02  0.8955300E-01
        2   -1    0    0  501    0  0.00000000000E+00  0.00000000000E+00  0.78620214581E+03  0.78620214582E+03  0.25500000920E-02 0. -1.
       -2   -1    0    0    0  501  0.00000000000E+00  0.00000000000E+00 -0.62142960900E+03  0.62142960900E+03  0.25500000920E-02 0.  1.
    10030    2    1    2    0    0  0.00000000000E+00  0.00000000000E+00  0.16477253682E+03  0.14076317548E+04  0.13979546374E+04 0.  0.
        2    1    3    3  502    0  0.26691776342E+03  0.37962742154E+03 -0.44392426614E+03  0.64220777455E+03  0.25500000920E-02 0.  1.
       -2    1    3    3    0  502 -0.26691776342E+03 -0.37962742154E+03  0.60869680296E+03  0.76542398026E+03  0.25500000920E-02 0. -1.
</event>
<event>
 5   0  0.2427569E-05  0.1399865E+04  0.7818609E-02  0.8953916E-01
        1   -1    0    0  501    0  0.00000000000E+00  0.00000000000E+00  0.18035183168E+04  0.18035183168E+04  0.50400001928E-02 0.  1.
       -1   -1    0    0    0  501  0.00000000000E+00  0.00000000000E+00 -0.27163878866E+03  0.27163878870E+03  0.50400001928E-02 0. -1.
    10030    2    1    2    0    0  0.00000000000E+00  0.00000000000E+00  0.15318795281E+04  0.20751571055E+04  0.13998650377E+04 0.  0.
        1    1    3    3  502    0  0.23068398213E+02  0.63544827984E+03  0.33228105534E+03  0.71745199638E+03  0.50400001928E-02 0. -1.
       -1    1    3    3    0  502 -0.23068398213E+02 -0.63544827984E+03  0.11995984728E+04  0.13577051091E+04  0.50400001928E-02 0.  1.
</event>
<event>
 5   0  0.4460282E-05  0.1399480E+04  0.7818609E-02  0.8954195E-01
        2   -1    0    0  501    0  0.00000000000E+00  0.00000000000E+00  0.76225912619E+03  0.76225912619E+03  0.25500000920E-02 0.  1.
       -2   -1    0    0    0  501  0.00000000000E+00  0.00000000000E+00 -0.64234894075E+03  0.64234894075E+03  0.25500000920E-02 0. -1.
    10030    2    1    2    0    0  0.00000000000E+00  0.00000000000E+00  0.11991018544E+03  0.14046080669E+04  0.13994803926E+04 0.  0.
        1    1    3    3  502    0  0.38806952203E+03  0.96119192443E+01  0.64427892020E+03  0.75218725724E+03  0.50400001928E-02 0.  1.
       -1    1    3    3    0  502 -0.38806952203E+03 -0.96119192443E+01 -0.52436873475E+03  0.65242080970E+03  0.50400001928E-02 0. -1.
</event>
<event>
 5   0  0.2363419E-05  0.1397254E+04  0.7818609E-02  0.8955808E-01
       -1   -1    0    0    0  501  0.00000000000E+00  0.00000000000E+00  0.58418214924E+03  0.58418214926E+03  0.50400001928E-02 0. -1.
        1   -1    0    0  501    0  0.00000000000E+00  0.00000000000E+00 -0.83549287654E+03  0.83549287656E+03  0.50400001928E-02 0.  1.
    10030    2    1    2    0    0  0.00000000000E+00  0.00000000000E+00 -0.25131072731E+03  0.14196750258E+04  0.13972544855E+04 0.  0.
        2    1    3    3  502    0  0.15769366954E+01  0.14909056200E+03 -0.81913907767E+03  0.83259792876E+03  0.25500000920E-02 0.  1.
       -2    1    3    3    0  502 -0.15769366954E+01 -0.14909056200E+03  0.56782835036E+03  0.58707709706E+03  0.25500000920E-02 0. -1.
</event>
<event>
 5   0  0.4621450E-05  0.1400400E+04  0.7818609E-02  0.8953529E-01
       -2   -1    0    0    0  501  0.00000000000E+00  0.00000000000E+00  0.45932283178E+03  0.45932283178E+03  0.25500000920E-02 0. -1.
        2   -1    0    0  501    0  0.00000000000E+00  0.00000000000E+00 -0.10673968206E+04  0.10673968206E+04  0.25500000920E-02 0.  1.
    10030    2    1    2    0    0  0.00000000000E+00  0.00000000000E+00 -0.60807398886E+03  0.15267196524E+04  0.14003995577E+04 0.  0.
        5    1    3    3  502    0  0.52891110861E+03  0.34530967740E+02  0.19474517747E+03  0.56470091437E+03  0.46999998093E+01 0. -1.
       -5    1    3    3    0  502 -0.52891110861E+03 -0.34530967740E+02 -0.80281916633E+03  0.96201873806E+03  0.46999998093E+01 0.  1.
</event>
<event>
 5   0  0.2363419E-05  0.1400268E+04  0.7818609E-02  0.8953625E-01
        1   -1    0    0  501    0  0.00000000000E+00  0.00000000000E+00  0.78454996776E+03  0.78454996777E+03  0.50400001928E-02 0.  1.
       -1   -1    0    0    0  501  0.00000000000E+00  0.00000000000E+00 -0.62480104860E+03  0.62480104862E+03  0.50400001928E-02 0. -1.
    10030    2    1    2    0    0  0.00000000000E+00  0.00000000000E+00  0.15974891916E+03  0.14093510164E+04  0.14002680351E+04 0.  0.
        2    1    3    3  502    0  0.45590638155E+03  0.20319926810E+03  0.57402460511E+03  0.76068707007E+03  0.25500000920E-02 0.  1.
       -2    1    3    3    0  502 -0.45590638155E+03 -0.20319926810E+03 -0.41427568595E+03  0.64866394633E+03  0.25500000920E-02 0. -1.
</event>
<event>
 5   0  0.2467303E-05  0.1399605E+04  0.7818609E-02  0.8954105E-01
        1   -1    0    0  501    0  0.00000000000E+00  0.00000000000E+00  0.12586595906E+04  0.12586595907E+04  0.50400001928E-02 0.  1.
       -1   -1    0    0    0  501  0.00000000000E+00  0.00000000000E+00 -0.38908317925E+03  0.38908317928E+03  0.50400001928E-02 0. -1.
    10030    2    1    2    0    0  0.00000000000E+00  0.00000000000E+00  0.86957641140E+03  0.16477427699E+04  0.13996046230E+04 0.  0.
        3    1    3    3  502    0  0.57145979560E+03 -0.78260227343E+02  0.90131710073E+03  0.10700763933E+04  0.10100000352E+00 0. -1.
       -3    1    3    3    0  502 -0.57145979560E+03  0.78260227343E+02 -0.31740689326E+02  0.57766637667E+03  0.10100000352E+00 0.  1.
</event>
<event>
 5   0  0.2316714E-05  0.1399875E+04  0.7818609E-02  0.8953909E-01
        1   -1    0    0  501    0  0.00000000000E+00  0.00000000000E+00  0.10902154928E+04  0.10902154928E+04  0.50400001928E-02 0. -1.
       -1   -1    0    0    0  501  0.00000000000E+00  0.00000000000E+00 -0.44937248461E+03  0.44937248464E+03  0.50400001928E-02 0.  1.
    10030    2    1    2    0    0  0.00000000000E+00  0.00000000000E+00  0.64084300815E+03  0.15395879774E+04  0.13998754870E+04 0.  0.
        5    1    3    3  502    0  0.65490120756E+03  0.22823113065E+03  0.21663294627E+03  0.72659270851E+03  0.46999998093E+01 0.  1.
       -5    1    3    3    0  502 -0.65490120756E+03 -0.22823113065E+03  0.42421006188E+03  0.81299526890E+03  0.46999998093E+01 0. -1.
</event>
<event>
 5   0  0.4460282E-05  0.1400456E+04  0.7818609E-02  0.8953489E-01
        2   -1    0    0  501    0  0.00000000000E+00  0.00000000000E+00  0.63070001881E+03  0.63070001882E+03  0.25500000920E-02 0.  1.
       -2   -1    0    0    0  501  0.00000000000E+00  0.00000000000E+00 -0.77742042334E+03  0.77742042335E+03  0.25500000920E-02 0. -1.
    10030    2    1    2    0    0  0.00000000000E+00  0.00000000000E+00 -0.14672040453E+03  0.14081204422E+04  0.14004557482E+04 0.  0.
        1    1    3    3  502    0 -0.69268334670E+02 -0.62957836674E+03  0.22685735606E+03  0.67277877648E+03  0.50400001928E-02 0.  1.
       -1    1    3    3    0  502  0.69268334670E+02  0.62957836674E+03 -0.37357776059E+03  0.73534166569E+03  0.50400001928E-02 0. -1.
</event>
<event>
 5   0  0.2467303E-05  0.1399486E+04  0.7818609E-02  0.8954190E-01
       -1   -1    0    0    0  501  0.00000000000E+00  0.00000000000E+00  0.43734923780E+03  0.43734923783E+03  0.50400001928E-02 0.  1.
        1   -1    0    0  501    0  0.00000000000E+00  0.00000000000E+00 -0.11195643149E+04  0.11195643149E+04  0.50400001928E-02 0. -1.
    10030    2    1    2    0    0  0.00000000000E+00  0.00000000000E+00 -0.68221507709E+03  0.15569135527E+04  0.13994864770E+04 0.  0.
        3    1    3    3  502    0 -0.28226011823E+03  0.63914302267E+03 -0.38370311818E+03  0.79712149066E+03  0.10100000352E+00 0. -1.
       -3    1    3    3    0  502  0.28226011823E+03 -0.63914302267E+03 -0.29851195891E+03  0.75979206207E+03  0.10100000352E+00 0.  1.
</event>
<event>
 5   0  0.4243281E-05  0.1400649E+04  0.7818609E-02  0.8953349E-01
       -2   -1    0    0    0  501  0.00000000000E+00  0.00000000000E+00  0.48324443127E+03  0.48324443127E+03  0.25500000920E-02 0. -1.
        2   -1    0    0  501    0  0.00000000000E+00  0.00000000000E+00 -0.10149201441E+04  0.10149201441E+04  0.25500000920E-02 0.  1.
    10030    2    1    2    0    0  0.00000000000E+00  0.00000000000E+00 -0.53167571279E+03  0.14981645753E+04  0.14006491464E+04 0.  0.
        2    1    3    3  502    0  0.67457819204E+03  0.56241071564E+02 -0.73794715751E+02  0.68092911186E+03  0.25500000920E-02 0. -1.
       -2    1    3    3    0  502 -0.67457819204E+03 -0.56241071564E+02 -0.45788099704E+03  0.81723546347E+03  0.25500000920E-02 0.  1.
</event>
<event>
 5   0  0.2428507E-05  0.1399313E+04  0.7818609E-02  0.8954316E-01
        1   -1    0    0  501    0  0.00000000000E+00  0.00000000000E+00  0.81842059258E+03  0.81842059259E+03  0.50400001928E-02 0.  1.
       -1   -1    0    0    0  501  0.00000000000E+00  0.00000000000E+00 -0.59812696167E+03  0.59812696169E+03  0.50400001928E-02 0. -1.
    10030    2    1    2    0    0  0.00000000000E+00  0.00000000000E+00  0.22029363091E+03  0.14165475543E+04  0.13993132922E+04 0.  0.
        4    1    3    3  502    0 -0.40769018789E+03  0.19296052631E+02 -0.46512514683E+03  0.61881066738E+03  0.12699999809E+01 0. -1.
       -4    1    3    3    0  502  0.40769018789E+03 -0.19296052631E+02  0.68541877774E+03  0.79773688690E+03  0.12699999809E+01 0.  1.
</event>
<event>
 5   0  0.2316714E-05  0.1396502E+04  0.7818609E-02  0.8956355E-01
       -1   -1    0    0    0  501  0.00000000000E+00  0.00000000000E+00  0.18027703145E+03  0.18027703152E+03  0.50400001928E-02 0. -1.
        1   -1    0    0  501    0  0.00000000000E+00  0.00000000000E+00 -0.27044726591E+04  0.27044726591E+04  0.50400001928E-02 0.  1.
    10030    2    1    2    0    0  0.00000000000E+00  0.00000000000E+00 -0.25241956276E+04  0.28847496906E+04  0.13965017762E+04 0.  0.
        5    1    3    3  502    0 -0.11152657501E+03  0.55181786095E+03 -0.21152859496E+04  0.21889261904E+04  0.46999998093E+01 0.  1.
       -5    1    3    3    0  502  0.11152657501E+03 -0.55181786095E+03 -0.40890967803E+03  0.69582350017E+03  0.46999998093E+01 0. -1.
</event>
<event>
 5   0  0.4621450E-05  0.1398428E+04  0.7818609E-02  0.8954957E-01
        2   -1    0    0  501    0  0.00000000000E+00  0.00000000000E+00  0.15590436635E+04  0.15590436635E+04  0.25500000920E-02 0.  1.
       -2   -1    0    0    0  501  0.00000000000E+00  0.00000000000E+00 -0.31358975428E+03  0.31358975429E+03  0.25500000920E-02 0. -1.
    10030    2    1    2    0    0  0.00000000000E+00  0.00000000000E+00  0.12454539092E+04  0.18726334178E+04  0.13984278592E+04 0.  0.
        5    1    3    3  502    0 -0.36491777201E+03 -0.14934713631E+02  0.14211377459E+04  0.14673249840E+04  0.46999998093E+01 0.  1.
       -5    1    3    3    0  502  0.36491777201E+03  0.14934713631E+02 -0.17568383668E+03  0.40530843375E+03  0.46999998093E+01 0. -1.
</event>
<event>
 5   0  0.2316714E-05  0.1399486E+04  0.7818609E-02  0.8954191E-01
       -1   -1    0    0    0  501  0.00000000000E+00  0.00000000000E+00  0.13150590885E+04  0.13150590885E+04  0.50400001928E-02 0.  1.
        1   -1    0    0  501    0  0.00000000000E+00  0.00000000000E+00 -0.37233332148E+03  0.37233332151E+03  0.50400001928E-02 0. -1.
    10030    2    1    2    0    0  0.00000000000E+00  0.00000000000E+00  0.94272576706E+03  0.16873924101E+04  0.13994860748E+04 0.  0.
        5    1    3    3  502    0 -0.12598167835E+03 -0.57155253259E+03  0.93376122790E+03  0.11020325773E+04  0.46999998093E+01 0.  1.
       -5    1    3    3    0  502  0.12598167835E+03  0.57155253259E+03  0.89645391613E+01  0.58535983271E+03  0.46999998093E+01 0. -1.
</event>
<event>
 5   0  0.2363419E-05  0.1399874E+04  0.7818609E-02  0.8953909E-01
        1   -1    0    0  501    0  0.00000000000E+00  0.00000000000E+00  0.11004184622E+04  0.11004184622E+04  0.50400001928E-02 0. -1.
       -1   -1    0    0    0  501  0.00000000000E+00  0.00000000000E+00 -0.44520528903E+03  0.44520528906E+03  0.50400001928E-02 0.  1.
    10030    2    1    2    0    0  0.00000000000E+00  0.00000000000E+00  0.65521317320E+03  0.15456237513E+04  0.13998744509E+04 0.  0.
        2    1    3    3  502    0  0.22976421524E+03  0.43977031997E+03  0.87268952501E+03  0.10038807379E+04  0.25500000920E-02 0. -1.
       -2    1    3    3    0  502 -0.22976421524E+03 -0.43977031997E+03 -0.21747635181E+03  0.54174301337E+03  0.25500000920E-02 0.  1.
</event>
<event>
 5   0  0.4460282E-05  0.1399780E+04  0.7818609E-02  0.8953978E-01
        2   -1    0    0  501    0  0.00000000000E+00  0.00000000000E+00  0.79559690651E+03  0.79559690652E+03  0.25500000920E-02 0.  1.
       -2   -1    0    0    0  501  0.00000000000E+00  0.00000000000E+00 -0.61569633808E+03  0.61569633808E+03  0.25500000920E-02 0. -1.
    10030    2    1    2    0    0  0.00000000000E+00  0.00000000000E+00  0.17990056843E+03  0.14112932446E+04  0.13997801284E+04 0.  0.
        1    1    3    3  502    0 -0.53227631279E+03  0.32225562989E+03 -0.23312145402E+03  0.66446397683E+03  0.50400001928E-02 0. -1.
       -1    1    3    3    0  502  0.53227631279E+03 -0.32225562989E+03  0.41302202245E+03  0.74682926777E+03  0.50400001928E-02 0.  1.
</event>
<event>
 5   0  0.2428507E-05  0.1399856E+04  0.7818609E-02  0.8953922E-01
       -1   -1    0    0    0  501  0.00000000000E+00  0.00000000000E+00  0.61594260082E+03  0.61594260084E+03  0.50400001928E-02 0.  1.
        1   -1    0    0  501    0  0.00000000000E+00  0.00000000000E+00 -0.79536551974E+03  0.79536551976E+03  0.50400001928E-02 0. -1.
    10030    2    1    2    0    0  0.00000000000E+00  0.00000000000E+00 -0.17942291892E+03  0.14113081206E+04  0.13998564310E+04 0.  0.
        4    1    3    3  502    0 -0.67714580637E+03 -0.16657781533E+03 -0.29025331263E+02  0.69793889017E+03  0.12699999809E+01 0.  1.
       -4    1    3    3    0  502  0.67714580637E+03  0.16657781533E+03 -0.15039758766E+03  0.71336923043E+03  0.12699999809E+01 0. -1.
</event>
<event>
 5   0  0.4460282E-05  0.1399599E+04  0.7818609E-02  0.8954109E-01
       -2   -1    0    0    0  501  0.00000000000E+00  0.00000000000E+00  0.48337048795E+03  0.48337048796E+03  0.25500000920E-02 0. -1.
        2   -1    0    0  501    0  0.00000000000E+00  0.00000000000E+00 -0.10131342637E+04  0.10131342637E+04  0.25500000920E-02 0.  1.
    10030    2    1    2    0    0  0.00000000000E+00  0.00000000000E+00 -0.52976377574E+03  0.14965047517E+04  0.13995988045E+04 0.  0.
        1    1    3    3  502    0  0.20599844271E+03  0.57632259571E+03  0.97929002494E+02  0.61981705550E+03  0.50400001928E-02 0. -1.
       -1    1    3    3    0  502 -0.20599844271E+03 -0.57632259571E+03 -0.62769277824E+03  0.87668769616E+03  0.50400001928E-02 0.  1.
</event>
<event>
 5   0  0.4460282E-05  0.1399830E+04  0.7818609E-02  0.8953942E-01
        2   -1    0    0  501    0  0.00000000000E+00  0.00000000000E+00  0.22806322896E+04  0.22806322896E+04  0.25500000920E-02 0. -1.
       -2   -1    0    0    0  501  0.00000000000E+00  0.00000000000E+00 -0.21480048042E+03  0.21480048044E+03  0.25500000920E-02 0.  1.
    10030    2    1    2    0    0  0.00000000000E+00  0.00000000000E+00  0.20658318092E+04  0.24954327700E+04  0.13998298632E+04 0.  0.
        1    1    3    3  502    0  0.36212318633E+03  0.57866151704E+03  0.13085014717E+04  0.14758585484E+04  0.50400001928E-02 0.  1.
       -1    1    3    3    0  502 -0.36212318633E+03 -0.57866151704E+03  0.75733033747E+03  0.10195742217E+04  0.50400001928E-02 0. -1.
</event>
<event>
 5   0  0.2428507E-05  0.1399941E+04  0.7818609E-02  0.8953861E-01
        1   -1    0    0  501    0  0.00000000000E+00  0.00000000000E+00  0.52987103632E+03  0.52987103634E+03  0.50400001928E-02 0. -1.
       -1   -1    0    0    0  501  0.00000000000E+00  0.00000000000E+00 -0.92467495897E+03  0.92467495898E+03  0.50400001928E-02 0.  1.
    10030    2    1    2    0    0  0.00000000000E+00  0.00000000000E+00 -0.39480392265E+03  0.14545459953E+04  0.13999406827E+04 0.  0.
        4    1    3    3  502    0 -0.13482746214E+03  0.51546716026E+03 -0.66906011554E+03  0.85529403655E+03  0.12699999809E+01 0.  1.
       -4    1    3    3    0  502  0.13482746214E+03 -0.51546716026E+03  0.27425619289E+03  0.59925195877E+03  0.12699999809E+01 0. -1.
</event>
<event>
 5   0  0.2467303E-05  0.1400678E+04  0.7818609E-02  0.8953328E-01
        1   -1    0    0  501    0  0.00000000000E+00  0.00000000000E+00  0.71731810471E+03  0.71731810473E+03  0.50400001928E-02 0. -1.
       -1   -1    0    0    0  501  0.00000000000E+00  0.00000000000E+00 -0.68376188771E+03  0.68376188773E+03  0.50400001928E-02 0.  1.
    10030    2    1    2    0    0  0.00000000000E+00  0.00000000000E+00  0.33556216998E+02  0.14010799925E+04  0.14006780949E+04 0.  0.
        3    1    3    3  502    0  0.55667585066E+03 -0.60962525659E+02 -0.40390211753E+03  0.69046459937E+03  0.10100000352E+00 0.  1.
       -3    1    3    3    0  502 -0.55667585066E+03  0.60962525659E+02  0.43745833453E+03  0.71061539309E+03  0.10100000352E+00 0. -1.
</event>
<event>
 5   0  0.4527503E-05  0.1401826E+04  0.7818609E-02  0.8952498E-01
        2   -1    0    0  501    0  0.00000000000E+00  0.00000000000E+00  0.45585892131E+03  0.45585892132E+03  0.25500000920E-02 0. -1.
       -2   -1    0    0    0  501  0.00000000000E+00  0.00000000000E+00 -0.10777001069E+04  0.10777001069E+04  0.25500000920E-02 0.  1.
    10030    2    1    2    0    0  0.00000000000E+00  0.00000000000E+00 -0.62184118559E+03  0.15335590282E+04  0.14018262492E+04 0.  0.
        4    1    3    3  502    0  0.34044716546E+03 -0.43155139831E+03  0.16484631187E+03  0.57386130841E+03  0.12699999809E+01 0. -1.
       -4    1    3    3    0  502 -0.34044716546E+03  0.43155139831E+03 -0.78668749747E+03  0.95969771982E+03  0.12699999809E+01 0.  1.
</event>
<event>
 5   0  0.2428507E-05  0.1399925E+04  0.7818609E-02  0.8953873E-01
       -1   -1    0    0    0  501  0.00000000000E+00  0.00000000000E+00  0.49704323804E+03  0.49704323806E+03  0.50400001928E-02 0.  1.
        1   -1    0    0  501    0  0.00000000000E+00  0.00000000000E+00 -0.98572470980E+03  0.98572470981E+03  0.50400001928E-02 0. -1.
    10030    2    1    2    0    0  0.00000000000E+00  0.00000000000E+00 -0.48868147176E+03  0.14827679479E+04  0.13999254289E+04 0.  0.
        4    1    3    3  502    0 -0.12612554933E+03  0.63680210840E+03  0.32915973289E+02  0.65000742585E+03  0.12699999809E+01 0.  1.
       -4    1    3    3    0  502  0.12612554933E+03 -0.63680210840E+03 -0.52159744505E+03  0.83276052203E+03  0.12699999809E+01 0. -1.
</event>
<event>
 5   0  0.2427569E-05  0.1400145E+04  0.7818609E-02  0.8953714E-01
        1   -1    0    0  501    0  0.00000000000E+00  0.00000000000E+00  0.99218659804E+03  0.99218659805E+03  0.50400001928E-02 0.  1.
       -1   -1    0    0    0  501  0.00000000000E+00  0.00000000000E+00 -0.49396083466E+03  0.49396083469E+03  0.50400001928E-02 0. -1.
    10030    2    1    2    0    0  0.00000000000E+00  0.00000000000E+00  0.49822576338E+03  0.14861474327E+04  0.14001447356E+04 0.  0.
        1    1    3    3  502    0 -0.58380175378E+03  0.32195328634E+03  0.47582799562E+03  0.81907917062E+03  0.50400001928E-02 0.  1.
       -1    1    3    3    0  502  0.58380175378E+03 -0.32195328634E+03  0.22397767764E+02  0.66706826212E+03  0.50400001928E-02 0. -1.
</event>
<event>
 5   0  0.2316714E-05  0.1399837E+04  0.7818609E-02  0.8953936E-01
        1   -1    0    0  501    0  0.00000000000E+00  0.00000000000E+00  0.16204052887E+04  0.16204052887E+04  0.50400001928E-02 0.  1.
       -1   -1    0    0    0  501  0.00000000000E+00  0.00000000000E+00 -0.30232326943E+03  0.30232326947E+03  0.50400001928E-02 0. -1.
    10030    2    1    2    0    0  0.00000000000E+00  0.00000000000E+00  0.13180820193E+04  0.19227285582E+04  0.13998374545E+04 0.  0.
        5    1    3    3  502    0  0.44693110511E+03  0.41016628383E+03  0.11385615322E+04  0.12900884643E+04  0.46999998093E+01 0.  1.
       -5    1    3    3    0  502 -0.44693110511E+03 -0.41016628383E+03  0.17952048705E+03  0.63264009387E+03  0.46999998093E+01 0. -1.
</event>
<event>
 5   0  0.4527503E-05  0.1399897E+04  0.7818609E-02  0.8953893E-01
       -2   -1    0    0    0  501  0.00000000000E+00  0.00000000000E+00  0.13381189078E+04  0.13381189078E+04  0.25500000920E-02 0. -1.
        2   -1    0    0  501    0  0.00000000000E+00  0.00000000000E+00 -0.36613164619E+03  0.36613164620E+03  0.25500000920E-02 0.  1.
    10030    2    1    2    0    0  0.00000000000E+00  0.00000000000E+00  0.97198726163E+03  0.17042505540E+04  0.13998966798E+04 0.  0.
        4    1    3    3  502    0 -0.45080059711E+03  0.17748883358E+03 -0.12901329809E+03  0.50136763795E+03  0.12699999809E+01 0.  1.
       -4    1    3    3    0  502  0.45080059711E+03 -0.17748883358E+03  0.11010005597E+04  0.12028829161E+04  0.12699999809E+01 0. -1.
</event>
<event>
 5   0  0.4243281E-05  0.1401839E+04  0.7818609E-02  0.8952488E-01
        2   -1    0    0  501    0  0.00000000000E+00  0.00000000000E+00  0.15656707203E+04  0.15656707203E+04  0.25500000920E-02 0. -1.
       -2   -1    0    0    0  501  0.00000000000E+00  0.00000000000E+00 -0.31378785097E+03  0.31378785098E+03  0.25500000920E-02 0.  1.
    10030    2    1    2    0    0  0.00000000000E+00  0.00000000000E+00  0.12518828694E+04  0.18794585713E+04  0.14018394354E+04 0.  0.
        2    1    3    3  502    0 -0.18286399072E+03  0.30286058158E+03 -0.18529787418E+03  0.39937335059E+03  0.25500000920E-02 0.  1.
       -2    1    3    3    0  502  0.18286399072E+03 -0.30286058158E+03  0.14371807435E+04  0.14800852207E+04  0.25500000920E-02 0. -1.
</event>
<event>
 5   0  0.2316714E-05  0.1399901E+04  0.7818609E-02  0.8953890E-01
       -1   -1    0    0    0  501  0.00000000000E+00  0.00000000000E+00  0.47540552485E+03  0.47540552487E+03  0.50400001928E-02 0.  1.
        1   -1    0    0  501    0  0.00000000000E+00  0.00000000000E+00 -0.10305527646E+04  0.10305527647E+04  0.50400001928E-02 0. -1.
    10030    2    1    2    0    0  0.00000000000E+00  0.00000000000E+00 -0.55514723980E+03  0.15059582895E+04  0.13999006793E+04 0.  0.
        5    1    3    3  502    0  0.41668427843E+03 -0.40073772600E+03 -0.70204527395E+03  0.90945377541E+03  0.46999998093E+01 0. -1.
       -5    1    3    3    0  502 -0.41668427843E+03  0.40073772600E+03  0.14689803415E+03  0.59650451412E+03  0.46999998093E+01 0.  1.
</event>
<event>
 5   0  0.2427569E-05  0.1400185E+04  0.7818609E-02  0.8953685E-01
       -1   -1    0    0    0  501  0.00000000000E+00  0.00000000000E+00  0.87159553918E+03  0.87159553919E+03  0.50400001928E-02 0. -1.
        1   -1    0    0  501    0  0.00000000000E+00  0.00000000000E+00 -0.56233573825E+03  0.56233573827E+03  0.50400001928E-02 0.  1.
    10030    2    1    2    0    0  0.00000000000E+00  0.00000000000E+00  0.30925980092E+03  0.14339312775E+04  0.14001847321E+04 0.  0.
        1    1    3    3  502    0 -0.35172440760E+03  0.50123354968E+03 -0.19293782185E+03  0.64200477673E+03  0.50400001928E-02 0.  1.
       -1    1    3    3    0  502  0.35172440760E+03 -0.50123354968E+03  0.50219762277E+03  0.79192650073E+03  0.50400001928E-02 0. -1.
</event>
<event>
 5   0  0.4441253E-05  0.1399971E+04  0.7818609E-02  0.8953839E-01
       -2   -1    0    0    0  501  0.00000000000E+00  0.00000000000E+00  0.21526003525E+03  0.21526003526E+03  0.25500000920E-02 0. -1.
        2   -1    0    0  501    0  0.00000000000E+00  0.00000000000E+00 -0.22762233274E+04  0.22762233274E+04  0.25500000920E-02 0.  1.
    10030    2    1    2    0    0  0.00000000000E+00  0.00000000000E+00 -0.20609632922E+04  0.24914833627E+04  0.13999713050E+04 0.  0.
        3    1    3    3  502    0 -0.56686212987E+03 -0.24219228212E+03 -0.16207040770E+04  0.17339756317E+04  0.10100000352E+00 0.  1.
       -3    1    3    3    0  502  0.56686212987E+03  0.24219228212E+03 -0.44025921515E+03  0.75750773100E+03  0.10100000352E+00 0. -1.
</event>
<event>
 5   0  0.4527503E-05  0.1400792E+04  0.7818609E-02  0.8953246E-01
        2   -1    0    0  501    0  0.00000000000E+00  0.00000000000E+00  0.94409430688E+03  0.94409430688E+03  0.25500000920E-02 0. -1.
       -2   -1    0    0    0  501  0.00000000000E+00  0.00000000000E+00 -0.51960328817E+03  0.51960328818E+03  0.25500000920E-02 0.  1.
    10030    2    1    2    0    0  0.00000000000E+00  0.00000000000E+00  0.42449101870E+03  0.14636975951E+04  0.14007919277E+04 0.  0.
        4    1    3    3  502    0 -0.66736381895E+03 -0.19479722179E+03  0.12338250043E+03  0.70607738866E+03  0.12699999809E+01 0.  1.
       -4    1    3    3    0  502  0.66736381895E+03  0.19479722179E+03  0.30110851828E+03  0.75762020640E+03  0.12699999809E+01 0. -1.
</event>
<event>
 5   0  0.4527503E-05  0.1399918E+04  0.7818609E-02  0.8953878E-01
       -2   -1    0    0    0  501  0.00000000000E+00  0.00000000000E+00  0.45679235179E+03  0.45679235180E+03  0.25500000920E-02 0.  1.
        2   -1    0    0  501    0  0.00000000000E+00  0.00000000000E+00 -0.10725716068E+04  0.10725716068E+04  0.25500000920E-02 0. -1.
    10030    2    1    2    0    0  0.00000000000E+00  0.00000000000E+00 -0.61577925496E+03  0.15293639586E+04  0.13999178643E+04 0.  0.
        4    1    3    3  502    0 -0.11390509604E+03 -0.14269982679E+03 -0.10460960346E+04  0.10619115490E+04  0.12699999809E+01 0. -1.
       -4    1    3    3    0  502  0.11390509604E+03  0.14269982679E+03  0.43031677962E+03  0.46745240955E+03  0.12699999809E+01 0.  1.
</event>
<event>
 5   0  0.2467303E-05  0.1397385E+04  0.7818609E-02  0.8955713E-01
       -1   -1    0    0    0  501  0.00000000000E+00  0.00000000000E+00  0.51365923068E+03  0.51365923070E+03  0.50400001928E-02 0.  1.
        1   -1    0    0  501    0  0.00000000000E+00  0.00000000000E+00 -0.95038018278E+03  0.95038018279E+03  0.50400001928E-02 0. -1.
    10030    2    1    2    0    0  0.00000000000E+00  0.00000000000E+00 -0.43672095210E+03  0.14640394135E+04  0.13973854924E+04 0.  0.
        3    1    3    3  502    0  0.36593311103E+03  0.58169373645E+03 -0.35045741088E+03  0.77142404151E+03  0.10100000352E+00 0. -1.
       -3    1    3    3    0  502 -0.36593311103E+03 -0.58169373645E+03 -0.86263541219E+02  0.69261537199E+03  0.10100000352E+00 0.  1.
</event>
<event>
 5   0  0.2467303E-05  0.1401516E+04  0.7818609E-02  0.8952722E-01
       -1   -1    0    0    0  501  0.00000000000E+00  0.00000000000E+00  0.29243044700E+03  0.29243044704E+03  0.50400001928E-02 0.  1.
        1   -1    0    0  501    0  0.00000000000E+00  0.00000000000E+00 -0.16792430292E+04  0.16792430292E+04  0.50400001928E-02 0. -1.
    10030    2    1    2    0    0  0.00000000000E+00  0.00000000000E+00 -0.13868125822E+04  0.19716734762E+04  0.14015160216E+04 0.  0.
        3    1    3    3  502    0  0.63446299250E+03 -0.16554187317E+03 -0.34562306763E+03  0.74121705033E+03  0.10100000352E+00 0.  1.
       -3    1    3    3    0  502 -0.63446299250E+03  0.16554187317E+03 -0.10411895146E+04  0.12304564259E+04  0.10100000352E+00 0. -1.
</event>
<event>
 5   0  0.2427569E-05  0.1400598E+04  0.7818609E-02  0.8953386E-01
       -1   -1    0    0    0  501  0.00000000000E+00  0.00000000000E+00  0.38958081353E+03  0.38958081356E+03  0.50400001928E-02 0. -1.
        1   -1    0    0  501    0  0.00000000000E+00  0.00000000000E+00 -0.12588371776E+04  0.12588371776E+04  0.50400001928E-02 0.  1.
    10030    2    1    2    0    0  0.00000000000E+00  0.00000000000E+00 -0.86925636410E+03  0.16484179912E+04  0.14005981748E+04 0.  0.
        1    1    3    3  502    0 -0.18792742973E+03 -0.54239595755E+03  0.37482228697E+02  0.57525212829E+03  0.50400001928E-02 0. -1.
       -1    1    3    3    0  502  0.18792742973E+03  0.54239595755E+03 -0.90673859280E+03  0.10731658629E+04  0.50400001928E-02 0.  1.
</event>
<event>
 5   0  0.2363419E-05  0.1400346E+04  0.7818609E-02  0.8953568E-01
       -1   -1    0    0    0  501  0.00000000000E+00  0.00000000000E+00  0.21953548125E+03  0.21953548130E+03  0.50400001928E-02 0. -1.
        1   -1    0    0  501    0  0.00000000000E+00  0.00000000000E+00 -0.22330886566E+04  0.22330886566E+04  0.50400001928E-02 0.  1.
    10030    2    1    2    0    0  0.00000000000E+00  0.00000000000E+00 -0.20135531753E+04  0.24526241379E+04  0.14003459472E+04 0.  0.
        2    1    3    3  502    0 -0.58338131796E+03  0.14470558743E+03 -0.37779510427E+03  0.70993141217E+03  0.25500000920E-02 0.  1.
       -2    1    3    3    0  502  0.58338131796E+03 -0.14470558743E+03 -0.16357580710E+04  0.17426927257E+04  0.25500000920E-02 0. -1.
</event>
<event>
 5   0  0.4441253E-05  0.1399168E+04  0.7818609E-02  0.8954421E-01
        2   -1    0    0  501    0  0.00000000000E+00  0.00000000000E+00  0.20042431980E+04  0.20042431980E+04  0.25500000920E-02 0.  1.
       -2   -1    0    0    0  501  0.00000000000E+00  0.00000000000E+00 -0.24419076323E+03  0.24419076324E+03  0.25500000920E-02 0. -1.
    10030    2    1    2    0    0  0.00000000000E+00  0.00000000000E+00  0.17600524348E+04  0.22484339613E+04  0.13991678616E+04 0.  0.
        3    1    3    3  502    0 -0.52892418106E+03 -0.42189871294E+03  0.11659527597E+04  0.13480375222E+04  0.10100000352E+00 0.  1.
       -3    1    3    3    0  502  0.52892418106E+03  0.42189871294E+03  0.59409967512E+03  0.90039643906E+03  0.10100000352E+00 0. -1.
</event>
<event>
 5   0  0.4441253E-05  0.1399083E+04  0.7818609E-02  0.8954483E-01
        2   -1    0    0  501    0  0.00000000000E+00  0.00000000000E+00  0.11043633090E+04  0.11043633090E+04  0.25500000920E-02 0.  1.
       -2   -1    0    0    0  501  0.00000000000E+00  0.00000000000E+00 -0.44311356011E+03  0.44311356011E+03  0.25500000920E-02 0. -1.
    10030    2    1    2    0    0  0.00000000000E+00  0.00000000000E+00  0.66124974892E+03  0.15474768691E+04  0.13990830676E+04 0.  0.
        3    1    3    3  502    0  0.34532216002E+03 -0.56522286842E+03  0.57951178149E+03  0.88008988192E+03  0.10100000352E+00 0.  1.
       -3    1    3    3    0  502 -0.34532216002E+03  0.56522286842E+03  0.81737967430E+02  0.66738698722E+03  0.10100000352E+00 0. -1.
</event>
<event>
 5   0  0.2467303E-05  0.1399141E+04  0.7818609E-02  0.8954441E-01
       -1   -1    0    0    0  501  0.00000000000E+00  0.00000000000E+00  0.62425813257E+03  0.62425813259E+03  0.50400001928E-02 0. -1.
        1   -1    0    0  501    0  0.00000000000E+00  0.00000000000E+00 -0.78396886945E+03  0.78396886947E+03  0.50400001928E-02 0.  1.
    10030    2    1    2    0    0  0.00000000000E+00  0.00000000000E+00 -0.15971073689E+03  0.14082270021E+04  0.13991410829E+04 0.  0.
        3    1    3    3  502    0 -0.39293652901E+03  0.52038466562E+03  0.17516647130E+03  0.67519080185E+03  0.10100000352E+00 0. -1.
       -3    1    3    3    0  502  0.39293652901E+03 -0.52038466562E+03 -0.33487720819E+03  0.73303620020E+03  0.10100000352E+00 0.  1.
</event>
<event>
 5   0  0.4243281E-05  0.1399813E+04  0.7818609E-02  0.8953954E-01
       -2   -1    0    0    0  501  0.00000000000E+00  0.00000000000E+00  0.10627075375E+04  0.10627075375E+04  0.25500000920E-02 0. -1.
        2   -1    0    0  501    0  0.00000000000E+00  0.00000000000E+00 -0.46096320352E+03  0.46096320353E+03  0.25500000920E-02 0.  1.
    10030    2    1    2    0    0  0.00000000000E+00  0.00000000000E+00  0.60174433393E+03  0.15236707410E+04  0.13998129459E+04 0.  0.
        2    1    3    3  502    0 -0.59717694310E+03  0.57212023546E+02 -0.91548580422E+02  0.60685637477E+03  0.25500000920E-02 0.  1.
       -2    1    3    3    0  502  0.59717694310E+03 -0.57212023546E+02  0.69329291435E+03  0.91681436622E+03  0.25500000920E-02 0. -1.
</event>
<event>
 5   0  0.4460282E-05  0.1400578E+04  0.7818609E-02  0.8953400E-01
       -2   -1    0    0    0  501  0.00000000000E+00  0.00000000000E+00  0.24406358162E+03  0.24406358163E+03  0.25500000920E-02 0.  1.
        2   -1    0    0  501    0  0.00000000000E+00  0.00000000000E+00 -0.20093310960E+04  0.20093310960E+04  0.25500000920E-02 0. -1.
    10030    2    1    2    0    0  0.00000000000E+00  0.00000000000E+00 -0.17652675144E+04  0.22533946776E+04  0.14005778007E+04 0.  0.
        1    1    3    3  502    0  0.42767691482E+02 -0.49477739153E+03 -0.16770001610E+04  0.17489892174E+04  0.50400001928E-02 0. -1.
       -1    1    3    3    0  502 -0.42767691482E+02  0.49477739153E+03 -0.88267353381E+02  0.50440546022E+03  0.50400001928E-02 0.  1.
</event>
<event>
 5   0  0.4527503E-05  0.1399766E+04  0.7818609E-02  0.8953988E-01
       -2   -1    0    0    0  501  0.00000000000E+00  0.00000000000E+00  0.32237420126E+03  0.32237420127E+03  0.25500000920E-02 0.  1.
        2   -1    0    0  501    0  0.00000000000E+00  0.00000000000E+00 -0.15194646162E+04  0.15194646162E+04  0.25500000920E-02 0. -1.
    10030    2    1    2    0    0  0.00000000000E+00  0.00000000000E+00 -0.11970904149E+04  0.18418388175E+04  0.13997659690E+04 0.  0.
        4    1    3    3  502    0  0.12105968593E+03 -0.58897005403E+02  0.30517471986E+03  0.33355288538E+03  0.12699999809E+01 0.  1.
       -4    1    3    3    0  502 -0.12105968593E+03  0.58897005403E+02 -0.15022651348E+04  0.15082859321E+04  0.12699999809E+01 0. -1.
</event>
<event>
 5   0  0.2316714E-05  0.1400119E+04  0.7818609E-02  0.8953733E-01
        1   -1    0    0  501    0  0.00000000000E+00  0.00000000000E+00  0.71362137568E+03  0.71362137570E+03  0.50400001928E-02 0.  1.
       -1   -1    0    0    0  501  0.00000000000E+00  0.00000000000E+00 -0.68675493558E+03  0.68675493560E+03  0.50400001928E-02 0. -1.
    10030    2    1    2    0    0  0.00000000000E+00  0.00000000000E+00  0.26866440095E+02  0.14003763113E+04  0.14001185691E+04 0.  0.
        5    1    3    3  502    0  0.19835766758E+03 -0.11483919204E+03  0.67501330410E+03  0.71288067376E+03  0.46999998093E+01 0.  1.
       -5    1    3    3    0  502 -0.19835766758E+03  0.11483919204E+03 -0.64814686400E+03  0.68749563754E+03  0.46999998093E+01 0. -1.
</event>
<event>
 5   0  0.4460282E-05  0.1399125E+04  0.7818609E-02  0.8954452E-01
       -2   -1    0    0    0  501  0.00000000000E+00  0.00000000000E+00  0.49275012372E+03  0.49275012373E+03  0.25500000920E-02 0.  1.
        2   -1    0    0  501    0  0.00000000000E+00  0.00000000000E+00 -0.99317641697E+03  0.99317641698E+03  0.25500000920E-02 0. -1.
    10030    2    1    2    0    0  0.00000000000E+00  0.00000000000E+00 -0.50042629325E+03  0.14859265407E+04  0.13991251586E+04 0.  0.
        1    1    3    3  502    0 -0.91833803245E+02  0.42879952118E+02  0.48491145831E+03  0.49539000811E+03  0.50400001928E-02 0.  1.
       -1    1    3    3    0  502  0.91833803245E+02 -0.42879952118E+02 -0.98533775156E+03  0.99053653259E+03  0.50400001928E-02 0. -1.
</event>
<event>
 5   0  0.4441253E-05  0.1400909E+04  0.7818609E-02  0.8953161E-01
       -2   -1    0    0    0  501  0.00000000000E+00  0.00000000000E+00  0.36798647632E+03  0.36798647632E+03  0.25500000920E-02 0. -1.
        2   -1    0    0  501    0  0.00000000000E+00  0.00000000000E+00 -0.13332996001E+04  0.13332996001E+04  0.25500000920E-02 0.  1.
    10030    2    1    2    0    0  0.00000000000E+00  0.00000000000E+00 -0.96531312375E+03  0.17012860764E+04  0.14009085933E+04 0.  0.
        3    1    3    3  502    0  0.30792537422E+03  0.62397952543E+03 -0.38499056274E+03  0.79522715487E+03  0.10100000352E+00 0.  1.
       -3    1    3    3    0  502 -0.30792537422E+03 -0.62397952543E+03 -0.58032256101E+03  0.90605892152E+03  0.10100000352E+00 0. -1.
</event>
<event>
 5   0  0.2428507E-05  0.1400710E+04  0.7818609E-02  0.8953305E-01
        1   -1    0    0  501    0  0.00000000000E+00  0.00000000000E+00  0.11627824254E+04  0.11627824254E+04  0.50400001928E-02 0.  1.
       -1   -1    0    0    0  501  0.00000000000E+00  0.00000000000E+00 -0.42183073863E+03  0.42183073866E+03  0.50400001928E-02 0. -1.
    10030    2    1    2    0    0  0.00000000000E+00  0.00000000000E+00  0.74095168675E+03  0.15846131641E+04  0.14007103475E+04 0.  0.
        4    1    3    3  502    0 -0.93356129799E+02 -0.42436110948E+03  0.99186141619E+03  0.10828612100E+04  0.12699999809E+01 0.  1.
       -4    1    3    3    0  502  0.93356129799E+02  0.42436110948E+03 -0.25090972944E+03  0.50175195409E+03  0.12699999809E+01 0. -1.
</event>
<event>
 5   0  0.4621450E-05  0.1400663E+04  0.7818609E-02  0.8953339E-01
        2   -1    0    0  501    0  0.00000000000E+00  0.00000000000E+00  0.48542303459E+03  0.48542303460E+03  0.25500000920E-02 0.  1.
       -2   -1    0    0    0  501  0.00000000000E+00  0.00000000000E+00 -0.10103854923E+04  0.10103854923E+04  0.25500000920E-02 0. -1.
    10030    2    1    2    0    0  0.00000000000E+00  0.00000000000E+00 -0.52496245773E+03  0.14958085269E+04  0.14006632597E+04 0.  0.
        5    1    3    3  502    0  0.23132748144E+03  0.61734290516E+03 -0.51478746539E+03  0.83645256335E+03  0.46999998093E+01 0. -1.
       -5    1    3    3    0  502 -0.23132748144E+03 -0.61734290516E+03 -0.10174992339E+02  0.65935596356E+03  0.46999998093E+01 0.  1.
</event>
<event>
 5   0  0.4243281E-05  0.1391797E+04  0.7818609E-02  0.8959778E-01
        2   -1    0    0  501    0  0.00000000000E+00  0.00000000000E+00  0.88497829753E+03  0.88497829753E+03  0.25500000920E-02 0. -1.
       -2   -1    0    0    0  501  0.00000000000E+00  0.00000000000E+00 -0.54721616008E+03  0.54721616008E+03  0.25500000920E-02 0.  1.
    10030    2    1    2    0    0  0.00000000000E+00  0.00000000000E+00  0.33776213745E+03  0.14321944576E+04  0.13917965738E+04 0.  0.
        2    1    3    3  502    0 -0.53167321238E+03 -0.60691992933E+02 -0.28890759678E+03  0.60813446067E+03  0.25500000920E-02 0.  1.
       -2    1    3    3    0  502  0.53167321238E+03  0.60691992933E+02  0.62666973423E+03  0.82405999695E+03  0.25500000920E-02 0. -1.
</event>
<event>
 5   0  0.4243281E-05  0.1399807E+04  0.7818609E-02  0.8953958E-01
        2   -1    0    0  501    0  0.00000000000E+00  0.00000000000E+00  0.79135452763E+03  0.79135452764E+03  0.25500000920E-02 0.  1.
       -2   -1    0    0    0  501  0.00000000000E+00  0.00000000000E+00 -0.61902100383E+03  0.61902100384E+03  0.25500000920E-02 0. -1.
    10030    2    1    2    0    0  0.00000000000E+00  0.00000000000E+00  0.17233352380E+03  0.14103755315E+04  0.13998072354E+04 0.  0.
        2    1    3    3  502    0 -0.99257374386E+02 -0.54651737741E+03 -0.34287890655E+03  0.65276275533E+03  0.25500000920E-02 0. -1.
       -2    1    3    3    0  502  0.99257374386E+02  0.54651737741E+03  0.51521243035E+03  0.75761277614E+03  0.25500000920E-02 0.  1.
</event>
<event>
 5   0  0.2467303E-05  0.1400408E+04  0.7818609E-02  0.8953523E-01
        1   -1    0    0  501    0  0.00000000000E+00  0.00000000000E+00  0.56148934453E+03  0.56148934455E+03  0.50400001928E-02 0.  1.
       -1   -1    0    0    0  501  0.00000000000E+00  0.00000000000E+00 -0.87318749311E+03  0.87318749313E+03  0.50400001928E-02 0. -1.
    10030    2    1    2    0    0  0.00000000000E+00  0.00000000000E+00 -0.31169814858E+03  0.14346768377E+04  0.14004077595E+04 0.  0.
        3    1    3    3  502    0 -0.12683027347E+03  0.18083247799E+03  0.52486466917E+03  0.56944642813E+03  0.10100000352E+00 0.  1.
       -3    1    3    3    0  502  0.12683027347E+03 -0.18083247799E+03 -0.83656281775E+03  0.86523040955E+03  0.10100000352E+00 0. -1.
</event>
<event>
 5   0  0.2363419E-05  0.1400165E+04  0.7818609E-02  0.8953699E-01
        1   -1    0    0  501    0  0.00000000000E+00  0.00000000000E+00  0.17095826369E+04  0.17095826369E+04  0.50400001928E-02 0. -1.
       -1   -1    0    0    0  501  0.00000000000E+00  0.00000000000E+00 -0.28668714412E+03  0.28668714416E+03  0.50400001928E-02 0.  1.
    10030    2    1    2    0    0  0.00000000000E+00  0.00000000000E+00  0.14228954928E+04  0.19962697811E+04  0.14001647958E+04 0.  0.
        2    1    3    3  502    0 -0.31559988136E+03 -0.57966498872E+02 -0.17566906978E+03  0.36581829121E+03  0.25500000920E-02 0.  1.
       -2    1    3    3    0  502  0.31559988136E+03  0.57966498872E+02  0.15985645625E+04  0.16304514898E+04  0.25500000920E-02 0. -1.
</event>
<event>
 5   0  0.4460282E-05  0.1400741E+04  0.7818609E-02  0.8953282E-01
        2   -1    0    0  501    0  0.00000000000E+00  0.00000000000E+00  0.41447315203E+03  0.41447315204E+03  0.25500000920E-02 0.  1.
       -2   -1    0    0    0  501  0.00000000000E+00  0.00000000000E+00 -0.11834753454E+04  0.11834753454E+04  0.25500000920E-02 0. -1.
    10030    2    1    2    0    0  0.00000000000E+00  0.00000000000E+00 -0.76900219341E+03  0.15979484975E+04  0.14007408851E+04 0.  0.
        1    1    3    3  502    0  0.32659881142E+03  0.54387093256E+03 -0.45980271392E+02  0.63606333041E+03  0.50400001928E-02 0.  1.
       -1    1    3    3    0  502 -0.32659881142E+03 -0.54387093256E+03 -0.72302192202E+03  0.96188516708E+03  0.50400001928E-02 0. -1.
</event>
<event>
 5   0  0.2363419E-05  0.1400999E+04  0.7818609E-02  0.8953096E-01
        1   -1    0    0  501    0  0.00000000000E+00  0.00000000000E+00  0.50084618706E+03  0.50084618708E+03  0.50400001928E-02 0.  1.
       -1   -1    0    0    0  501  0.00000000000E+00  0.00000000000E+00 -0.97974092622E+03  0.97974092624E+03  0.50400001928E-02 0. -1.
    10030    2    1    2    0    0  0.00000000000E+00  0.00000000000E+00 -0.47889473917E+03  0.14805871133E+04  0.14009989397E+04 0.  0.
        2    1    3    3  502    0  0.67389230712E+03  0.52511836153E+02 -0.45123443899E+02  0.67743963549E+03  0.25500000920E-02 0.  1.
       -2    1    3    3    0  502 -0.67389230712E+03 -0.52511836153E+02 -0.43377129527E+03  0.80314747783E+03  0.25500000920E-02 0. -1.
</event>
<event>
 5   0  0.2316714E-05  0.1400546E+04  0.7818609E-02  0.8953424E-01
       -1   -1    0    0    0  501  0.00000000000E+00  0.00000000000E+00  0.41510470572E+03  0.41510470576E+03  0.50400001928E-02 0. -1.
        1   -1    0    0  501    0  0.00000000000E+00  0.00000000000E+00 -0.11813452085E+04  0.11813452086E+04  0.50400001928E-02 0.  1.
    10030    2    1    2    0    0  0.00000000000E+00  0.00000000000E+00 -0.76624050282E+03  0.15964499143E+04  0.14005455440E+04 0.  0.
        5    1    3    3  502    0 -0.66079233883E+03 -0.23019083647E+03 -0.41382357795E+03  0.81296148735E+03  0.46999998093E+01 0. -1.
       -5    1    3    3    0  502  0.66079233883E+03  0.23019083647E+03 -0.35241692487E+03  0.78348842696E+03  0.46999998093E+01 0.  1.
</event>
<event>
 5   0  0.4621450E-05  0.1399890E+04  0.7818609E-02  0.8953898E-01
        2   -1    0    0  501    0  0.00000000000E+00  0.00000000000E+00  0.63890639912E+03  0.63890639912E+03  0.25500000920E-02 0. -1.
       -2   -1    0    0    0  501  0.00000000000E+00  0.00000000000E+00 -0.76681492238E+03  0.76681492239E+03  0.25500000920E-02 0.  1.
    10030    2    1    2    0    0  0.00000000000E+00  0.00000000000E+00 -0.12790852326E+03  0.14057213215E+04  0.13998899398E+04 0.  0.
        5    1    3    3  502    0  0.43773259735E+03 -0.45085160544E+03  0.24558925025E+03  0.67469486937E+03  0.46999998093E+01 0. -1.
       -5    1    3    3    0  502 -0.43773259735E+03  0.45085160544E+03 -0.37349777352E+03  0.73102645214E+03  0.46999998093E+01 0.  1.
</event>
<event>
 5   0  0.2363419E-05  0.1400019E+04  0.7818609E-02  0.8953805E-01
       -1   -1    0    0    0  501  0.00000000000E+00  0.00000000000E+00  0.70421711460E+03  0.70421711461E+03  0.50400001928E-02 0.  1.
        1   -1    0    0  501    0  0.00000000000E+00  0.00000000000E+00 -0.69582653117E+03  0.69582653119E+03  0.50400001928E-02 0. -1.
    10030    2    1    2    0    0  0.00000000000E+00  0.00000000000E+00  0.83905834212E+01  0.14000436458E+04  0.14000185028E+04 0.  0.
        2    1    3    3  502    0 -0.40174024571E+03 -0.22267812957E+03  0.53243974273E+03  0.70318763787E+03  0.25500000920E-02 0.  1.
       -2    1    3    3    0  502  0.40174024571E+03  0.22267812957E+03 -0.52404915931E+03  0.69685600793E+03  0.25500000920E-02 0. -1.
</event>
<event>
 5   0  0.2467303E-05  0.1400455E+04  0.7818609E-02  0.8953489E-01
       -1   -1    0    0    0  501  0.00000000000E+00  0.00000000000E+00  0.45893781033E+03  0.45893781036E+03  0.50400001928E-02 0.  1.
        1   -1    0    0  501    0  0.00000000000E+00  0.00000000000E+00 -0.10683769884E+04  0.10683769885E+04  0.50400001928E-02 0. -1.
    10030    2    1    2    0    0  0.00000000000E+00  0.00000000000E+00 -0.60943917811E+03  0.15273147988E+04  0.14004550628E+04 0.  0.
        3    1    3    3  502    0  0.42103921575E+03 -0.42505530565E+03  0.92068248756E+02  0.60532851138E+03  0.10100000352E+00 0.  1.
       -3    1    3    3    0  502 -0.42103921575E+03  0.42505530565E+03 -0.70150742686E+03  0.92198628743E+03  0.10100000352E+00 0. -1.
</event>
<event>
 5   0  0.2316714E-05  0.1400356E+04  0.7818609E-02  0.8953561E-01
        1   -1    0    0  501    0  0.00000000000E+00  0.00000000000E+00  0.13474718186E+04  0.13474718186E+04  0.50400001928E-02 0. -1.
       -1   -1    0    0    0  501  0.00000000000E+00  0.00000000000E+00 -0.36382902456E+03  0.36382902460E+03  0.50400001928E-02 0.  1.
    10030    2    1    2    0    0  0.00000000000E+00  0.00000000000E+00  0.98364279400E+03  0.17113008432E+04  0.14003561796E+04 0.  0.
        5    1    3    3  502    0 -0.76485664957E+02  0.62427955053E+03  0.11585127731E+03  0.63954563763E+03  0.46999998093E+01 0.  1.
       -5    1    3    3    0  502  0.76485664957E+02 -0.62427955053E+03  0.86779151669E+03  0.10717552055E+04  0.46999998093E+01 0. -1.
</event>
<event>
 5   0  0.4243281E-05  0.1400166E+04  0.7818609E-02  0.8953698E-01
       -2   -1    0    0    0  501  0.00000000000E+00  0.00000000000E+00  0.25179894703E+03  0.25179894705E+03  0.25500000920E-02 0. -1.
        2   -1    0    0  501    0  0.00000000000E+00  0.00000000000E+00 -0.19464594501E+04  0.19464594501E+04  0.25500000920E-02 0.  1.
    10030    2    1    2    0    0  0.00000000000E+00  0.00000000000E+00 -0.16946605031E+04  0.21982583972E+04  0.14001663330E+04 0.  0.
        2    1    3    3  502    0 -0.37438707449E+03  0.27983621757E+03 -0.16656027012E+04  0.17299440304E+04  0.25500000920E-02 0.  1.
       -2    1    3    3    0  502  0.37438707449E+03 -0.27983621757E+03 -0.29057801875E+02  0.46831436671E+03  0.25500000920E-02 0. -1.
</event>
<event>
 5   0  0.4460282E-05  0.1399475E+04  0.7818609E-02  0.8954199E-01
        2   -1    0    0  501    0  0.00000000000E+00  0.00000000000E+00  0.48241124545E+03  0.48241124545E+03  0.25500000920E-02 0. -1.
       -2   -1    0    0    0  501  0.00000000000E+00  0.00000000000E+00 -0.10149689422E+04  0.10149689422E+04  0.25500000920E-02 0.  1.
    10030    2    1    2    0    0  0.00000000000E+00  0.00000000000E+00 -0.53255769677E+03  0.14973801877E+04  0.13994748037E+04 0.  0.
        1    1    3    3  502    0  0.47947447756E+02 -0.30571272821E+03  0.40521991212E+03  0.50986508719E+03  0.50400001928E-02 0. -1.
       -1    1    3    3    0  502 -0.47947447756E+02  0.30571272821E+03 -0.93777760889E+03  0.98751510049E+03  0.50400001928E-02 0.  1.
</event>
<event>
 5   0  0.2467303E-05  0.1401271E+04  0.7818609E-02  0.8952899E-01
       -1   -1    0    0    0  501  0.00000000000E+00  0.00000000000E+00  0.67449029237E+03  0.67449029239E+03  0.50400001928E-02 0. -1.
        1   -1    0    0  501    0  0.00000000000E+00  0.00000000000E+00 -0.72779458043E+03  0.72779458045E+03  0.50400001928E-02 0.  1.
    10030    2    1    2    0    0  0.00000000000E+00  0.00000000000E+00 -0.53304288067E+02  0.14022848728E+04  0.14012713932E+04 0.  0.
        3    1    3    3  502    0 -0.48597231969E+03  0.50181643585E+03  0.27252744427E+02  0.69909337937E+03  0.10100000352E+00 0.  1.
       -3    1    3    3    0  502  0.48597231969E+03 -0.50181643585E+03 -0.80557032494E+02  0.70319149347E+03  0.10100000352E+00 0. -1.
</event>
<event>
 5   0  0.4460282E-05  0.1399503E+04  0.7818609E-02  0.8954179E-01
       -2   -1    0    0    0  501  0.00000000000E+00  0.00000000000E+00  0.12045491918E+04  0.12045491918E+04  0.25500000920E-02 0. -1.
        2   -1    0    0  501    0  0.00000000000E+00  0.00000000000E+00 -0.40650222469E+03  0.40650222470E+03  0.25500000920E-02 0.  1.
    10030    2    1    2    0    0  0.00000000000E+00  0.00000000000E+00  0.79804696708E+03  0.16110514165E+04  0.13995026634E+04 0.  0.
        1    1    3    3  502    0  0.48450291023E+03  0.50431907241E+03  0.42653426450E+03  0.81915338957E+03  0.50400001928E-02 0.  1.
       -1    1    3    3    0  502 -0.48450291023E+03 -0.50431907241E+03  0.37151270257E+03  0.79189802691E+03  0.50400001928E-02 0. -1.
</event>
<event>
 5   0  0.4460282E-05  0.1399546E+04  0.7818609E-02  0.8954147E-01
        2   -1    0    0  501    0  0.00000000000E+00  0.00000000000E+00  0.55421877700E+03  0.55421877700E+03  0.25500000920E-02 0.  1.
       -2   -1    0    0    0  501  0.00000000000E+00  0.00000000000E+00 -0.88355382881E+03  0.88355382882E+03  0.25500000920E-02 0. -1.
    10030    2    1    2    0    0  0.00000000000E+00  0.00000000000E+00 -0.32933505182E+03  0.14377726058E+04  0.13995458155E+04 0.  0.
        1    1    3    3  502    0 -0.20504527997E+03  0.47970116551E+03  0.31446761034E+03  0.60913598893E+03  0.50400001928E-02 0.  1.
       -1    1    3    3    0  502  0.20504527997E+03 -0.47970116551E+03 -0.64380266215E+03  0.82863661689E+03  0.50400001928E-02 0. -1.
</event>
<event>
 5   0  0.4621450E-05  0.1402434E+04  0.7818609E-02  0.8952058E-01
        2   -1    0    0  501    0  0.00000000000E+00  0.00000000000E+00  0.12725372596E+04  0.12725372596E+04  0.25500000920E-02 0.  1.
       -2   -1    0    0    0  501  0.00000000000E+00  0.00000000000E+00 -0.38639771134E+03  0.38639771135E+03  0.25500000920E-02 0. -1.
    10030    2    1    2    0    0  0.00000000000E+00  0.00000000000E+00  0.88613954830E+03  0.16589349710E+04  0.14024342904E+04 0.  0.
        5    1    3    3  502    0 -0.15557570422E+03 -0.61010223278E+03  0.80815176751E+03  0.10244803090E+04  0.46999998093E+01 0.  1.
       -5    1    3    3    0  502  0.15557570422E+03  0.61010223278E+03  0.77987780787E+02  0.63445466200E+03  0.46999998093E+01 0. -1.
</event>
<event>
 5   0  0.4441253E-05  0.1400544E+04  0.7818609E-02  0.8953425E-01
        2   -1    0    0  501    0  0.00000000000E+00  0.00000000000E+00  0.11334696912E+04  0.11334696912E+04  0.25500000920E-02 0. -1.
       -2   -1    0    0    0  501  0.00000000000E+00  0.00000000000E+00 -0.43263677617E+03  0.43263677617E+03  0.25500000920E-02 0.  1.
    10030    2    1    2    0    0  0.00000000000E+00  0.00000000000E+00  0.70083291502E+03  0.15661064674E+04  0.14005437131E+04 0.  0.
        3    1    3    3  502    0  0.56404479514E+03  0.41388866345E+03  0.38452299093E+03  0.79831591329E+03  0.10100000352E+00 0.  1.
       -3    1    3    3    0  502 -0.56404479514E+03 -0.41388866345E+03  0.31630992409E+03  0.76779055408E+03  0.10100000352E+00 0. -1.
</event>
<event>
 5   0  0.2427569E-05  0.1398936E+04  0.7818609E-02  0.8954589E-01
        1   -1    0    0  501    0  0.00000000000E+00  0.00000000000E+00  0.82750108113E+03  0.82750108115E+03  0.50400001928E-02 0.  1.
       -1   -1    0    0    0  501  0.00000000000E+00  0.00000000000E+00 -0.59124476272E+03  0.59124476274E+03  0.50400001928E-02 0. -1.
    10030    2    1    2    0    0  0.00000000000E+00  0.00000000000E+00  0.23625631841E+03  0.14187458439E+04  0.13989362822E+04 0.  0.
        1    1    3    3  502    0  0.37617430954E+03 -0.57493692465E+03  0.25111898204E+03  0.73151918748E+03  0.50400001928E-02 0. -1.
       -1    1    3    3    0  502 -0.37617430954E+03  0.57493692465E+03 -0.14862663627E+02  0.68722665641E+03  0.50400001928E-02 0.  1.
</event>
<event>
 5   0  0.2427569E-05  0.1400246E+04  0.7818609E-02  0.8953640E-01
       -1   -1    0    0    0  501  0.00000000000E+00  0.00000000000E+00  0.23629864691E+03  0.23629864697E+03  0.50400001928E-02 0. -1.
        1   -1    0    0  501    0  0.00000000000E+00  0.00000000000E+00 -0.20743762450E+04  0.20743762450E+04  0.50400001928E-02 0.  1.
    10030    2    1    2    0    0  0.00000000000E+00  0.00000000000E+00 -0.18380775981E+04  0.23106748919E+04  0.14002461211E+04 0.  0.
        1    1    3    3  502    0 -0.19324447614E+03  0.44267731714E+03 -0.17553877093E+04  0.18206297385E+04  0.50400001928E-02 0.  1.
       -1    1    3    3    0  502  0.19324447614E+03 -0.44267731714E+03 -0.82689888724E+02  0.49004515342E+03  0.50400001928E-02 0. -1.
</event>
<event>
 5   0  0.2427569E-05  0.1400426E+04  0.7818609E-02  0.8953510E-01
       -1   -1    0    0    0  501  0.00000000000E+00  0.00000000000E+00  0.66064390996E+03  0.66064390998E+03  0.50400001928E-02 0.  1.
        1   -1    0    0  501    0  0.00000000000E+00  0.00000000000E+00 -0.74215233008E+03  0.74215233010E+03  0.50400001928E-02 0. -1.
    10030    2    1    2    0    0  0.00000000000E+00  0.00000000000E+00 -0.81508420124E+02  0.14027962401E+04  0.14004262453E+04 0.  0.
        1    1    3    3  502    0  0.37882540411E+02  0.24456886977E+03 -0.69688134738E+03  0.73952189371E+03  0.50400001928E-02 0. -1.
       -1    1    3    3    0  502 -0.37882540411E+02 -0.24456886977E+03  0.61537292725E+03  0.66327434637E+03  0.50400001928E-02 0.  1.
</event>
<event>
 5   0  0.4621450E-05  0.1400344E+04  0.7818609E-02  0.8953569E-01
        2   -1    0    0  501    0  0.00000000000E+00  0.00000000000E+00  0.21408113358E+04  0.21408113358E+04  0.25500000920E-02 0. -1.
       -2   -1    0    0    0  501  0.00000000000E+00  0.00000000000E+00 -0.22899772698E+03  0.22899772700E+03  0.25500000920E-02 0.  1.
    10030    2    1    2    0    0  0.00000000000E+00  0.00000000000E+00  0.19118136088E+04  0.23698090628E+04  0.14003441432E+04 0.  0.
        5    1    3    3  502    0 -0.77131410946E+02  0.69538112454E+03  0.91066567399E+03  0.11484068193E+04  0.46999998093E+01 0. -1.
       -5    1    3    3    0  502  0.77131410946E+02 -0.69538112454E+03  0.10011479349E+04  0.12214022435E+04  0.46999998093E+01 0.  1.
</event>
<event>
 5   0  0.4460282E-05  0.1400438E+04  0.7818609E-02  0.8953502E-01
        2   -1    0    0  501    0  0.00000000000E+00  0.00000000000E+00  0.18389945755E+04  0.18389945755E+04  0.25500000920E-02 0. -1.
       -2   -1    0    0    0  501  0.00000000000E+00  0.00000000000E+00 -0.26661655405E+03  0.26661655407E+03  0.25500000920E-02 0.  1.
    10030    2    1    2    0    0  0.00000000000E+00  0.00000000000E+00  0.15723780214E+04  0.21056111295E+04  0.14004376411E+04 0.  0.
        1    1    3    3  502    0 -0.33636612052E+03 -0.49134840281E+03  0.23223989043E+03  0.63914066270E+03  0.50400001928E-02 0.  1.
       -1    1    3    3    0  502  0.33636612052E+03  0.49134840281E+03  0.13401381310E+04  0.14664704668E+04  0.50400001928E-02 0. -1.
</event>
<event>
 5   0  0.2316714E-05  0.1398577E+04  0.7818609E-02  0.8954850E-01
        1   -1    0    0  501    0  0.00000000000E+00  0.00000000000E+00  0.49066424270E+03  0.49066424272E+03  0.50400001928E-02 0. -1.
       -1   -1    0    0    0  501  0.00000000000E+00  0.00000000000E+00 -0.99661661405E+03  0.99661661406E+03  0.50400001928E-02 0.  1.
    10030    2    1    2    0    0  0.00000000000E+00  0.00000000000E+00 -0.50595237135E+03  0.14872808568E+04  0.13985766139E+04 0.  0.
        5    1    3    3  502    0 -0.24002996268E+03 -0.63553311753E+03 -0.42921398288E+03  0.80359408880E+03  0.46999998093E+01 0. -1.
       -5    1    3    3    0  502  0.24002996268E+03  0.63553311753E+03 -0.76738388479E+02  0.68368676799E+03  0.46999998093E+01 0.  1.
</event>
<event>
 5   0  0.2467303E-05  0.1397638E+04  0.7818609E-02  0.8955530E-01
       -1   -1    0    0    0  501  0.00000000000E+00  0.00000000000E+00  0.34060762429E+03  0.34060762433E+03  0.50400001928E-02 0. -1.
        1   -1    0    0  501    0  0.00000000000E+00  0.00000000000E+00 -0.14337548704E+04  0.14337548704E+04  0.50400001928E-02 0.  1.
    10030    2    1    2    0    0  0.00000000000E+00  0.00000000000E+00 -0.10931472461E+04  0.17743624948E+04  0.13976377789E+04 0.  0.
        3    1    3    3  502    0 -0.23900752695E+03  0.65412682792E+03 -0.61995858717E+03  0.93239217337E+03  0.10100000352E+00 0. -1.
       -3    1    3    3    0  502  0.23900752695E+03 -0.65412682792E+03 -0.47318865896E+03  0.84197032140E+03  0.10100000352E+00 0.  1.
</event>
<event>
 5   0  0.4460282E-05  0.1399793E+04  0.7818609E-02  0.8953968E-01
       -2   -1    0    0    0  501  0.00000000000E+00  0.00000000000E+00  0.13458983936E+04  0.13458983936E+04  0.25500000920E-02 0.  1.
        2   -1    0    0  501    0  0.00000000000E+00  0.00000000000E+00 -0.36396152009E+03  0.36396152010E+03  0.25500000920E-02 0. -1.
    10030    2    1    2    0    0  0.00000000000E+00  0.00000000000E+00  0.98193687347E+03  0.17098599137E+04  0.13997931636E+04 0.  0.
        1    1    3    3  502    0  0.65114026173E+03 -0.68969389671E+02  0.79294267091E+03  0.10283474591E+04  0.50400001928E-02 0.  1.
       -1    1    3    3    0  502 -0.65114026173E+03  0.68969389671E+02  0.18899420255E+03  0.68151245460E+03  0.50400001928E-02 0. -1.
</event>
<event>
 5   0  0.2427569E-05  0.1400063E+04  0.7818609E-02  0.8953773E-01
       -1   -1    0    0    0  501  0.00000000000E+00  0.00000000000E+00  0.34903958355E+03  0.34903958358E+03  0.50400001928E-02 0. -1.
        1   -1    0    0  501    0  0.00000000000E+00  0.00000000000E+00 -0.14039783249E+04  0.14039783249E+04  0.50400001928E-02 0.  1.
    10030    2    1    2    0    0  0.00000000000E+00  0.00000000000E+00 -0.10549387413E+04  0.17530179085E+04  0.14000628698E+04 0.  0.
        1    1    3    3  502    0  0.68324212603E+03 -0.15745894876E+02 -0.71726168174E+03  0.99072299665E+03  0.50400001928E-02 0.  1.
       -1    1    3    3    0  502 -0.68324212603E+03  0.15745894876E+02 -0.33767705959E+03  0.76229491182E+03  0.50400001928E-02 0. -1.
</event>
<event>
 5   0  0.2363419E-05  0.1393807E+04  0.7818609E-02  0.8958313E-01
        1   -1    0    0  501    0  0.00000000000E+00  0.00000000000E+00  0.61182031754E+03  0.61182031756E+03  0.50400001928E-02 0. -1.
       -1   -1    0    0    0  501  0.00000000000E+00  0.00000000000E+00 -0.79381904564E+03  0.79381904566E+03  0.50400001928E-02 0.  1.
    10030    2    1    2    0    0  0.00000000000E+00  0.00000000000E+00 -0.18199872810E+03  0.14056393632E+04  0.13938071898E+04 0.  0.
        2    1    3    3  502    0  0.11728613079E+03  0.64326637245E+03  0.15214264925E+03  0.67133825165E+03  0.25500000920E-02 0. -1.
       -2    1    3    3    0  502 -0.11728613079E+03 -0.64326637245E+03 -0.33414137735E+03  0.73430111158E+03  0.25500000920E-02 0.  1.
</event>
<event>
 5   0  0.2428507E-05  0.1399934E+04  0.7818609E-02  0.8953866E-01
       -1   -1    0    0    0  501  0.00000000000E+00  0.00000000000E+00  0.63089071601E+03  0.63089071603E+03  0.50400001928E-02 0.  1.
        1   -1    0    0  501    0  0.00000000000E+00  0.00000000000E+00 -0.77660677423E+03  0.77660677425E+03  0.50400001928E-02 0. -1.
    10030    2    1    2    0    0  0.00000000000E+00  0.00000000000E+00 -0.14571605822E+03  0.14074974903E+04  0.13999342897E+04 0.  0.
        4    1    3    3  502    0  0.27733422007E+03 -0.25242999464E+02  0.57279588271E+03  0.63690518509E+03  0.12699999809E+01 0.  1.
       -4    1    3    3    0  502 -0.27733422007E+03  0.25242999464E+02 -0.71851194093E+03  0.77059230518E+03  0.12699999809E+01 0. -1.
</event>
<event>
 5   0  0.2428507E-05  0.1400210E+04  0.7818609E-02  0.8953667E-01
        1   -1    0    0  501    0  0.00000000000E+00  0.00000000000E+00  0.96345398225E+03  0.96345398226E+03  0.50400001928E-02 0. -1.
       -1   -1    0    0    0  501  0.00000000000E+00  0.00000000000E+00 -0.50873916734E+03  0.50873916736E+03  0.50400001928E-02 0.  1.
    10030    2    1    2    0    0  0.00000000000E+00  0.00000000000E+00  0.45471481491E+03  0.14721931496E+04  0.14002096653E+04 0.  0.
        4    1    3    3  502    0 -0.54808803700E+03  0.30455821897E+03  0.55479826565E+03  0.83723290279E+03  0.12699999809E+01 0. -1.
       -4    1    3    3    0  502  0.54808803700E+03 -0.30455821897E+03 -0.10008345074E+03  0.63496024683E+03  0.12699999809E+01 0.  1.
</event>
<event>
 5   0  0.2427569E-05  0.1400035E+04  0.7818609E-02  0.8953794E-01
       -1   -1    0    0    0  501  0.00000000000E+00  0.00000000000E+00  0.34535807682E+03  0.34535807686E+03  0.50400001928E-02 0.  1.
        1   -1    0    0  501    0  0.00000000000E+00  0.00000000000E+00 -0.14188873380E+04  0.14188873380E+04  0.50400001928E-02 0. -1.
    10030    2    1    2    0    0  0.00000000000E+00  0.00000000000E+00 -0.10735292612E+04  0.17642454149E+04  0.14000345743E+04 0.  0.
        1    1    3    3  502    0  0.47608321169E+03  0.20269985477E+03 -0.11308818462E+04  0.12436382937E+04  0.50400001928E-02 0. -1.
       -1    1    3    3    0  502 -0.47608321169E+03 -0.20269985477E+03  0.57352584981E+02  0.52060712116E+03  0.50400001928E-02 0.  1.
</event>
<event>
 5   0  0.2467303E-05  0.1399937E+04  0.7818609E-02  0.8953864E-01
       -1   -1    0    0    0  501  0.00000000000E+00  0.00000000000E+00  0.31253386005E+03  0.31253386010E+03  0.50400001928E-02 0. -1.
        1   -1    0    0  501    0  0.00000000000E+00  0.00000000000E+00 -0.15676879489E+04  0.15676879489E+04  0.50400001928E-02 0.  1.
    10030    2    1    2    0    0  0.00000000000E+00  0.00000000000E+00 -0.12551540889E+04  0.18802218090E+04  0.13999365215E+04 0.  0.
        3    1    3    3  502    0 -0.48865918165E+03 -0.21907550561E+03 -0.22188123447E+02  0.53597966006E+03  0.10100000352E+00 0.  1.
       -3    1    3    3    0  502  0.48865918165E+03  0.21907550561E+03 -0.12329659654E+04  0.13442421490E+04  0.10100000352E+00 0. -1.
</event>
<event>
 5   0  0.2428507E-05  0.1400328E+04  0.7818609E-02  0.8953581E-01
        1   -1    0    0  501    0  0.00000000000E+00  0.00000000000E+00  0.51686547996E+03  0.51686547999E+03  0.50400001928E-02 0. -1.
       -1   -1    0    0    0  501  0.00000000000E+00  0.00000000000E+00 -0.94846700791E+03  0.94846700792E+03  0.50400001928E-02 0.  1.
    10030    2    1    2    0    0  0.00000000000E+00  0.00000000000E+00 -0.43160152794E+03  0.14653324879E+04  0.14003283262E+04 0.  0.
        4    1    3    3  502    0  0.59810458756E+03  0.35492799944E+03 -0.30032966317E+03  0.75756352996E+03  0.12699999809E+01 0.  1.
       -4    1    3    3    0  502 -0.59810458756E+03 -0.35492799944E+03 -0.13127186477E+03  0.70776895795E+03  0.12699999809E+01 0. -1.
</event>
<event>
 5   0  0.4441253E-05  0.1400523E+04  0.7818609E-02  0.8953440E-01
       -2   -1    0    0    0  501  0.00000000000E+00  0.00000000000E+00  0.44192599230E+03  0.44192599231E+03  0.25500000920E-02 0. -1.
        2   -1    0    0  501    0  0.00000000000E+00  0.00000000000E+00 -0.11096119606E+04  0.11096119606E+04  0.25500000920E-02 0.  1.
    10030    2    1    2    0    0  0.00000000000E+00  0.00000000000E+00 -0.66768596829E+03  0.15515379529E+04  0.14005232833E+04 0.  0.
        3    1    3    3  502    0 -0.43116086291E+03 -0.21127617766E+03 -0.89854055256E+03  0.10187798819E+04  0.10100000352E+00 0.  1.
       -3    1    3    3    0  502  0.43116086291E+03  0.21127617766E+03  0.23085458427E+03  0.53275807102E+03  0.10100000352E+00 0. -1.
</event>
<event>
 5   0  0.2363419E-05  0.1399592E+04  0.7818609E-02  0.8954114E-01
        1   -1    0    0  501    0  0.00000000000E+00  0.00000000000E+00  0.64483556985E+03  0.64483556987E+03  0.50400001928E-02 0.  1.
       -1   -1    0    0    0  501  0.00000000000E+00  0.00000000000E+00 -0.75944098006E+03  0.75944098007E+03  0.50400001928E-02 0. -1.
    10030    2    1    2    0    0  0.00000000000E+00  0.00000000000E+00 -0.11460541021E+03  0.14042765499E+04  0.13995921651E+04 0.  0.
        2    1    3    3  502    0  0.17054719852E+03 -0.10659434223E+03 -0.72981905631E+03  0.75702348423E+03  0.25500000920E-02 0. -1.
       -2    1    3    3    0  502 -0.17054719852E+03  0.10659434223E+03  0.61521364610E+03  0.64725306571E+03  0.25500000920E-02 0.  1.
</event>
<event>
 5   0  0.2467303E-05  0.1400370E+04  0.7818609E-02  0.8953551E-01
       -1   -1    0    0    0  501  0.00000000000E+00  0.00000000000E+00  0.31612083915E+03  0.31612083919E+03  0.50400001928E-02 0.  1.
        1   -1    0    0  501    0  0.00000000000E+00  0.00000000000E+00 -0.15508592683E+04  0.15508592683E+04  0.50400001928E-02 0. -1.
    10030    2    1    2    0    0  0.00000000000E+00  0.00000000000E+00 -0.12347384291E+04  0.18669801075E+04  0.14003698559E+04 0.  0.
        3    1    3    3  502    0  0.21302203125E+03 -0.28873295655E+03 -0.14189723132E+04  0.14636350440E+04  0.10100000352E+00 0. -1.
       -3    1    3    3    0  502 -0.21302203125E+03  0.28873295655E+03  0.18423388412E+03  0.40334506350E+03  0.10100000352E+00 0.  1.
</event>
<event>
 5   0  0.2363419E-05  0.1398401E+04  0.7818609E-02  0.8954977E-01
       -1   -1    0    0    0  501  0.00000000000E+00  0.00000000000E+00  0.27878631107E+03  0.27878631112E+03  0.50400001928E-02 0.  1.
        1   -1    0    0  501    0  0.00000000000E+00  0.00000000000E+00 -0.17536052956E+04  0.17536052956E+04  0.50400001928E-02 0. -1.
    10030    2    1    2    0    0  0.00000000000E+00  0.00000000000E+00 -0.14748189845E+04  0.20323916067E+04  0.13984007315E+04 0.  0.
        2    1    3    3  502    0  0.48252477456E+03 -0.50600326545E+03 -0.74237838927E+03  0.10198015177E+04  0.25500000920E-02 0.  1.
       -2    1    3    3    0  502 -0.48252477456E+03  0.50600326545E+03 -0.73244059522E+03  0.10125900890E+04  0.25500000920E-02 0. -1.
</event>
<event>
 5   0  0.4460282E-05  0.1400325E+04  0.7818609E-02  0.8953583E-01
        2   -1    0    0  501    0  0.00000000000E+00  0.00000000000E+00  0.19459688347E+04  0.19459688347E+04  0.25500000920E-02 0.  1.
       -2   -1    0    0    0  501  0.00000000000E+00  0.00000000000E+00 -0.25191953804E+03  0.25191953806E+03  0.25500000920E-02 0. -1.
    10030    2    1    2    0    0  0.00000000000E+00  0.00000000000E+00  0.16940492966E+04  0.21978883727E+04  0.14003250621E+04 0.  0.
        1    1    3    3  502    0  0.21674336509E+02  0.60654444580E+02  0.19413088365E+04  0.19423770842E+04  0.50400001928E-02 0.  1.
       -1    1    3    3    0  502 -0.21674336509E+02 -0.60654444580E+02 -0.24725953985E+03  0.25551128856E+03  0.50400001928E-02 0. -1.
</event>
<event>
 5   0  0.2427569E-05  0.1399390E+04  0.7818609E-02  0.8954260E-01
        1   -1    0    0  501    0  0.00000000000E+00  0.00000000000E+00  0.82515908331E+03  0.82515908333E+03  0.50400001928E-02 0.  1.
       -1   -1    0    0    0  501  0.00000000000E+00  0.00000000000E+00 -0.59330722819E+03  0.59330722821E+03  0.50400001928E-02 0. -1.
    10030    2    1    2    0    0  0.00000000000E+00  0.00000000000E+00  0.23185185513E+03  0.14184663115E+04  0.13993896506E+04 0.  0.
        1    1    3    3  502    0  0.45370074468E+03 -0.18360847960E+03 -0.39090676963E+03  0.62639008778E+03  0.50400001928E-02 0. -1.
       -1    1    3    3    0  502 -0.45370074468E+03  0.18360847960E+03  0.62275862475E+03  0.79207622375E+03  0.50400001928E-02 0.  1.
</event>
<event>
 5   0  0.4243281E-05  0.1397807E+04  0.7818609E-02  0.8955407E-01
        2   -1    0    0  501    0  0.00000000000E+00  0.00000000000E+00  0.14116340045E+04  0.14116340045E+04  0.25500000920E-02 0.  1.
       -2   -1    0    0    0  501  0.00000000000E+00  0.00000000000E+00 -0.34602904401E+03  0.34602904402E+03  0.25500000920E-02 0. -1.
    10030    2    1    2    0    0  0.00000000000E+00  0.00000000000E+00  0.10656049605E+04  0.17576630485E+04  0.13978073760E+04 0.  0.
        2    1    3    3  502    0  0.23423362208E+03 -0.38808595741E+03 -0.13611730662E+03  0.47329063082E+03  0.25500000920E-02 0. -1.
       -2    1    3    3    0  502 -0.23423362208E+03  0.38808595741E+03  0.12017222671E+04  0.12843724177E+04  0.25500000920E-02 0.  1.
</event>
<event>
 5   0  0.2316714E-05  0.1399785E+04  0.7818609E-02  0.8953974E-01
       -1   -1    0    0    0  501  0.00000000000E+00  0.00000000000E+00  0.65207661921E+03  0.65207661923E+03  0.50400001928E-02 0.  1.
        1   -1    0    0  501    0  0.00000000000E+00  0.00000000000E+00 -0.75121487532E+03  0.75121487534E+03  0.50400001928E-02 0. -1.
    10030    2    1    2    0    0  0.00000000000E+00  0.00000000000E+00 -0.99138256110E+02  0.14032914946E+04  0.13997852067E+04 0.  0.
        5    1    3    3  502    0  0.43829266728E+03 -0.65284447490E+02  0.49351196457E+03  0.66327872757E+03  0.46999998093E+01 0.  1.
       -5    1    3    3    0  502 -0.43829266728E+03  0.65284447490E+02 -0.59265022068E+03  0.74001276701E+03  0.46999998093E+01 0. -1.
</event>
<event>
 5   0  0.2427569E-05  0.1399853E+04  0.7818609E-02  0.8953925E-01
        1   -1    0    0  501    0  0.00000000000E+00  0.00000000000E+00  0.14677449014E+04  0.14677449014E+04  0.50400001928E-02 0.  1.
       -1   -1    0    0    0  501  0.00000000000E+00  0.00000000000E+00 -0.33377551698E+03  0.33377551701E+03  0.50400001928E-02 0. -1.
    10030    2    1    2    0    0  0.00000000000E+00  0.00000000000E+00  0.11339693845E+04  0.18015204185E+04  0.13998532970E+04 0.  0.
        1    1    3    3  502    0 -0.10407845626E+03  0.13853102978E+03 -0.30573778110E+03  0.35142390654E+03  0.50400001928E-02 0. -1.
       -1    1    3    3    0  502  0.10407845626E+03 -0.13853102978E+03  0.14397071656E+04  0.14500965119E+04  0.50400001928E-02 0.  1.
</event>
<event>
 5   0  0.2467303E-05  0.1399558E+04  0.7818609E-02  0.8954139E-01
        1   -1    0    0  501    0  0.00000000000E+00  0.00000000000E+00  0.49360695016E+03  0.49360695018E+03  0.50400001928E-02 0.  1.
       -1   -1    0    0    0  501  0.00000000000E+00  0.00000000000E+00 -0.99206544152E+03  0.99206544154E+03  0.50400001928E-02 0. -1.
    10030    2    1    2    0    0  0.00000000000E+00  0.00000000000E+00 -0.49845849137E+03  0.14856723917E+04  0.13995576401E+04 0.  0.
        3    1    3    3  502    0 -0.75876928586E+02  0.37884130713E+03 -0.86857749255E+03  0.95063395429E+03  0.10100000352E+00 0. -1.
       -3    1    3    3    0  502  0.75876928586E+02 -0.37884130713E+03  0.37011900119E+03  0.53503843742E+03  0.10100000352E+00 0.  1.
</event>
<event>
 5   0  0.1661000E-05  0.1400118E+04  0.7818609E-02  0.8953733E-01
        3   -1    0    0  501    0  0.00000000000E+00  0.00000000000E+00  0.14118044422E+04  0.14118044458E+04  0.10100000352E+00 0.  1.
       -3   -1    0    0    0  501  0.00000000000E+00  0.00000000000E+00 -0.34713187521E+03  0.34713188990E+03  0.10100000352E+00 0. -1.
    10030    2    1    2    0    0  0.00000000000E+00  0.00000000000E+00  0.10646725670E+04  0.17589363357E+04  0.14001176230E+04 0.  0.
        5    1    3    3  502    0  0.16043366364E+03  0.21918063067E+03 -0.27821214161E+03  0.38884855024E+03  0.46999998093E+01 0. -1.
       -5    1    3    3    0  502 -0.16043366364E+03 -0.21918063067E+03  0.13428847086E+04  0.13700877855E+04  0.46999998093E+01 0.  1.
</event>
<event>
 5   0  0.4441253E-05  0.1400195E+04  0.7818609E-02  0.8953677E-01
        2   -1    0    0  501    0  0.00000000000E+00  0.00000000000E+00  0.58428719402E+03  0.58428719403E+03  0.25500000920E-02 0. -1.
       -2   -1    0    0    0  501  0.00000000000E+00  0.00000000000E+00 -0.83886236103E+03  0.83886236104E+03  0.25500000920E-02 0.  1.
    10030    2    1    2    0    0  0.00000000000E+00  0.00000000000E+00 -0.25457516701E+03  0.14231495551E+04  0.14001950366E+04 0.  0.
        3    1    3    3  502    0 -0.10437925449E+03 -0.59527124106E+03 -0.48648415198E+03  0.77582840856E+03  0.10100000352E+00 0.  1.
       -3    1    3    3    0  502  0.10437925449E+03  0.59527124106E+03  0.23190898497E+03  0.64732114650E+03  0.10100000352E+00 0. -1.
</event>
<event>
 5   0  0.4527503E-05  0.1400505E+04  0.7818609E-02  0.8953453E-01
        2   -1    0    0  501    0  0.00000000000E+00  0.00000000000E+00  0.68845944882E+03  0.68845944883E+03  0.25500000920E-02 0.  1.
       -2   -1    0    0    0  501  0.00000000000E+00  0.00000000000E+00 -0.71224732375E+03  0.71224732375E+03  0.25500000920E-02 0. -1.
    10030    2    1    2    0    0  0.00000000000E+00  0.00000000000E+00 -0.23787874926E+02  0.14007067726E+04  0.14005047661E+04 0.  0.
        4    1    3    3  502    0 -0.13591324653E+03 -0.68635077371E+03 -0.40217483408E+02  0.70083439843E+03  0.12699999809E+01 0. -1.
       -4    1    3    3    0  502  0.13591324653E+03  0.68635077371E+03  0.16429608481E+02  0.69987237414E+03  0.12699999809E+01 0.  1.
</event>
<event>
 5   0  0.2427569E-05  0.1399831E+04  0.7818609E-02  0.8953941E-01
        1   -1    0    0  501    0  0.00000000000E+00  0.00000000000E+00  0.90593977160E+03  0.90593977162E+03  0.50400001928E-02 0.  1.
       -1   -1    0    0    0  501  0.00000000000E+00  0.00000000000E+00 -0.54074431675E+03  0.54074431677E+03  0.50400001928E-02 0. -1.
    10030    2    1    2    0    0  0.00000000000E+00  0.00000000000E+00  0.36519545486E+03  0.14466840884E+04  0.13998311082E+04 0.  0.
        1    1    3    3  502    0 -0.58389421120E+03 -0.31547294201E+03 -0.47163361696E+02  0.66534202462E+03  0.50400001928E-02 0. -1.
       -1    1    3    3    0  502  0.58389421120E+03  0.31547294201E+03  0.41235881655E+03  0.78134206377E+03  0.50400001928E-02 0.  1.
</event>
<event>
 5   0  0.2316714E-05  0.1399639E+04  0.7818609E-02  0.8954080E-01
       -1   -1    0    0    0  501  0.00000000000E+00  0.00000000000E+00  0.59697033012E+03  0.59697033014E+03  0.50400001928E-02 0. -1.
        1   -1    0    0  501    0  0.00000000000E+00  0.00000000000E+00 -0.82038825767E+03  0.82038825768E+03  0.50400001928E-02 0.  1.
    10030    2    1    2    0    0  0.00000000000E+00  0.00000000000E+00 -0.22341792754E+03  0.14173585878E+04  0.13996391664E+04 0.  0.
        5    1    3    3  502    0 -0.10205139573E+03 -0.42635996758E+03  0.44065789070E+03  0.62160982615E+03  0.46999998093E+01 0. -1.
       -5    1    3    3    0  502  0.10205139573E+03  0.42635996758E+03 -0.66407581825E+03  0.79574876168E+03  0.46999998093E+01 0.  1.
</event>
<event>
 5   0  0.4441253E-05  0.1399798E+04  0.7818609E-02  0.8953965E-01
        2   -1    0    0  501    0  0.00000000000E+00  0.00000000000E+00  0.74160860496E+03  0.74160860496E+03  0.25500000920E-02 0.  1.
       -2   -1    0    0    0  501  0.00000000000E+00  0.00000000000E+00 -0.66053513560E+03  0.66053513560E+03  0.25500000920E-02 0. -1.
    10030    2    1    2    0    0  0.00000000000E+00  0.00000000000E+00  0.81073469365E+02  0.14021437406E+04  0.13997979003E+04 0.  0.
        3    1    3    3  502    0  0.44800964492E+03 -0.51348555673E+01  0.57913618776E+03  0.73221427387E+03  0.10100000352E+00 0.  1.
       -3    1    3    3    0  502 -0.44800964492E+03  0.51348555673E+01 -0.49806271840E+03  0.66992946669E+03  0.10100000352E+00 0. -1.
</event>
<event>
 5   0  0.2428507E-05  0.1400529E+04  0.7818609E-02  0.8953436E-01
        1   -1    0    0  501    0  0.00000000000E+00  0.00000000000E+00  0.85892026977E+03  0.85892026979E+03  0.50400001928E-02 0. -1.
       -1   -1    0    0    0  501  0.00000000000E+00  0.00000000000E+00 -0.57091449636E+03  0.57091449638E+03  0.50400001928E-02 0.  1.
    10030    2    1    2    0    0  0.00000000000E+00  0.00000000000E+00  0.28800577341E+03  0.14298347662E+04  0.14005285192E+04 0.  0.
        4    1    3    3  502    0  0.33926523311E+03  0.47511676018E+03  0.53878763465E+03  0.79443726143E+03  0.12699999809E+01 0. -1.
       -4    1    3    3    0  502 -0.33926523311E+03 -0.47511676018E+03 -0.25078186124E+03  0.63539750474E+03  0.12699999809E+01 0.  1.
</event>
<event>
 5   0  0.4441253E-05  0.1400469E+04  0.7818609E-02  0.8953479E-01
        2   -1    0    0  501    0  0.00000000000E+00  0.00000000000E+00  0.73143275189E+03  0.73143275189E+03  0.25500000920E-02 0. -1.
       -2   -1    0    0    0  501  0.00000000000E+00  0.00000000000E+00 -0.67036729414E+03  0.67036729415E+03  0.25500000920E-02 0.  1.
    10030    2    1    2    0    0  0.00000000000E+00  0.00000000000E+00  0.61065457747E+02  0.14018000460E+04  0.14004693424E+04 0.  0.
        3    1    3    3  502    0 -0.58700429280E+03  0.81429739155E+02  0.40388009298E+03  0.71716384592E+03  0.10100000352E+00 0. -1.
       -3    1    3    3    0  502  0.58700429280E+03 -0.81429739155E+02 -0.34281463523E+03  0.68463620012E+03  0.10100000352E+00 0.  1.
</event>
<event>
 5   0  0.2316714E-05  0.1400129E+04  0.7818609E-02  0.8953725E-01
        1   -1    0    0  501    0  0.00000000000E+00  0.00000000000E+00  0.61949815025E+03  0.61949815027E+03  0.50400001928E-02 0.  1.
       -1   -1    0    0    0  501  0.00000000000E+00  0.00000000000E+00 -0.79110820389E+03  0.79110820390E+03  0.50400001928E-02 0. -1.
    10030    2    1    2    0    0  0.00000000000E+00  0.00000000000E+00 -0.17161005364E+03  0.14106063542E+04  0.14001286641E+04 0.  0.
        5    1    3    3  502    0  0.66126337068E+03  0.99842372698E+02  0.12269835990E+03  0.67993729292E+03  0.46999998093E+01 0.  1.
       -5    1    3    3    0  502 -0.66126337068E+03 -0.99842372698E+02 -0.29430841354E+03  0.73066906125E+03  0.46999998093E+01 0. -1.
</event>
<event>
 5   0  0.2363419E-05  0.1399682E+04  0.7818609E-02  0.8954049E-01
        1   -1    0    0  501    0  0.00000000000E+00  0.00000000000E+00  0.12063872218E+04  0.12063872218E+04  0.50400001928E-02 0.  1.
       -1   -1    0    0    0  501  0.00000000000E+00  0.00000000000E+00 -0.40598668179E+03  0.40598668182E+03  0.50400001928E-02 0. -1.
    10030    2    1    2    0    0  0.00000000000E+00  0.00000000000E+00  0.80040054004E+03  0.16123739037E+04  0.13996815998E+04 0.  0.
        2    1    3    3  502    0 -0.55024727603E+03  0.42263167819E+03  0.50570062917E+03  0.85855851666E+03  0.25500000920E-02 0. -1.
       -2    1    3    3    0  502  0.55024727603E+03 -0.42263167819E+03  0.29469991088E+03  0.75381538699E+03  0.25500000920E-02 0.  1.
</event>
<event>
 5   0  0.4621450E-05  0.1399982E+04  0.7818609E-02  0.8953832E-01
        2   -1    0    0  501    0  0.00000000000E+00  0.00000000000E+00  0.11974240822E+04  0.11974240822E+04  0.25500000920E-02 0. -1.
       -2   -1    0    0    0  501  0.00000000000E+00  0.00000000000E+00 -0.40920115642E+03  0.40920115643E+03  0.25500000920E-02 0.  1.
    10030    2    1    2    0    0  0.00000000000E+00  0.00000000000E+00  0.78822292573E+03  0.16066252386E+04  0.13999818844E+04 0.  0.
        5    1    3    3  502    0  0.68062432909E+03  0.25022465821E+01  0.20655804997E+03  0.71129744594E+03  0.46999998093E+01 0.  1.
       -5    1    3    3    0  502 -0.68062432909E+03 -0.25022465821E+01  0.58166487576E+03  0.89532779265E+03  0.46999998093E+01 0. -1.
</event>
<event>
 5   0  0.2427569E-05  0.1399797E+04  0.7818609E-02  0.8953966E-01
        1   -1    0    0  501    0  0.00000000000E+00  0.00000000000E+00  0.73075077015E+03  0.73075077017E+03  0.50400001928E-02 0.  1.
       -1   -1    0    0    0  501  0.00000000000E+00  0.00000000000E+00 -0.67034860486E+03  0.67034860488E+03  0.50400001928E-02 0. -1.
    10030    2    1    2    0    0  0.00000000000E+00  0.00000000000E+00  0.60402165293E+02  0.14010993750E+04  0.13997967842E+04 0.  0.
        1    1    3    3  502    0 -0.51103815968E+03 -0.45122206987E+03 -0.12836477521E+03  0.69371382611E+03  0.50400001928E-02 0. -1.
       -1    1    3    3    0  502  0.51103815968E+03  0.45122206987E+03  0.18876694051E+03  0.70738554894E+03  0.50400001928E-02 0.  1.
</event>
<event>
 5   0  0.2427569E-05  0.1401384E+04  0.7818609E-02  0.8952817E-01
       -1   -1    0    0    0  501  0.00000000000E+00  0.00000000000E+00  0.17809529940E+04  0.17809529940E+04  0.50400001928E-02 0.  1.
        1   -1    0    0  501    0  0.00000000000E+00  0.00000000000E+00 -0.27567796614E+03  0.27567796619E+03  0.50400001928E-02 0. -1.
    10030    2    1    2    0    0  0.00000000000E+00  0.00000000000E+00  0.15052750278E+04  0.20566309602E+04  0.14013843145E+04 0.  0.
        1    1    3    3  502    0  0.61225531917E+03  0.22822502779E+03  0.11239830300E+04  0.13001081074E+04  0.50400001928E-02 0. -1.
       -1    1    3    3    0  502 -0.61225531917E+03 -0.22822502779E+03  0.38129199788E+03  0.75652285282E+03  0.50400001928E-02 0.  1.
</event>
<event>
 5   0  0.4441253E-05  0.1399906E+04  0.7818609E-02  0.8953887E-01
       -2   -1    0    0    0  501  0.00000000000E+00  0.00000000000E+00  0.32321182918E+03  0.32321182919E+03  0.25500000920E-02 0. -1.
        2   -1    0    0  501    0  0.00000000000E+00  0.00000000000E+00 -0.15158299901E+04  0.15158299901E+04  0.25500000920E-02 0.  1.
    10030    2    1    2    0    0  0.00000000000E+00  0.00000000000E+00 -0.11926181609E+04  0.18390418192E+04  0.13999059737E+04 0.  0.
        3    1    3    3  502    0  0.14222482785E+03  0.56484726358E+03 -0.11062065331E+04  0.12501892805E+04  0.10100000352E+00 0.  1.
       -3    1    3    3    0  502 -0.14222482785E+03 -0.56484726358E+03 -0.86411627751E+02  0.58885253880E+03  0.10100000352E+00 0. -1.
</event>
<event>
 5   0  0.2428507E-05  0.1399394E+04  0.7818609E-02  0.8954257E-01
       -1   -1    0    0    0  501  0.00000000000E+00  0.00000000000E+00  0.50238908347E+03  0.50238908349E+03  0.50400001928E-02 0.  1.
        1   -1    0    0  501    0  0.00000000000E+00  0.00000000000E+00 -0.97449567808E+03  0.97449567809E+03  0.50400001928E-02 0. -1.
    10030    2    1    2    0    0  0.00000000000E+00  0.00000000000E+00 -0.47210659461E+03  0.14768847616E+04  0.13993941412E+04 0.  0.
        4    1    3    3  502    0  0.23302556549E+03  0.14943141041E+03 -0.91424424640E+03  0.95523547650E+03  0.12699999809E+01 0. -1.
       -4    1    3    3    0  502 -0.23302556549E+03 -0.14943141041E+03  0.44213765179E+03  0.52164928508E+03  0.12699999809E+01 0.  1.
</event>
<event>
 5   0  0.2427569E-05  0.1399942E+04  0.7818609E-02  0.8953861E-01
       -1   -1    0    0    0  501  0.00000000000E+00  0.00000000000E+00  0.33606938894E+03  0.33606938898E+03  0.50400001928E-02 0.  1.
        1   -1    0    0  501    0  0.00000000000E+00  0.00000000000E+00 -0.14579114289E+04  0.14579114289E+04  0.50400001928E-02 0. -1.
    10030    2    1    2    0    0  0.00000000000E+00  0.00000000000E+00 -0.11218420399E+04  0.17939808179E+04  0.13999420032E+04 0.  0.
        1    1    3    3  502    0  0.32474711762E+03 -0.30023183041E+03 -0.12561803474E+04  0.13317615806E+04  0.50400001928E-02 0. -1.
       -1    1    3    3    0  502 -0.32474711762E+03  0.30023183041E+03  0.13433830747E+03  0.46221923724E+03  0.50400001928E-02 0.  1.
</event>
<event>
 5   0  0.4621450E-05  0.1399690E+04  0.7818609E-02  0.8954043E-01
        2   -1    0    0  501    0  0.00000000000E+00  0.00000000000E+00  0.11051759711E+04  0.11051759711E+04  0.25500000920E-02 0.  1.
       -2   -1    0    0    0  501  0.00000000000E+00  0.00000000000E+00 -0.44317173311E+03  0.44317173311E+03  0.25500000920E-02 0. -1.
    10030    2    1    2    0    0  0.00000000000E+00  0.00000000000E+00  0.66200423799E+03  0.15483477042E+04  0.13996896092E+04 0.  0.
        5    1    3    3  502    0 -0.80842608967E+00 -0.64834869257E+03  0.62242855377E+03  0.89877476336E+03  0.46999998093E+01 0.  1.
       -5    1    3    3    0  502  0.80842608967E+00  0.64834869257E+03  0.39575684222E+02  0.64957294085E+03  0.46999998093E+01 0. -1.
</event>
<event>
 5   0  0.2316714E-05  0.1399196E+04  0.7818609E-02  0.8954401E-01
       -1   -1    0    0    0  501  0.00000000000E+00  0.00000000000E+00  0.82299610816E+03  0.82299610817E+03  0.50400001928E-02 0.  1.
        1   -1    0    0  501    0  0.00000000000E+00  0.00000000000E+00 -0.59470190119E+03  0.59470190122E+03  0.50400001928E-02 0. -1.
    10030    2    1    2    0    0  0.00000000000E+00  0.00000000000E+00  0.22829420696E+03  0.14176980094E+04  0.13991959837E+04 0.  0.
        5    1    3    3  502    0  0.38703622017E+03  0.58135205878E+03  0.73014625817E+02  0.70222537519E+03  0.46999998093E+01 0. -1.
       -5    1    3    3    0  502 -0.38703622017E+03 -0.58135205878E+03  0.15527958115E+03  0.71547263420E+03  0.46999998093E+01 0.  1.
</event>
<event>
 5   0  0.4441253E-05  0.1399301E+04  0.7818609E-02  0.8954325E-01
        2   -1    0    0  501    0  0.00000000000E+00  0.00000000000E+00  0.96168431553E+03  0.96168431554E+03  0.25500000920E-02 0. -1.
       -2   -1    0    0    0  501  0.00000000000E+00  0.00000000000E+00 -0.50901369056E+03  0.50901369057E+03  0.25500000920E-02 0.  1.
    10030    2    1    2    0    0  0.00000000000E+00  0.00000000000E+00  0.45267062497E+03  0.14706980061E+04  0.13993005147E+04 0.  0.
        3    1    3    3  502    0  0.49183206810E+03 -0.22959817144E+03 -0.23766084461E+03  0.59253421066E+03  0.10100000352E+00 0.  1.
       -3    1    3    3    0  502 -0.49183206810E+03  0.22959817144E+03  0.69033146958E+03  0.87816379545E+03  0.10100000352E+00 0. -1.
</event>
<event>
 5   0  0.2363419E-05  0.1399831E+04  0.7818609E-02  0.8953941E-01
       -1   -1    0    0    0  501  0.00000000000E+00  0.00000000000E+00  0.63720590616E+03  0.63720590618E+03  0.50400001928E-02 0.  1.
        1   -1    0    0  501    0  0.00000000000E+00  0.00000000000E+00 -0.76879702353E+03  0.76879702354E+03  0.50400001928E-02 0. -1.
    10030    2    1    2    0    0  0.00000000000E+00  0.00000000000E+00 -0.13159111737E+03  0.14060029297E+04  0.13998314242E+04 0.  0.
        2    1    3    3  502    0 -0.51766336131E+03  0.34002295150E+03 -0.39325598057E+03  0.73364925506E+03  0.25500000920E-02 0. -1.
       -2    1    3    3    0  502  0.51766336131E+03 -0.34002295150E+03  0.26166486320E+03  0.67235367466E+03  0.25500000920E-02 0.  1.
</event>
<event>
 5   0  0.2428507E-05  0.1400134E+04  0.7818609E-02  0.8953721E-01
        1   -1    0    0  501    0  0.00000000000E+00  0.00000000000E+00  0.12178343466E+04  0.12178343466E+04  0.50400001928E-02 0. -1.
       -1   -1    0    0    0  501  0.00000000000E+00  0.00000000000E+00 -0.40243071364E+03  0.40243071367E+03  0.50400001928E-02 0.  1.
    10030    2    1    2    0    0  0.00000000000E+00  0.00000000000E+00  0.81540363298E+03  0.16202650603E+04  0.14001342010E+04 0.  0.
        4    1    3    3  502    0 -0.44950077934E+02  0.49802767395E+03 -0.15926605044E+03  0.52480411703E+03  0.12699999809E+01 0.  1.
       -4    1    3    3    0  502  0.44950077934E+02 -0.49802767395E+03  0.97466968342E+03  0.10954609433E+04  0.12699999809E+01 0. -1.
</event>
<event>
 5   0  0.2427569E-05  0.1399586E+04  0.7818609E-02  0.8954119E-01
        1   -1    0    0  501    0  0.00000000000E+00  0.00000000000E+00  0.51687235088E+03  0.51687235091E+03  0.50400001928E-02 0. -1.
       -1   -1    0    0    0  501  0.00000000000E+00  0.00000000000E+00 -0.94744862562E+03  0.94744862563E+03  0.50400001928E-02 0.  1.
    10030    2    1    2    0    0  0.00000000000E+00  0.00000000000E+00 -0.43057627473E+03  0.14643209765E+04  0.13995856508E+04 0.  0.
        1    1    3    3  502    0  0.17154517224E+03 -0.54107306825E+03 -0.64351407577E+03  0.85807818818E+03  0.50400001928E-02 0.  1.
       -1    1    3    3    0  502 -0.17154517224E+03  0.54107306825E+03  0.21293780103E+03  0.60624278836E+03  0.50400001928E-02 0. -1.
</event>
<event>
 5   0  0.2428507E-05  0.1400171E+04  0.7818609E-02  0.8953695E-01
       -1   -1    0    0    0  501  0.00000000000E+00  0.00000000000E+00  0.38577538427E+03  0.38577538430E+03  0.50400001928E-02 0. -1.
        1   -1    0    0  501    0  0.00000000000E+00  0.00000000000E+00 -0.12704788356E+04  0.12704788356E+04  0.50400001928E-02 0.  1.
    10030    2    1    2    0    0  0.00000000000E+00  0.00000000000E+00 -0.88470345130E+03  0.16562542199E+04  0.14001706482E+04 0.  0.
        4    1    3    3  502    0 -0.37294681105E+03 -0.69873806049E+02  0.25359468173E+03  0.45638092439E+03  0.12699999809E+01 0. -1.
       -4    1    3    3    0  502  0.37294681105E+03  0.69873806049E+02 -0.11382981330E+04  0.11998732955E+04  0.12699999809E+01 0.  1.
</event>
<event>
 5   0  0.4243281E-05  0.1400468E+04  0.7818609E-02  0.8953480E-01
        2   -1    0    0  501    0  0.00000000000E+00  0.00000000000E+00  0.11631191235E+04  0.11631191235E+04  0.25500000920E-02 0. -1.
       -2   -1    0    0    0  501  0.00000000000E+00  0.00000000000E+00 -0.42156288932E+03  0.42156288932E+03  0.25500000920E-02 0.  1.
    10030    2    1    2    0    0  0.00000000000E+00  0.00000000000E+00  0.74155623417E+03  0.15846820128E+04  0.14004682907E+04 0.  0.
        2    1    3    3  502    0  0.16155679061E+03  0.47935967868E+03  0.91865900366E+03  0.10487233492E+04  0.25500000920E-02 0. -1.
       -2    1    3    3    0  502 -0.16155679061E+03 -0.47935967868E+03 -0.17710276949E+03  0.53595866362E+03  0.25500000920E-02 0.  1.
</event>
<event>
 5   0  0.4460282E-05  0.1400193E+04  0.7818609E-02  0.8953679E-01
        2   -1    0    0  501    0  0.00000000000E+00  0.00000000000E+00  0.24354351208E+04  0.24354351208E+04  0.25500000920E-02 0. -1.
       -2   -1    0    0    0  501  0.00000000000E+00  0.00000000000E+00 -0.20125156306E+03  0.20125156307E+03  0.25500000920E-02 0.  1.
    10030    2    1    2    0    0  0.00000000000E+00  0.00000000000E+00  0.22341835577E+04  0.26366866838E+04  0.14001930221E+04 0.  0.
        1    1    3    3  502    0 -0.66906646455E+03 -0.17606425299E+03  0.13189125175E+04  0.14893551571E+04  0.50400001928E-02 0. -1.
       -1    1    3    3    0  502  0.66906646455E+03  0.17606425299E+03  0.91527104026E+03  0.11473315268E+04  0.50400001928E-02 0.  1.
</event>
<event>
 5   0  0.4441253E-05  0.1399182E+04  0.7818609E-02  0.8954411E-01
        2   -1    0    0  501    0  0.00000000000E+00  0.00000000000E+00  0.15694922673E+04  0.15694922673E+04  0.25500000920E-02 0. -1.
       -2   -1    0    0    0  501  0.00000000000E+00  0.00000000000E+00 -0.31183809656E+03  0.31183809657E+03  0.25500000920E-02 0.  1.
    10030    2    1    2    0    0  0.00000000000E+00  0.00000000000E+00  0.12576541707E+04  0.18813303638E+04  0.13991818770E+04 0.  0.
        3    1    3    3  502    0  0.51726782205E+03 -0.42832867095E+03  0.89229880337E+03  0.11167938999E+04  0.10100000352E+00 0. -1.
       -3    1    3    3    0  502 -0.51726782205E+03  0.42832867095E+03  0.36535536732E+03  0.76453646396E+03  0.10100000352E+00 0.  1.
</event>
<event>
 5   0  0.4460282E-05  0.1400380E+04  0.7818609E-02  0.8953544E-01
        2   -1    0    0  501    0  0.00000000000E+00  0.00000000000E+00  0.70078547791E+03  0.70078547791E+03  0.25500000920E-02 0. -1.
       -2   -1    0    0    0  501  0.00000000000E+00  0.00000000000E+00 -0.69959458608E+03  0.69959458608E+03  0.25500000920E-02 0.  1.
    10030    2    1    2    0    0  0.00000000000E+00  0.00000000000E+00  0.11908918323E+01  0.14003800640E+04  0.14003795576E+04 0.  0.
        1    1    3    3  502    0  0.66825672103E+02 -0.23560095966E+03  0.65656233141E+03  0.70074787028E+03  0.50400001928E-02 0. -1.
       -1    1    3    3    0  502 -0.66825672103E+02  0.23560095966E+03 -0.65537143958E+03  0.69963219372E+03  0.50400001928E-02 0.  1.
</event>
<event>
 5   0  0.4527503E-05  0.1399981E+04  0.7818609E-02  0.8953833E-01
        2   -1    0    0  501    0  0.00000000000E+00  0.00000000000E+00  0.70529605326E+03  0.70529605326E+03  0.25500000920E-02 0.  1.
       -2   -1    0    0    0  501  0.00000000000E+00  0.00000000000E+00 -0.69472446260E+03  0.69472446261E+03  0.25500000920E-02 0. -1.
    10030    2    1    2    0    0  0.00000000000E+00  0.00000000000E+00  0.10571590652E+02  0.14000205159E+04  0.13999806021E+04 0.  0.
        4    1    3    3  502    0  0.43376494215E+03  0.10868463396E-01  0.55469456337E+03  0.70415885757E+03  0.12699999809E+01 0.  1.
       -4    1    3    3    0  502 -0.43376494215E+03 -0.10868463396E-01 -0.54412297272E+03  0.69586165830E+03  0.12699999809E+01 0. -1.
</event>
<event>
 5   0  0.2467303E-05  0.1399528E+04  0.7818609E-02  0.8954160E-01
       -1   -1    0    0    0  501  0.00000000000E+00  0.00000000000E+00  0.51239951207E+03  0.51239951209E+03  0.50400001928E-02 0.  1.
        1   -1    0    0  501    0  0.00000000000E+00  0.00000000000E+00 -0.95564056255E+03  0.95564056256E+03  0.50400001928E-02 0. -1.
    10030    2    1    2    0    0  0.00000000000E+00  0.00000000000E+00 -0.44324105048E+03  0.14680400747E+04  0.13995281462E+04 0.  0.
        3    1    3    3  502    0  0.48191217490E+03  0.22897940827E+03  0.25331206210E+03  0.59062502887E+03  0.10100000352E+00 0. -1.
       -3    1    3    3    0  502 -0.48191217490E+03 -0.22897940827E+03 -0.69655311258E+03  0.87741504579E+03  0.10100000352E+00 0.  1.
</event>
<event>
 5   0  0.2427569E-05  0.1400113E+04  0.7818609E-02  0.8953737E-01
        1   -1    0    0  501    0  0.00000000000E+00  0.00000000000E+00  0.11135724763E+04  0.11135724763E+04  0.50400001928E-02 0. -1.
       -1   -1    0    0    0  501  0.00000000000E+00  0.00000000000E+00 -0.44009606045E+03  0.44009606048E+03  0.50400001928E-02 0.  1.
    10030    2    1    2    0    0  0.00000000000E+00  0.00000000000E+00  0.67347641585E+03  0.15536685368E+04  0.14001126524E+04 0.  0.
        1    1    3    3  502    0  0.62858677483E+03  0.30761252140E+03  0.35695934914E+03  0.78559962690E+03  0.50400001928E-02 0.  1.
       -1    1    3    3    0  502 -0.62858677483E+03 -0.30761252140E+03  0.31651706671E+03  0.76806890990E+03  0.50400001928E-02 0. -1.
</event>
<event>
 5   0  0.2316714E-05  0.1399745E+04  0.7818609E-02  0.8954003E-01
       -1   -1    0    0    0  501  0.00000000000E+00  0.00000000000E+00  0.51807685464E+03  0.51807685466E+03  0.50400001928E-02 0. -1.
        1   -1    0    0  501    0  0.00000000000E+00  0.00000000000E+00 -0.94546151922E+03  0.94546151923E+03  0.50400001928E-02 0.  1.
    10030    2    1    2    0    0  0.00000000000E+00  0.00000000000E+00 -0.42738466458E+03  0.14635383739E+04  0.13997453055E+04 0.  0.
        5    1    3    3  502    0 -0.42798659208E+03 -0.44353674345E+03 -0.56031617639E+03  0.83299080026E+03  0.46999998093E+01 0.  1.
       -5    1    3    3    0  502  0.42798659208E+03  0.44353674345E+03  0.13293151181E+03  0.63054757364E+03  0.46999998093E+01 0. -1.
</event>
<event>
 5   0  0.2427569E-05  0.1399809E+04  0.7818609E-02  0.8953957E-01
       -1   -1    0    0    0  501  0.00000000000E+00  0.00000000000E+00  0.35158787002E+03  0.35158787005E+03  0.50400001928E-02 0.  1.
        1   -1    0    0  501    0  0.00000000000E+00  0.00000000000E+00 -0.13932973897E+04  0.13932973897E+04  0.50400001928E-02 0. -1.
    10030    2    1    2    0    0  0.00000000000E+00  0.00000000000E+00 -0.10417095197E+04  0.17448852598E+04  0.13998092179E+04 0.  0.
        1    1    3    3  502    0 -0.46192665272E+03 -0.34443313071E+03 -0.25600024026E+02  0.57677185722E+03  0.50400001928E-02 0. -1.
       -1    1    3    3    0  502  0.46192665272E+03  0.34443313071E+03 -0.10161094957E+04  0.11681134026E+04  0.50400001928E-02 0.  1.
</event>
<event>
 5   0  0.2428507E-05  0.1398812E+04  0.7818609E-02  0.8954679E-01
        1   -1    0    0  501    0  0.00000000000E+00  0.00000000000E+00  0.17336388051E+04  0.17336388051E+04  0.50400001928E-02 0.  1.
       -1   -1    0    0    0  501  0.00000000000E+00  0.00000000000E+00 -0.28216288863E+03  0.28216288868E+03  0.50400001928E-02 0. -1.
    10030    2    1    2    0    0  0.00000000000E+00  0.00000000000E+00  0.14514759165E+04  0.20158016938E+04  0.13988116859E+04 0.  0.
        4    1    3    3  502    0  0.29476982199E+03  0.19571939959E+03  0.15951432841E+04  0.16339152490E+04  0.12699999809E+01 0.  1.
       -4    1    3    3    0  502 -0.29476982199E+03 -0.19571939959E+03 -0.14366736756E+03  0.38188644482E+03  0.12699999809E+01 0. -1.
</event>
<event>
 5   0  0.2467303E-05  0.1400188E+04  0.7818609E-02  0.8953682E-01
        1   -1    0    0  501    0  0.00000000000E+00  0.00000000000E+00  0.82583499241E+03  0.82583499243E+03  0.50400001928E-02 0. -1.
       -1   -1    0    0    0  501  0.00000000000E+00  0.00000000000E+00 -0.59349838160E+03  0.59349838162E+03  0.50400001928E-02 0.  1.
    10030    2    1    2    0    0  0.00000000000E+00  0.00000000000E+00  0.23233661081E+03  0.14193333741E+04  0.14001881752E+04 0.  0.
        3    1    3    3  502    0 -0.68727680228E+01  0.69833704628E+03  0.16592981745E+03  0.71781235686E+03  0.10100000352E+00 0. -1.
       -3    1    3    3    0  502  0.68727680228E+01 -0.69833704628E+03  0.66406793365E+02  0.70152101719E+03  0.10100000352E+00 0.  1.
</event>
<event>
 5   0  0.4527503E-05  0.1399876E+04  0.7818609E-02  0.8953908E-01
        2   -1    0    0  501    0  0.00000000000E+00  0.00000000000E+00  0.15275216775E+04  0.15275216775E+04  0.25500000920E-02 0.  1.
       -2   -1    0    0    0  501  0.00000000000E+00  0.00000000000E+00 -0.32072417660E+03  0.32072417661E+03  0.25500000920E-02 0. -1.
    10030    2    1    2    0    0  0.00000000000E+00  0.00000000000E+00  0.12067975009E+04  0.18482458541E+04  0.13998758977E+04 0.  0.
        4    1    3    3  502    0  0.52066813251E+03 -0.10520835074E+03  0.12051791274E+04  0.13170506608E+04  0.12699999809E+01 0.  1.
       -4    1    3    3    0  502 -0.52066813251E+03  0.10520835074E+03  0.16183734890E+01  0.53119519323E+03  0.12699999809E+01 0. -1.
</event>
<event>
 5   0  0.2363419E-05  0.1400829E+04  0.7818609E-02  0.8953219E-01
        1   -1    0    0  501    0  0.00000000000E+00  0.00000000000E+00  0.14759314747E+04  0.14759314747E+04  0.50400001928E-02 0.  1.
       -1   -1    0    0    0  501  0.00000000000E+00  0.00000000000E+00 -0.33238686532E+03  0.33238686536E+03  0.50400001928E-02 0. -1.
    10030    2    1    2    0    0  0.00000000000E+00  0.00000000000E+00  0.11435446094E+04  0.18083183401E+04  0.14008286638E+04 0.  0.
        2    1    3    3  502    0 -0.13805073786E+03 -0.58592844836E+03  0.10339946734E+04  0.11964594174E+04  0.25500000920E-02 0. -1.
       -2    1    3    3    0  502  0.13805073786E+03  0.58592844836E+03  0.10954993601E+03  0.61185892271E+03  0.25500000920E-02 0.  1.
</event>
<event>
 5   0  0.2467303E-05  0.1399755E+04  0.7818609E-02  0.8953996E-01
        1   -1    0    0  501    0  0.00000000000E+00  0.00000000000E+00  0.66939265945E+03  0.66939265946E+03  0.50400001928E-02 0. -1.
       -1   -1    0    0    0  501  0.00000000000E+00  0.00000000000E+00 -0.73175061833E+03  0.73175061835E+03  0.50400001928E-02 0.  1.
    10030    2    1    2    0    0  0.00000000000E+00  0.00000000000E+00 -0.62357958885E+02  0.14011432778E+04  0.13997549678E+04 0.  0.
        3    1    3    3  502    0 -0.35438040722E+03 -0.26341529710E+03  0.51236547102E+03  0.67638116315E+03  0.10100000352E+00 0. -1.
       -3    1    3    3    0  502  0.35438040722E+03  0.26341529710E+03 -0.57472342990E+03  0.72476211466E+03  0.10100000352E+00 0.  1.
</event>
<event>
 5   0  0.4621450E-05  0.1400825E+04  0.7818609E-02  0.8953222E-01
       -2   -1    0    0    0  501  0.00000000000E+00  0.00000000000E+00  0.54906916801E+03  0.54906916801E+03  0.25500000920E-02 0. -1.
        2   -1    0    0  501    0  0.00000000000E+00  0.00000000000E+00 -0.89347133779E+03  0.89347133780E+03  0.25500000920E-02 0.  1.
    10030    2    1    2    0    0  0.00000000000E+00  0.00000000000E+00 -0.34440216979E+03  0.14425405058E+04  0.14008248486E+04 0.  0.
        5    1    3    3  502    0  0.61333435786E+03 -0.27530808625E+03 -0.37447317851E+03  0.76956210166E+03  0.46999998093E+01 0. -1.
       -5    1    3    3    0  502 -0.61333435786E+03  0.27530808625E+03  0.30071008725E+02  0.67297840415E+03  0.46999998093E+01 0.  1.
</event>
<event>
 5   0  0.2363419E-05  0.1401233E+04  0.7818609E-02  0.8952927E-01
       -1   -1    0    0    0  501  0.00000000000E+00  0.00000000000E+00  0.55774787454E+03  0.55774787456E+03  0.50400001928E-02 0.  1.
        1   -1    0    0  501    0  0.00000000000E+00  0.00000000000E+00 -0.88008123011E+03  0.88008123012E+03  0.50400001928E-02 0. -1.
    10030    2    1    2    0    0  0.00000000000E+00  0.00000000000E+00 -0.32233335557E+03  0.14378291047E+04  0.14012329364E+04 0.  0.
        2    1    3    3  502    0  0.13391554575E+03  0.64361317846E+03 -0.40975853609E+03  0.77464401810E+03  0.25500000920E-02 0. -1.
       -2    1    3    3    0  502 -0.13391554575E+03 -0.64361317846E+03  0.87425180515E+02  0.66318508659E+03  0.25500000920E-02 0.  1.
</event>
<event>
 5   0  0.2316714E-05  0.1399843E+04  0.7818609E-02  0.8953932E-01
       -1   -1    0    0    0  501  0.00000000000E+00  0.00000000000E+00  0.52682198074E+03  0.52682198076E+03  0.50400001928E-02 0.  1.
        1   -1    0    0  501    0  0.00000000000E+00  0.00000000000E+00 -0.92989701247E+03  0.92989701249E+03  0.50400001928E-02 0. -1.
    10030    2    1    2    0    0  0.00000000000E+00  0.00000000000E+00 -0.40307503174E+03  0.14567189932E+04  0.13998431141E+04 0.  0.
        5    1    3    3  502    0  0.47399243311E+03  0.26900860350E+03 -0.65850765066E+03  0.85480341095E+03  0.46999998093E+01 0. -1.
       -5    1    3    3    0  502 -0.47399243311E+03 -0.26900860350E+03  0.25543261892E+03  0.60191558229E+03  0.46999998093E+01 0.  1.
</event>
<event>
 5   0  0.2316714E-05  0.1400031E+04  0.7818609E-02  0.8953796E-01
        1   -1    0    0  501    0  0.00000000000E+00  0.00000000000E+00  0.15385355666E+04  0.15385355666E+04  0.50400001928E-02 0.  1.
       -1   -1    0    0    0  501  0.00000000000E+00  0.00000000000E+00 -0.31849856386E+03  0.31849856390E+03  0.50400001928E-02 0. -1.
    10030    2    1    2    0    0  0.00000000000E+00  0.00000000000E+00  0.12200370028E+04  0.18570341305E+04  0.14000305260E+04 0.  0.
        5    1    3    3  502    0 -0.66340130644E+03  0.21852466783E+03  0.67145004609E+03  0.96887645148E+03  0.46999998093E+01 0. -1.
       -5    1    3    3    0  502  0.66340130644E+03 -0.21852466783E+03  0.54858695669E+03  0.88815767906E+03  0.46999998093E+01 0.  1.
</event>
<event>
 5   0  0.4243281E-05  0.1401227E+04  0.7818609E-02  0.8952931E-01
        2   -1    0    0  501    0  0.00000000000E+00  0.00000000000E+00  0.14251372502E+04  0.14251372502E+04  0.25500000920E-02 0. -1.
       -2   -1    0    0    0  501  0.00000000000E+00  0.00000000000E+00 -0.34442967767E+03  0.34442967768E+03  0.25500000920E-02 0.  1.
    10030    2    1    2    0    0  0.00000000000E+00  0.00000000000E+00  0.10807075726E+04  0.17695669279E+04  0.14012274102E+04 0.  0.
        2    1    3    3  502    0  0.42724053089E+03  0.59298501848E+02 -0.15686985605E+03  0.45897596375E+03  0.25500000920E-02 0.  1.
       -2    1    3    3    0  502 -0.42724053089E+03 -0.59298501848E+02  0.12375774286E+04  0.13105909642E+04  0.25500000920E-02 0. -1.
</event>
<event>
 5   0  0.4243281E-05  0.1398824E+04  0.7818609E-02  0.8954670E-01
        2   -1    0    0  501    0  0.00000000000E+00  0.00000000000E+00  0.82866169951E+03  0.82866169952E+03  0.25500000920E-02 0. -1.
       -2   -1    0    0    0  501  0.00000000000E+00  0.00000000000E+00 -0.59032160965E+03  0.59032160966E+03  0.25500000920E-02 0.  1.
    10030    2    1    2    0    0  0.00000000000E+00  0.00000000000E+00  0.23834008986E+03  0.14189833092E+04  0.13988236605E+04 0.  0.
        2    1    3    3  502    0 -0.64608339308E+03  0.25778931031E+03  0.45334873952E+02  0.69708990104E+03  0.25500000920E-02 0.  1.
       -2    1    3    3    0  502  0.64608339308E+03 -0.25778931031E+03  0.19300521591E+03  0.72189340813E+03  0.25500000920E-02 0. -1.
</event>
<event>
 5   0  0.4621450E-05  0.1400656E+04  0.7818609E-02  0.8953344E-01
        2   -1    0    0  501    0  0.00000000000E+00  0.00000000000E+00  0.62383246159E+03  0.62383246159E+03  0.25500000920E-02 0. -1.
       -2   -1    0    0    0  501  0.00000000000E+00  0.00000000000E+00 -0.78620322031E+03  0.78620322031E+03  0.25500000920E-02 0.  1.
    10030    2    1    2    0    0  0.00000000000E+00  0.00000000000E+00 -0.16237075872E+03  0.14100356819E+04  0.14006556897E+04 0.  0.
        5    1    3    3  502    0 -0.40406974566E+03 -0.42130210564E+02  0.49306409285E+03  0.63889091687E+03  0.46999998093E+01 0. -1.
       -5    1    3    3    0  502  0.40406974566E+03  0.42130210564E+02 -0.65543485157E+03  0.77114476504E+03  0.46999998093E+01 0.  1.
</event>
<event>
 5   0  0.4527503E-05  0.1399839E+04  0.7818609E-02  0.8953935E-01
        2   -1    0    0  501    0  0.00000000000E+00  0.00000000000E+00  0.63198354069E+03  0.63198354069E+03  0.25500000920E-02 0. -1.
       -2   -1    0    0    0  501  0.00000000000E+00  0.00000000000E+00 -0.77515873390E+03  0.77515873390E+03  0.25500000920E-02 0.  1.
    10030    2    1    2    0    0  0.00000000000E+00  0.00000000000E+00 -0.14317519321E+03  0.14071422746E+04  0.13998393640E+04 0.  0.
        4    1    3    3  502    0 -0.93049477757E+02  0.65553032110E+03 -0.29972477249E+03  0.72678384636E+03  0.12699999809E+01 0.  1.
       -4    1    3    3    0  502  0.93049477757E+02 -0.65553032110E+03  0.15654957928E+03  0.68035842823E+03  0.12699999809E+01 0. -1.
</event>
<event>
 5   0  0.2427569E-05  0.1399816E+04  0.7818609E-02  0.8953952E-01
        1   -1    0    0  501    0  0.00000000000E+00  0.00000000000E+00  0.59786492019E+03  0.59786492021E+03  0.50400001928E-02 0. -1.
       -1   -1    0    0    0  501  0.00000000000E+00  0.00000000000E+00 -0.81936756786E+03  0.81936756788E+03  0.50400001928E-02 0.  1.
    10030    2    1    2    0    0  0.00000000000E+00  0.00000000000E+00 -0.22150264767E+03  0.14172324881E+04  0.13998158816E+04 0.  0.
        1    1    3    3  502    0  0.40738194882E+03 -0.55027302198E+03 -0.25785422536E+03  0.73160730757E+03  0.50400001928E-02 0.  1.
       -1    1    3    3    0  502 -0.40738194882E+03  0.55027302198E+03  0.36351577689E+02  0.68562518052E+03  0.50400001928E-02 0. -1.
</event>
<event>
 5   0  0.4527503E-05  0.1400157E+04  0.7818609E-02  0.8953705E-01
        2   -1    0    0  501    0  0.00000000000E+00  0.00000000000E+00  0.75817085066E+03  0.75817085066E+03  0.25500000920E-02 0. -1.
       -2   -1    0    0    0  501  0.00000000000E+00  0.00000000000E+00 -0.64643740360E+03  0.64643740360E+03  0.25500000920E-02 0.  1.
    10030    2    1    2    0    0  0.00000000000E+00  0.00000000000E+00  0.11173344706E+03  0.14046082543E+04  0.14001571286E+04 0.  0.
        4    1    3    3  502    0 -0.48157064863E+03  0.22238062975E+03  0.51420531778E+03  0.73876393783E+03  0.12699999809E+01 0. -1.
       -4    1    3    3    0  502  0.48157064863E+03 -0.22238062975E+03 -0.40247187071E+03  0.66584431643E+03  0.12699999809E+01 0.  1.
</event>
<event>
 5   0  0.2428507E-05  0.1399895E+04  0.7818609E-02  0.8953895E-01
       -1   -1    0    0    0  501  0.00000000000E+00  0.00000000000E+00  0.37284604118E+03  0.37284604121E+03  0.50400001928E-02 0. -1.
        1   -1    0    0  501    0  0.00000000000E+00  0.00000000000E+00 -0.13140176432E+04  0.13140176432E+04  0.50400001928E-02 0.  1.
    10030    2    1    2    0    0  0.00000000000E+00  0.00000000000E+00 -0.94117160198E+03  0.16868636844E+04  0.13998946765E+04 0.  0.
        4    1    3    3  502    0 -0.17179999497E+03  0.65425989006E+02 -0.12844058876E+04  0.12974960098E+04  0.12699999809E+01 0.  1.
       -4    1    3    3    0  502  0.17179999497E+03 -0.65425989006E+02  0.34323428563E+03  0.38936767462E+03  0.12699999809E+01 0. -1.
</event>
<event>
 5   0  0.4460282E-05  0.1399736E+04  0.7818609E-02  0.8954010E-01
       -2   -1    0    0    0  501  0.00000000000E+00  0.00000000000E+00  0.37571155305E+03  0.37571155306E+03  0.25500000920E-02 0.  1.
        2   -1    0    0  501    0  0.00000000000E+00  0.00000000000E+00 -0.13037001092E+04  0.13037001092E+04  0.25500000920E-02 0. -1.
    10030    2    1    2    0    0  0.00000000000E+00  0.00000000000E+00 -0.92798855612E+03  0.16794116622E+04  0.13997359647E+04 0.  0.
        1    1    3    3  502    0 -0.36564005067E+03  0.32572492038E+03  0.13593972196E+03  0.50820171039E+03  0.50400001928E-02 0.  1.
       -1    1    3    3    0  502  0.36564005067E+03 -0.32572492038E+03 -0.10639282781E+04  0.11712099519E+04  0.50400001928E-02 0. -1.
</event>
<event>
 5   0  0.2467303E-05  0.1399749E+04  0.7818609E-02  0.8954000E-01
       -1   -1    0    0    0  501  0.00000000000E+00  0.00000000000E+00  0.86050069722E+03  0.86050069724E+03  0.50400001928E-02 0.  1.
        1   -1    0    0  501    0  0.00000000000E+00  0.00000000000E+00 -0.56923179865E+03  0.56923179867E+03  0.50400001928E-02 0. -1.
    10030    2    1    2    0    0  0.00000000000E+00  0.00000000000E+00  0.29126889858E+03  0.14297324959E+04  0.13997490627E+04 0.  0.
        3    1    3    3  502    0  0.40001380254E+03 -0.55055722028E+03 -0.21267218386E+02  0.68086459726E+03  0.10100000352E+00 0.  1.
       -3    1    3    3    0  502 -0.40001380254E+03  0.55055722028E+03  0.31253611696E+03  0.74886789865E+03  0.10100000352E+00 0. -1.
</event>
<event>
 5   0  0.4441253E-05  0.1400027E+04  0.7818609E-02  0.8953799E-01
        2   -1    0    0  501    0  0.00000000000E+00  0.00000000000E+00  0.11104933921E+04  0.11104933921E+04  0.25500000920E-02 0.  1.
       -2   -1    0    0    0  501  0.00000000000E+00  0.00000000000E+00 -0.44126223293E+03  0.44126223294E+03  0.25500000920E-02 0. -1.
    10030    2    1    2    0    0  0.00000000000E+00  0.00000000000E+00  0.66923115916E+03  0.15517556250E+04  0.14000268481E+04 0.  0.
        3    1    3    3  502    0 -0.33500016874E+02 -0.69876315195E+03  0.30687096501E+03  0.76391229406E+03  0.10100000352E+00 0.  1.
       -3    1    3    3    0  502  0.33500016874E+02  0.69876315195E+03  0.36236019415E+03  0.78784333097E+03  0.10100000352E+00 0. -1.
</event>
<event>
 5   0  0.2316714E-05  0.1399689E+04  0.7818609E-02  0.8954043E-01
       -1   -1    0    0    0  501  0.00000000000E+00  0.00000000000E+00  0.31334017161E+03  0.31334017165E+03  0.50400001928E-02 0. -1.
        1   -1    0    0  501    0  0.00000000000E+00  0.00000000000E+00 -0.15631018074E+04  0.15631018074E+04  0.50400001928E-02 0.  1.
    10030    2    1    2    0    0  0.00000000000E+00  0.00000000000E+00 -0.12497616357E+04  0.18764419790E+04  0.13996893778E+04 0.  0.
        5    1    3    3  502    0 -0.51394586302E+03 -0.20477067628E+03 -0.50307851439E+02  0.55553969245E+03  0.46999998093E+01 0. -1.
       -5    1    3    3    0  502  0.51394586302E+03  0.20477067628E+03 -0.11994537843E+04  0.13209022866E+04  0.46999998093E+01 0.  1.
</event>
<event>
 5   0  0.4460282E-05  0.1400089E+04  0.7818609E-02  0.8953754E-01
        2   -1    0    0  501    0  0.00000000000E+00  0.00000000000E+00  0.10308891867E+04  0.10308891867E+04  0.25500000920E-02 0.  1.
       -2   -1    0    0    0  501  0.00000000000E+00  0.00000000000E+00 -0.47537834455E+03  0.47537834456E+03  0.25500000920E-02 0. -1.
    10030    2    1    2    0    0  0.00000000000E+00  0.00000000000E+00  0.55551084213E+03  0.15062675312E+04  0.14000891329E+04 0.  0.
        1    1    3    3  502    0 -0.14144959897E+03 -0.21290522724E+03 -0.42337810809E+03  0.49455601025E+03  0.50400001928E-02 0. -1.
       -1    1    3    3    0  502  0.14144959897E+03  0.21290522724E+03  0.97888895022E+03  0.10117115210E+04  0.50400001928E-02 0.  1.
</event>
<event>
 5   0  0.4441253E-05  0.1399050E+04  0.7818609E-02  0.8954507E-01
       -2   -1    0    0    0  501  0.00000000000E+00  0.00000000000E+00  0.43533727397E+03  0.43533727397E+03  0.25500000920E-02 0.  1.
        2   -1    0    0  501    0  0.00000000000E+00  0.00000000000E+00 -0.11240363065E+04  0.11240363065E+04  0.25500000920E-02 0. -1.
    10030    2    1    2    0    0  0.00000000000E+00  0.00000000000E+00 -0.68869903254E+03  0.15593735805E+04  0.13990495367E+04 0.  0.
        3    1    3    3  502    0  0.42796462252E+03 -0.39368486854E+03 -0.77774411354E+03  0.97109598403E+03  0.10100000352E+00 0. -1.
       -3    1    3    3    0  502 -0.42796462252E+03  0.39368486854E+03  0.89045080998E+02  0.58827759646E+03  0.10100000352E+00 0.  1.
</event>
<event>
 5   0  0.2316714E-05  0.1400726E+04  0.7818609E-02  0.8953293E-01
       -1   -1    0    0    0  501  0.00000000000E+00  0.00000000000E+00  0.41440471124E+03  0.41440471127E+03  0.50400001928E-02 0.  1.
        1   -1    0    0  501    0  0.00000000000E+00  0.00000000000E+00 -0.11836452611E+04  0.11836452612E+04  0.50400001928E-02 0. -1.
    10030    2    1    2    0    0  0.00000000000E+00  0.00000000000E+00 -0.76924054991E+03  0.15980499724E+04  0.14007257729E+04 0.  0.
        5    1    3    3  502    0  0.44132029534E+01 -0.57441275247E+03  0.72464975283E+02  0.57900151054E+03  0.46999998093E+01 0.  1.
       -5    1    3    3    0  502 -0.44132029534E+01  0.57441275247E+03 -0.84170552519E+03  0.10190484619E+04  0.46999998093E+01 0. -1.
</event>
<event>
 5   0  0.2428507E-05  0.1399110E+04  0.7818609E-02  0.8954463E-01
        1   -1    0    0  501    0  0.00000000000E+00  0.00000000000E+00  0.17324310583E+04  0.17324310583E+04  0.50400001928E-02 0.  1.
       -1   -1    0    0    0  501  0.00000000000E+00  0.00000000000E+00 -0.28248012634E+03  0.28248012639E+03  0.50400001928E-02 0. -1.
    10030    2    1    2    0    0  0.00000000000E+00  0.00000000000E+00  0.14499509319E+04  0.20149111847E+04  0.13991102090E+04 0.  0.
        4    1    3    3  502    0  0.44630959191E+03  0.17063337585E+03  0.14608106995E+04  0.15369702383E+04  0.12699999809E+01 0.  1.
       -4    1    3    3    0  502 -0.44630959191E+03 -0.17063337585E+03 -0.10859767535E+02  0.47794094638E+03  0.12699999809E+01 0. -1.
</event>
<event>
 5   0  0.2363419E-05  0.1400066E+04  0.7818609E-02  0.8953771E-01
        1   -1    0    0  501    0  0.00000000000E+00  0.00000000000E+00  0.12609251192E+04  0.12609251192E+04  0.50400001928E-02 0. -1.
       -1   -1    0    0    0  501  0.00000000000E+00  0.00000000000E+00 -0.38864027499E+03  0.38864027502E+03  0.50400001928E-02 0.  1.
    10030    2    1    2    0    0  0.00000000000E+00  0.00000000000E+00  0.87228484424E+03  0.16495653943E+04  0.14000661200E+04 0.  0.
        2    1    3    3  502    0  0.50214073379E+03  0.21902126854E+03 -0.77331652519E+02  0.55325926752E+03  0.25500000920E-02 0. -1.
       -2    1    3    3    0  502 -0.50214073379E+03 -0.21902126854E+03  0.94961649676E+03  0.10963061267E+04  0.25500000920E-02 0.  1.
</event>
<event>
 5   0  0.4527503E-05  0.1399042E+04  0.7818609E-02  0.8954512E-01
        2   -1    0    0  501    0  0.00000000000E+00  0.00000000000E+00  0.84570350002E+03  0.84570350002E+03  0.25500000920E-02 0. -1.
       -2   -1    0    0    0  501  0.00000000000E+00  0.00000000000E+00 -0.57860699871E+03  0.57860699872E+03  0.25500000920E-02 0.  1.
    10030    2    1    2    0    0  0.00000000000E+00  0.00000000000E+00  0.26709650131E+03  0.14243104987E+04  0.13990424782E+04 0.  0.
        4    1    3    3  502    0  0.36922663164E+03  0.33538321381E+03  0.63283230693E+03  0.80578442974E+03  0.12699999809E+01 0. -1.
       -4    1    3    3    0  502 -0.36922663164E+03 -0.33538321381E+03 -0.36573580562E+03  0.61852606900E+03  0.12699999809E+01 0.  1.
</event>
<event>
 5   0  0.4460282E-05  0.1399969E+04  0.7818609E-02  0.8953841E-01
       -2   -1    0    0    0  501  0.00000000000E+00  0.00000000000E+00  0.30680739945E+03  0.30680739946E+03  0.25500000920E-02 0.  1.
        2   -1    0    0  501    0  0.00000000000E+00  0.00000000000E+00 -0.15970231630E+04  0.15970231630E+04  0.25500000920E-02 0. -1.
    10030    2    1    2    0    0  0.00000000000E+00  0.00000000000E+00 -0.12902157635E+04  0.19038305624E+04  0.13999693189E+04 0.  0.
        1    1    3    3  502    0  0.13457660362E+02 -0.65337686213E+03 -0.30405509435E+03  0.72078563596E+03  0.50400001928E-02 0.  1.
       -1    1    3    3    0  502 -0.13457660362E+02  0.65337686213E+03 -0.98616066916E+03  0.11830449265E+04  0.50400001928E-02 0. -1.
</event>
<event>
 5   0  0.2427569E-05  0.1400112E+04  0.7818609E-02  0.8953738E-01
        1   -1    0    0  501    0  0.00000000000E+00  0.00000000000E+00  0.68230388728E+03  0.68230388730E+03  0.50400001928E-02 0.  1.
       -1   -1    0    0    0  501  0.00000000000E+00  0.00000000000E+00 -0.71826986595E+03  0.71826986597E+03  0.50400001928E-02 0. -1.
    10030    2    1    2    0    0  0.00000000000E+00  0.00000000000E+00 -0.35965978673E+02  0.14005737533E+04  0.14001118836E+04 0.  0.
        1    1    3    3  502    0  0.52330299608E+03  0.45437709684E+03 -0.11687787907E+03  0.70282644407E+03  0.50400001928E-02 0. -1.
       -1    1    3    3    0  502 -0.52330299608E+03 -0.45437709684E+03  0.80911900397E+02  0.69774730920E+03  0.50400001928E-02 0.  1.
</event>
<event>
 5   0  0.4621450E-05  0.1399172E+04  0.7818609E-02  0.8954418E-01
       -2   -1    0    0    0  501  0.00000000000E+00  0.00000000000E+00  0.28975239487E+03  0.28975239488E+03  0.25500000920E-02 0. -1.
        2   -1    0    0  501    0  0.00000000000E+00  0.00000000000E+00 -0.16890988823E+04  0.16890988823E+04  0.25500000920E-02 0.  1.
    10030    2    1    2    0    0  0.00000000000E+00  0.00000000000E+00 -0.13993464874E+04  0.19788512771E+04  0.13991718212E+04 0.  0.
        5    1    3    3  502    0  0.15612484225E+02 -0.27770540751E+03 -0.16075121644E+04  0.16314047602E+04  0.46999998093E+01 0.  1.
       -5    1    3    3    0  502 -0.15612484225E+02  0.27770540751E+03  0.20816567701E+03  0.34744651690E+03  0.46999998093E+01 0. -1.
</event>
<event>
 5   0  0.2428507E-05  0.1399763E+04  0.7818609E-02  0.8953990E-01
       -1   -1    0    0    0  501  0.00000000000E+00  0.00000000000E+00  0.10583842977E+04  0.10583842977E+04  0.50400001928E-02 0. -1.
        1   -1    0    0  501    0  0.00000000000E+00  0.00000000000E+00 -0.46281301927E+03  0.46281301930E+03  0.50400001928E-02 0.  1.
    10030    2    1    2    0    0  0.00000000000E+00  0.00000000000E+00  0.59557127847E+03  0.15211973170E+04  0.13997628834E+04 0.  0.
        4    1    3    3  502    0 -0.96551225686E+02 -0.69217094498E+03  0.25698295188E+03  0.74462380214E+03  0.12699999809E+01 0.  1.
       -4    1    3    3    0  502  0.96551225686E+02  0.69217094498E+03  0.33858832658E+03  0.77657351490E+03  0.12699999809E+01 0. -1.
</event>
<event>
 5   0  0.2467303E-05  0.1399969E+04  0.7818609E-02  0.8953841E-01
        1   -1    0    0  501    0  0.00000000000E+00  0.00000000000E+00  0.31194573412E+03  0.31194573416E+03  0.50400001928E-02 0.  1.
       -1   -1    0    0    0  501  0.00000000000E+00  0.00000000000E+00 -0.15707169009E+04  0.15707169010E+04  0.50400001928E-02 0. -1.
    10030    2    1    2    0    0  0.00000000000E+00  0.00000000000E+00 -0.12587711668E+04  0.18826626351E+04  0.13999691951E+04 0.  0.
        3    1    3    3  502    0  0.30505670154E+03  0.31495022243E+03  0.10438756696E+03  0.45072165258E+03  0.10100000352E+00 0.  1.
       -3    1    3    3    0  502 -0.30505670154E+03 -0.31495022243E+03 -0.13631587338E+04  0.14319409825E+04  0.10100000352E+00 0. -1.
</event>
<event>
 5   0  0.1661000E-05  0.1400472E+04  0.7818609E-02  0.8953477E-01
        3   -1    0    0  501    0  0.00000000000E+00  0.00000000000E+00  0.10274901883E+04  0.10274901933E+04  0.10100000352E+00 0. -1.
       -3   -1    0    0    0  501  0.00000000000E+00  0.00000000000E+00 -0.47721154643E+03  0.47721155712E+03  0.10100000352E+00 0.  1.
    10030    2    1    2    0    0  0.00000000000E+00  0.00000000000E+00  0.55027864191E+03  0.15047017504E+04  0.14004716256E+04 0.  0.
        5    1    3    3  502    0  0.68123247108E+03 -0.13332578225E+03  0.37393186664E+03  0.78847991398E+03  0.46999998093E+01 0. -1.
       -5    1    3    3    0  502 -0.68123247108E+03  0.13332578225E+03  0.17634677527E+03  0.71622183645E+03  0.46999998093E+01 0.  1.
</event>
<event>
 5   0  0.2363419E-05  0.1399620E+04  0.7818609E-02  0.8954094E-01
        1   -1    0    0  501    0  0.00000000000E+00  0.00000000000E+00  0.37380307439E+03  0.37380307442E+03  0.50400001928E-02 0.  1.
       -1   -1    0    0    0  501  0.00000000000E+00  0.00000000000E+00 -0.13101389345E+04  0.13101389345E+04  0.50400001928E-02 0. -1.
    10030    2    1    2    0    0  0.00000000000E+00  0.00000000000E+00 -0.93633586014E+03  0.16839420090E+04  0.13996198936E+04 0.  0.
        2    1    3    3  502    0  0.36722596158E+03  0.19906202222E+03  0.20736557002E+03  0.46634866268E+03  0.25500000920E-02 0.  1.
       -2    1    3    3    0  502 -0.36722596158E+03 -0.19906202222E+03 -0.11437014302E+04  0.12175933463E+04  0.25500000920E-02 0. -1.
</event>
<event>
 5   0  0.4527503E-05  0.1399636E+04  0.7818609E-02  0.8954082E-01
        2   -1    0    0  501    0  0.00000000000E+00  0.00000000000E+00  0.15324763276E+04  0.15324763276E+04  0.25500000920E-02 0. -1.
       -2   -1    0    0    0  501  0.00000000000E+00  0.00000000000E+00 -0.31957752827E+03  0.31957752828E+03  0.25500000920E-02 0.  1.
    10030    2    1    2    0    0  0.00000000000E+00  0.00000000000E+00  0.12128987993E+04  0.18520538559E+04  0.13996356625E+04 0.  0.
        4    1    3    3  502    0 -0.33288383306E+03  0.29608234815E+03 -0.10769204658E+03  0.45834004079E+03  0.12699999809E+01 0.  1.
       -4    1    3    3    0  502  0.33288383306E+03 -0.29608234815E+03  0.13205908459E+04  0.13937138151E+04  0.12699999809E+01 0. -1.
</event>
<event>
 5   0  0.2427569E-05  0.1400077E+04  0.7818609E-02  0.8953763E-01
       -1   -1    0    0    0  501  0.00000000000E+00  0.00000000000E+00  0.31288957574E+03  0.31288957578E+03  0.50400001928E-02 0. -1.
        1   -1    0    0  501    0  0.00000000000E+00  0.00000000000E+00 -0.15662196954E+04  0.15662196954E+04  0.50400001928E-02 0.  1.
    10030    2    1    2    0    0  0.00000000000E+00  0.00000000000E+00 -0.12533301197E+04  0.18791092712E+04  0.14000768780E+04 0.  0.
        1    1    3    3  502    0  0.73867953221E+02 -0.67821721490E+03 -0.83725283641E+03  0.10800126746E+04  0.50400001928E-02 0.  1.
       -1    1    3    3    0  502 -0.73867953221E+02  0.67821721490E+03 -0.41607728327E+03  0.79909659665E+03  0.50400001928E-02 0. -1.
</event>
<event>
 5   0  0.2467303E-05  0.1400006E+04  0.7818609E-02  0.8953814E-01
        1   -1    0    0  501    0  0.00000000000E+00  0.00000000000E+00  0.14827791934E+04  0.14827791934E+04  0.50400001928E-02 0.  1.
       -1   -1    0    0    0  501  0.00000000000E+00  0.00000000000E+00 -0.33046326786E+03  0.33046326790E+03  0.50400001928E-02 0. -1.
    10030    2    1    2    0    0  0.00000000000E+00  0.00000000000E+00  0.11523159256E+04  0.18132424613E+04  0.14000057969E+04 0.  0.
        3    1    3    3  502    0  0.41619607617E+03  0.30753500767E+02 -0.15172070339E+03  0.44405420127E+03  0.10100000352E+00 0. -1.
       -3    1    3    3    0  502 -0.41619607617E+03 -0.30753500767E+02  0.13040366290E+04  0.13691882601E+04  0.10100000352E+00 0.  1.
</event>
<event>
 5   0  0.4243281E-05  0.1400261E+04  0.7818609E-02  0.8953629E-01
        2   -1    0    0  501    0  0.00000000000E+00  0.00000000000E+00  0.10034975103E+04  0.10034975103E+04  0.25500000920E-02 0. -1.
       -2   -1    0    0    0  501  0.00000000000E+00  0.00000000000E+00 -0.48847445606E+03  0.48847445607E+03  0.25500000920E-02 0.  1.
    10030    2    1    2    0    0  0.00000000000E+00  0.00000000000E+00  0.51502305425E+03  0.14919719664E+04  0.14002612621E+04 0.  0.
        2    1    3    3  502    0 -0.41178718711E+03  0.17339126090E+03  0.83184191063E+03  0.94424264948E+03  0.25500000920E-02 0. -1.
       -2    1    3    3    0  502  0.41178718711E+03 -0.17339126090E+03 -0.31681885637E+03  0.54772931689E+03  0.25500000920E-02 0.  1.
</event>
<event>
 5   0  0.4527503E-05  0.1396881E+04  0.7818609E-02  0.8956079E-01
       -2   -1    0    0    0  501  0.00000000000E+00  0.00000000000E+00  0.13703161567E+04  0.13703161567E+04  0.25500000920E-02 0. -1.
        2   -1    0    0  501    0  0.00000000000E+00  0.00000000000E+00 -0.35599037907E+03  0.35599037908E+03  0.25500000920E-02 0.  1.
    10030    2    1    2    0    0  0.00000000000E+00  0.00000000000E+00  0.10143257776E+04  0.17263065358E+04  0.13968813379E+04 0.  0.
        4    1    3    3  502    0  0.51152814399E+03 -0.43954383909E+03  0.73151922566E+03  0.99497830076E+03  0.12699999809E+01 0. -1.
       -4    1    3    3    0  502 -0.51152814399E+03  0.43954383909E+03  0.28280655194E+03  0.73132823500E+03  0.12699999809E+01 0.  1.
</event>
<event>
 5   0  0.2316714E-05  0.1401175E+04  0.7818609E-02  0.8952968E-01
       -1   -1    0    0    0  501  0.00000000000E+00  0.00000000000E+00  0.48090029272E+03  0.48090029274E+03  0.50400001928E-02 0. -1.
        1   -1    0    0  501    0  0.00000000000E+00  0.00000000000E+00 -0.10206332972E+04  0.10206332972E+04  0.50400001928E-02 0.  1.
    10030    2    1    2    0    0  0.00000000000E+00  0.00000000000E+00 -0.53973300444E+03  0.15015335899E+04  0.14011750089E+04 0.  0.
        5    1    3    3  502    0 -0.50323102828E+03 -0.37493149212E+03 -0.60359742857E+03  0.87072787792E+03  0.46999998093E+01 0.  1.
       -5    1    3    3    0  502  0.50323102828E+03  0.37493149212E+03  0.63864424132E+02  0.63080571199E+03  0.46999998093E+01 0. -1.
</event>
<event>
 5   0  0.4527503E-05  0.1400244E+04  0.7818609E-02  0.8953642E-01
       -2   -1    0    0    0  501  0.00000000000E+00  0.00000000000E+00  0.35513337355E+03  0.35513337356E+03  0.25500000920E-02 0. -1.
        2   -1    0    0  501    0  0.00000000000E+00  0.00000000000E+00 -0.13802442129E+04  0.13802442129E+04  0.25500000920E-02 0.  1.
    10030    2    1    2    0    0  0.00000000000E+00  0.00000000000E+00 -0.10251108393E+04  0.17353775864E+04  0.14002439554E+04 0.  0.
        4    1    3    3  502    0 -0.36337514906E+03  0.12663833633E+03 -0.12374264161E+04  0.12958798229E+04  0.12699999809E+01 0.  1.
       -4    1    3    3    0  502  0.36337514906E+03 -0.12663833633E+03  0.21231557674E+03  0.43949776360E+03  0.12699999809E+01 0. -1.
</event>
<event>
 5   0  0.2363419E-05  0.1399733E+04  0.7818609E-02  0.8954012E-01
        1   -1    0    0  501    0  0.00000000000E+00  0.00000000000E+00  0.54488637971E+03  0.54488637973E+03  0.50400001928E-02 0. -1.
       -1   -1    0    0    0  501  0.00000000000E+00  0.00000000000E+00 -0.89892672559E+03  0.89892672561E+03  0.50400001928E-02 0.  1.
    10030    2    1    2    0    0  0.00000000000E+00  0.00000000000E+00 -0.35404034589E+03  0.14438131053E+04  0.13997327304E+04 0.  0.
        2    1    3    3  502    0 -0.33801365565E+03  0.58128767479E+03 -0.37720493880E+03  0.77099426595E+03  0.25500000920E-02 0. -1.
       -2    1    3    3    0  502  0.33801365565E+03 -0.58128767479E+03  0.23164592919E+02  0.67281883939E+03  0.25500000920E-02 0.  1.
</event>
<event>
 5   0  0.4621450E-05  0.1400527E+04  0.7818609E-02  0.8953437E-01
       -2   -1    0    0    0  501  0.00000000000E+00  0.00000000000E+00  0.62095971251E+03  0.62095971252E+03  0.25500000920E-02 0.  1.
        2   -1    0    0  501    0  0.00000000000E+00  0.00000000000E+00 -0.78969581813E+03  0.78969581813E+03  0.25500000920E-02 0. -1.
    10030    2    1    2    0    0  0.00000000000E+00  0.00000000000E+00 -0.16873610562E+03  0.14106555307E+04  0.14005274552E+04 0.  0.
        5    1    3    3  502    0  0.36038164067E+03  0.25175363094E+03 -0.63337154357E+03  0.77099702971E+03  0.46999998093E+01 0. -1.
       -5    1    3    3    0  502 -0.36038164067E+03 -0.25175363094E+03  0.46463543796E+03  0.63965850094E+03  0.46999998093E+01 0.  1.
</event>
<event>
 5   0  0.2428507E-05  0.1401222E+04  0.7818609E-02  0.8952935E-01
        1   -1    0    0  501    0  0.00000000000E+00  0.00000000000E+00  0.11374099351E+04  0.11374099351E+04  0.50400001928E-02 0. -1.
       -1   -1    0    0    0  501  0.00000000000E+00  0.00000000000E+00 -0.43155564764E+03  0.43155564767E+03  0.50400001928E-02 0.  1.
    10030    2    1    2    0    0  0.00000000000E+00  0.00000000000E+00  0.70585428746E+03  0.15689655828E+04  0.14012218685E+04 0.  0.
        4    1    3    3  502    0  0.23839725831E+03  0.35423184560E+03 -0.26903317976E+03  0.50467208949E+03  0.12699999809E+01 0.  1.
       -4    1    3    3    0  502 -0.23839725831E+03 -0.35423184560E+03  0.97488746722E+03  0.10642934933E+04  0.12699999809E+01 0. -1.
</event>
<event>
 5   0  0.4441253E-05  0.1400356E+04  0.7818609E-02  0.8953561E-01
       -2   -1    0    0    0  501  0.00000000000E+00  0.00000000000E+00  0.46024279167E+03  0.46024279168E+03  0.25500000920E-02 0.  1.
        2   -1    0    0  501    0  0.00000000000E+00  0.00000000000E+00 -0.10651971568E+04  0.10651971568E+04  0.25500000920E-02 0. -1.
    10030    2    1    2    0    0  0.00000000000E+00  0.00000000000E+00 -0.60495436517E+03  0.15254399485E+04  0.14003561164E+04 0.  0.
        3    1    3    3  502    0 -0.22670127167E+03  0.66006909907E+03 -0.36375700021E+03  0.78702213916E+03  0.10100000352E+00 0. -1.
       -3    1    3    3    0  502  0.22670127167E+03 -0.66006909907E+03 -0.24119736496E+03  0.73841780937E+03  0.10100000352E+00 0.  1.
</event>
<event>
 5   0  0.1661000E-05  0.1399197E+04  0.7818609E-02  0.8954400E-01
       -4   -1    0    0    0  501  0.00000000000E+00  0.00000000000E+00  0.51215324940E+03  0.51215482402E+03  0.12699999809E+01 0.  1.
        4   -1    0    0  501    0  0.00000000000E+00  0.00000000000E+00 -0.95564369126E+03  0.95564453514E+03  0.12699999809E+01 0. -1.
    10030    2    1    2    0    0  0.00000000000E+00  0.00000000000E+00 -0.44349044186E+03  0.14677993592E+04  0.13991966219E+04 0.  0.
        5    1    3    3  502    0 -0.64785062481E+02  0.19592408395E+03  0.47948439916E+03  0.52202560285E+03  0.46999998093E+01 0.  1.
       -5    1    3    3    0  502  0.64785062481E+02 -0.19592408395E+03 -0.92297484102E+03  0.94577375632E+03  0.46999998093E+01 0. -1.
</event>
<event>
 5   0  0.4243281E-05  0.1397656E+04  0.7818609E-02  0.8955517E-01
        2   -1    0    0  501    0  0.00000000000E+00  0.00000000000E+00  0.53764500726E+03  0.53764500727E+03  0.25500000920E-02 0. -1.
       -2   -1    0    0    0  501  0.00000000000E+00  0.00000000000E+00 -0.90833266984E+03  0.90833266984E+03  0.25500000920E-02 0.  1.
    10030    2    1    2    0    0  0.00000000000E+00  0.00000000000E+00 -0.37068766257E+03  0.14459776771E+04  0.13976559303E+04 0.  0.
        2    1    3    3  502    0 -0.36929067026E+03 -0.32872216668E+03  0.32562093465E+03  0.59199903301E+03  0.25500000920E-02 0. -1.
       -2    1    3    3    0  502  0.36929067026E+03  0.32872216668E+03 -0.69630859722E+03  0.85397864410E+03  0.25500000920E-02 0.  1.
</event>
<event>
 5   0  0.1661000E-05  0.1400210E+04  0.7818609E-02  0.8953666E-01
       -3   -1    0    0    0  501  0.00000000000E+00  0.00000000000E+00  0.15622380159E+04  0.15622380192E+04  0.10100000352E+00 0. -1.
        3   -1    0    0  501    0  0.00000000000E+00  0.00000000000E+00 -0.31374681916E+03  0.31374683541E+03  0.10100000352E+00 0.  1.
    10030    2    1    2    0    0  0.00000000000E+00  0.00000000000E+00  0.12484911968E+04  0.18759848546E+04  0.14002103079E+04 0.  0.
        4    1    3    3  502    0  0.41508637182E+03 -0.94716793518E+02  0.13688563405E+04  0.14335401148E+04  0.12699999809E+01 0. -1.
       -4    1    3    3    0  502 -0.41508637182E+03  0.94716793518E+02 -0.12036514371E+03  0.44244473978E+03  0.12699999809E+01 0.  1.
</event>
<event>
 5   0  0.4527503E-05  0.1399889E+04  0.7818609E-02  0.8953899E-01
        2   -1    0    0  501    0  0.00000000000E+00  0.00000000000E+00  0.18195710438E+04  0.18195710438E+04  0.25500000920E-02 0. -1.
       -2   -1    0    0    0  501  0.00000000000E+00  0.00000000000E+00 -0.26925141835E+03  0.26925141836E+03  0.25500000920E-02 0.  1.
    10030    2    1    2    0    0  0.00000000000E+00  0.00000000000E+00  0.15503196254E+04  0.20888224621E+04  0.13998886875E+04 0.  0.
        4    1    3    3  502    0  0.21934807580E+03  0.17859852161E+03 -0.18016706416E+03  0.33536963814E+03  0.12699999809E+01 0.  1.
       -4    1    3    3    0  502 -0.21934807580E+03 -0.17859852161E+03  0.17304866896E+04  0.17534528240E+04  0.12699999809E+01 0. -1.
</event>
<event>
 5   0  0.4621450E-05  0.1396515E+04  0.7818609E-02  0.8956345E-01
       -2   -1    0    0    0  501  0.00000000000E+00  0.00000000000E+00  0.34090054003E+03  0.34090054004E+03  0.25500000920E-02 0. -1.
        2   -1    0    0  501    0  0.00000000000E+00  0.00000000000E+00 -0.14302226912E+04  0.14302226912E+04  0.25500000920E-02 0.  1.
    10030    2    1    2    0    0  0.00000000000E+00  0.00000000000E+00 -0.10893221512E+04  0.17711232313E+04  0.13965152170E+04 0.  0.
        5    1    3    3  502    0  0.27322553884E+03  0.64164489441E+03 -0.50107269340E+03  0.85875275817E+03  0.46999998093E+01 0. -1.
       -5    1    3    3    0  502 -0.27322553884E+03 -0.64164489441E+03 -0.58824945782E+03  0.91237047312E+03  0.46999998093E+01 0.  1.
</event>
<event>
 5   0  0.2428507E-05  0.1399927E+04  0.7818609E-02  0.8953871E-01
       -1   -1    0    0    0  501  0.00000000000E+00  0.00000000000E+00  0.12775607706E+04  0.12775607706E+04  0.50400001928E-02 0. -1.
        1   -1    0    0  501    0  0.00000000000E+00  0.00000000000E+00 -0.38350334743E+03  0.38350334747E+03  0.50400001928E-02 0.  1.
    10030    2    1    2    0    0  0.00000000000E+00  0.00000000000E+00  0.89405742315E+03  0.16610641181E+04  0.13999269011E+04 0.  0.
        4    1    3    3  502    0 -0.34605801610E+03 -0.14872907295E+03 -0.25299828796E+03  0.45374688347E+03  0.12699999809E+01 0.  1.
       -4    1    3    3    0  502  0.34605801610E+03  0.14872907295E+03  0.11470557111E+04  0.12073172346E+04  0.12699999809E+01 0. -1.
</event>
<event>
 5   0  0.2363419E-05  0.1401121E+04  0.7818609E-02  0.8953008E-01
        1   -1    0    0  501    0  0.00000000000E+00  0.00000000000E+00  0.97239427619E+03  0.97239427620E+03  0.50400001928E-02 0.  1.
       -1   -1    0    0    0  501  0.00000000000E+00  0.00000000000E+00 -0.50471796260E+03  0.50471796262E+03  0.50400001928E-02 0. -1.
    10030    2    1    2    0    0  0.00000000000E+00  0.00000000000E+00  0.46767631359E+03  0.14771122388E+04  0.14011207770E+04 0.  0.
        2    1    3    3  502    0  0.22566793926E+03  0.11011425124E+03 -0.45564657421E+03  0.52025471428E+03  0.25500000920E-02 0. -1.
       -2    1    3    3    0  502 -0.22566793926E+03 -0.11011425124E+03  0.92332288780E+03  0.95685752454E+03  0.25500000920E-02 0.  1.
</event>
<event>
 5   0  0.4621450E-05  0.1399429E+04  0.7818609E-02  0.8954232E-01
        2   -1    0    0  501    0  0.00000000000E+00  0.00000000000E+00  0.43833830992E+03  0.43833830993E+03  0.25500000920E-02 0.  1.
       -2   -1    0    0    0  501  0.00000000000E+00  0.00000000000E+00 -0.11169460100E+04  0.11169460100E+04  0.25500000920E-02 0. -1.
    10030    2    1    2    0    0  0.00000000000E+00  0.00000000000E+00 -0.67860770012E+03  0.15552843200E+04  0.13994287782E+04 0.  0.
        5    1    3    3  502    0 -0.17180568606E+03 -0.80628676357E+02 -0.10877772089E+04  0.11042189654E+04  0.46999998093E+01 0. -1.
       -5    1    3    3    0  502  0.17180568606E+03  0.80628676357E+02  0.40916950879E+03  0.45106535462E+03  0.46999998093E+01 0.  1.
</event>
<event>
 5   0  0.2467303E-05  0.1400082E+04  0.7818609E-02  0.8953759E-01
        1   -1    0    0  501    0  0.00000000000E+00  0.00000000000E+00  0.70119309427E+03  0.70119309428E+03  0.50400001928E-02 0. -1.
       -1   -1    0    0    0  501  0.00000000000E+00  0.00000000000E+00 -0.69889087948E+03  0.69889087950E+03  0.50400001928E-02 0.  1.
    10030    2    1    2    0    0  0.00000000000E+00  0.00000000000E+00  0.23022147808E+01  0.14000839738E+04  0.14000820810E+04 0.  0.
        3    1    3    3  502    0  0.64860032231E+03  0.21197940861E+03 -0.15518144350E+03  0.69978492295E+03  0.10100000352E+00 0.  1.
       -3    1    3    3    0  502 -0.64860032231E+03 -0.21197940861E+03  0.15748365828E+03  0.70029905084E+03  0.10100000352E+00 0. -1.
</event>
<event>
 5   0  0.4460282E-05  0.1399665E+04  0.7818609E-02  0.8954061E-01
        2   -1    0    0  501    0  0.00000000000E+00  0.00000000000E+00  0.10998594957E+04  0.10998594957E+04  0.25500000920E-02 0. -1.
       -2   -1    0    0    0  501  0.00000000000E+00  0.00000000000E+00 -0.44529857873E+03  0.44529857874E+03  0.25500000920E-02 0.  1.
    10030    2    1    2    0    0  0.00000000000E+00  0.00000000000E+00  0.65456091701E+03  0.15451580745E+04  0.13996654890E+04 0.  0.
        1    1    3    3  502    0  0.48452553267E+03 -0.49781069608E+03  0.42085847008E+03  0.81222061831E+03  0.50400001928E-02 0.  1.
       -1    1    3    3    0  502 -0.48452553267E+03  0.49781069608E+03  0.23370244693E+03  0.73293745618E+03  0.50400001928E-02 0. -1.
</event>
<event>
 5   0  0.2427569E-05  0.1400191E+04  0.7818609E-02  0.8953680E-01
       -1   -1    0    0    0  501  0.00000000000E+00  0.00000000000E+00  0.11013465448E+04  0.11013465448E+04  0.50400001928E-02 0. -1.
        1   -1    0    0  501    0  0.00000000000E+00  0.00000000000E+00 -0.44503158034E+03  0.44503158036E+03  0.50400001928E-02 0.  1.
    10030    2    1    2    0    0  0.00000000000E+00  0.00000000000E+00  0.65631496446E+03  0.15463781252E+04  0.14001914060E+04 0.  0.
        1    1    3    3  502    0  0.29288509643E+03 -0.44165123875E+03  0.83341091119E+03  0.98762910210E+03  0.50400001928E-02 0. -1.
       -1    1    3    3    0  502 -0.29288509643E+03  0.44165123875E+03 -0.17709594673E+03  0.55874902307E+03  0.50400001928E-02 0.  1.
</event>
<event>
 5   0  0.4460282E-05  0.1399234E+04  0.7818609E-02  0.8954373E-01
       -2   -1    0    0    0  501  0.00000000000E+00  0.00000000000E+00  0.43687040380E+03  0.43687040381E+03  0.25500000920E-02 0. -1.
        2   -1    0    0  501    0  0.00000000000E+00  0.00000000000E+00 -0.11203869611E+04  0.11203869611E+04  0.25500000920E-02 0.  1.
    10030    2    1    2    0    0  0.00000000000E+00  0.00000000000E+00 -0.68351655726E+03  0.15572573649E+04  0.13992339391E+04 0.  0.
        1    1    3    3  502    0  0.47948727937E+03  0.38934756485E+03 -0.70744585259E+03  0.93913748286E+03  0.50400001928E-02 0.  1.
       -1    1    3    3    0  502 -0.47948727937E+03 -0.38934756485E+03  0.23929295329E+02  0.61811988201E+03  0.50400001928E-02 0. -1.
</event>
<event>
 5   0  0.4460282E-05  0.1399722E+04  0.7818609E-02  0.8954020E-01
        2   -1    0    0  501    0  0.00000000000E+00  0.00000000000E+00  0.60569191502E+03  0.60569191502E+03  0.25500000920E-02 0.  1.
       -2   -1    0    0    0  501  0.00000000000E+00  0.00000000000E+00 -0.80867074362E+03  0.80867074362E+03  0.25500000920E-02 0. -1.
    10030    2    1    2    0    0  0.00000000000E+00  0.00000000000E+00 -0.20297882860E+03  0.14143626586E+04  0.13997218743E+04 0.  0.
        1    1    3    3  502    0 -0.58189285571E+03 -0.11062416815E+03  0.27519439198E+03  0.65312246593E+03  0.50400001928E-02 0.  1.
       -1    1    3    3    0  502  0.58189285571E+03  0.11062416815E+03 -0.47817322058E+03  0.76124019272E+03  0.50400001928E-02 0. -1.
</event>
<event>
 5   0  0.4621450E-05  0.1399734E+04  0.7818609E-02  0.8954011E-01
       -2   -1    0    0    0  501  0.00000000000E+00  0.00000000000E+00  0.18220050517E+03  0.18220050519E+03  0.25500000920E-02 0. -1.
        2   -1    0    0  501    0  0.00000000000E+00  0.00000000000E+00 -0.26883225843E+04  0.26883225843E+04  0.25500000920E-02 0.  1.
    10030    2    1    2    0    0  0.00000000000E+00  0.00000000000E+00 -0.25061220791E+04  0.28705230895E+04  0.13997338789E+04 0.  0.
        5    1    3    3  502    0  0.16861235189E+03  0.65246356144E+03 -0.86583682649E+03  0.10971938408E+04  0.46999998093E+01 0. -1.
       -5    1    3    3    0  502 -0.16861235189E+03 -0.65246356144E+03 -0.16402852526E+04  0.17733292487E+04  0.46999998093E+01 0.  1.
</event>
<event>
 5   0  0.4441253E-05  0.1400010E+04  0.7818609E-02  0.8953811E-01
       -2   -1    0    0    0  501  0.00000000000E+00  0.00000000000E+00  0.55669739057E+03  0.55669739057E+03  0.25500000920E-02 0.  1.
        2   -1    0    0  501    0  0.00000000000E+00  0.00000000000E+00 -0.88020404060E+03  0.88020404061E+03  0.25500000920E-02 0. -1.
    10030    2    1    2    0    0  0.00000000000E+00  0.00000000000E+00 -0.32350665003E+03  0.14369014312E+04  0.14000104179E+04 0.  0.
        3    1    3    3  502    0  0.25416559630E+02 -0.39527365848E+03  0.43062079170E+03  0.58508250960E+03  0.10100000352E+00 0.  1.
       -3    1    3    3    0  502 -0.25416559630E+02  0.39527365848E+03 -0.75412744173E+03  0.85181892158E+03  0.10100000352E+00 0. -1.
</event>
<event>
 5   0  0.2363419E-05  0.1400195E+04  0.7818609E-02  0.8953678E-01
       -1   -1    0    0    0  501  0.00000000000E+00  0.00000000000E+00  0.32236309752E+03  0.32236309756E+03  0.50400001928E-02 0.  1.
        1   -1    0    0  501    0  0.00000000000E+00  0.00000000000E+00 -0.15204481135E+04  0.15204481135E+04  0.50400001928E-02 0. -1.
    10030    2    1    2    0    0  0.00000000000E+00  0.00000000000E+00 -0.11980850159E+04  0.18428112110E+04  0.14001947915E+04 0.  0.
        2    1    3    3  502    0 -0.33745046805E+01  0.59080940385E+03 -0.10472211503E+03  0.60002821629E+03  0.25500000920E-02 0.  1.
       -2    1    3    3    0  502  0.33745046805E+01 -0.59080940385E+03 -0.10933629009E+04  0.12427829948E+04  0.25500000920E-02 0. -1.
</event>
<event>
 5   0  0.2467303E-05  0.1400523E+04  0.7818609E-02  0.8953440E-01
       -1   -1    0    0    0  501  0.00000000000E+00  0.00000000000E+00  0.20876491447E+03  0.20876491453E+03  0.50400001928E-02 0. -1.
        1   -1    0    0  501    0  0.00000000000E+00  0.00000000000E+00 -0.23488923099E+04  0.23488923099E+04  0.50400001928E-02 0.  1.
    10030    2    1    2    0    0  0.00000000000E+00  0.00000000000E+00 -0.21401273955E+04  0.25576572245E+04  0.14005231912E+04 0.  0.
        3    1    3    3  502    0 -0.61345826218E+03  0.31410592293E+03 -0.12964902843E+04  0.14682917414E+04  0.10100000352E+00 0.  1.
       -3    1    3    3    0  502  0.61345826218E+03 -0.31410592293E+03 -0.84363711112E+03  0.10893654831E+04  0.10100000352E+00 0. -1.
</event>
<event>
 5   0  0.1661000E-05  0.1399560E+04  0.7818609E-02  0.8954137E-01
        3   -1    0    0  501    0  0.00000000000E+00  0.00000000000E+00  0.83038600745E+03  0.83038601360E+03  0.10100000352E+00 0. -1.
       -3   -1    0    0    0  501  0.00000000000E+00  0.00000000000E+00 -0.58971577853E+03  0.58971578718E+03  0.10100000352E+00 0.  1.
    10030    2    1    2    0    0  0.00000000000E+00  0.00000000000E+00  0.24067022892E+03  0.14201018008E+04  0.13995595612E+04 0.  0.
        1    1    3    3  502    0  0.31355919032E+03 -0.57082976055E+03 -0.13940206848E+03  0.66603222001E+03  0.50400001928E-02 0.  1.
       -1    1    3    3    0  502 -0.31355919032E+03  0.57082976055E+03  0.38007229740E+03  0.75406958077E+03  0.50400001928E-02 0. -1.
</event>
<event>
 5   0  0.2363419E-05  0.1406058E+04  0.7818609E-02  0.8949445E-01
       -1   -1    0    0    0  501  0.00000000000E+00  0.00000000000E+00  0.45751158791E+03  0.45751158793E+03  0.50400001928E-02 0. -1.
        1   -1    0    0  501    0  0.00000000000E+00  0.00000000000E+00 -0.10802995463E+04  0.10802995463E+04  0.50400001928E-02 0.  1.
    10030    2    1    2    0    0  0.00000000000E+00  0.00000000000E+00 -0.62278795838E+03  0.15378111342E+04  0.14060576956E+04 0.  0.
        2    1    3    3  502    0 -0.29450482981E+03 -0.33061145033E+02 -0.10086451078E+04  0.10512806893E+04  0.25500000920E-02 0.  1.
       -2    1    3    3    0  502  0.29450482981E+03  0.33061145033E+02  0.38585714944E+03  0.48653044496E+03  0.25500000920E-02 0. -1.
</event>
<event>
 5   0  0.2427569E-05  0.1398942E+04  0.7818609E-02  0.8954585E-01
       -1   -1    0    0    0  501  0.00000000000E+00  0.00000000000E+00  0.22650511130E+03  0.22650511136E+03  0.50400001928E-02 0. -1.
        1   -1    0    0  501    0  0.00000000000E+00  0.00000000000E+00 -0.21600385821E+04  0.21600385821E+04  0.50400001928E-02 0.  1.
    10030    2    1    2    0    0  0.00000000000E+00  0.00000000000E+00 -0.19335334708E+04  0.23865436934E+04  0.13989421425E+04 0.  0.
        1    1    3    3  502    0  0.59237756017E+03 -0.23610853695E+03 -0.47646520665E+03  0.79603863486E+03  0.50400001928E-02 0. -1.
       -1    1    3    3    0  502 -0.59237756017E+03  0.23610853695E+03 -0.14570682641E+04  0.15905050586E+04  0.50400001928E-02 0.  1.
</event>
<event>
 5   0  0.4460282E-05  0.1400035E+04  0.7818609E-02  0.8953793E-01
       -2   -1    0    0    0  501  0.00000000000E+00  0.00000000000E+00  0.21915242047E+03  0.21915242049E+03  0.25500000920E-02 0. -1.
        2   -1    0    0  501    0  0.00000000000E+00  0.00000000000E+00 -0.22360001111E+04  0.22360001111E+04  0.25500000920E-02 0.  1.
    10030    2    1    2    0    0  0.00000000000E+00  0.00000000000E+00 -0.20168476906E+04  0.24551525316E+04  0.14000354803E+04 0.  0.
        1    1    3    3  502    0  0.68209102350E+03  0.11405612191E+03 -0.11986579713E+04  0.13838489425E+04  0.50400001928E-02 0. -1.
       -1    1    3    3    0  502 -0.68209102350E+03 -0.11405612191E+03 -0.81818971928E+03  0.10713035891E+04  0.50400001928E-02 0.  1.
</event>
<event>
 5   0  0.2467303E-05  0.1400096E+04  0.7818609E-02  0.8953749E-01
       -1   -1    0    0    0  501  0.00000000000E+00  0.00000000000E+00  0.92337797559E+03  0.92337797561E+03  0.50400001928E-02 0.  1.
        1   -1    0    0  501    0  0.00000000000E+00  0.00000000000E+00 -0.53073287408E+03  0.53073287411E+03  0.50400001928E-02 0. -1.
    10030    2    1    2    0    0  0.00000000000E+00  0.00000000000E+00  0.39264510151E+03  0.14541108497E+04  0.14000957780E+04 0.  0.
        3    1    3    3  502    0 -0.15291395969E+03 -0.64709992026E+03 -0.31090921653E+02  0.66564828662E+03  0.10100000352E+00 0.  1.
       -3    1    3    3    0  502  0.15291395969E+03  0.64709992026E+03  0.42373602317E+03  0.78846256309E+03  0.10100000352E+00 0. -1.
</event>
<event>
 5   0  0.4243281E-05  0.1399776E+04  0.7818609E-02  0.8953981E-01
       -2   -1    0    0    0  501  0.00000000000E+00  0.00000000000E+00  0.14184147332E+04  0.14184147332E+04  0.25500000920E-02 0. -1.
        2   -1    0    0  501    0  0.00000000000E+00  0.00000000000E+00 -0.34534546336E+03  0.34534546337E+03  0.25500000920E-02 0.  1.
    10030    2    1    2    0    0  0.00000000000E+00  0.00000000000E+00  0.10730692699E+04  0.17637601966E+04  0.13997758296E+04 0.  0.
        2    1    3    3  502    0  0.88331813442E+02 -0.35474081976E+03 -0.21548247422E+03  0.42435392678E+03  0.25500000920E-02 0.  1.
       -2    1    3    3    0  502 -0.88331813442E+02  0.35474081976E+03  0.12885517441E+04  0.13394062698E+04  0.25500000920E-02 0. -1.
</event>
<event>
 5   0  0.2316714E-05  0.1390431E+04  0.7818609E-02  0.8960774E-01
       -1   -1    0    0    0  501  0.00000000000E+00  0.00000000000E+00  0.32302827965E+03  0.32302827969E+03  0.50400001928E-02 0. -1.
        1   -1    0    0  501    0  0.00000000000E+00  0.00000000000E+00 -0.14962306000E+04  0.14962306000E+04  0.50400001928E-02 0.  1.
    10030    2    1    2    0    0  0.00000000000E+00  0.00000000000E+00 -0.11732023203E+04  0.18192588797E+04  0.13904312953E+04 0.  0.
        5    1    3    3  502    0  0.63217849433E+02  0.38134414751E+03 -0.13426363775E+04  0.13971808714E+04  0.46999998093E+01 0.  1.
       -5    1    3    3    0  502 -0.63217849433E+02 -0.38134414751E+03  0.16943405715E+03  0.42207800825E+03  0.46999998093E+01 0. -1.
</event>
<event>
 5   0  0.4527503E-05  0.1398374E+04  0.7818609E-02  0.8954997E-01
       -2   -1    0    0    0  501  0.00000000000E+00  0.00000000000E+00  0.60916230059E+03  0.60916230059E+03  0.25500000920E-02 0. -1.
        2   -1    0    0  501    0  0.00000000000E+00  0.00000000000E+00 -0.80251539797E+03  0.80251539797E+03  0.25500000920E-02 0.  1.
    10030    2    1    2    0    0  0.00000000000E+00  0.00000000000E+00 -0.19335309738E+03  0.14116776986E+04  0.13983735210E+04 0.  0.
        4    1    3    3  502    0 -0.47024015644E+03 -0.12443518391E+01 -0.61902876784E+03  0.77738380575E+03  0.12699999809E+01 0.  1.
       -4    1    3    3    0  502  0.47024015644E+03  0.12443518391E+01  0.42567567045E+03  0.63429389281E+03  0.12699999809E+01 0. -1.
</event>
<event>
 5   0  0.4460282E-05  0.1399678E+04  0.7818609E-02  0.8954052E-01
        2   -1    0    0  501    0  0.00000000000E+00  0.00000000000E+00  0.13601834579E+04  0.13601834579E+04  0.25500000920E-02 0.  1.
       -2   -1    0    0    0  501  0.00000000000E+00  0.00000000000E+00 -0.36007985883E+03  0.36007985884E+03  0.25500000920E-02 0. -1.
    10030    2    1    2    0    0  0.00000000000E+00  0.00000000000E+00  0.10001035991E+04  0.17202633167E+04  0.13996780594E+04 0.  0.
        1    1    3    3  502    0 -0.24381042579E+03 -0.34085737420E+03  0.11889158237E+04  0.12606141794E+04  0.50400001928E-02 0.  1.
       -1    1    3    3    0  502  0.24381042579E+03  0.34085737420E+03 -0.18881222467E+03  0.45964913737E+03  0.50400001928E-02 0. -1.
</event>
<event>
 5   0  0.4460282E-05  0.1399865E+04  0.7818609E-02  0.8953916E-01
        2   -1    0    0  501    0  0.00000000000E+00  0.00000000000E+00  0.10574088454E+04  0.10574088454E+04  0.25500000920E-02 0.  1.
       -2   -1    0    0    0  501  0.00000000000E+00  0.00000000000E+00 -0.46330766119E+03  0.46330766119E+03  0.25500000920E-02 0. -1.
    10030    2    1    2    0    0  0.00000000000E+00  0.00000000000E+00  0.59410118425E+03  0.15207165066E+04  0.13998651637E+04 0.  0.
        1    1    3    3  502    0 -0.10428912196E+03  0.68399859415E+03  0.18221088839E+03  0.71549360978E+03  0.50400001928E-02 0. -1.
       -1    1    3    3    0  502  0.10428912196E+03 -0.68399859415E+03  0.41189029586E+03  0.80522289685E+03  0.50400001928E-02 0.  1.
</event>
<event>
 5   0  0.2428507E-05  0.1400135E+04  0.7818609E-02  0.8953720E-01
        1   -1    0    0  501    0  0.00000000000E+00  0.00000000000E+00  0.12075649644E+04  0.12075649644E+04  0.50400001928E-02 0. -1.
       -1   -1    0    0    0  501  0.00000000000E+00  0.00000000000E+00 -0.40585381599E+03  0.40585381602E+03  0.50400001928E-02 0.  1.
    10030    2    1    2    0    0  0.00000000000E+00  0.00000000000E+00  0.80171114841E+03  0.16134187804E+04  0.14001354918E+04 0.  0.
        4    1    3    3  502    0  0.40579060074E+03  0.35916749538E+03  0.91156803864E+03  0.10604834762E+04  0.12699999809E+01 0. -1.
       -4    1    3    3    0  502 -0.40579060074E+03 -0.35916749538E+03 -0.10985689023E+03  0.55293530419E+03  0.12699999809E+01 0.  1.
</event>
<event>
 5   0  0.4527503E-05  0.1400924E+04  0.7818609E-02  0.8953150E-01
       -2   -1    0    0    0  501  0.00000000000E+00  0.00000000000E+00  0.34652574308E+03  0.34652574309E+03  0.25500000920E-02 0.  1.
        2   -1    0    0  501    0  0.00000000000E+00  0.00000000000E+00 -0.14159025187E+04  0.14159025187E+04  0.25500000920E-02 0. -1.
    10030    2    1    2    0    0  0.00000000000E+00  0.00000000000E+00 -0.10693767756E+04  0.17624282618E+04  0.14009235132E+04 0.  0.
        4    1    3    3  502    0 -0.58109378537E+03  0.34147259994E+03 -0.77461468012E+03  0.10267925981E+04  0.12699999809E+01 0.  1.
       -4    1    3    3    0  502  0.58109378537E+03 -0.34147259994E+03 -0.29476209551E+03  0.73563566373E+03  0.12699999809E+01 0. -1.
</event>
<event>
 5   0  0.4527503E-05  0.1399894E+04  0.7818609E-02  0.8953895E-01
       -2   -1    0    0    0  501  0.00000000000E+00  0.00000000000E+00  0.34161318343E+03  0.34161318344E+03  0.25500000920E-02 0. -1.
        2   -1    0    0  501    0  0.00000000000E+00  0.00000000000E+00 -0.14341542650E+04  0.14341542650E+04  0.25500000920E-02 0.  1.
    10030    2    1    2    0    0  0.00000000000E+00  0.00000000000E+00 -0.10925410816E+04  0.17757674485E+04  0.13998942874E+04 0.  0.
        4    1    3    3  502    0  0.41799414037E+03  0.34312454466E+03  0.17422057691E+02  0.54107180256E+03  0.12699999809E+01 0. -1.
       -4    1    3    3    0  502 -0.41799414037E+03 -0.34312454466E+03 -0.11099631393E+04  0.12346956459E+04  0.12699999809E+01 0.  1.
</event>
<event>
 5   0  0.2363419E-05  0.1403772E+04  0.7818609E-02  0.8951093E-01
        1   -1    0    0  501    0  0.00000000000E+00  0.00000000000E+00  0.75674242597E+03  0.75674242599E+03  0.50400001928E-02 0. -1.
       -1   -1    0    0    0  501  0.00000000000E+00  0.00000000000E+00 -0.65100623460E+03  0.65100623462E+03  0.50400001928E-02 0.  1.
    10030    2    1    2    0    0  0.00000000000E+00  0.00000000000E+00  0.10573619137E+03  0.14077486606E+04  0.14037721144E+04 0.  0.
        2    1    3    3  502    0  0.26146911431E+03  0.29649451572E+03  0.63448424427E+03  0.74755959750E+03  0.25500000920E-02 0. -1.
       -2    1    3    3    0  502 -0.26146911431E+03 -0.29649451572E+03 -0.52874805290E+03  0.66018906310E+03  0.25500000920E-02 0.  1.
</event>
<event>
 5   0  0.4460282E-05  0.1398740E+04  0.7818609E-02  0.8954731E-01
       -2   -1    0    0    0  501  0.00000000000E+00  0.00000000000E+00  0.48285285199E+03  0.48285285199E+03  0.25500000920E-02 0.  1.
        2   -1    0    0  501    0  0.00000000000E+00  0.00000000000E+00 -0.10129756753E+04  0.10129756753E+04  0.25500000920E-02 0. -1.
    10030    2    1    2    0    0  0.00000000000E+00  0.00000000000E+00 -0.53012282330E+03  0.14958285273E+04  0.13987397096E+04 0.  0.
        1    1    3    3  502    0 -0.17565767169E+03 -0.52005118127E+03  0.19838924952E+03  0.58366697963E+03  0.50400001928E-02 0.  1.
       -1    1    3    3    0  502  0.17565767169E+03  0.52005118127E+03 -0.72851207281E+03  0.91216154765E+03  0.50400001928E-02 0. -1.
</event>
<event>
 5   0  0.2316714E-05  0.1400114E+04  0.7818609E-02  0.8953736E-01
        1   -1    0    0  501    0  0.00000000000E+00  0.00000000000E+00  0.38346791489E+03  0.38346791492E+03  0.50400001928E-02 0. -1.
       -1   -1    0    0    0  501  0.00000000000E+00  0.00000000000E+00 -0.12780210436E+04  0.12780210436E+04  0.50400001928E-02 0.  1.
    10030    2    1    2    0    0  0.00000000000E+00  0.00000000000E+00 -0.89455312870E+03  0.16614889585E+04  0.14001143736E+04 0.  0.
        5    1    3    3  502    0 -0.55133288316E+03  0.39161397776E+03 -0.23259382742E+03  0.71515832805E+03  0.46999998093E+01 0. -1.
       -5    1    3    3    0  502  0.55133288316E+03 -0.39161397776E+03 -0.66195930128E+03  0.94633063047E+03  0.46999998093E+01 0.  1.
</event>
<event>
 5   0  0.2316714E-05  0.1400256E+04  0.7818609E-02  0.8953633E-01
       -1   -1    0    0    0  501  0.00000000000E+00  0.00000000000E+00  0.62499092776E+03  0.62499092778E+03  0.50400001928E-02 0. -1.
        1   -1    0    0  501    0  0.00000000000E+00  0.00000000000E+00 -0.78429857973E+03  0.78429857975E+03  0.50400001928E-02 0.  1.
    10030    2    1    2    0    0  0.00000000000E+00  0.00000000000E+00 -0.15930765198E+03  0.14092895075E+04  0.14002564008E+04 0.  0.
        5    1    3    3  502    0  0.48783455512E+03  0.26337321046E+03  0.35066655970E+03  0.65600085918E+03  0.46999998093E+01 0. -1.
       -5    1    3    3    0  502 -0.48783455512E+03 -0.26337321046E+03 -0.50997421168E+03  0.75328864835E+03  0.46999998093E+01 0.  1.
</event>
<event>
 5   0  0.2316714E-05  0.1400155E+04  0.7818609E-02  0.8953707E-01
        1   -1    0    0  501    0  0.00000000000E+00  0.00000000000E+00  0.68644151008E+03  0.68644151010E+03  0.50400001928E-02 0.  1.
       -1   -1    0    0    0  501  0.00000000000E+00  0.00000000000E+00 -0.71398412927E+03  0.71398412929E+03  0.50400001928E-02 0. -1.
    10030    2    1    2    0    0  0.00000000000E+00  0.00000000000E+00 -0.27542619191E+02  0.14004256394E+04  0.14001547684E+04 0.  0.
        5    1    3    3  502    0  0.31567587655E+03  0.61953794855E+03  0.67532331493E+02  0.69861379497E+03  0.46999998093E+01 0.  1.
       -5    1    3    3    0  502 -0.31567587655E+03 -0.61953794855E+03 -0.95074950684E+02  0.70181184442E+03  0.46999998093E+01 0. -1.
</event>
<event>
 5   0  0.2363419E-05  0.1399494E+04  0.7818609E-02  0.8954185E-01
        1   -1    0    0  501    0  0.00000000000E+00  0.00000000000E+00  0.11459024927E+04  0.11459024927E+04  0.50400001928E-02 0.  1.
       -1   -1    0    0    0  501  0.00000000000E+00  0.00000000000E+00 -0.42730151804E+03  0.42730151807E+03  0.50400001928E-02 0. -1.
    10030    2    1    2    0    0  0.00000000000E+00  0.00000000000E+00  0.71860097467E+03  0.15732040108E+04  0.13994940153E+04 0.  0.
        2    1    3    3  502    0 -0.67081741892E+03 -0.33148620899E+02  0.13858540287E+03  0.68578477271E+03  0.25500000920E-02 0. -1.
       -2    1    3    3    0  502  0.67081741892E+03  0.33148620899E+02  0.58001557181E+03  0.88741923809E+03  0.25500000920E-02 0.  1.
</event>
<event>
 5   0  0.4441253E-05  0.1399894E+04  0.7818609E-02  0.8953895E-01
        2   -1    0    0  501    0  0.00000000000E+00  0.00000000000E+00  0.11375619835E+04  0.11375619835E+04  0.25500000920E-02 0.  1.
       -2   -1    0    0    0  501  0.00000000000E+00  0.00000000000E+00 -0.43068034996E+03  0.43068034997E+03  0.25500000920E-02 0. -1.
    10030    2    1    2    0    0  0.00000000000E+00  0.00000000000E+00  0.70688163349E+03  0.15682423334E+04  0.13998937005E+04 0.  0.
        3    1    3    3  502    0 -0.23359117927E+03 -0.15435626942E+03 -0.36521582250E+03  0.46018833552E+03  0.10100000352E+00 0. -1.
       -3    1    3    3    0  502  0.23359117927E+03  0.15435626942E+03  0.10720974560E+04  0.11080539979E+04  0.10100000352E+00 0.  1.
</event>
<event>
 5   0  0.4621450E-05  0.1400377E+04  0.7818609E-02  0.8953546E-01
        2   -1    0    0  501    0  0.00000000000E+00  0.00000000000E+00  0.48651894978E+03  0.48651894979E+03  0.25500000920E-02 0.  1.
       -2   -1    0    0    0  501  0.00000000000E+00  0.00000000000E+00 -0.10076971980E+04  0.10076971980E+04  0.25500000920E-02 0. -1.
    10030    2    1    2    0    0  0.00000000000E+00  0.00000000000E+00 -0.52117824817E+03  0.14942161477E+04  0.14003767814E+04 0.  0.
        5    1    3    3  502    0  0.41215472765E+03 -0.22646864767E+03  0.29290236603E+03  0.55405185129E+03  0.46999998093E+01 0.  1.
       -5    1    3    3    0  502 -0.41215472765E+03  0.22646864767E+03 -0.81408061420E+03  0.94016429645E+03  0.46999998093E+01 0. -1.
</event>
<event>
 5   0  0.4243281E-05  0.1399858E+04  0.7818609E-02  0.8953921E-01
       -2   -1    0    0    0  501  0.00000000000E+00  0.00000000000E+00  0.40061593860E+03  0.40061593861E+03  0.25500000920E-02 0.  1.
        2   -1    0    0  501    0  0.00000000000E+00  0.00000000000E+00 -0.12228686343E+04  0.12228686343E+04  0.25500000920E-02 0. -1.
    10030    2    1    2    0    0  0.00000000000E+00  0.00000000000E+00 -0.82225269565E+03  0.16234845729E+04  0.13998580867E+04 0.  0.
        2    1    3    3  502    0 -0.66429009044E+03 -0.13542568241E+03 -0.20931920192E+03  0.70953221774E+03  0.25500000920E-02 0.  1.
       -2    1    3    3    0  502  0.66429009044E+03  0.13542568241E+03 -0.61293349373E+03  0.91395235513E+03  0.25500000920E-02 0. -1.
</event>
<event>
 5   0  0.2363419E-05  0.1400083E+04  0.7818609E-02  0.8953759E-01
        1   -1    0    0  501    0  0.00000000000E+00  0.00000000000E+00  0.59789905348E+03  0.59789905350E+03  0.50400001928E-02 0.  1.
       -1   -1    0    0    0  501  0.00000000000E+00  0.00000000000E+00 -0.81963324833E+03  0.81963324834E+03  0.50400001928E-02 0. -1.
    10030    2    1    2    0    0  0.00000000000E+00  0.00000000000E+00 -0.22173419485E+03  0.14175323018E+04  0.14000827738E+04 0.  0.
        2    1    3    3  502    0  0.17497103145E+01 -0.25687927324E+03 -0.77018817899E+03  0.81189891832E+03  0.25500000920E-02 0. -1.
       -2    1    3    3    0  502 -0.17497103145E+01  0.25687927324E+03  0.54845398414E+03  0.60563338352E+03  0.25500000920E-02 0.  1.
</event>
<event>
 5   0  0.4460282E-05  0.1400466E+04  0.7818609E-02  0.8953481E-01
       -2   -1    0    0    0  501  0.00000000000E+00  0.00000000000E+00  0.46070024446E+03  0.46070024446E+03  0.25500000920E-02 0.  1.
        2   -1    0    0  501    0  0.00000000000E+00  0.00000000000E+00 -0.10643062189E+04  0.10643062189E+04  0.25500000920E-02 0. -1.
    10030    2    1    2    0    0  0.00000000000E+00  0.00000000000E+00 -0.60360597441E+03  0.15250064633E+04  0.14004658300E+04 0.  0.
        1    1    3    3  502    0  0.21604917647E+03  0.37585539197E+03 -0.90059618339E+03  0.99950888334E+03  0.50400001928E-02 0. -1.
       -1    1    3    3    0  502 -0.21604917647E+03 -0.37585539197E+03  0.29699020897E+03  0.52549757999E+03  0.50400001928E-02 0.  1.
</event>
<event>
 5   0  0.1661000E-05  0.1400099E+04  0.7818609E-02  0.8953747E-01
        3   -1    0    0  501    0  0.00000000000E+00  0.00000000000E+00  0.33666266393E+03  0.33666267908E+03  0.10100000352E+00 0. -1.
       -3   -1    0    0    0  501  0.00000000000E+00  0.00000000000E+00 -0.14556688248E+04  0.14556688283E+04  0.10100000352E+00 0.  1.
    10030    2    1    2    0    0  0.00000000000E+00  0.00000000000E+00 -0.11190061609E+04  0.17923315074E+04  0.14000990838E+04 0.  0.
        3    1    3    3  502    0  0.61047306405E+03  0.34259168470E+03 -0.55337352935E+03  0.89233889165E+03  0.10100000352E+00 0.  1.
       -3    1    3    3    0  502 -0.61047306405E+03 -0.34259168470E+03 -0.56563263155E+03  0.89999261577E+03  0.10100000352E+00 0. -1.
</event>
<event>
 5   0  0.2363419E-05  0.1400242E+04  0.7818609E-02  0.8953644E-01
        1   -1    0    0  501    0  0.00000000000E+00  0.00000000000E+00  0.86234755746E+03  0.86234755748E+03  0.50400001928E-02 0. -1.
       -1   -1    0    0    0  501  0.00000000000E+00  0.00000000000E+00 -0.56841248280E+03  0.56841248283E+03  0.50400001928E-02 0.  1.
    10030    2    1    2    0    0  0.00000000000E+00  0.00000000000E+00  0.29393507466E+03  0.14307600403E+04  0.14002415737E+04 0.  0.
        2    1    3    3  502    0  0.75497823672E+02  0.28062551845E+03  0.79781055045E+03  0.84908908685E+03  0.25500000920E-02 0. -1.
       -2    1    3    3    0  502 -0.75497823672E+02 -0.28062551845E+03 -0.50387547579E+03  0.58167095346E+03  0.25500000920E-02 0.  1.
</event>
<event>
 5   0  0.2427569E-05  0.1399821E+04  0.7818609E-02  0.8953948E-01
       -1   -1    0    0    0  501  0.00000000000E+00  0.00000000000E+00  0.44327826447E+03  0.44327826449E+03  0.50400001928E-02 0. -1.
        1   -1    0    0  501    0  0.00000000000E+00  0.00000000000E+00 -0.11051184858E+04  0.11051184858E+04  0.50400001928E-02 0.  1.
    10030    2    1    2    0    0  0.00000000000E+00  0.00000000000E+00 -0.66184022132E+03  0.15483967503E+04  0.13998214235E+04 0.  0.
        1    1    3    3  502    0  0.93400578994E+02 -0.16883099873E+03 -0.10751200749E+04  0.10922960907E+04  0.50400001928E-02 0.  1.
       -1    1    3    3    0  502 -0.93400578994E+02  0.16883099873E+03  0.41327985357E+03  0.45610065959E+03  0.50400001928E-02 0. -1.
</event>
<event>
 5   0  0.2467303E-05  0.1400414E+04  0.7818609E-02  0.8953519E-01
       -1   -1    0    0    0  501  0.00000000000E+00  0.00000000000E+00  0.61975792016E+03  0.61975792018E+03  0.50400001928E-02 0. -1.
        1   -1    0    0  501    0  0.00000000000E+00  0.00000000000E+00 -0.79109875621E+03  0.79109875623E+03  0.50400001928E-02 0.  1.
    10030    2    1    2    0    0  0.00000000000E+00  0.00000000000E+00 -0.17134083605E+03  0.14108566764E+04  0.14004138243E+04 0.  0.
        3    1    3    3  502    0  0.28494228859E+03 -0.24454262270E+03 -0.68109070815E+03  0.77773887975E+03  0.10100000352E+00 0.  1.
       -3    1    3    3    0  502 -0.28494228859E+03  0.24454262270E+03  0.50974987210E+03  0.63311779666E+03  0.10100000352E+00 0. -1.
</event>
<event>
 5   0  0.2363419E-05  0.1400151E+04  0.7818609E-02  0.8953710E-01
       -1   -1    0    0    0  501  0.00000000000E+00  0.00000000000E+00  0.52863549569E+03  0.52863549572E+03  0.50400001928E-02 0.  1.
        1   -1    0    0  501    0  0.00000000000E+00  0.00000000000E+00 -0.92711413236E+03  0.92711413237E+03  0.50400001928E-02 0. -1.
    10030    2    1    2    0    0  0.00000000000E+00  0.00000000000E+00 -0.39847863666E+03  0.14557496281E+04  0.14001506190E+04 0.  0.
        2    1    3    3  502    0  0.79497098293E+02 -0.40899649017E+03  0.38569075226E+03  0.56776339614E+03  0.25500000920E-02 0.  1.
       -2    1    3    3    0  502 -0.79497098293E+02  0.40899649017E+03 -0.78416938892E+03  0.88798623195E+03  0.25500000920E-02 0. -1.
</event>
<event>
 5   0  0.2467303E-05  0.1400061E+04  0.7818609E-02  0.8953775E-01
        1   -1    0    0  501    0  0.00000000000E+00  0.00000000000E+00  0.10730995379E+04  0.10730995379E+04  0.50400001928E-02 0. -1.
       -1   -1    0    0    0  501  0.00000000000E+00  0.00000000000E+00 -0.45666080513E+03  0.45666080515E+03  0.50400001928E-02 0.  1.
    10030    2    1    2    0    0  0.00000000000E+00  0.00000000000E+00  0.61643873281E+03  0.15297603431E+04  0.14000607115E+04 0.  0.
        3    1    3    3  502    0 -0.40977996958E+03 -0.31473734968E+03  0.82426791156E+03  0.97282928768E+03  0.10100000352E+00 0. -1.
       -3    1    3    3    0  502  0.40977996958E+03  0.31473734968E+03 -0.20782917875E+03  0.55693105542E+03  0.10100000352E+00 0.  1.
</event>
<event>
 5   0  0.2428507E-05  0.1400003E+04  0.7818609E-02  0.8953817E-01
       -1   -1    0    0    0  501  0.00000000000E+00  0.00000000000E+00  0.42712237365E+03  0.42712237368E+03  0.50400001928E-02 0. -1.
        1   -1    0    0  501    0  0.00000000000E+00  0.00000000000E+00 -0.11472166613E+04  0.11472166613E+04  0.50400001928E-02 0.  1.
    10030    2    1    2    0    0  0.00000000000E+00  0.00000000000E+00 -0.72009428763E+03  0.15743390350E+04  0.14000027193E+04 0.  0.
        4    1    3    3  502    0  0.30320193008E+03  0.59756213067E+03 -0.13238031288E+03  0.68303592186E+03  0.12699999809E+01 0.  1.
       -4    1    3    3    0  502 -0.30320193008E+03 -0.59756213067E+03 -0.58771397475E+03  0.89130311311E+03  0.12699999809E+01 0. -1.
</event>
<event>
 5   0  0.2363419E-05  0.1400456E+04  0.7818609E-02  0.8953488E-01
        1   -1    0    0  501    0  0.00000000000E+00  0.00000000000E+00  0.38145192374E+03  0.38145192377E+03  0.50400001928E-02 0.  1.
       -1   -1    0    0    0  501  0.00000000000E+00  0.00000000000E+00 -0.12854027597E+04  0.12854027597E+04  0.50400001928E-02 0. -1.
    10030    2    1    2    0    0  0.00000000000E+00  0.00000000000E+00 -0.90395083596E+03  0.16668546835E+04  0.14004561478E+04 0.  0.
        2    1    3    3  502    0  0.56292401630E+03 -0.37004964345E+03 -0.67936455433E+03  0.95674259047E+03  0.25500000920E-02 0. -1.
       -2    1    3    3    0  502 -0.56292401630E+03  0.37004964345E+03 -0.22458628163E+03  0.71011209301E+03  0.25500000920E-02 0.  1.
</event>
<event>
 5   0  0.4243281E-05  0.1399784E+04  0.7818609E-02  0.8953975E-01
        2   -1    0    0  501    0  0.00000000000E+00  0.00000000000E+00  0.14951973338E+04  0.14951973338E+04  0.25500000920E-02 0.  1.
       -2   -1    0    0    0  501  0.00000000000E+00  0.00000000000E+00 -0.32761488722E+03  0.32761488723E+03  0.25500000920E-02 0. -1.
    10030    2    1    2    0    0  0.00000000000E+00  0.00000000000E+00  0.11675824466E+04  0.18228122211E+04  0.13997841346E+04 0.  0.
        2    1    3    3  502    0  0.50607750465E+03  0.55274952392E+02 -0.41647881041E+02  0.51078792769E+03  0.25500000920E-02 0. -1.
       -2    1    3    3    0  502 -0.50607750465E+03 -0.55274952392E+02  0.12092303277E+04  0.13120242934E+04  0.25500000920E-02 0.  1.
</event>
<event>
 5   0  0.2363419E-05  0.1400145E+04  0.7818609E-02  0.8953713E-01
       -1   -1    0    0    0  501  0.00000000000E+00  0.00000000000E+00  0.45999442144E+03  0.45999442147E+03  0.50400001928E-02 0.  1.
        1   -1    0    0  501    0  0.00000000000E+00  0.00000000000E+00 -0.10654514922E+04  0.10654514923E+04  0.50400001928E-02 0. -1.
    10030    2    1    2    0    0  0.00000000000E+00  0.00000000000E+00 -0.60545707080E+03  0.15254459137E+04  0.14001453393E+04 0.  0.
        2    1    3    3  502    0 -0.48086604675E+03 -0.26607724714E+03  0.16975461771E+03  0.57519204324E+03  0.25500000920E-02 0.  1.
       -2    1    3    3    0  502  0.48086604675E+03  0.26607724714E+03 -0.77521168851E+03  0.95025387049E+03  0.25500000920E-02 0. -1.
</event>
<event>
 5   0  0.2316714E-05  0.1399317E+04  0.7818609E-02  0.8954313E-01
       -1   -1    0    0    0  501  0.00000000000E+00  0.00000000000E+00  0.58767009220E+03  0.58767009222E+03  0.50400001928E-02 0. -1.
        1   -1    0    0  501    0  0.00000000000E+00  0.00000000000E+00 -0.83298814030E+03  0.83298814031E+03  0.50400001928E-02 0.  1.
    10030    2    1    2    0    0  0.00000000000E+00  0.00000000000E+00 -0.24531804810E+03  0.14206582325E+04  0.13993172867E+04 0.  0.
        5    1    3    3  502    0  0.60436524050E+03  0.31334986093E+03  0.41217226146E+02  0.68203110560E+03  0.46999998093E+01 0. -1.
       -5    1    3    3    0  502 -0.60436524050E+03 -0.31334986093E+03 -0.28653527424E+03  0.73862712694E+03  0.46999998093E+01 0.  1.
</event>
<event>
 5   0  0.1661000E-05  0.1400847E+04  0.7818609E-02  0.8953205E-01
        3   -1    0    0  501    0  0.00000000000E+00  0.00000000000E+00  0.11181375789E+04  0.11181375834E+04  0.10100000352E+00 0. -1.
       -3   -1    0    0    0  501  0.00000000000E+00  0.00000000000E+00 -0.43875934113E+03  0.43875935275E+03  0.10100000352E+00 0.  1.
    10030    2    1    2    0    0  0.00000000000E+00  0.00000000000E+00  0.67937823776E+03  0.15568969362E+04  0.14008473436E+04 0.  0.
        4    1    3    3  502    0  0.60244790526E+03 -0.31176567779E+03  0.53362826881E+03  0.86307708727E+03  0.12699999809E+01 0. -1.
       -4    1    3    3    0  502 -0.60244790526E+03  0.31176567779E+03  0.14574996895E+03  0.69381984892E+03  0.12699999809E+01 0.  1.
</event>
<event>
 5   0  0.4441253E-05  0.1400245E+04  0.7818609E-02  0.8953641E-01
        2   -1    0    0  501    0  0.00000000000E+00  0.00000000000E+00  0.64740767806E+03  0.64740767807E+03  0.25500000920E-02 0.  1.
       -2   -1    0    0    0  501  0.00000000000E+00  0.00000000000E+00 -0.75712950921E+03  0.75712950922E+03  0.25500000920E-02 0. -1.
    10030    2    1    2    0    0  0.00000000000E+00  0.00000000000E+00 -0.10972183115E+03  0.14045371873E+04  0.14002449179E+04 0.  0.
        3    1    3    3  502    0 -0.16581415222E+03  0.43354503641E+02 -0.73576242184E+03  0.75546032169E+03  0.10100000352E+00 0. -1.
       -3    1    3    3    0  502  0.16581415222E+03 -0.43354503641E+02  0.62604059068E+03  0.64907686559E+03  0.10100000352E+00 0.  1.
</event>
<event>
 5   0  0.4441253E-05  0.1400017E+04  0.7818609E-02  0.8953806E-01
       -2   -1    0    0    0  501  0.00000000000E+00  0.00000000000E+00  0.73508985656E+03  0.73508985657E+03  0.25500000920E-02 0.  1.
        2   -1    0    0  501    0  0.00000000000E+00  0.00000000000E+00 -0.66660159477E+03  0.66660159478E+03  0.25500000920E-02 0. -1.
    10030    2    1    2    0    0  0.00000000000E+00  0.00000000000E+00  0.68488261788E+02  0.14016914513E+04  0.14000172437E+04 0.  0.
        3    1    3    3  502    0  0.22308778317E+03  0.66054717440E+03 -0.28451292593E+02  0.69778235493E+03  0.10100000352E+00 0.  1.
       -3    1    3    3    0  502 -0.22308778317E+03 -0.66054717440E+03  0.96939554381E+02  0.70390909641E+03  0.10100000352E+00 0. -1.
</event>
<event>
 5   0  0.4527503E-05  0.1399220E+04  0.7818609E-02  0.8954383E-01
       -2   -1    0    0    0  501  0.00000000000E+00  0.00000000000E+00  0.36453376581E+03  0.36453376582E+03  0.25500000920E-02 0. -1.
        2   -1    0    0  501    0  0.00000000000E+00  0.00000000000E+00 -0.13426863061E+04  0.13426863061E+04  0.25500000920E-02 0.  1.
    10030    2    1    2    0    0  0.00000000000E+00  0.00000000000E+00 -0.97815254027E+03  0.17072200719E+04  0.13992204908E+04 0.  0.
        4    1    3    3  502    0  0.80082503744E+02  0.52610543882E+03  0.65042954068E+02  0.53612716676E+03  0.12699999809E+01 0. -1.
       -4    1    3    3    0  502 -0.80082503744E+02 -0.52610543882E+03 -0.10431954943E+04  0.11710929051E+04  0.12699999809E+01 0.  1.
</event>
<event>
 5   0  0.4441253E-05  0.1400509E+04  0.7818609E-02  0.8953450E-01
        2   -1    0    0  501    0  0.00000000000E+00  0.00000000000E+00  0.85251243441E+03  0.85251243442E+03  0.25500000920E-02 0.  1.
       -2   -1    0    0    0  501  0.00000000000E+00  0.00000000000E+00 -0.57518942305E+03  0.57518942306E+03  0.25500000920E-02 0. -1.
    10030    2    1    2    0    0  0.00000000000E+00  0.00000000000E+00  0.27732301136E+03  0.14277018575E+04  0.14005086723E+04 0.  0.
        3    1    3    3  502    0  0.31755552210E+03 -0.15027429405E+03 -0.47884944742E+03  0.59390291847E+03  0.10100000352E+00 0. -1.
       -3    1    3    3    0  502 -0.31755552210E+03  0.15027429405E+03  0.75617245878E+03  0.83379893901E+03  0.10100000352E+00 0.  1.
</event>
<event>
 5   0  0.4460282E-05  0.1395982E+04  0.7818609E-02  0.8956732E-01
       -2   -1    0    0    0  501  0.00000000000E+00  0.00000000000E+00  0.88844316945E+03  0.88844316946E+03  0.25500000920E-02 0.  1.
        2   -1    0    0  501    0  0.00000000000E+00  0.00000000000E+00 -0.54836496285E+03  0.54836496285E+03  0.25500000920E-02 0. -1.
    10030    2    1    2    0    0  0.00000000000E+00  0.00000000000E+00  0.34007820661E+03  0.14368081323E+04  0.13959815265E+04 0.  0.
        1    1    3    3  502    0 -0.30359304526E+02  0.26448084286E+03  0.83413742030E+03  0.87558953830E+03  0.50400001928E-02 0.  1.
       -1    1    3    3    0  502  0.30359304526E+02 -0.26448084286E+03 -0.49405921369E+03  0.56121859401E+03  0.50400001928E-02 0. -1.
</event>
<event>
 5   0  0.4441253E-05  0.1399878E+04  0.7818609E-02  0.8953907E-01
        2   -1    0    0  501    0  0.00000000000E+00  0.00000000000E+00  0.56588962193E+03  0.56588962194E+03  0.25500000920E-02 0.  1.
       -2   -1    0    0    0  501  0.00000000000E+00  0.00000000000E+00 -0.86574282995E+03  0.86574282996E+03  0.25500000920E-02 0. -1.
    10030    2    1    2    0    0  0.00000000000E+00  0.00000000000E+00 -0.29985320802E+03  0.14316324519E+04  0.13998783986E+04 0.  0.
        3    1    3    3  502    0 -0.19949137940E+02  0.54415716329E+03 -0.59968632291E+03  0.81001770509E+03  0.10100000352E+00 0. -1.
       -3    1    3    3    0  502  0.19949137940E+02 -0.54415716329E+03  0.29983311489E+03  0.62161474681E+03  0.10100000352E+00 0.  1.
</event>
<event>
 5   0  0.4621450E-05  0.1399860E+04  0.7818609E-02  0.8953920E-01
       -2   -1    0    0    0  501  0.00000000000E+00  0.00000000000E+00  0.35351843278E+03  0.35351843279E+03  0.25500000920E-02 0. -1.
        2   -1    0    0  501    0  0.00000000000E+00  0.00000000000E+00 -0.13857883086E+04  0.13857883086E+04  0.25500000920E-02 0.  1.
    10030    2    1    2    0    0  0.00000000000E+00  0.00000000000E+00 -0.10322698758E+04  0.17393067414E+04  0.13998595802E+04 0.  0.
        5    1    3    3  502    0 -0.41565635699E+03  0.31460385415E+03  0.64165926823E+02  0.52524770187E+03  0.46999998093E+01 0. -1.
       -5    1    3    3    0  502  0.41565635699E+03 -0.31460385415E+03 -0.10964358027E+04  0.12140590396E+04  0.46999998093E+01 0.  1.
</event>
<event>
 5   0  0.2467303E-05  0.1399988E+04  0.7818609E-02  0.8953828E-01
        1   -1    0    0  501    0  0.00000000000E+00  0.00000000000E+00  0.17107092272E+04  0.17107092272E+04  0.50400001928E-02 0.  1.
       -1   -1    0    0    0  501  0.00000000000E+00  0.00000000000E+00 -0.28642583702E+03  0.28642583706E+03  0.50400001928E-02 0. -1.
    10030    2    1    2    0    0  0.00000000000E+00  0.00000000000E+00  0.14242833902E+04  0.19971350643E+04  0.13999876033E+04 0.  0.
        3    1    3    3  502    0 -0.63234240198E+03 -0.29677512475E+03  0.64741202115E+03  0.95240470565E+03  0.10100000352E+00 0.  1.
       -3    1    3    3    0  502  0.63234240198E+03  0.29677512475E+03  0.77687136905E+03  0.10447303586E+04  0.10100000352E+00 0. -1.
</event>
<event>
 5   0  0.2427569E-05  0.1400293E+04  0.7818609E-02  0.8953606E-01
       -1   -1    0    0    0  501  0.00000000000E+00  0.00000000000E+00  0.38209566268E+03  0.38209566271E+03  0.50400001928E-02 0. -1.
        1   -1    0    0  501    0  0.00000000000E+00  0.00000000000E+00 -0.12829387240E+04  0.12829387240E+04  0.50400001928E-02 0.  1.
    10030    2    1    2    0    0  0.00000000000E+00  0.00000000000E+00 -0.90084306130E+03  0.16650343867E+04  0.14002932864E+04 0.  0.
        1    1    3    3  502    0  0.29798005641E+03 -0.55267826343E+03 -0.82081266033E+02  0.63323195683E+03  0.50400001928E-02 0.  1.
       -1    1    3    3    0  502 -0.29798005641E+03  0.55267826343E+03 -0.81876179527E+03  0.10318024299E+04  0.50400001928E-02 0. -1.
</event>
<event>
 5   0  0.2467303E-05  0.1399603E+04  0.7818609E-02  0.8954106E-01
       -1   -1    0    0    0  501  0.00000000000E+00  0.00000000000E+00  0.67995605155E+03  0.67995605157E+03  0.50400001928E-02 0. -1.
        1   -1    0    0  501    0  0.00000000000E+00  0.00000000000E+00 -0.72022574756E+03  0.72022574757E+03  0.50400001928E-02 0.  1.
    10030    2    1    2    0    0  0.00000000000E+00  0.00000000000E+00 -0.40269696002E+02  0.14001817991E+04  0.13996025944E+04 0.  0.
        3    1    3    3  502    0  0.53541912331E+03 -0.43063427249E+03  0.11259383408E+03  0.69627357836E+03  0.10100000352E+00 0. -1.
       -3    1    3    3    0  502 -0.53541912331E+03  0.43063427249E+03 -0.15286353008E+03  0.70390822078E+03  0.10100000352E+00 0.  1.
</event>
<event>
 5   0  0.2427569E-05  0.1402336E+04  0.7818609E-02  0.8952130E-01
       -1   -1    0    0    0  501  0.00000000000E+00  0.00000000000E+00  0.42011642417E+03  0.42011642420E+03  0.50400001928E-02 0. -1.
        1   -1    0    0  501    0  0.00000000000E+00  0.00000000000E+00 -0.11702383793E+04  0.11702383793E+04  0.50400001928E-02 0.  1.
    10030    2    1    2    0    0  0.00000000000E+00  0.00000000000E+00 -0.75012195517E+03  0.15903548035E+04  0.14023357136E+04 0.  0.
        1    1    3    3  502    0 -0.20341910450E+03 -0.51971157084E+03  0.10629625098E+03  0.56813584814E+03  0.50400001928E-02 0. -1.
       -1    1    3    3    0  502  0.20341910450E+03  0.51971157084E+03 -0.85641820615E+03  0.10222189554E+04  0.50400001928E-02 0.  1.
</event>
<event>
 5   0  0.2428507E-05  0.1398374E+04  0.7818609E-02  0.8954996E-01
       -1   -1    0    0    0  501  0.00000000000E+00  0.00000000000E+00  0.48821051904E+03  0.48821051907E+03  0.50400001928E-02 0. -1.
        1   -1    0    0  501    0  0.00000000000E+00  0.00000000000E+00 -0.10013352099E+04  0.10013352100E+04  0.50400001928E-02 0.  1.
    10030    2    1    2    0    0  0.00000000000E+00  0.00000000000E+00 -0.51312469090E+03  0.14895457290E+04  0.13983738879E+04 0.  0.
        4    1    3    3  502    0 -0.45542952508E+03  0.51608614732E+03 -0.12566940685E+03  0.69968233970E+03  0.12699999809E+01 0. -1.
       -4    1    3    3    0  502  0.45542952508E+03 -0.51608614732E+03 -0.38745528405E+03  0.78986338933E+03  0.12699999809E+01 0.  1.
</event>
<event>
 5   0  0.4527503E-05  0.1399131E+04  0.7818609E-02  0.8954448E-01
        2   -1    0    0  501    0  0.00000000000E+00  0.00000000000E+00  0.15602166173E+04  0.15602166174E+04  0.25500000920E-02 0.  1.
       -2   -1    0    0    0  501  0.00000000000E+00  0.00000000000E+00 -0.31366923060E+03  0.31366923061E+03  0.25500000920E-02 0. -1.
    10030    2    1    2    0    0  0.00000000000E+00  0.00000000000E+00  0.12465473868E+04  0.18738858480E+04  0.13991310817E+04 0.  0.
        4    1    3    3  502    0 -0.33253020483E+03 -0.18953047943E+03 -0.16099255570E+03  0.41523289326E+03  0.12699999809E+01 0. -1.
       -4    1    3    3    0  502  0.33253020483E+03  0.18953047943E+03  0.14075399425E+04  0.14586529547E+04  0.12699999809E+01 0.  1.
</event>
<event>
 5   0  0.4621450E-05  0.1399542E+04  0.7818609E-02  0.8954150E-01
       -2   -1    0    0    0  501  0.00000000000E+00  0.00000000000E+00  0.19923943084E+03  0.19923943085E+03  0.25500000920E-02 0.  1.
        2   -1    0    0  501    0  0.00000000000E+00  0.00000000000E+00 -0.24577453853E+04  0.24577453853E+04  0.25500000920E-02 0. -1.
    10030    2    1    2    0    0  0.00000000000E+00  0.00000000000E+00 -0.22585059544E+04  0.26569848161E+04  0.13995424848E+04 0.  0.
        5    1    3    3  502    0 -0.17895035776E+03 -0.65114760894E+03 -0.78104466889E+03  0.10325063215E+04  0.46999998093E+01 0.  1.
       -5    1    3    3    0  502  0.17895035776E+03  0.65114760894E+03 -0.14774612855E+04  0.16244784946E+04  0.46999998093E+01 0. -1.
</event>
<event>
 5   0  0.2427569E-05  0.1399121E+04  0.7818609E-02  0.8954455E-01
        1   -1    0    0  501    0  0.00000000000E+00  0.00000000000E+00  0.47332865741E+03  0.47332865743E+03  0.50400001928E-02 0.  1.
       -1   -1    0    0    0  501  0.00000000000E+00  0.00000000000E+00 -0.10339220086E+04  0.10339220086E+04  0.50400001928E-02 0. -1.
    10030    2    1    2    0    0  0.00000000000E+00  0.00000000000E+00 -0.56059335121E+03  0.15072506661E+04  0.13991210330E+04 0.  0.
        1    1    3    3  502    0  0.42452771567E+03  0.29159177362E+03  0.22972120194E+03  0.56393383872E+03  0.50400001928E-02 0.  1.
       -1    1    3    3    0  502 -0.42452771567E+03 -0.29159177362E+03 -0.79031455315E+03  0.94331682735E+03  0.50400001928E-02 0. -1.
</event>
<event>
 5   0  0.4441253E-05  0.1400336E+04  0.7818609E-02  0.8953576E-01
       -2   -1    0    0    0  501  0.00000000000E+00  0.00000000000E+00  0.42410214899E+03  0.42410214899E+03  0.25500000920E-02 0.  1.
        2   -1    0    0  501    0  0.00000000000E+00  0.00000000000E+00 -0.11559363704E+04  0.11559363704E+04  0.25500000920E-02 0. -1.
    10030    2    1    2    0    0  0.00000000000E+00  0.00000000000E+00 -0.73183422145E+03  0.15800385194E+04  0.14003358152E+04 0.  0.
        3    1    3    3  502    0 -0.46876357795E+03  0.32902066072E+03 -0.82039844886E+03  0.10005236191E+04  0.10100000352E+00 0. -1.
       -3    1    3    3    0  502  0.46876357795E+03 -0.32902066072E+03  0.88564227402E+02  0.57951490039E+03  0.10100000352E+00 0.  1.
</event>
<event>
 5   0  0.4460282E-05  0.1399683E+04  0.7818609E-02  0.8954048E-01
        2   -1    0    0  501    0  0.00000000000E+00  0.00000000000E+00  0.16735470983E+04  0.16735470983E+04  0.25500000920E-02 0. -1.
       -2   -1    0    0    0  501  0.00000000000E+00  0.00000000000E+00 -0.29265860454E+03  0.29265860455E+03  0.25500000920E-02 0.  1.
    10030    2    1    2    0    0  0.00000000000E+00  0.00000000000E+00  0.13808884938E+04  0.19662057029E+04  0.13996827618E+04 0.  0.
        1    1    3    3  502    0  0.28400538672E+03 -0.51893370841E+03  0.16515997261E+03  0.61418976708E+03  0.50400001928E-02 0.  1.
       -1    1    3    3    0  502 -0.28400538672E+03  0.51893370841E+03  0.12157285212E+04  0.13520159358E+04  0.50400001928E-02 0. -1.
</event>
<event>
 5   0  0.4243281E-05  0.1400972E+04  0.7818609E-02  0.8953116E-01
       -2   -1    0    0    0  501  0.00000000000E+00  0.00000000000E+00  0.32487581900E+03  0.32487581901E+03  0.25500000920E-02 0.  1.
        2   -1    0    0  501    0  0.00000000000E+00  0.00000000000E+00 -0.15103627595E+04  0.15103627595E+04  0.25500000920E-02 0. -1.
    10030    2    1    2    0    0  0.00000000000E+00  0.00000000000E+00 -0.11854869405E+04  0.18352385785E+04  0.14009715750E+04 0.  0.
        2    1    3    3  502    0 -0.46918790916E+03  0.40223845773E+03 -0.10247321664E+04  0.11966658196E+04  0.25500000920E-02 0. -1.
       -2    1    3    3    0  502  0.46918790916E+03 -0.40223845773E+03 -0.16075477407E+03  0.63857275887E+03  0.25500000920E-02 0.  1.
</event>
<event>
 5   0  0.2363419E-05  0.1400806E+04  0.7818609E-02  0.8953235E-01
        1   -1    0    0  501    0  0.00000000000E+00  0.00000000000E+00  0.54534533768E+03  0.54534533770E+03  0.50400001928E-02 0.  1.
       -1   -1    0    0    0  501  0.00000000000E+00  0.00000000000E+00 -0.89954809185E+03  0.89954809186E+03  0.50400001928E-02 0. -1.
    10030    2    1    2    0    0  0.00000000000E+00  0.00000000000E+00 -0.35420275417E+03  0.14448934296E+04  0.14008059936E+04 0.  0.
        2    1    3    3  502    0  0.11285856326E+02 -0.62705260720E+03  0.14454954449E+03  0.64359685640E+03  0.25500000920E-02 0.  1.
       -2    1    3    3    0  502 -0.11285856326E+02  0.62705260720E+03 -0.49875229866E+03  0.80129657317E+03  0.25500000920E-02 0. -1.
</event>
<event>
 5   0  0.2428507E-05  0.1398955E+04  0.7818609E-02  0.8954576E-01
       -1   -1    0    0    0  501  0.00000000000E+00  0.00000000000E+00  0.11025887043E+04  0.11025887043E+04  0.50400001928E-02 0. -1.
        1   -1    0    0  501    0  0.00000000000E+00  0.00000000000E+00 -0.44374520469E+03  0.44374520472E+03  0.50400001928E-02 0.  1.
    10030    2    1    2    0    0  0.00000000000E+00  0.00000000000E+00  0.65884349956E+03  0.15463339090E+04  0.13989545386E+04 0.  0.
        4    1    3    3  502    0 -0.50145388763E+03 -0.19538088463E+03  0.82330051544E+03  0.98359292552E+03  0.12699999809E+01 0. -1.
       -4    1    3    3    0  502  0.50145388763E+03  0.19538088463E+03 -0.16445701588E+03  0.56274098347E+03  0.12699999809E+01 0.  1.
</event>
<event>
 5   0  0.4621450E-05  0.1399335E+04  0.7818609E-02  0.8954300E-01
       -2   -1    0    0    0  501  0.00000000000E+00  0.00000000000E+00  0.73410187681E+03  0.73410187682E+03  0.25500000920E-02 0.  1.
        2   -1    0    0  501    0  0.00000000000E+00  0.00000000000E+00 -0.66684825968E+03  0.66684825969E+03  0.25500000920E-02 0. -1.
    10030    2    1    2    0    0  0.00000000000E+00  0.00000000000E+00  0.67253617130E+02  0.14009501365E+04  0.13993349263E+04 0.  0.
        5    1    3    3  502    0 -0.43134041393E+03 -0.15975833762E+03 -0.49417730720E+03  0.67513745273E+03  0.46999998093E+01 0. -1.
       -5    1    3    3    0  502  0.43134041393E+03  0.15975833762E+03  0.56143092433E+03  0.72581268377E+03  0.46999998093E+01 0.  1.
</event>
<event>
 5   0  0.1661000E-05  0.1399669E+04  0.7818609E-02  0.8954058E-01
       -4   -1    0    0    0  501  0.00000000000E+00  0.00000000000E+00  0.30587069910E+03  0.30587333566E+03  0.12699999809E+01 0. -1.
        4   -1    0    0  501    0  0.00000000000E+00  0.00000000000E+00 -0.16012166433E+04  0.16012171469E+04  0.12699999809E+01 0.  1.
    10030    2    1    2    0    0  0.00000000000E+00  0.00000000000E+00 -0.12953459442E+04  0.19070904826E+04  0.13996688872E+04 0.  0.
        3    1    3    3  502    0 -0.31440329028E+03  0.31945440102E+03 -0.13799838375E+04  0.14509500147E+04  0.10100000352E+00 0.  1.
       -3    1    3    3    0  502  0.31440329028E+03 -0.31945440102E+03  0.84637893283E+02  0.45614046789E+03  0.10100000352E+00 0. -1.
</event>
<event>
 5   0  0.2316714E-05  0.1399770E+04  0.7818609E-02  0.8953985E-01
        1   -1    0    0  501    0  0.00000000000E+00  0.00000000000E+00  0.12058379303E+04  0.12058379303E+04  0.50400001928E-02 0.  1.
       -1   -1    0    0    0  501  0.00000000000E+00  0.00000000000E+00 -0.40622298033E+03  0.40622298036E+03  0.50400001928E-02 0. -1.
    10030    2    1    2    0    0  0.00000000000E+00  0.00000000000E+00  0.79961494998E+03  0.16120609107E+04  0.13997700924E+04 0.  0.
        5    1    3    3  502    0 -0.15750613296E+03  0.55067386291E+03  0.86300885092E+03  0.10357877447E+04  0.46999998093E+01 0.  1.
       -5    1    3    3    0  502  0.15750613296E+03 -0.55067386291E+03 -0.63393900934E+02  0.57627316603E+03  0.46999998093E+01 0. -1.
</event>
<event>
 5   0  0.2428507E-05  0.1400544E+04  0.7818609E-02  0.8953425E-01
        1   -1    0    0  501    0  0.00000000000E+00  0.00000000000E+00  0.11792348640E+04  0.11792348641E+04  0.50400001928E-02 0.  1.
       -1   -1    0    0    0  501  0.00000000000E+00  0.00000000000E+00 -0.41584665965E+03  0.41584665968E+03  0.50400001928E-02 0. -1.
    10030    2    1    2    0    0  0.00000000000E+00  0.00000000000E+00  0.76338820439E+03  0.15950815237E+04  0.14005440074E+04 0.  0.
        4    1    3    3  502    0 -0.24376085626E+02  0.17590046307E+03  0.11531634952E+04  0.11667573981E+04  0.12699999809E+01 0.  1.
       -4    1    3    3    0  502  0.24376085626E+02 -0.17590046307E+03 -0.38977529076E+03  0.42832412569E+03  0.12699999809E+01 0. -1.
</event>
<event>
 5   0  0.2467303E-05  0.1400062E+04  0.7818609E-02  0.8953774E-01
       -1   -1    0    0    0  501  0.00000000000E+00  0.00000000000E+00  0.47554278515E+03  0.47554278518E+03  0.50400001928E-02 0. -1.
        1   -1    0    0  501    0  0.00000000000E+00  0.00000000000E+00 -0.10304922504E+04  0.10304922504E+04  0.50400001928E-02 0.  1.
    10030    2    1    2    0    0  0.00000000000E+00  0.00000000000E+00 -0.55494946521E+03  0.15060350356E+04  0.14000616484E+04 0.  0.
        3    1    3    3  502    0 -0.43324543007E+03  0.52266355026E+03 -0.46117682599E+03  0.82070875741E+03  0.10100000352E+00 0.  1.
       -3    1    3    3    0  502  0.43324543007E+03 -0.52266355026E+03 -0.93772639217E+02  0.68532627815E+03  0.10100000352E+00 0. -1.
</event>
<event>
 5   0  0.2316714E-05  0.1400104E+04  0.7818609E-02  0.8953744E-01
        1   -1    0    0  501    0  0.00000000000E+00  0.00000000000E+00  0.12068213014E+04  0.12068213014E+04  0.50400001928E-02 0.  1.
       -1   -1    0    0    0  501  0.00000000000E+00  0.00000000000E+00 -0.40608539790E+03  0.40608539793E+03  0.50400001928E-02 0. -1.
    10030    2    1    2    0    0  0.00000000000E+00  0.00000000000E+00  0.80073590347E+03  0.16129066993E+04  0.14001035796E+04 0.  0.
        5    1    3    3  502    0  0.46483124659E+03 -0.52976421532E+02  0.10002620210E+04  0.11042738744E+04  0.46999998093E+01 0.  1.
       -5    1    3    3    0  502 -0.46483124659E+03  0.52976421532E+02 -0.19952611749E+03  0.50863282494E+03  0.46999998093E+01 0. -1.
</event>
<event>
 5   0  0.2427569E-05  0.1398263E+04  0.7818609E-02  0.8955077E-01
        1   -1    0    0  501    0  0.00000000000E+00  0.00000000000E+00  0.50867062038E+03  0.50867062041E+03  0.50400001928E-02 0.  1.
       -1   -1    0    0    0  501  0.00000000000E+00  0.00000000000E+00 -0.96090637467E+03  0.96090637468E+03  0.50400001928E-02 0. -1.
    10030    2    1    2    0    0  0.00000000000E+00  0.00000000000E+00 -0.45223575429E+03  0.14695769951E+04  0.13982629821E+04 0.  0.
        1    1    3    3  502    0  0.97306206965E+01  0.23493040313E+03 -0.91810333025E+03  0.94773451153E+03  0.50400001928E-02 0. -1.
       -1    1    3    3    0  502 -0.97306206965E+01 -0.23493040313E+03  0.46586757596E+03  0.52184248356E+03  0.50400001928E-02 0.  1.
</event>
<event>
 5   0  0.1661000E-05  0.1399613E+04  0.7818609E-02  0.8954099E-01
       -3   -1    0    0    0  501  0.00000000000E+00  0.00000000000E+00  0.87129920613E+03  0.87129921198E+03  0.10100000352E+00 0. -1.
        3   -1    0    0  501    0  0.00000000000E+00  0.00000000000E+00 -0.56206757163E+03  0.56206758071E+03  0.10100000352E+00 0.  1.
    10030    2    1    2    0    0  0.00000000000E+00  0.00000000000E+00  0.30923163449E+03  0.14333667927E+04  0.13996128603E+04 0.  0.
        1    1    3    3  502    0 -0.22815955561E+03  0.19758893211E+03 -0.49198295940E+03  0.57718749230E+03  0.50400001928E-02 0.  1.
       -1    1    3    3    0  502  0.22815955561E+03 -0.19758893211E+03  0.80121459389E+03  0.85617930038E+03  0.50400001928E-02 0. -1.
</event>
<event>
 5   0  0.4460282E-05  0.1400359E+04  0.7818609E-02  0.8953559E-01
       -2   -1    0    0    0  501  0.00000000000E+00  0.00000000000E+00  0.22404486675E+03  0.22404486676E+03  0.25500000920E-02 0. -1.
        2   -1    0    0  501    0  0.00000000000E+00  0.00000000000E+00 -0.21881844717E+04  0.21881844717E+04  0.25500000920E-02 0.  1.
    10030    2    1    2    0    0  0.00000000000E+00  0.00000000000E+00 -0.19641396050E+04  0.24122293385E+04  0.14003592374E+04 0.  0.
        1    1    3    3  502    0  0.16217014500E+03 -0.11341912891E+03  0.17486792955E+03  0.26408681819E+03  0.50400001928E-02 0. -1.
       -1    1    3    3    0  502 -0.16217014500E+03  0.11341912891E+03 -0.21390075345E+04  0.21481425203E+04  0.50400001928E-02 0.  1.
</event>
<event>
 5   0  0.2427569E-05  0.1400352E+04  0.7818609E-02  0.8953564E-01
       -1   -1    0    0    0  501  0.00000000000E+00  0.00000000000E+00  0.10389596839E+04  0.10389596839E+04  0.50400001928E-02 0.  1.
        1   -1    0    0  501    0  0.00000000000E+00  0.00000000000E+00 -0.47186269744E+03  0.47186269747E+03  0.50400001928E-02 0. -1.
    10030    2    1    2    0    0  0.00000000000E+00  0.00000000000E+00  0.56709698645E+03  0.15108223814E+04  0.14003518401E+04 0.  0.
        1    1    3    3  502    0 -0.30798737617E+03 -0.60365792916E+03  0.47346705322E+03  0.82669835480E+03  0.50400001928E-02 0.  1.
       -1    1    3    3    0  502  0.30798737617E+03  0.60365792916E+03  0.93629933238E+02  0.68412402658E+03  0.50400001928E-02 0. -1.
</event>
<event>
 5   0  0.4527503E-05  0.1400007E+04  0.7818609E-02  0.8953813E-01
       -2   -1    0    0    0  501  0.00000000000E+00  0.00000000000E+00  0.25470884926E+03  0.25470884928E+03  0.25500000920E-02 0. -1.
        2   -1    0    0  501    0  0.00000000000E+00  0.00000000000E+00 -0.19237848500E+04  0.19237848500E+04  0.25500000920E-02 0.  1.
    10030    2    1    2    0    0  0.00000000000E+00  0.00000000000E+00 -0.16690760007E+04  0.21784936993E+04  0.14000071791E+04 0.  0.
        4    1    3    3  502    0 -0.27919798137E+03 -0.14304578330E+03  0.13919913485E+03  0.34320783931E+03  0.12699999809E+01 0. -1.
       -4    1    3    3    0  502  0.27919798137E+03  0.14304578330E+03 -0.18082751356E+04  0.18352858600E+04  0.12699999809E+01 0.  1.
</event>
<event>
 5   0  0.4621450E-05  0.1400594E+04  0.7818609E-02  0.8953388E-01
        2   -1    0    0  501    0  0.00000000000E+00  0.00000000000E+00  0.65903188363E+03  0.65903188363E+03  0.25500000920E-02 0.  1.
       -2   -1    0    0    0  501  0.00000000000E+00  0.00000000000E+00 -0.74414622642E+03  0.74414622643E+03  0.25500000920E-02 0. -1.
    10030    2    1    2    0    0  0.00000000000E+00  0.00000000000E+00 -0.85114342792E+02  0.14031781101E+04  0.14005942872E+04 0.  0.
        5    1    3    3  502    0  0.33057321110E+03 -0.68541883479E+02  0.57210328422E+03  0.66430482123E+03  0.46999998093E+01 0.  1.
       -5    1    3    3    0  502 -0.33057321110E+03  0.68541883479E+02 -0.65721762702E+03  0.73887328883E+03  0.46999998093E+01 0. -1.
</event>
<event>
 5   0  0.2363419E-05  0.1398269E+04  0.7818609E-02  0.8955073E-01
       -1   -1    0    0    0  501  0.00000000000E+00  0.00000000000E+00  0.57086473729E+03  0.57086473731E+03  0.50400001928E-02 0. -1.
        1   -1    0    0  501    0  0.00000000000E+00  0.00000000000E+00 -0.85622527175E+03  0.85622527177E+03  0.50400001928E-02 0.  1.
    10030    2    1    2    0    0  0.00000000000E+00  0.00000000000E+00 -0.28536053446E+03  0.14270900091E+04  0.13982686649E+04 0.  0.
        2    1    3    3  502    0 -0.42364663985E+03  0.55110113755E+03 -0.66305494808E+02  0.69827312558E+03  0.25500000920E-02 0. -1.
       -2    1    3    3    0  502  0.42364663985E+03 -0.55110113755E+03 -0.21905503966E+03  0.72881688349E+03  0.25500000920E-02 0.  1.
</event>
<event>
 5   0  0.2427569E-05  0.1398571E+04  0.7818609E-02  0.8954854E-01
       -1   -1    0    0    0  501  0.00000000000E+00  0.00000000000E+00  0.21111394288E+03  0.21111394294E+03  0.50400001928E-02 0. -1.
        1   -1    0    0  501    0  0.00000000000E+00  0.00000000000E+00 -0.23162854249E+04  0.23162854249E+04  0.50400001928E-02 0.  1.
    10030    2    1    2    0    0  0.00000000000E+00  0.00000000000E+00 -0.21051714820E+04  0.25273993679E+04  0.13985709120E+04 0.  0.
        1    1    3    3  502    0 -0.10245530780E+03 -0.39799589476E+03 -0.20750162413E+04  0.21153227234E+04  0.50400001928E-02 0.  1.
       -1    1    3    3    0  502  0.10245530780E+03  0.39799589476E+03 -0.30155240719E+02  0.41207664446E+03  0.50400001928E-02 0. -1.
</event>
<event>
 5   0  0.4243281E-05  0.1400456E+04  0.7818609E-02  0.8953488E-01
       -2   -1    0    0    0  501  0.00000000000E+00  0.00000000000E+00  0.53691964787E+03  0.53691964787E+03  0.25500000920E-02 0.  1.
        2   -1    0    0  501    0  0.00000000000E+00  0.00000000000E+00 -0.91320822029E+03  0.91320822029E+03  0.25500000920E-02 0. -1.
    10030    2    1    2    0    0  0.00000000000E+00  0.00000000000E+00 -0.37628857243E+03  0.14501278682E+04  0.14004562629E+04 0.  0.
        2    1    3    3  502    0  0.12354898698E+03 -0.99285555697E+02  0.51810076420E+03  0.54180289370E+03  0.25500000920E-02 0.  1.
       -2    1    3    3    0  502 -0.12354898698E+03  0.99285555697E+02 -0.89438933663E+03  0.90832497446E+03  0.25500000920E-02 0. -1.
</event>
<event>
 5   0  0.2467303E-05  0.1400157E+04  0.7818609E-02  0.8953705E-01
       -1   -1    0    0    0  501  0.00000000000E+00  0.00000000000E+00  0.72702516642E+03  0.72702516644E+03  0.50400001928E-02 0.  1.
        1   -1    0    0  501    0  0.00000000000E+00  0.00000000000E+00 -0.67413046000E+03  0.67413046002E+03  0.50400001928E-02 0. -1.
    10030    2    1    2    0    0  0.00000000000E+00  0.00000000000E+00  0.52894706424E+02  0.14011556265E+04  0.14001568625E+04 0.  0.
        3    1    3    3  502    0  0.20005048402E+03 -0.46776183642E+03 -0.45482029824E+03  0.68240958790E+03  0.10100000352E+00 0. -1.
       -3    1    3    3    0  502 -0.20005048402E+03  0.46776183642E+03  0.50771500467E+03  0.71874603855E+03  0.10100000352E+00 0.  1.
</event>
<event>
 5   0  0.2467303E-05  0.1400716E+04  0.7818609E-02  0.8953300E-01
       -1   -1    0    0    0  501  0.00000000000E+00  0.00000000000E+00  0.50735976036E+03  0.50735976038E+03  0.50400001928E-02 0.  1.
        1   -1    0    0  501    0  0.00000000000E+00  0.00000000000E+00 -0.96677238890E+03  0.96677238891E+03  0.50400001928E-02 0. -1.
    10030    2    1    2    0    0  0.00000000000E+00  0.00000000000E+00 -0.45941262854E+03  0.14741321493E+04  0.14007161134E+04 0.  0.
        3    1    3    3  502    0  0.68739906340E+02 -0.68509354929E+03 -0.36457565016E+03  0.77909804318E+03  0.10100000352E+00 0. -1.
       -3    1    3    3    0  502 -0.68739906340E+02  0.68509354929E+03 -0.94836978377E+02  0.69503410612E+03  0.10100000352E+00 0.  1.
</event>
<event>
 5   0  0.4243281E-05  0.1399826E+04  0.7818609E-02  0.8953944E-01
       -2   -1    0    0    0  501  0.00000000000E+00  0.00000000000E+00  0.38296668141E+03  0.38296668142E+03  0.25500000920E-02 0.  1.
        2   -1    0    0  501    0  0.00000000000E+00  0.00000000000E+00 -0.12791673399E+04  0.12791673399E+04  0.25500000920E-02 0. -1.
    10030    2    1    2    0    0  0.00000000000E+00  0.00000000000E+00 -0.89620065847E+03  0.16621340213E+04  0.13998263766E+04 0.  0.
        2    1    3    3  502    0  0.34223153804E+03 -0.50493953168E+03 -0.85562131293E+03  0.10507969297E+04  0.25500000920E-02 0. -1.
       -2    1    3    3    0  502 -0.34223153804E+03  0.50493953168E+03 -0.40579345531E+02  0.61133709161E+03  0.25500000920E-02 0.  1.
</event>
<event>
 5   0  0.2316714E-05  0.1400073E+04  0.7818609E-02  0.8953765E-01
       -1   -1    0    0    0  501  0.00000000000E+00  0.00000000000E+00  0.27937345802E+03  0.27937345806E+03  0.50400001928E-02 0.  1.
        1   -1    0    0  501    0  0.00000000000E+00  0.00000000000E+00 -0.17541086822E+04  0.17541086822E+04  0.50400001928E-02 0. -1.
    10030    2    1    2    0    0  0.00000000000E+00  0.00000000000E+00 -0.14747352242E+04  0.20334821403E+04  0.14000734386E+04 0.  0.
        5    1    3    3  502    0 -0.49986575989E+03  0.45254603097E+03 -0.46423079311E+03  0.81865499896E+03  0.46999998093E+01 0.  1.
       -5    1    3    3    0  502  0.49986575989E+03 -0.45254603097E+03 -0.10105044311E+04  0.12148271413E+04  0.46999998093E+01 0. -1.
</event>
<event>
 5   0  0.4441253E-05  0.1400044E+04  0.7818609E-02  0.8953787E-01
        2   -1    0    0  501    0  0.00000000000E+00  0.00000000000E+00  0.51830042813E+03  0.51830042814E+03  0.25500000920E-02 0.  1.
       -2   -1    0    0    0  501  0.00000000000E+00  0.00000000000E+00 -0.94545666102E+03  0.94545666103E+03  0.25500000920E-02 0. -1.
    10030    2    1    2    0    0  0.00000000000E+00  0.00000000000E+00 -0.42715623289E+03  0.14637570892E+04  0.14000437025E+04 0.  0.
        3    1    3    3  502    0 -0.17713024201E+03 -0.39914330592E+03  0.35844009367E+03  0.56495115917E+03  0.10100000352E+00 0.  1.
       -3    1    3    3    0  502  0.17713024201E+03  0.39914330592E+03 -0.78559632656E+03  0.89880593000E+03  0.10100000352E+00 0. -1.
</event>
<event>
 5   0  0.4441253E-05  0.1395156E+04  0.7818609E-02  0.8957333E-01
        2   -1    0    0  501    0  0.00000000000E+00  0.00000000000E+00  0.10696798634E+04  0.10696798634E+04  0.25500000920E-02 0.  1.
       -2   -1    0    0    0  501  0.00000000000E+00  0.00000000000E+00 -0.45491636563E+03  0.45491636564E+03  0.25500000920E-02 0. -1.
    10030    2    1    2    0    0  0.00000000000E+00  0.00000000000E+00  0.61476349774E+03  0.15245962290E+04  0.13951557273E+04 0.  0.
        3    1    3    3  502    0 -0.37959509119E+03  0.21895481950E+03 -0.28572748135E+03  0.52313846163E+03  0.10100000352E+00 0. -1.
       -3    1    3    3    0  502  0.37959509119E+03 -0.21895481950E+03  0.90049097909E+03  0.10014577674E+04  0.10100000352E+00 0.  1.
</event>
<event>
 5   0  0.4243281E-05  0.1399662E+04  0.7818609E-02  0.8954063E-01
        2   -1    0    0  501    0  0.00000000000E+00  0.00000000000E+00  0.14387893153E+04  0.14387893153E+04  0.25500000920E-02 0.  1.
       -2   -1    0    0    0  501  0.00000000000E+00  0.00000000000E+00 -0.34039962519E+03  0.34039962520E+03  0.25500000920E-02 0. -1.
    10030    2    1    2    0    0  0.00000000000E+00  0.00000000000E+00  0.10983896902E+04  0.17791889405E+04  0.13996618787E+04 0.  0.
        2    1    3    3  502    0 -0.29998605046E+03  0.47737721910E+03  0.22189494533E+02  0.56424552587E+03  0.25500000920E-02 0. -1.
       -2    1    3    3    0  502  0.29998605046E+03 -0.47737721910E+03  0.10762001956E+04  0.12149434147E+04  0.25500000920E-02 0.  1.
</event>
<event>
 5   0  0.2428507E-05  0.1400147E+04  0.7818609E-02  0.8953712E-01
       -1   -1    0    0    0  501  0.00000000000E+00  0.00000000000E+00  0.82142961484E+03  0.82142961486E+03  0.50400001928E-02 0. -1.
        1   -1    0    0  501    0  0.00000000000E+00  0.00000000000E+00 -0.59664663072E+03  0.59664663075E+03  0.50400001928E-02 0.  1.
    10030    2    1    2    0    0  0.00000000000E+00  0.00000000000E+00  0.22478298412E+03  0.14180762456E+04  0.14001474381E+04 0.  0.
        4    1    3    3  502    0 -0.64367932719E+03 -0.54452102412E+02  0.38568652608E+03  0.75235883527E+03  0.12699999809E+01 0. -1.
       -4    1    3    3    0  502  0.64367932719E+03  0.54452102412E+02 -0.16090354197E+03  0.66571741033E+03  0.12699999809E+01 0.  1.
</event>
<event>
 5   0  0.4460282E-05  0.1400079E+04  0.7818609E-02  0.8953762E-01
        2   -1    0    0  501    0  0.00000000000E+00  0.00000000000E+00  0.12507048796E+04  0.12507048796E+04  0.25500000920E-02 0. -1.
       -2   -1    0    0    0  501  0.00000000000E+00  0.00000000000E+00 -0.39182305733E+03  0.39182305734E+03  0.25500000920E-02 0.  1.
    10030    2    1    2    0    0  0.00000000000E+00  0.00000000000E+00  0.85888182224E+03  0.16425279369E+04  0.14000785831E+04 0.  0.
        1    1    3    3  502    0 -0.38245268115E+03  0.15632869245E+03  0.10924069695E+04  0.11679305203E+04  0.50400001928E-02 0. -1.
       -1    1    3    3    0  502  0.38245268115E+03 -0.15632869245E+03 -0.23352514722E+03  0.47459741656E+03  0.50400001928E-02 0.  1.
</event>
<event>
 5   0  0.4243281E-05  0.1400620E+04  0.7818609E-02  0.8953370E-01
       -2   -1    0    0    0  501  0.00000000000E+00  0.00000000000E+00  0.66438804701E+03  0.66438804701E+03  0.25500000920E-02 0.  1.
        2   -1    0    0  501    0  0.00000000000E+00  0.00000000000E+00 -0.73817367024E+03  0.73817367024E+03  0.25500000920E-02 0. -1.
    10030    2    1    2    0    0  0.00000000000E+00  0.00000000000E+00 -0.73785623229E+02  0.14025617173E+04  0.14006195245E+04 0.  0.
        2    1    3    3  502    0 -0.43690696992E+03  0.39793979155E+03  0.33938079030E+03  0.68148594916E+03  0.25500000920E-02 0.  1.
       -2    1    3    3    0  502  0.43690696992E+03 -0.39793979155E+03 -0.41316641353E+03  0.72107576810E+03  0.25500000920E-02 0. -1.
</event>
<event>
 5   0  0.4460282E-05  0.1399836E+04  0.7818609E-02  0.8953937E-01
        2   -1    0    0  501    0  0.00000000000E+00  0.00000000000E+00  0.71644080024E+03  0.71644080024E+03  0.25500000920E-02 0.  1.
       -2   -1    0    0    0  501  0.00000000000E+00  0.00000000000E+00 -0.68377630932E+03  0.68377630933E+03  0.25500000920E-02 0. -1.
    10030    2    1    2    0    0  0.00000000000E+00  0.00000000000E+00  0.32664490916E+02  0.14002171096E+04  0.13998360565E+04 0.  0.
        1    1    3    3  502    0  0.29603143400E+02 -0.65720919521E+03 -0.22265741243E+03  0.69453336544E+03  0.50400001928E-02 0. -1.
       -1    1    3    3    0  502 -0.29603143400E+02  0.65720919521E+03  0.25532190335E+03  0.70568374413E+03  0.50400001928E-02 0.  1.
</event>
<event>
 5   0  0.4441253E-05  0.1399906E+04  0.7818609E-02  0.8953886E-01
       -2   -1    0    0    0  501  0.00000000000E+00  0.00000000000E+00  0.16013290530E+04  0.16013290530E+04  0.25500000920E-02 0. -1.
        2   -1    0    0  501    0  0.00000000000E+00  0.00000000000E+00 -0.30595487694E+03  0.30595487695E+03  0.25500000920E-02 0.  1.
    10030    2    1    2    0    0  0.00000000000E+00  0.00000000000E+00  0.12953741761E+04  0.19072839300E+04  0.13999063302E+04 0.  0.
        3    1    3    3  502    0 -0.36194538324E+03  0.55294194313E+03  0.96189104428E+03  0.11670405495E+04  0.10100000352E+00 0.  1.
       -3    1    3    3    0  502  0.36194538324E+03 -0.55294194313E+03  0.33348313180E+03  0.74024338046E+03  0.10100000352E+00 0. -1.
</event>
<event>
 5   0  0.2363419E-05  0.1400275E+04  0.7818609E-02  0.8953619E-01
        1   -1    0    0  501    0  0.00000000000E+00  0.00000000000E+00  0.17629800760E+04  0.17629800760E+04  0.50400001928E-02 0.  1.
       -1   -1    0    0    0  501  0.00000000000E+00  0.00000000000E+00 -0.27804769784E+03  0.27804769788E+03  0.50400001928E-02 0. -1.
    10030    2    1    2    0    0  0.00000000000E+00  0.00000000000E+00  0.14849323781E+04  0.20410277739E+04  0.14002750466E+04 0.  0.
        2    1    3    3  502    0 -0.26628310233E+03 -0.15964610763E+03  0.16571539312E+04  0.16859871655E+04  0.25500000920E-02 0.  1.
       -2    1    3    3    0  502  0.26628310233E+03  0.15964610763E+03 -0.17222155309E+03  0.35504060841E+03  0.25500000920E-02 0. -1.
</event>
<event>
 5   0  0.4460282E-05  0.1400138E+04  0.7818609E-02  0.8953719E-01
        2   -1    0    0  501    0  0.00000000000E+00  0.00000000000E+00  0.13607701974E+04  0.13607701974E+04  0.25500000920E-02 0.  1.
       -2   -1    0    0    0  501  0.00000000000E+00  0.00000000000E+00 -0.36016117354E+03  0.36016117354E+03  0.25500000920E-02 0. -1.
    10030    2    1    2    0    0  0.00000000000E+00  0.00000000000E+00  0.10006090239E+04  0.17209313709E+04  0.14001379807E+04 0.  0.
        1    1    3    3  502    0 -0.20080801904E+03 -0.15905151654E+03  0.13010950818E+04  0.13260730211E+04  0.50400001928E-02 0.  1.
       -1    1    3    3    0  502  0.20080801904E+03  0.15905151654E+03 -0.30048605791E+03  0.39485834985E+03  0.50400001928E-02 0. -1.
</event>
<event>
 5   0  0.4527503E-05  0.1400046E+04  0.7818609E-02  0.8953785E-01
       -2   -1    0    0    0  501  0.00000000000E+00  0.00000000000E+00  0.46017667286E+03  0.46017667287E+03  0.25500000920E-02 0. -1.
        2   -1    0    0  501    0  0.00000000000E+00  0.00000000000E+00 -0.10648788523E+04  0.10648788523E+04  0.25500000920E-02 0.  1.
    10030    2    1    2    0    0  0.00000000000E+00  0.00000000000E+00 -0.60470217947E+03  0.15250555252E+04  0.14000462953E+04 0.  0.
        4    1    3    3  502    0  0.13539745114E+03 -0.44098108414E+02  0.44423235522E+03  0.46649877949E+03  0.12699999809E+01 0. -1.
       -4    1    3    3    0  502 -0.13539745114E+03  0.44098108414E+02 -0.10489345347E+04  0.10585567457E+04  0.12699999809E+01 0.  1.
</event>
<event>
 5   0  0.2427569E-05  0.1399943E+04  0.7818609E-02  0.8953860E-01
       -1   -1    0    0    0  501  0.00000000000E+00  0.00000000000E+00  0.92869440584E+03  0.92869440585E+03  0.50400001928E-02 0. -1.
        1   -1    0    0  501    0  0.00000000000E+00  0.00000000000E+00 -0.52757964969E+03  0.52757964972E+03  0.50400001928E-02 0.  1.
    10030    2    1    2    0    0  0.00000000000E+00  0.00000000000E+00  0.40111475614E+03  0.14562740556E+04  0.13999432407E+04 0.  0.
        1    1    3    3  502    0 -0.44384455636E+03  0.17646723014E+03  0.73283157957E+03  0.87474613320E+03  0.50400001928E-02 0. -1.
       -1    1    3    3    0  502  0.44384455636E+03 -0.17646723014E+03 -0.33171682342E+03  0.58152792236E+03  0.50400001928E-02 0.  1.
</event>
<event>
 5   0  0.2363419E-05  0.1399875E+04  0.7818609E-02  0.8953909E-01
        1   -1    0    0  501    0  0.00000000000E+00  0.00000000000E+00  0.75082198644E+03  0.75082198646E+03  0.50400001928E-02 0.  1.
       -1   -1    0    0    0  501  0.00000000000E+00  0.00000000000E+00 -0.65250113850E+03  0.65250113852E+03  0.50400001928E-02 0. -1.
    10030    2    1    2    0    0  0.00000000000E+00  0.00000000000E+00  0.98320847939E+02  0.14033231250E+04  0.13998745672E+04 0.  0.
        2    1    3    3  502    0  0.26492365277E+03 -0.51716934003E+03 -0.34201044938E+03  0.67425500781E+03  0.25500000920E-02 0. -1.
       -2    1    3    3    0  502 -0.26492365277E+03  0.51716934003E+03  0.44033129732E+03  0.72906811717E+03  0.25500000920E-02 0.  1.
</event>
<event>
 5   0  0.2316714E-05  0.1399712E+04  0.7818609E-02  0.8954027E-01
       -1   -1    0    0    0  501  0.00000000000E+00  0.00000000000E+00  0.10536635024E+04  0.10536635024E+04  0.50400001928E-02 0. -1.
        1   -1    0    0  501    0  0.00000000000E+00  0.00000000000E+00 -0.46485294329E+03  0.46485294331E+03  0.50400001928E-02 0.  1.
    10030    2    1    2    0    0  0.00000000000E+00  0.00000000000E+00  0.58881055910E+03  0.15185164457E+04  0.13997122281E+04 0.  0.
        5    1    3    3  502    0 -0.61989785378E+03  0.70333037477E+02 -0.49616242079E+02  0.62586256220E+03  0.46999998093E+01 0.  1.
       -5    1    3    3    0  502  0.61989785378E+03 -0.70333037477E+02  0.63842680118E+03  0.89265388351E+03  0.46999998093E+01 0. -1.
</event>
<event>
 5   0  0.1661000E-05  0.1400272E+04  0.7818609E-02  0.8953622E-01
        3   -1    0    0  501    0  0.00000000000E+00  0.00000000000E+00  0.22629939902E+04  0.22629939925E+04  0.10100000352E+00 0.  1.
       -3   -1    0    0    0  501  0.00000000000E+00  0.00000000000E+00 -0.21661141843E+03  0.21661144198E+03  0.10100000352E+00 0. -1.
    10030    2    1    2    0    0  0.00000000000E+00  0.00000000000E+00  0.20463825718E+04  0.24796054345E+04  0.14002719309E+04 0.  0.
        4    1    3    3  502    0 -0.19755592096E+03  0.36231457378E+03  0.21648391677E+02  0.41324382396E+03  0.12699999809E+01 0. -1.
       -4    1    3    3    0  502  0.19755592096E+03 -0.36231457378E+03  0.20247341801E+04  0.20663616105E+04  0.12699999809E+01 0.  1.
</event>
<event>
 5   0  0.2467303E-05  0.1399795E+04  0.7818609E-02  0.8953967E-01
        1   -1    0    0  501    0  0.00000000000E+00  0.00000000000E+00  0.12700057291E+04  0.12700057291E+04  0.50400001928E-02 0.  1.
       -1   -1    0    0    0  501  0.00000000000E+00  0.00000000000E+00 -0.38571196560E+03  0.38571196563E+03  0.50400001928E-02 0. -1.
    10030    2    1    2    0    0  0.00000000000E+00  0.00000000000E+00  0.88429376352E+03  0.16557176948E+04  0.13997948509E+04 0.  0.
        3    1    3    3  502    0 -0.40934144297E+03  0.53512200767E+03  0.21790669433E+03  0.70809555688E+03  0.10100000352E+00 0. -1.
       -3    1    3    3    0  502  0.40934144297E+03 -0.53512200767E+03  0.66638706919E+03  0.94762213789E+03  0.10100000352E+00 0.  1.
</event>
<event>
 5   0  0.4527503E-05  0.1400706E+04  0.7818609E-02  0.8953307E-01
        2   -1    0    0  501    0  0.00000000000E+00  0.00000000000E+00  0.16567563631E+04  0.16567563631E+04  0.25500000920E-02 0.  1.
       -2   -1    0    0    0  501  0.00000000000E+00  0.00000000000E+00 -0.29605713621E+03  0.29605713622E+03  0.25500000920E-02 0. -1.
    10030    2    1    2    0    0  0.00000000000E+00  0.00000000000E+00  0.13606992268E+04  0.19528134993E+04  0.14007063136E+04 0.  0.
        4    1    3    3  502    0 -0.81550289454E+02  0.25333681895E+03 -0.22280892199E+03  0.34709569597E+03  0.12699999809E+01 0. -1.
       -4    1    3    3    0  502  0.81550289454E+02 -0.25333681895E+03  0.15835081488E+04  0.16057178033E+04  0.12699999809E+01 0.  1.
</event>
<event>
 5   0  0.2427569E-05  0.1400026E+04  0.7818609E-02  0.8953800E-01
        1   -1    0    0  501    0  0.00000000000E+00  0.00000000000E+00  0.44679181035E+03  0.44679181038E+03  0.50400001928E-02 0. -1.
       -1   -1    0    0    0  501  0.00000000000E+00  0.00000000000E+00 -0.10967485964E+04  0.10967485964E+04  0.50400001928E-02 0.  1.
    10030    2    1    2    0    0  0.00000000000E+00  0.00000000000E+00 -0.64995678602E+03  0.15435404068E+04  0.14000261296E+04 0.  0.
        1    1    3    3  502    0  0.25017704182E+03  0.19072671343E+02 -0.10454706966E+04  0.10751564056E+04  0.50400001928E-02 0.  1.
       -1    1    3    3    0  502 -0.25017704182E+03 -0.19072671343E+02  0.39551391058E+03  0.46838400115E+03  0.50400001928E-02 0. -1.
</event>
<event>
 5   0  0.4621450E-05  0.1398956E+04  0.7818609E-02  0.8954575E-01
       -2   -1    0    0    0  501  0.00000000000E+00  0.00000000000E+00  0.37667877401E+03  0.37667877401E+03  0.25500000920E-02 0.  1.
        2   -1    0    0  501    0  0.00000000000E+00  0.00000000000E+00 -0.12989038429E+04  0.12989038429E+04  0.25500000920E-02 0. -1.
    10030    2    1    2    0    0  0.00000000000E+00  0.00000000000E+00 -0.92222506887E+03  0.16755826169E+04  0.13989560495E+04 0.  0.
        5    1    3    3  502    0  0.36272087477E+02 -0.47414333403E+03 -0.10754946758E+04  0.11759415178E+04  0.46999998093E+01 0. -1.
       -5    1    3    3    0  502 -0.36272087477E+02  0.47414333403E+03  0.15326960692E+03  0.49964109913E+03  0.46999998093E+01 0.  1.
</event>
<event>
 5   0  0.4621450E-05  0.1402005E+04  0.7818609E-02  0.8952368E-01
       -2   -1    0    0    0  501  0.00000000000E+00  0.00000000000E+00  0.52691230323E+03  0.52691230323E+03  0.25500000920E-02 0.  1.
        2   -1    0    0  501    0  0.00000000000E+00  0.00000000000E+00 -0.93261203882E+03  0.93261203882E+03  0.25500000920E-02 0. -1.
    10030    2    1    2    0    0  0.00000000000E+00  0.00000000000E+00 -0.40569973559E+03  0.14595243421E+04  0.14020053600E+04 0.  0.
        5    1    3    3  502    0 -0.42972764894E+02  0.65211327167E+03  0.61095529821E+02  0.65639403667E+03  0.46999998093E+01 0.  1.
       -5    1    3    3    0  502  0.42972764894E+02 -0.65211327167E+03 -0.46679526541E+03  0.80313030538E+03  0.46999998093E+01 0. -1.
</event>
<event>
 5   0  0.4621450E-05  0.1400178E+04  0.7818609E-02  0.8953690E-01
       -2   -1    0    0    0  501  0.00000000000E+00  0.00000000000E+00  0.28028052594E+03  0.28028052595E+03  0.25500000920E-02 0.  1.
        2   -1    0    0  501    0  0.00000000000E+00  0.00000000000E+00 -0.17486921468E+04  0.17486921468E+04  0.25500000920E-02 0. -1.
    10030    2    1    2    0    0  0.00000000000E+00  0.00000000000E+00 -0.14684116208E+04  0.20289726727E+04  0.14001776382E+04 0.  0.
        5    1    3    3  502    0  0.35176082827E+03 -0.60527489683E+03 -0.72988677211E+03  0.10113605545E+04  0.46999998093E+01 0. -1.
       -5    1    3    3    0  502 -0.35176082827E+03  0.60527489683E+03 -0.73852484873E+03  0.10176121183E+04  0.46999998093E+01 0.  1.
</event>
<event>
 5   0  0.4243281E-05  0.1400675E+04  0.7818609E-02  0.8953330E-01
        2   -1    0    0  501    0  0.00000000000E+00  0.00000000000E+00  0.11025617126E+04  0.11025617126E+04  0.25500000920E-02 0.  1.
       -2   -1    0    0    0  501  0.00000000000E+00  0.00000000000E+00 -0.44484791538E+03  0.44484791538E+03  0.25500000920E-02 0. -1.
    10030    2    1    2    0    0  0.00000000000E+00  0.00000000000E+00  0.65771379722E+03  0.15474096280E+04  0.14006745224E+04 0.  0.
        2    1    3    3  502    0  0.66664839631E+03 -0.98396207334E+02  0.53954596267E+03  0.86325647623E+03  0.25500000920E-02 0.  1.
       -2    1    3    3    0  502 -0.66664839631E+03  0.98396207334E+02  0.11816783455E+03  0.68415315175E+03  0.25500000920E-02 0. -1.
</event>
<event>
 5   0  0.2428507E-05  0.1400313E+04  0.7818609E-02  0.8953592E-01
       -1   -1    0    0    0  501  0.00000000000E+00  0.00000000000E+00  0.40475528112E+03  0.40475528115E+03  0.50400001928E-02 0. -1.
        1   -1    0    0  501    0  0.00000000000E+00  0.00000000000E+00 -0.12111494312E+04  0.12111494312E+04  0.50400001928E-02 0.  1.
    10030    2    1    2    0    0  0.00000000000E+00  0.00000000000E+00 -0.80639415005E+03  0.16159047123E+04  0.14003130058E+04 0.  0.
        4    1    3    3  502    0  0.68107106711E+03  0.13812433640E+03 -0.30472850790E+03  0.75881302518E+03  0.12699999809E+01 0. -1.
       -4    1    3    3    0  502 -0.68107106711E+03 -0.13812433640E+03 -0.50166564215E+03  0.85709168715E+03  0.12699999809E+01 0.  1.
</event>
<event>
 5   0  0.4460282E-05  0.1399499E+04  0.7818609E-02  0.8954182E-01
       -2   -1    0    0    0  501  0.00000000000E+00  0.00000000000E+00  0.22037223086E+03  0.22037223088E+03  0.25500000920E-02 0. -1.
        2   -1    0    0  501    0  0.00000000000E+00  0.00000000000E+00 -0.22219184425E+04  0.22219184425E+04  0.25500000920E-02 0.  1.
    10030    2    1    2    0    0  0.00000000000E+00  0.00000000000E+00 -0.20015462117E+04  0.24422906734E+04  0.13994986588E+04 0.  0.
        1    1    3    3  502    0  0.65264139543E+02 -0.63630704926E+03 -0.50562964762E+03  0.81535722811E+03  0.50400001928E-02 0. -1.
       -1    1    3    3    0  502 -0.65264139543E+02  0.63630704926E+03 -0.14959165640E+04  0.16269334453E+04  0.50400001928E-02 0.  1.
</event>
<event>
 5   0  0.4621450E-05  0.1401456E+04  0.7818609E-02  0.8952765E-01
       -2   -1    0    0    0  501  0.00000000000E+00  0.00000000000E+00  0.32405605709E+03  0.32405605710E+03  0.25500000920E-02 0.  1.
        2   -1    0    0  501    0  0.00000000000E+00  0.00000000000E+00 -0.15152314021E+04  0.15152314021E+04  0.25500000920E-02 0. -1.
    10030    2    1    2    0    0  0.00000000000E+00  0.00000000000E+00 -0.11911753450E+04  0.18392874592E+04  0.14014562622E+04 0.  0.
        5    1    3    3  502    0 -0.52347630929E+03 -0.44485416196E+03 -0.41432680074E+03  0.80225398696E+03  0.46999998093E+01 0. -1.
       -5    1    3    3    0  502  0.52347630929E+03  0.44485416196E+03 -0.77684854425E+03  0.10370334722E+04  0.46999998093E+01 0.  1.
</event>
<event>
 5   0  0.4527503E-05  0.1399437E+04  0.7818609E-02  0.8954226E-01
        2   -1    0    0  501    0  0.00000000000E+00  0.00000000000E+00  0.64628154380E+03  0.64628154380E+03  0.25500000920E-02 0. -1.
       -2   -1    0    0    0  501  0.00000000000E+00  0.00000000000E+00 -0.75757372050E+03  0.75757372050E+03  0.25500000920E-02 0.  1.
    10030    2    1    2    0    0  0.00000000000E+00  0.00000000000E+00 -0.11129217671E+03  0.14038552643E+04  0.13994369062E+04 0.  0.
        4    1    3    3  502    0  0.35644501444E+03 -0.43853227041E+03  0.35825894747E+03  0.66911485326E+03  0.12699999809E+01 0. -1.
       -4    1    3    3    0  502 -0.35644501444E+03  0.43853227041E+03 -0.46955112418E+03  0.73474041105E+03  0.12699999809E+01 0.  1.
</event>
<event>
 5   0  0.4441253E-05  0.1399889E+04  0.7818609E-02  0.8953899E-01
        2   -1    0    0  501    0  0.00000000000E+00  0.00000000000E+00  0.96455124951E+03  0.96455124952E+03  0.25500000920E-02 0.  1.
       -2   -1    0    0    0  501  0.00000000000E+00  0.00000000000E+00 -0.50792770680E+03  0.50792770680E+03  0.25500000920E-02 0. -1.
    10030    2    1    2    0    0  0.00000000000E+00  0.00000000000E+00  0.45662354271E+03  0.14724789563E+04  0.13998890017E+04 0.  0.
        3    1    3    3  502    0  0.45338249718E+03 -0.44291903492E+01 -0.33258095895E+03  0.56230366434E+03  0.10100000352E+00 0. -1.
       -3    1    3    3    0  502 -0.45338249718E+03  0.44291903492E+01  0.78920450166E+03  0.91017529198E+03  0.10100000352E+00 0.  1.
</event>
<event>
 5   0  0.4621450E-05  0.1399764E+04  0.7818609E-02  0.8953989E-01
       -2   -1    0    0    0  501  0.00000000000E+00  0.00000000000E+00  0.10224888138E+04  0.10224888138E+04  0.25500000920E-02 0. -1.
        2   -1    0    0  501    0  0.00000000000E+00  0.00000000000E+00 -0.47906121726E+03  0.47906121727E+03  0.25500000920E-02 0.  1.
    10030    2    1    2    0    0  0.00000000000E+00  0.00000000000E+00  0.54342759651E+03  0.15015500310E+04  0.13997638883E+04 0.  0.
        5    1    3    3  502    0 -0.18999726063E+03  0.61781851904E+03 -0.16154195787E+02  0.64659239831E+03  0.46999998093E+01 0.  1.
       -5    1    3    3    0  502  0.18999726063E+03 -0.61781851904E+03  0.55958179229E+03  0.85495763274E+03  0.46999998093E+01 0. -1.
</event>
<event>
 5   0  0.2428507E-05  0.1401129E+04  0.7818609E-02  0.8953001E-01
       -1   -1    0    0    0  501  0.00000000000E+00  0.00000000000E+00  0.87990815711E+03  0.87990815712E+03  0.50400001928E-02 0.  1.
        1   -1    0    0  501    0  0.00000000000E+00  0.00000000000E+00 -0.55777512133E+03  0.55777512135E+03  0.50400001928E-02 0. -1.
    10030    2    1    2    0    0  0.00000000000E+00  0.00000000000E+00  0.32213303578E+03  0.14376832785E+04  0.14011293718E+04 0.  0.
        4    1    3    3  502    0 -0.52744678567E+03  0.25427200367E+03  0.55572397150E+03  0.80727015860E+03  0.12699999809E+01 0. -1.
       -4    1    3    3    0  502  0.52744678567E+03 -0.25427200367E+03 -0.23359093572E+03  0.63041311988E+03  0.12699999809E+01 0.  1.
</event>
<event>
 5   0  0.2467303E-05  0.1400227E+04  0.7818609E-02  0.8953654E-01
       -1   -1    0    0    0  501  0.00000000000E+00  0.00000000000E+00  0.61749362431E+03  0.61749362434E+03  0.50400001928E-02 0. -1.
        1   -1    0    0  501    0  0.00000000000E+00  0.00000000000E+00 -0.79378828747E+03  0.79378828748E+03  0.50400001928E-02 0.  1.
    10030    2    1    2    0    0  0.00000000000E+00  0.00000000000E+00 -0.17629466315E+03  0.14112819118E+04  0.14002274195E+04 0.  0.
        3    1    3    3  502    0 -0.27035045738E+02  0.69689924828E+03 -0.26346526958E+02  0.69792091646E+03  0.10100000352E+00 0. -1.
       -3    1    3    3    0  502  0.27035045738E+02 -0.69689924828E+03 -0.14994813619E+03  0.71336099536E+03  0.10100000352E+00 0.  1.
</event>
<event>
 5   0  0.2316714E-05  0.1400012E+04  0.7818609E-02  0.8953810E-01
        1   -1    0    0  501    0  0.00000000000E+00  0.00000000000E+00  0.11791418461E+04  0.11791418461E+04  0.50400001928E-02 0. -1.
       -1   -1    0    0    0  501  0.00000000000E+00  0.00000000000E+00 -0.41556366468E+03  0.41556366471E+03  0.50400001928E-02 0.  1.
    10030    2    1    2    0    0  0.00000000000E+00  0.00000000000E+00  0.76357818140E+03  0.15947055108E+04  0.14000121525E+04 0.  0.
        5    1    3    3  502    0  0.11269621383E+03  0.68864168022E+03  0.31879334854E+03  0.76718908323E+03  0.46999998093E+01 0.  1.
       -5    1    3    3    0  502 -0.11269621383E+03 -0.68864168022E+03  0.44478483285E+03  0.82751642756E+03  0.46999998093E+01 0. -1.
</event>
<event>
 5   0  0.4460282E-05  0.1400421E+04  0.7818609E-02  0.8953514E-01
        2   -1    0    0  501    0  0.00000000000E+00  0.00000000000E+00  0.55180096694E+03  0.55180096695E+03  0.25500000920E-02 0. -1.
       -2   -1    0    0    0  501  0.00000000000E+00  0.00000000000E+00 -0.88853519529E+03  0.88853519530E+03  0.25500000920E-02 0.  1.
    10030    2    1    2    0    0  0.00000000000E+00  0.00000000000E+00 -0.33673422835E+03  0.14403361622E+04  0.14004207652E+04 0.  0.
        1    1    3    3  502    0  0.54250069722E+03 -0.43971031768E+03 -0.11549758769E+03  0.70780778658E+03  0.50400001928E-02 0. -1.
       -1    1    3    3    0  502 -0.54250069722E+03  0.43971031768E+03 -0.22123664066E+03  0.73252837566E+03  0.50400001928E-02 0.  1.
</event>
<event>
 5   0  0.4621450E-05  0.1400039E+04  0.7818609E-02  0.8953790E-01
        2   -1    0    0  501    0  0.00000000000E+00  0.00000000000E+00  0.96289036571E+03  0.96289036571E+03  0.25500000920E-02 0.  1.
       -2   -1    0    0    0  501  0.00000000000E+00  0.00000000000E+00 -0.50891277316E+03  0.50891277316E+03  0.25500000920E-02 0. -1.
    10030    2    1    2    0    0  0.00000000000E+00  0.00000000000E+00  0.45397759255E+03  0.14718031389E+04  0.14000388656E+04 0.  0.
        5    1    3    3  502    0 -0.16978729839E+03  0.16280856849E+03 -0.46610154366E+03  0.52211789441E+03  0.46999998093E+01 0. -1.
       -5    1    3    3    0  502  0.16978729839E+03 -0.16280856849E+03  0.92007913621E+03  0.94968524446E+03  0.46999998093E+01 0.  1.
</event>
<event>
 5   0  0.2316714E-05  0.1399369E+04  0.7818609E-02  0.8954275E-01
        1   -1    0    0  501    0  0.00000000000E+00  0.00000000000E+00  0.89692745198E+03  0.89692745199E+03  0.50400001928E-02 0. -1.
       -1   -1    0    0    0  501  0.00000000000E+00  0.00000000000E+00 -0.54581751129E+03  0.54581751131E+03  0.50400001928E-02 0.  1.
    10030    2    1    2    0    0  0.00000000000E+00  0.00000000000E+00  0.35110994069E+03  0.14427449633E+04  0.13993694432E+04 0.  0.
        5    1    3    3  502    0  0.52403002197E+03  0.45297541931E+03  0.27731816246E+03  0.74613782082E+03  0.46999998093E+01 0. -1.
       -5    1    3    3    0  502 -0.52403002197E+03 -0.45297541931E+03  0.73791778227E+02  0.69660714248E+03  0.46999998093E+01 0.  1.
</event>
<event>
 5   0  0.2427569E-05  0.1400156E+04  0.7818609E-02  0.8953705E-01
       -1   -1    0    0    0  501  0.00000000000E+00  0.00000000000E+00  0.33613643265E+03  0.33613643269E+03  0.50400001928E-02 0.  1.
        1   -1    0    0  501    0  0.00000000000E+00  0.00000000000E+00 -0.14580668632E+04  0.14580668632E+04  0.50400001928E-02 0. -1.
    10030    2    1    2    0    0  0.00000000000E+00  0.00000000000E+00 -0.11219304306E+04  0.17942032959E+04  0.14001562684E+04 0.  0.
        1    1    3    3  502    0  0.68737924598E+03 -0.12494079127E+03 -0.61840083508E+03  0.93301662470E+03  0.50400001928E-02 0. -1.
       -1    1    3    3    0  502 -0.68737924598E+03  0.12494079127E+03 -0.50352959550E+03  0.86118667122E+03  0.50400001928E-02 0.  1.
</event>
<event>
 5   0  0.4243281E-05  0.1399508E+04  0.7818609E-02  0.8954175E-01
       -2   -1    0    0    0  501  0.00000000000E+00  0.00000000000E+00  0.46812645869E+03  0.46812645870E+03  0.25500000920E-02 0.  1.
        2   -1    0    0  501    0  0.00000000000E+00  0.00000000000E+00 -0.10459903175E+04  0.10459903175E+04  0.25500000920E-02 0. -1.
    10030    2    1    2    0    0  0.00000000000E+00  0.00000000000E+00 -0.57786385876E+03  0.15141167762E+04  0.13995081181E+04 0.  0.
        2    1    3    3  502    0  0.27362411155E+03  0.63166578595E+03 -0.15300940426E+03  0.70518344943E+03  0.25500000920E-02 0.  1.
       -2    1    3    3    0  502 -0.27362411155E+03 -0.63166578595E+03 -0.42485445450E+03  0.80893332672E+03  0.25500000920E-02 0. -1.
</event>
<event>
 5   0  0.2427569E-05  0.1400116E+04  0.7818609E-02  0.8953735E-01
        1   -1    0    0  501    0  0.00000000000E+00  0.00000000000E+00  0.34571544111E+03  0.34571544115E+03  0.50400001928E-02 0. -1.
       -1   -1    0    0    0  501  0.00000000000E+00  0.00000000000E+00 -0.14175855676E+04  0.14175855676E+04  0.50400001928E-02 0.  1.
    10030    2    1    2    0    0  0.00000000000E+00  0.00000000000E+00 -0.10718701264E+04  0.17633010087E+04  0.14001160235E+04 0.  0.
        1    1    3    3  502    0  0.16553173388E+03 -0.34991180617E+03 -0.12705445193E+04  0.13282026963E+04  0.50400001928E-02 0. -1.
       -1    1    3    3    0  502 -0.16553173388E+03  0.34991180617E+03  0.19867439286E+03  0.43509831237E+03  0.50400001928E-02 0.  1.
</event>
<event>
 5   0  0.4527503E-05  0.1399343E+04  0.7818609E-02  0.8954295E-01
        2   -1    0    0  501    0  0.00000000000E+00  0.00000000000E+00  0.18248981945E+04  0.18248981945E+04  0.25500000920E-02 0. -1.
       -2   -1    0    0    0  501  0.00000000000E+00  0.00000000000E+00 -0.26825600546E+03  0.26825600547E+03  0.25500000920E-02 0.  1.
    10030    2    1    2    0    0  0.00000000000E+00  0.00000000000E+00  0.15566421891E+04  0.20931542000E+04  0.13993425600E+04 0.  0.
        4    1    3    3  502    0 -0.63777550045E+03  0.15686205253E+03  0.11391035054E+04  0.13148846723E+04  0.12699999809E+01 0.  1.
       -4    1    3    3    0  502  0.63777550045E+03 -0.15686205253E+03  0.41753868363E+03  0.77826952769E+03  0.12699999809E+01 0. -1.
</event>
<event>
 5   0  0.4460282E-05  0.1400050E+04  0.7818609E-02  0.8953783E-01
        2   -1    0    0  501    0  0.00000000000E+00  0.00000000000E+00  0.83505071778E+03  0.83505071778E+03  0.25500000920E-02 0. -1.
       -2   -1    0    0    0  501  0.00000000000E+00  0.00000000000E+00 -0.58683244258E+03  0.58683244259E+03  0.25500000920E-02 0.  1.
    10030    2    1    2    0    0  0.00000000000E+00  0.00000000000E+00  0.24821827519E+03  0.14218831604E+04  0.14000497883E+04 0.  0.
        1    1    3    3  502    0 -0.67023138784E+03  0.84187718513E+02 -0.62432049927E+02  0.67837706778E+03  0.50400001928E-02 0.  1.
       -1    1    3    3    0  502  0.67023138784E+03 -0.84187718513E+02  0.31065032512E+03  0.74350609259E+03  0.50400001928E-02 0. -1.
</event>
<event>
 5   0  0.1661000E-05  0.1400054E+04  0.7818609E-02  0.8953779E-01
        4   -1    0    0  501    0  0.00000000000E+00  0.00000000000E+00  0.77571372361E+03  0.77571476323E+03  0.12699999809E+01 0. -1.
       -4   -1    0    0    0  501  0.00000000000E+00  0.00000000000E+00 -0.63172292739E+03  0.63172420397E+03  0.12699999809E+01 0.  1.
    10030    2    1    2    0    0  0.00000000000E+00  0.00000000000E+00  0.14399079622E+03  0.14074389672E+04  0.14000539622E+04 0.  0.
        3    1    3    3  502    0 -0.35134065642E+03 -0.45954605712E+02  0.67890643033E+03  0.76581070375E+03  0.10100000352E+00 0. -1.
       -3    1    3    3    0  502  0.35134065642E+03  0.45954605712E+02 -0.53491563411E+03  0.64162826345E+03  0.10100000352E+00 0.  1.
</event>
<event>
 5   0  0.2427569E-05  0.1399458E+04  0.7818609E-02  0.8954211E-01
        1   -1    0    0  501    0  0.00000000000E+00  0.00000000000E+00  0.85592536448E+03  0.85592536450E+03  0.50400001928E-02 0. -1.
       -1   -1    0    0    0  501  0.00000000000E+00  0.00000000000E+00 -0.57203628095E+03  0.57203628097E+03  0.50400001928E-02 0.  1.
    10030    2    1    2    0    0  0.00000000000E+00  0.00000000000E+00  0.28388908353E+03  0.14279616455E+04  0.13994575553E+04 0.  0.
        1    1    3    3  502    0 -0.24464294709E+03 -0.49778658969E+03 -0.29333383444E+03  0.62744433928E+03  0.50400001928E-02 0.  1.
       -1    1    3    3    0  502  0.24464294709E+03  0.49778658969E+03  0.57722291798E+03  0.80051730619E+03  0.50400001928E-02 0. -1.
</event>
<event>
 5   0  0.1661000E-05  0.1399285E+04  0.7818609E-02  0.8954336E-01
       -3   -1    0    0    0  501  0.00000000000E+00  0.00000000000E+00  0.49506498410E+03  0.49506499440E+03  0.10100000352E+00 0. -1.
        3   -1    0    0  501    0  0.00000000000E+00  0.00000000000E+00 -0.98875889221E+03  0.98875889737E+03  0.10100000352E+00 0.  1.
    10030    2    1    2    0    0  0.00000000000E+00  0.00000000000E+00 -0.49369390812E+03  0.14838238918E+04  0.13992854129E+04 0.  0.
        2    1    3    3  502    0 -0.24481747591E+03 -0.41164475708E+03  0.29397835877E+03  0.56196999740E+03  0.25500000920E-02 0. -1.
       -2    1    3    3    0  502  0.24481747591E+03  0.41164475708E+03 -0.78767226689E+03  0.92185389438E+03  0.25500000920E-02 0.  1.
</event>
<event>
 5   0  0.4527503E-05  0.1401152E+04  0.7818609E-02  0.8952985E-01
       -2   -1    0    0    0  501  0.00000000000E+00  0.00000000000E+00  0.71674200903E+03  0.71674200904E+03  0.25500000920E-02 0.  1.
        2   -1    0    0  501    0  0.00000000000E+00  0.00000000000E+00 -0.68477453601E+03  0.68477453601E+03  0.25500000920E-02 0. -1.
    10030    2    1    2    0    0  0.00000000000E+00  0.00000000000E+00  0.31967473027E+02  0.14015165450E+04  0.14011519214E+04 0.  0.
        4    1    3    3  502    0  0.16629059737E+03  0.44773277705E+03 -0.49668047952E+03  0.68906481121E+03  0.12699999809E+01 0. -1.
       -4    1    3    3    0  502 -0.16629059737E+03 -0.44773277705E+03  0.52864795254E+03  0.71245173384E+03  0.12699999809E+01 0.  1.
</event>
<event>
 5   0  0.2428507E-05  0.1400713E+04  0.7818609E-02  0.8953302E-01
        1   -1    0    0  501    0  0.00000000000E+00  0.00000000000E+00  0.16157643111E+04  0.16157643111E+04  0.50400001928E-02 0.  1.
       -1   -1    0    0    0  501  0.00000000000E+00  0.00000000000E+00 -0.30357120287E+03  0.30357120291E+03  0.50400001928E-02 0. -1.
    10030    2    1    2    0    0  0.00000000000E+00  0.00000000000E+00  0.13121931082E+04  0.19193355140E+04  0.14007134118E+04 0.  0.
        4    1    3    3  502    0 -0.65632628554E+03  0.13997073311E+03  0.93063337036E+03  0.11473604848E+04  0.12699999809E+01 0. -1.
       -4    1    3    3    0  502  0.65632628554E+03 -0.13997073311E+03  0.38155973787E+03  0.77197502918E+03  0.12699999809E+01 0.  1.
</event>
<event>
 5   0  0.4527503E-05  0.1389882E+04  0.7818609E-02  0.8961175E-01
        2   -1    0    0  501    0  0.00000000000E+00  0.00000000000E+00  0.17144735519E+04  0.17144735519E+04  0.25500000920E-02 0.  1.
       -2   -1    0    0    0  501  0.00000000000E+00  0.00000000000E+00 -0.28168587603E+03  0.28168587604E+03  0.25500000920E-02 0. -1.
    10030    2    1    2    0    0  0.00000000000E+00  0.00000000000E+00  0.14327876758E+04  0.19961594279E+04  0.13898819869E+04 0.  0.
        4    1    3    3  502    0  0.50935170014E+03  0.14533351074E+03  0.70291206784E+02  0.53432522908E+03  0.12699999809E+01 0. -1.
       -4    1    3    3    0  502 -0.50935170014E+03 -0.14533351074E+03  0.13624964690E+04  0.14618341988E+04  0.12699999809E+01 0.  1.
</event>
<event>
 5   0  0.2363419E-05  0.1399840E+04  0.7818609E-02  0.8953934E-01
        1   -1    0    0  501    0  0.00000000000E+00  0.00000000000E+00  0.10084718667E+04  0.10084718667E+04  0.50400001928E-02 0.  1.
       -1   -1    0    0    0  501  0.00000000000E+00  0.00000000000E+00 -0.48577286863E+03  0.48577286866E+03  0.50400001928E-02 0. -1.
    10030    2    1    2    0    0  0.00000000000E+00  0.00000000000E+00  0.52269899803E+03  0.14942447353E+04  0.13998403789E+04 0.  0.
        2    1    3    3  502    0 -0.27244253070E+03 -0.45226320109E+03  0.75181592106E+03  0.91869152318E+03  0.25500000920E-02 0.  1.
       -2    1    3    3    0  502  0.27244253070E+03  0.45226320109E+03 -0.22911692303E+03  0.57555321215E+03  0.25500000920E-02 0. -1.
</event>
<event>
 5   0  0.4460282E-05  0.1401874E+04  0.7818609E-02  0.8952463E-01
       -2   -1    0    0    0  501  0.00000000000E+00  0.00000000000E+00  0.42280297040E+03  0.42280297041E+03  0.25500000920E-02 0.  1.
        2   -1    0    0  501    0  0.00000000000E+00  0.00000000000E+00 -0.11620368311E+04  0.11620368311E+04  0.25500000920E-02 0. -1.
    10030    2    1    2    0    0  0.00000000000E+00  0.00000000000E+00 -0.73923386072E+03  0.15848398015E+04  0.14018739229E+04 0.  0.
        1    1    3    3  502    0  0.29424403173E+03  0.83131450122E+02  0.34343463745E+03  0.45982359491E+03  0.50400001928E-02 0.  1.
       -1    1    3    3    0  502 -0.29424403173E+03 -0.83131450122E+02 -0.10826684982E+04  0.11250162066E+04  0.50400001928E-02 0. -1.
</event>
<event>
 5   0  0.2467303E-05  0.1400073E+04  0.7818609E-02  0.8953766E-01
        1   -1    0    0  501    0  0.00000000000E+00  0.00000000000E+00  0.10230243540E+04  0.10230243540E+04  0.50400001928E-02 0.  1.
       -1   -1    0    0    0  501  0.00000000000E+00  0.00000000000E+00 -0.47902195566E+03  0.47902195568E+03  0.50400001928E-02 0. -1.
    10030    2    1    2    0    0  0.00000000000E+00  0.00000000000E+00  0.54400239834E+03  0.15020463097E+04  0.14000730363E+04 0.  0.
        3    1    3    3  502    0 -0.50476736181E+03  0.48457996581E+03  0.24941341986E+03  0.74284244428E+03  0.10100000352E+00 0.  1.
       -3    1    3    3    0  502  0.50476736181E+03 -0.48457996581E+03  0.29458897848E+03  0.75920386542E+03  0.10100000352E+00 0. -1.
</event>
<event>
 5   0  0.2427569E-05  0.1399402E+04  0.7818609E-02  0.8954251E-01
       -1   -1    0    0    0  501  0.00000000000E+00  0.00000000000E+00  0.54415312750E+03  0.54415312752E+03  0.50400001928E-02 0. -1.
        1   -1    0    0  501    0  0.00000000000E+00  0.00000000000E+00 -0.89971279954E+03  0.89971279955E+03  0.50400001928E-02 0.  1.
    10030    2    1    2    0    0  0.00000000000E+00  0.00000000000E+00 -0.35555967204E+03  0.14438659271E+04  0.13994020634E+04 0.  0.
        1    1    3    3  502    0  0.40572316691E+03 -0.17491272423E+03 -0.73758306455E+03  0.85978748909E+03  0.50400001928E-02 0.  1.
       -1    1    3    3    0  502 -0.40572316691E+03  0.17491272423E+03  0.38202339251E+03  0.58407843798E+03  0.50400001928E-02 0. -1.
</event>
<event>
 5   0  0.2467303E-05  0.1402277E+04  0.7818609E-02  0.8952172E-01
        1   -1    0    0  501    0  0.00000000000E+00  0.00000000000E+00  0.14547488315E+04  0.14547488315E+04  0.50400001928E-02 0.  1.
       -1   -1    0    0    0  501  0.00000000000E+00  0.00000000000E+00 -0.33792447443E+03  0.33792447447E+03  0.50400001928E-02 0. -1.
    10030    2    1    2    0    0  0.00000000000E+00  0.00000000000E+00  0.11168243571E+04  0.17926733060E+04  0.14022770545E+04 0.  0.
        3    1    3    3  502    0 -0.68404177143E+03  0.15156470720E+03  0.59248148984E+03  0.91756162275E+03  0.10100000352E+00 0.  1.
       -3    1    3    3    0  502  0.68404177143E+03 -0.15156470720E+03  0.52434286725E+03  0.87511168326E+03  0.10100000352E+00 0. -1.
</event>
<event>
 5   0  0.4441253E-05  0.1400102E+04  0.7818609E-02  0.8953745E-01
        2   -1    0    0  501    0  0.00000000000E+00  0.00000000000E+00  0.19993391494E+04  0.19993391494E+04  0.25500000920E-02 0. -1.
       -2   -1    0    0    0  501  0.00000000000E+00  0.00000000000E+00 -0.24511674949E+03  0.24511674951E+03  0.25500000920E-02 0.  1.
    10030    2    1    2    0    0  0.00000000000E+00  0.00000000000E+00  0.17542223999E+04  0.22444558989E+04  0.14001021584E+04 0.  0.
        3    1    3    3  502    0  0.54544991565E+03  0.31946391218E+03  0.39486087890E+03  0.74531062354E+03  0.10100000352E+00 0.  1.
       -3    1    3    3    0  502 -0.54544991565E+03 -0.31946391218E+03  0.13593615210E+04  0.14991452754E+04  0.10100000352E+00 0. -1.
</event>
<event>
 5   0  0.4243281E-05  0.1400197E+04  0.7818609E-02  0.8953676E-01
        2   -1    0    0  501    0  0.00000000000E+00  0.00000000000E+00  0.55013654115E+03  0.55013654116E+03  0.25500000920E-02 0. -1.
       -2   -1    0    0    0  501  0.00000000000E+00  0.00000000000E+00 -0.89093907911E+03  0.89093907911E+03  0.25500000920E-02 0.  1.
    10030    2    1    2    0    0  0.00000000000E+00  0.00000000000E+00 -0.34080253796E+03  0.14410756203E+04  0.14001973338E+04 0.  0.
        2    1    3    3  502    0  0.64694679076E+03 -0.22871636295E+03 -0.27469811426E+02  0.68673569538E+03  0.25500000920E-02 0.  1.
       -2    1    3    3    0  502 -0.64694679076E+03  0.22871636295E+03 -0.31333272653E+03  0.75433992489E+03  0.25500000920E-02 0. -1.
</event>
<event>
 5   0  0.2428507E-05  0.1397412E+04  0.7818609E-02  0.8955694E-01
        1   -1    0    0  501    0  0.00000000000E+00  0.00000000000E+00  0.55649781027E+03  0.55649781030E+03  0.50400001928E-02 0. -1.
       -1   -1    0    0    0  501  0.00000000000E+00  0.00000000000E+00 -0.87725419125E+03  0.87725419126E+03  0.50400001928E-02 0.  1.
    10030    2    1    2    0    0  0.00000000000E+00  0.00000000000E+00 -0.32075638097E+03  0.14337520016E+04  0.13974119457E+04 0.  0.
        4    1    3    3  502    0  0.23232580068E+03  0.13786623211E+03 -0.82149990409E+03  0.86478094390E+03  0.12699999809E+01 0.  1.
       -4    1    3    3    0  502 -0.23232580068E+03 -0.13786623211E+03  0.50074352311E+03  0.56897105766E+03  0.12699999809E+01 0. -1.
</event>
<event>
 5   0  0.4460282E-05  0.1399272E+04  0.7818609E-02  0.8954346E-01
        2   -1    0    0  501    0  0.00000000000E+00  0.00000000000E+00  0.11421538705E+04  0.11421538705E+04  0.25500000920E-02 0.  1.
       -2   -1    0    0    0  501  0.00000000000E+00  0.00000000000E+00 -0.42856775941E+03  0.42856775942E+03  0.25500000920E-02 0. -1.
    10030    2    1    2    0    0  0.00000000000E+00  0.00000000000E+00  0.71358611104E+03  0.15707216299E+04  0.13992717037E+04 0.  0.
        1    1    3    3  502    0  0.21532783677E+03 -0.13723728186E+03  0.10879803913E+04  0.11175426080E+04  0.50400001928E-02 0.  1.
       -1    1    3    3    0  502 -0.21532783677E+03  0.13723728186E+03 -0.37439428022E+03  0.45317902192E+03  0.50400001928E-02 0. -1.
</event>
<event>
 5   0  0.4621450E-05  0.1400183E+04  0.7818609E-02  0.8953686E-01
        2   -1    0    0  501    0  0.00000000000E+00  0.00000000000E+00  0.17125562474E+04  0.17125562474E+04  0.25500000920E-02 0. -1.
       -2   -1    0    0    0  501  0.00000000000E+00  0.00000000000E+00 -0.28619698859E+03  0.28619698861E+03  0.25500000920E-02 0.  1.
    10030    2    1    2    0    0  0.00000000000E+00  0.00000000000E+00  0.14263592588E+04  0.19987532360E+04  0.14001834748E+04 0.  0.
        5    1    3    3  502    0 -0.43322927281E+03  0.27647480291E+03  0.34586202220E+02  0.51511572957E+03  0.46999998093E+01 0.  1.
       -5    1    3    3    0  502  0.43322927281E+03 -0.27647480291E+03  0.13917730565E+04  0.14836375064E+04  0.46999998093E+01 0. -1.
</event>
<event>
 5   0  0.2428507E-05  0.1399491E+04  0.7818609E-02  0.8954187E-01
       -1   -1    0    0    0  501  0.00000000000E+00  0.00000000000E+00  0.98387749088E+03  0.98387749090E+03  0.50400001928E-02 0.  1.
        1   -1    0    0  501    0  0.00000000000E+00  0.00000000000E+00 -0.49766710875E+03  0.49766710877E+03  0.50400001928E-02 0. -1.
    10030    2    1    2    0    0  0.00000000000E+00  0.00000000000E+00  0.48621038214E+03  0.14815445997E+04  0.13994905734E+04 0.  0.
        4    1    3    3  502    0  0.41749907085E+03  0.28523529011E+03 -0.26896739912E+03  0.57272132802E+03  0.12699999809E+01 0. -1.
       -4    1    3    3    0  502 -0.41749907085E+03 -0.28523529011E+03  0.75517778126E+03  0.90882327165E+03  0.12699999809E+01 0.  1.
</event>
<event>
 5   0  0.4460282E-05  0.1400000E+04  0.7818609E-02  0.8953818E-01
        2   -1    0    0  501    0  0.00000000000E+00  0.00000000000E+00  0.77798338796E+03  0.77798338797E+03  0.25500000920E-02 0. -1.
       -2   -1    0    0    0  501  0.00000000000E+00  0.00000000000E+00 -0.62983368819E+03  0.62983368819E+03  0.25500000920E-02 0.  1.
    10030    2    1    2    0    0  0.00000000000E+00  0.00000000000E+00  0.14814969978E+03  0.14078170762E+04  0.14000002094E+04 0.  0.
        1    1    3    3  502    0  0.13599998442E+03 -0.57276783180E+03  0.45492578380E+03  0.74398686393E+03  0.50400001928E-02 0. -1.
       -1    1    3    3    0  502 -0.13599998442E+03  0.57276783180E+03 -0.30677608403E+03  0.66383021223E+03  0.50400001928E-02 0.  1.
</event>
<event>
 5   0  0.2427569E-05  0.1398536E+04  0.7818609E-02  0.8954879E-01
       -1   -1    0    0    0  501  0.00000000000E+00  0.00000000000E+00  0.12579069522E+04  0.12579069522E+04  0.50400001928E-02 0.  1.
        1   -1    0    0  501    0  0.00000000000E+00  0.00000000000E+00 -0.38872185366E+03  0.38872185370E+03  0.50400001928E-02 0. -1.
    10030    2    1    2    0    0  0.00000000000E+00  0.00000000000E+00  0.86918509857E+03  0.16466288059E+04  0.13985362666E+04 0.  0.
        1    1    3    3  502    0 -0.42370968264E+02  0.69297894743E+03  0.33636086147E+03  0.77146208571E+03  0.50400001928E-02 0.  1.
       -1    1    3    3    0  502  0.42370968264E+02 -0.69297894743E+03  0.53282423710E+03  0.87516672023E+03  0.50400001928E-02 0. -1.
</event>
<event>
 5   0  0.4460282E-05  0.1400080E+04  0.7818609E-02  0.8953760E-01
       -2   -1    0    0    0  501  0.00000000000E+00  0.00000000000E+00  0.31127878590E+03  0.31127878591E+03  0.25500000920E-02 0. -1.
        2   -1    0    0  501    0  0.00000000000E+00  0.00000000000E+00 -0.15743323452E+04  0.15743323452E+04  0.25500000920E-02 0.  1.
    10030    2    1    2    0    0  0.00000000000E+00  0.00000000000E+00 -0.12630535593E+04  0.18856111311E+04  0.14000803706E+04 0.  0.
        1    1    3    3  502    0  0.66202878633E+03  0.21062959959E+03 -0.51559878895E+03  0.86515261852E+03  0.50400001928E-02 0.  1.
       -1    1    3    3    0  502 -0.66202878633E+03 -0.21062959959E+03 -0.74745477033E+03  0.10204585126E+04  0.50400001928E-02 0. -1.
</event>
<event>
 5   0  0.2428507E-05  0.1400761E+04  0.7818609E-02  0.8953268E-01
        1   -1    0    0  501    0  0.00000000000E+00  0.00000000000E+00  0.10166717766E+04  0.10166717766E+04  0.50400001928E-02 0. -1.
       -1   -1    0    0    0  501  0.00000000000E+00  0.00000000000E+00 -0.48248899148E+03  0.48248899151E+03  0.50400001928E-02 0.  1.
    10030    2    1    2    0    0  0.00000000000E+00  0.00000000000E+00  0.53418278512E+03  0.14991607681E+04  0.14007611362E+04 0.  0.
        4    1    3    3  502    0 -0.31700452369E+03 -0.54067041312E+03 -0.67461402084E+02  0.63037212607E+03  0.12699999809E+01 0.  1.
       -4    1    3    3    0  502  0.31700452369E+03  0.54067041312E+03  0.60164418720E+03  0.86878864205E+03  0.12699999809E+01 0. -1.
</event>
<event>
 5   0  0.4243281E-05  0.1399135E+04  0.7818609E-02  0.8954445E-01
        2   -1    0    0  501    0  0.00000000000E+00  0.00000000000E+00  0.77485871392E+03  0.77485871392E+03  0.25500000920E-02 0. -1.
       -2   -1    0    0    0  501  0.00000000000E+00  0.00000000000E+00 -0.63159217668E+03  0.63159217668E+03  0.25500000920E-02 0.  1.
    10030    2    1    2    0    0  0.00000000000E+00  0.00000000000E+00  0.14326653724E+03  0.14064508906E+04  0.13991350210E+04 0.  0.
        2    1    3    3  502    0 -0.44023128175E+03  0.33412330174E+03 -0.35950649083E+03  0.65930787888E+03  0.25500000920E-02 0.  1.
       -2    1    3    3    0  502  0.44023128175E+03 -0.33412330174E+03  0.50277302807E+03  0.74714301172E+03  0.25500000920E-02 0. -1.
</event>
<event>
 5   0  0.4243281E-05  0.1399988E+04  0.7818609E-02  0.8953827E-01
       -2   -1    0    0    0  501  0.00000000000E+00  0.00000000000E+00  0.91929655772E+03  0.91929655773E+03  0.25500000920E-02 0.  1.
        2   -1    0    0  501    0  0.00000000000E+00  0.00000000000E+00 -0.53300747991E+03  0.53300747991E+03  0.25500000920E-02 0. -1.
    10030    2    1    2    0    0  0.00000000000E+00  0.00000000000E+00  0.38628907782E+03  0.14523040376E+04  0.13999884878E+04 0.  0.
        2    1    3    3  502    0 -0.56711238281E+03  0.10516858829E+03 -0.21830655687E+03  0.61671276902E+03  0.25500000920E-02 0. -1.
       -2    1    3    3    0  502  0.56711238281E+03 -0.10516858829E+03  0.60459563469E+03  0.83559126862E+03  0.25500000920E-02 0.  1.
</event>
<event>
 5   0  0.2428507E-05  0.1400173E+04  0.7818609E-02  0.8953694E-01
        1   -1    0    0  501    0  0.00000000000E+00  0.00000000000E+00  0.11801673218E+04  0.11801673218E+04  0.50400001928E-02 0.  1.
       -1   -1    0    0    0  501  0.00000000000E+00  0.00000000000E+00 -0.41529782760E+03  0.41529782763E+03  0.50400001928E-02 0. -1.
    10030    2    1    2    0    0  0.00000000000E+00  0.00000000000E+00  0.76486949421E+03  0.15954651494E+04  0.14001727393E+04 0.  0.
        4    1    3    3  502    0 -0.18628600417E+03  0.16783226208E+03  0.11272461506E+04  0.11547967962E+04  0.12699999809E+01 0.  1.
       -4    1    3    3    0  502  0.18628600417E+03 -0.16783226208E+03 -0.36237665640E+03  0.44066835324E+03  0.12699999809E+01 0. -1.
</event>
<event>
 5   0  0.2316714E-05  0.1400255E+04  0.7818609E-02  0.8953634E-01
        1   -1    0    0  501    0  0.00000000000E+00  0.00000000000E+00  0.81309474728E+03  0.81309474730E+03  0.50400001928E-02 0.  1.
       -1   -1    0    0    0  501  0.00000000000E+00  0.00000000000E+00 -0.60285523507E+03  0.60285523509E+03  0.50400001928E-02 0. -1.
    10030    2    1    2    0    0  0.00000000000E+00  0.00000000000E+00  0.21023951222E+03  0.14159499824E+04  0.14002548697E+04 0.  0.
        5    1    3    3  502    0 -0.59657042140E+03 -0.11938828591E+03  0.45542223757E+03  0.75998772028E+03  0.46999998093E+01 0.  1.
       -5    1    3    3    0  502  0.59657042140E+03  0.11938828591E+03 -0.24518272535E+03  0.65596226211E+03  0.46999998093E+01 0. -1.
</event>
<event>
 5   0  0.2363419E-05  0.1400039E+04  0.7818609E-02  0.8953791E-01
       -1   -1    0    0    0  501  0.00000000000E+00  0.00000000000E+00  0.21339371706E+04  0.21339371706E+04  0.50400001928E-02 0. -1.
        1   -1    0    0  501    0  0.00000000000E+00  0.00000000000E+00 -0.22963517038E+03  0.22963517044E+03  0.50400001928E-02 0.  1.
    10030    2    1    2    0    0  0.00000000000E+00  0.00000000000E+00  0.19043020002E+04  0.23635723411E+04  0.14000386078E+04 0.  0.
        2    1    3    3  502    0  0.63959556213E+03  0.24549625598E+03  0.70939860422E+03  0.98620346505E+03  0.25500000920E-02 0.  1.
       -2    1    3    3    0  502 -0.63959556213E+03 -0.24549625598E+03  0.11949033960E+04  0.13773688760E+04  0.25500000920E-02 0. -1.
</event>
<event>
 5   0  0.4441253E-05  0.1399898E+04  0.7818609E-02  0.8953893E-01
       -2   -1    0    0    0  501  0.00000000000E+00  0.00000000000E+00  0.60309393178E+03  0.60309393179E+03  0.25500000920E-02 0. -1.
        2   -1    0    0  501    0  0.00000000000E+00  0.00000000000E+00 -0.81235820089E+03  0.81235820089E+03  0.25500000920E-02 0.  1.
    10030    2    1    2    0    0  0.00000000000E+00  0.00000000000E+00 -0.20926426911E+03  0.14154521327E+04  0.13998975697E+04 0.  0.
        3    1    3    3  502    0 -0.60656376640E+03 -0.33922252547E+03 -0.20419457850E+02  0.69527583660E+03  0.10100000352E+00 0. -1.
       -3    1    3    3    0  502  0.60656376640E+03  0.33922252547E+03 -0.18884481126E+03  0.72017629608E+03  0.10100000352E+00 0.  1.
</event>
<event>
 5   0  0.2363419E-05  0.1400207E+04  0.7818609E-02  0.8953669E-01
        1   -1    0    0  501    0  0.00000000000E+00  0.00000000000E+00  0.15178421223E+04  0.15178421223E+04  0.50400001928E-02 0. -1.
       -1   -1    0    0    0  501  0.00000000000E+00  0.00000000000E+00 -0.32292206430E+03  0.32292206434E+03  0.50400001928E-02 0.  1.
    10030    2    1    2    0    0  0.00000000000E+00  0.00000000000E+00  0.11949200580E+04  0.18407641867E+04  0.14002067154E+04 0.  0.
        2    1    3    3  502    0 -0.45877891202E+03 -0.27288376153E+03  0.11929792932E+04  0.13069595370E+04  0.25500000920E-02 0. -1.
       -2    1    3    3    0  502  0.45877891202E+03  0.27288376153E+03  0.19407648494E+01  0.53380464966E+03  0.25500000920E-02 0.  1.
</event>
<event>
 5   0  0.2427569E-05  0.1399711E+04  0.7818609E-02  0.8954028E-01
       -1   -1    0    0    0  501  0.00000000000E+00  0.00000000000E+00  0.34941675903E+03  0.34941675907E+03  0.50400001928E-02 0.  1.
        1   -1    0    0  501    0  0.00000000000E+00  0.00000000000E+00 -0.14017574541E+04  0.14017574541E+04  0.50400001928E-02 0. -1.
    10030    2    1    2    0    0  0.00000000000E+00  0.00000000000E+00 -0.10523406950E+04  0.17511742132E+04  0.13997107510E+04 0.  0.
        1    1    3    3  502    0  0.38030599311E+03 -0.37391265514E+03 -0.10931178883E+04  0.12162853447E+04  0.50400001928E-02 0. -1.
       -1    1    3    3    0  502 -0.38030599311E+03  0.37391265514E+03  0.40777193229E+02  0.53488886844E+03  0.50400001928E-02 0.  1.
</event>
<event>
 5   0  0.4460282E-05  0.1400177E+04  0.7818609E-02  0.8953691E-01
       -2   -1    0    0    0  501  0.00000000000E+00  0.00000000000E+00  0.60653845609E+03  0.60653845610E+03  0.25500000920E-02 0. -1.
        2   -1    0    0  501    0  0.00000000000E+00  0.00000000000E+00 -0.80806713901E+03  0.80806713901E+03  0.25500000920E-02 0.  1.
    10030    2    1    2    0    0  0.00000000000E+00  0.00000000000E+00 -0.20152868292E+03  0.14146055951E+04  0.14001768387E+04 0.  0.
        1    1    3    3  502    0 -0.18451982231E+03 -0.10889910118E+03 -0.77412877707E+03  0.80323218473E+03  0.50400001928E-02 0.  1.
       -1    1    3    3    0  502  0.18451982231E+03  0.10889910118E+03  0.57260009416E+03  0.61137341038E+03  0.50400001928E-02 0. -1.
</event>
<event>
 5   0  0.2316714E-05  0.1399850E+04  0.7818609E-02  0.8953927E-01
        1   -1    0    0  501    0  0.00000000000E+00  0.00000000000E+00  0.21873514212E+04  0.21873514212E+04  0.50400001928E-02 0. -1.
       -1   -1    0    0    0  501  0.00000000000E+00  0.00000000000E+00 -0.22396727042E+03  0.22396727048E+03  0.50400001928E-02 0.  1.
    10030    2    1    2    0    0  0.00000000000E+00  0.00000000000E+00  0.19633841507E+04  0.24113186916E+04  0.13998501739E+04 0.  0.
        5    1    3    3  502    0  0.47655675373E+03 -0.41280830977E+03  0.45820542870E+03  0.77941731122E+03  0.46999998093E+01 0.  1.
       -5    1    3    3    0  502 -0.47655675373E+03  0.41280830977E+03  0.15051787220E+04  0.16319013804E+04  0.46999998093E+01 0. -1.
</event>
<event>
 5   0  0.2316714E-05  0.1399976E+04  0.7818609E-02  0.8953836E-01
       -1   -1    0    0    0  501  0.00000000000E+00  0.00000000000E+00  0.32364426268E+03  0.32364426272E+03  0.50400001928E-02 0. -1.
        1   -1    0    0  501    0  0.00000000000E+00  0.00000000000E+00 -0.15139561271E+04  0.15139561271E+04  0.50400001928E-02 0.  1.
    10030    2    1    2    0    0  0.00000000000E+00  0.00000000000E+00 -0.11903118644E+04  0.18376003898E+04  0.13999760205E+04 0.  0.
        5    1    3    3  502    0 -0.17576765612E+03  0.10315588285E+02 -0.14843941222E+04  0.14948072385E+04  0.46999998093E+01 0.  1.
       -5    1    3    3    0  502  0.17576765612E+03 -0.10315588285E+02  0.29408225773E+03  0.34279315135E+03  0.46999998093E+01 0. -1.
</event>
<event>
 5   0  0.4243281E-05  0.1399106E+04  0.7818609E-02  0.8954466E-01
       -2   -1    0    0    0  501  0.00000000000E+00  0.00000000000E+00  0.63498490607E+03  0.63498490608E+03  0.25500000920E-02 0.  1.
        2   -1    0    0  501    0  0.00000000000E+00  0.00000000000E+00 -0.77068658292E+03  0.77068658293E+03  0.25500000920E-02 0. -1.
    10030    2    1    2    0    0  0.00000000000E+00  0.00000000000E+00 -0.13570167685E+03  0.14056714890E+04  0.13991059252E+04 0.  0.
        2    1    3    3  502    0 -0.69122663793E+03 -0.74795744624E+02 -0.14558106869E+03  0.71033971870E+03  0.25500000920E-02 0. -1.
       -2    1    3    3    0  502  0.69122663793E+03  0.74795744624E+02  0.98793918374E+01  0.69533177030E+03  0.25500000920E-02 0.  1.
</event>
<event>
 5   0  0.4243281E-05  0.1399461E+04  0.7818609E-02  0.8954209E-01
        2   -1    0    0  501    0  0.00000000000E+00  0.00000000000E+00  0.10682646695E+04  0.10682646695E+04  0.25500000920E-02 0. -1.
       -2   -1    0    0    0  501  0.00000000000E+00  0.00000000000E+00 -0.45833465136E+03  0.45833465137E+03  0.25500000920E-02 0.  1.
    10030    2    1    2    0    0  0.00000000000E+00  0.00000000000E+00  0.60993001816E+03  0.15265993209E+04  0.13994609175E+04 0.  0.
        2    1    3    3  502    0 -0.30644831842E+03  0.59378041351E+03  0.53152805571E+03  0.85381955081E+03  0.25500000920E-02 0. -1.
       -2    1    3    3    0  502  0.30644831842E+03 -0.59378041351E+03  0.78401962454E+02  0.67277977009E+03  0.25500000920E-02 0.  1.
</event>
<event>
 5   0  0.2467303E-05  0.1399967E+04  0.7818609E-02  0.8953843E-01
        1   -1    0    0  501    0  0.00000000000E+00  0.00000000000E+00  0.75213572522E+03  0.75213572524E+03  0.50400001928E-02 0.  1.
       -1   -1    0    0    0  501  0.00000000000E+00  0.00000000000E+00 -0.65144702046E+03  0.65144702048E+03  0.50400001928E-02 0. -1.
    10030    2    1    2    0    0  0.00000000000E+00  0.00000000000E+00  0.10068870476E+03  0.14035827457E+04  0.13999665385E+04 0.  0.
        3    1    3    3  502    0 -0.34722714935E+03 -0.17614727879E+03  0.63355305812E+03  0.74362896980E+03  0.10100000352E+00 0. -1.
       -3    1    3    3    0  502  0.34722714935E+03  0.17614727879E+03 -0.53286435336E+03  0.65995377592E+03  0.10100000352E+00 0.  1.
</event>
<event>
 5   0  0.4621450E-05  0.1399698E+04  0.7818609E-02  0.8954037E-01
        2   -1    0    0  501    0  0.00000000000E+00  0.00000000000E+00  0.60272136032E+03  0.60272136032E+03  0.25500000920E-02 0.  1.
       -2   -1    0    0    0  501  0.00000000000E+00  0.00000000000E+00 -0.81262860489E+03  0.81262860489E+03  0.25500000920E-02 0. -1.
    10030    2    1    2    0    0  0.00000000000E+00  0.00000000000E+00 -0.20990724457E+03  0.14153499652E+04  0.13996979934E+04 0.  0.
        5    1    3    3  502    0 -0.28062025575E+02  0.17311028620E+02  0.60191955971E+03  0.60284027350E+03  0.46999998093E+01 0.  1.
       -5    1    3    3    0  502  0.28062025575E+02 -0.17311028620E+02 -0.81182680428E+03  0.81250969172E+03  0.46999998093E+01 0. -1.
</event>
<event>
 5   0  0.2428507E-05  0.1399923E+04  0.7818609E-02  0.8953874E-01
       -1   -1    0    0    0  501  0.00000000000E+00  0.00000000000E+00  0.64151878993E+03  0.64151878995E+03  0.50400001928E-02 0. -1.
        1   -1    0    0  501    0  0.00000000000E+00  0.00000000000E+00 -0.76372870824E+03  0.76372870826E+03  0.50400001928E-02 0.  1.
    10030    2    1    2    0    0  0.00000000000E+00  0.00000000000E+00 -0.12220991831E+03  0.14052474982E+04  0.13999233076E+04 0.  0.
        4    1    3    3  502    0  0.20931049343E+02  0.33488441076E+03  0.55552688374E+03  0.64899723332E+03  0.12699999809E+01 0. -1.
       -4    1    3    3    0  502 -0.20931049343E+02 -0.33488441076E+03 -0.67773680205E+03  0.75625026489E+03  0.12699999809E+01 0.  1.
</event>
<event>
 5   0  0.4243281E-05  0.1399327E+04  0.7818609E-02  0.8954306E-01
       -2   -1    0    0    0  501  0.00000000000E+00  0.00000000000E+00  0.26416402675E+03  0.26416402676E+03  0.25500000920E-02 0. -1.
        2   -1    0    0  501    0  0.00000000000E+00  0.00000000000E+00 -0.18531255020E+04  0.18531255020E+04  0.25500000920E-02 0.  1.
    10030    2    1    2    0    0  0.00000000000E+00  0.00000000000E+00 -0.15889614753E+04  0.21172895288E+04  0.13993271164E+04 0.  0.
        2    1    3    3  502    0 -0.38927140863E+03 -0.55453292623E+03 -0.10586853625E+04  0.12569223097E+04  0.25500000920E-02 0.  1.
       -2    1    3    3    0  502  0.38927140863E+03  0.55453292623E+03 -0.53027611273E+03  0.86036721903E+03  0.25500000920E-02 0. -1.
</event>
<event>
 5   0  0.2316714E-05  0.1400416E+04  0.7818609E-02  0.8953517E-01
       -1   -1    0    0    0  501  0.00000000000E+00  0.00000000000E+00  0.11345242855E+04  0.11345242855E+04  0.50400001928E-02 0. -1.
        1   -1    0    0  501    0  0.00000000000E+00  0.00000000000E+00 -0.43215581717E+03  0.43215581720E+03  0.50400001928E-02 0.  1.
    10030    2    1    2    0    0  0.00000000000E+00  0.00000000000E+00  0.70236846832E+03  0.15666801027E+04  0.14004160378E+04 0.  0.
        5    1    3    3  502    0  0.23030664132E+03 -0.37324098976E+03  0.96180630032E+03  0.10570919708E+04  0.46999998093E+01 0. -1.
       -5    1    3    3    0  502 -0.23030664132E+03  0.37324098976E+03 -0.25943783199E+03  0.50958813187E+03  0.46999998093E+01 0.  1.
</event>
<event>
 5   0  0.2316714E-05  0.1400816E+04  0.7818609E-02  0.8953228E-01
        1   -1    0    0  501    0  0.00000000000E+00  0.00000000000E+00  0.17021622658E+04  0.17021622658E+04  0.50400001928E-02 0.  1.
       -1   -1    0    0    0  501  0.00000000000E+00  0.00000000000E+00 -0.28820486179E+03  0.28820486183E+03  0.50400001928E-02 0. -1.
    10030    2    1    2    0    0  0.00000000000E+00  0.00000000000E+00  0.14139574040E+04  0.19903671277E+04  0.14008161059E+04 0.  0.
        5    1    3    3  502    0  0.43243717918E+03  0.34451895213E+03  0.96083602967E+02  0.56120350237E+03  0.46999998093E+01 0. -1.
       -5    1    3    3    0  502 -0.43243717918E+03 -0.34451895213E+03  0.13178738011E+04  0.14291636253E+04  0.46999998093E+01 0.  1.
</event>
<event>
 5   0  0.2363419E-05  0.1400389E+04  0.7818609E-02  0.8953537E-01
        1   -1    0    0  501    0  0.00000000000E+00  0.00000000000E+00  0.88211734226E+03  0.88211734227E+03  0.50400001928E-02 0.  1.
       -1   -1    0    0    0  501  0.00000000000E+00  0.00000000000E+00 -0.55579038795E+03  0.55579038797E+03  0.50400001928E-02 0. -1.
    10030    2    1    2    0    0  0.00000000000E+00  0.00000000000E+00  0.32632695431E+03  0.14379077302E+04  0.14003890030E+04 0.  0.
        2    1    3    3  502    0  0.28027720881E+03  0.57003836193E+03  0.46562864209E+03  0.78759702906E+03  0.25500000920E-02 0. -1.
       -2    1    3    3    0  502 -0.28027720881E+03 -0.57003836193E+03 -0.13930168778E+03  0.65031070118E+03  0.25500000920E-02 0.  1.
</event>
<event>
 5   0  0.2316714E-05  0.1395958E+04  0.7818609E-02  0.8956750E-01
        1   -1    0    0  501    0  0.00000000000E+00  0.00000000000E+00  0.46684651346E+03  0.46684651349E+03  0.50400001928E-02 0. -1.
       -1   -1    0    0    0  501  0.00000000000E+00  0.00000000000E+00 -0.10435434953E+04  0.10435434953E+04  0.50400001928E-02 0.  1.
    10030    2    1    2    0    0  0.00000000000E+00  0.00000000000E+00 -0.57669698187E+03  0.15103900088E+04  0.13959579399E+04 0.  0.
        5    1    3    3  502    0 -0.25058457246E+03 -0.48562879319E+03 -0.75813526360E+03  0.93456894911E+03  0.46999998093E+01 0.  1.
       -5    1    3    3    0  502  0.25058457246E+03  0.48562879319E+03  0.18143828174E+03  0.57582105971E+03  0.46999998093E+01 0. -1.
</event>
<event>
 5   0  0.4243281E-05  0.1399793E+04  0.7818609E-02  0.8953968E-01
       -2   -1    0    0    0  501  0.00000000000E+00  0.00000000000E+00  0.38517202835E+03  0.38517202835E+03  0.25500000920E-02 0.  1.
        2   -1    0    0  501    0  0.00000000000E+00  0.00000000000E+00 -0.12717830867E+04  0.12717830867E+04  0.25500000920E-02 0. -1.
    10030    2    1    2    0    0  0.00000000000E+00  0.00000000000E+00 -0.88661105833E+03  0.16569551150E+04  0.13997932292E+04 0.  0.
        2    1    3    3  502    0  0.40417573456E+03 -0.13033404425E+03 -0.11018489225E+04  0.11808539434E+04  0.25500000920E-02 0. -1.
       -2    1    3    3    0  502 -0.40417573456E+03  0.13033404425E+03  0.21523786417E+03  0.47610117168E+03  0.25500000920E-02 0.  1.
</event>
<event>
 5   0  0.4243281E-05  0.1400229E+04  0.7818609E-02  0.8953653E-01
       -2   -1    0    0    0  501  0.00000000000E+00  0.00000000000E+00  0.41706736821E+03  0.41706736821E+03  0.25500000920E-02 0.  1.
        2   -1    0    0  501    0  0.00000000000E+00  0.00000000000E+00 -0.11752538017E+04  0.11752538017E+04  0.25500000920E-02 0. -1.
    10030    2    1    2    0    0  0.00000000000E+00  0.00000000000E+00 -0.75818643347E+03  0.15923211699E+04  0.14002285671E+04 0.  0.
        2    1    3    3  502    0  0.35157756723E+03  0.54940594685E+02  0.30656029392E+03  0.46968549960E+03  0.25500000920E-02 0.  1.
       -2    1    3    3    0  502 -0.35157756723E+03 -0.54940594685E+02 -0.10647467274E+04  0.11226356703E+04  0.25500000920E-02 0. -1.
</event>
<event>
 5   0  0.2428507E-05  0.1400263E+04  0.7818609E-02  0.8953628E-01
        1   -1    0    0  501    0  0.00000000000E+00  0.00000000000E+00  0.58796696892E+03  0.58796696894E+03  0.50400001928E-02 0.  1.
       -1   -1    0    0    0  501  0.00000000000E+00  0.00000000000E+00 -0.83369388140E+03  0.83369388142E+03  0.50400001928E-02 0. -1.
    10030    2    1    2    0    0  0.00000000000E+00  0.00000000000E+00 -0.24572691249E+03  0.14216608504E+04  0.14002634959E+04 0.  0.
        4    1    3    3  502    0 -0.51690970730E+03 -0.30199523710E+03 -0.49143432946E+03  0.77453604293E+03  0.12699999809E+01 0. -1.
       -4    1    3    3    0  502  0.51690970730E+03  0.30199523710E+03  0.24570741698E+03  0.64712480742E+03  0.12699999809E+01 0.  1.
</event>
<event>
 5   0  0.4527503E-05  0.1399909E+04  0.7818609E-02  0.8953884E-01
       -2   -1    0    0    0  501  0.00000000000E+00  0.00000000000E+00  0.71418604728E+03  0.71418604728E+03  0.25500000920E-02 0. -1.
        2   -1    0    0  501    0  0.00000000000E+00  0.00000000000E+00 -0.68600644994E+03  0.68600644995E+03  0.25500000920E-02 0.  1.
    10030    2    1    2    0    0  0.00000000000E+00  0.00000000000E+00  0.28179597335E+02  0.14001924972E+04  0.13999089040E+04 0.  0.
        4    1    3    3  502    0 -0.54433985712E+03 -0.42691637280E+03 -0.92567410113E+02  0.69794971719E+03  0.12699999809E+01 0.  1.
       -4    1    3    3    0  502  0.54433985712E+03  0.42691637280E+03  0.12074700745E+03  0.70224278004E+03  0.12699999809E+01 0. -1.
</event>
<event>
 5   0  0.1661000E-05  0.1399983E+04  0.7818609E-02  0.8953831E-01
        3   -1    0    0  501    0  0.00000000000E+00  0.00000000000E+00  0.30416775879E+03  0.30416777555E+03  0.10100000352E+00 0. -1.
       -3   -1    0    0    0  501  0.00000000000E+00  0.00000000000E+00 -0.16109134934E+04  0.16109134965E+04  0.10100000352E+00 0.  1.
    10030    2    1    2    0    0  0.00000000000E+00  0.00000000000E+00 -0.13067457346E+04  0.19150812721E+04  0.13999828084E+04 0.  0.
        2    1    3    3  502    0  0.41826153172E+03  0.55842764834E+03 -0.73080094311E+03  0.10103732804E+04  0.25500000920E-02 0. -1.
       -2    1    3    3    0  502 -0.41826153172E+03 -0.55842764834E+03 -0.57594479147E+03  0.90470799166E+03  0.25500000920E-02 0.  1.
</event>
<event>
 5   0  0.2316714E-05  0.1399762E+04  0.7818609E-02  0.8953991E-01
        1   -1    0    0  501    0  0.00000000000E+00  0.00000000000E+00  0.21277800233E+04  0.21277800234E+04  0.50400001928E-02 0. -1.
       -1   -1    0    0    0  501  0.00000000000E+00  0.00000000000E+00 -0.23020863743E+03  0.23020863748E+03  0.50400001928E-02 0.  1.
    10030    2    1    2    0    0  0.00000000000E+00  0.00000000000E+00  0.18975713859E+04  0.23579886608E+04  0.13997618940E+04 0.  0.
        5    1    3    3  502    0 -0.39753959769E+02 -0.40210905040E+03  0.19114063956E+04  0.19536551806E+04  0.46999998093E+01 0. -1.
       -5    1    3    3    0  502  0.39753959769E+02  0.40210905040E+03 -0.13835009657E+02  0.40433348021E+03  0.46999998093E+01 0.  1.
</event>
<event>
 5   0  0.2467303E-05  0.1399715E+04  0.7818609E-02  0.8954025E-01
       -1   -1    0    0    0  501  0.00000000000E+00  0.00000000000E+00  0.49564761071E+03  0.49564761074E+03  0.50400001928E-02 0. -1.
        1   -1    0    0  501    0  0.00000000000E+00  0.00000000000E+00 -0.98820334803E+03  0.98820334804E+03  0.50400001928E-02 0.  1.
    10030    2    1    2    0    0  0.00000000000E+00  0.00000000000E+00 -0.49255573732E+03  0.14838509588E+04  0.13997151544E+04 0.  0.
        3    1    3    3  502    0  0.23252350263E+03 -0.64903226729E+03 -0.11866539546E+03  0.69956525752E+03  0.10100000352E+00 0. -1.
       -3    1    3    3    0  502 -0.23252350263E+03  0.64903226729E+03 -0.37389034186E+03  0.78428570126E+03  0.10100000352E+00 0.  1.
</event>
<event>
 5   0  0.4243281E-05  0.1400422E+04  0.7818609E-02  0.8953513E-01
        2   -1    0    0  501    0  0.00000000000E+00  0.00000000000E+00  0.89138016339E+03  0.89138016339E+03  0.25500000920E-02 0.  1.
       -2   -1    0    0    0  501  0.00000000000E+00  0.00000000000E+00 -0.55004115001E+03  0.55004115002E+03  0.25500000920E-02 0. -1.
    10030    2    1    2    0    0  0.00000000000E+00  0.00000000000E+00  0.34133901338E+03  0.14414213134E+04  0.14004224651E+04 0.  0.
        2    1    3    3  502    0 -0.41004591202E+03  0.50178908078E+03  0.44370103773E+03  0.78536650199E+03  0.25500000920E-02 0. -1.
       -2    1    3    3    0  502  0.41004591202E+03 -0.50178908078E+03 -0.10236202435E+03  0.65605481142E+03  0.25500000920E-02 0.  1.
</event>
<event>
 5   0  0.2427569E-05  0.1400334E+04  0.7818609E-02  0.8953577E-01
        1   -1    0    0  501    0  0.00000000000E+00  0.00000000000E+00  0.19058913733E+04  0.19058913733E+04  0.50400001928E-02 0.  1.
       -1   -1    0    0    0  501  0.00000000000E+00  0.00000000000E+00 -0.25722013868E+03  0.25722013873E+03  0.50400001928E-02 0. -1.
    10030    2    1    2    0    0  0.00000000000E+00  0.00000000000E+00  0.16486712346E+04  0.21631115120E+04  0.14003337365E+04 0.  0.
        1    1    3    3  502    0  0.66586351292E+02  0.63785755718E+03  0.12583353082E+04  0.14123398151E+04  0.50400001928E-02 0.  1.
       -1    1    3    3    0  502 -0.66586351292E+02 -0.63785755718E+03  0.39033592641E+03  0.75077169692E+03  0.50400001928E-02 0. -1.
</event>
<event>
 5   0  0.4243281E-05  0.1400190E+04  0.7818609E-02  0.8953681E-01
       -2   -1    0    0    0  501  0.00000000000E+00  0.00000000000E+00  0.24619469875E+03  0.24619469876E+03  0.25500000920E-02 0.  1.
        2   -1    0    0  501    0  0.00000000000E+00  0.00000000000E+00 -0.19908347041E+04  0.19908347041E+04  0.25500000920E-02 0. -1.
    10030    2    1    2    0    0  0.00000000000E+00  0.00000000000E+00 -0.17446400054E+04  0.22370294029E+04  0.14001899161E+04 0.  0.
        2    1    3    3  502    0 -0.40682483997E+03  0.46715923815E+03 -0.35120618154E+03  0.71210251099E+03  0.25500000920E-02 0.  1.
       -2    1    3    3    0  502  0.40682483997E+03 -0.46715923815E+03 -0.13934338238E+04  0.15249268919E+04  0.25500000920E-02 0. -1.
</event>
<event>
 5   0  0.4243281E-05  0.1399278E+04  0.7818609E-02  0.8954341E-01
        2   -1    0    0  501    0  0.00000000000E+00  0.00000000000E+00  0.19087448721E+04  0.19087448721E+04  0.25500000920E-02 0.  1.
       -2   -1    0    0    0  501  0.00000000000E+00  0.00000000000E+00 -0.25644842410E+03  0.25644842411E+03  0.25500000920E-02 0. -1.
    10030    2    1    2    0    0  0.00000000000E+00  0.00000000000E+00  0.16522964480E+04  0.21651932962E+04  0.13992778344E+04 0.  0.
        2    1    3    3  502    0  0.50500604013E+03  0.12743967683E+03  0.15489889685E+04  0.16342089206E+04  0.25500000920E-02 0.  1.
       -2    1    3    3    0  502 -0.50500604013E+03 -0.12743967683E+03  0.10330747954E+03  0.53098437560E+03  0.25500000920E-02 0. -1.
</event>
<event>
 5   0  0.2467303E-05  0.1399602E+04  0.7818609E-02  0.8954107E-01
        1   -1    0    0  501    0  0.00000000000E+00  0.00000000000E+00  0.63867047471E+03  0.63867047473E+03  0.50400001928E-02 0. -1.
       -1   -1    0    0    0  501  0.00000000000E+00  0.00000000000E+00 -0.76678237356E+03  0.76678237357E+03  0.50400001928E-02 0.  1.
    10030    2    1    2    0    0  0.00000000000E+00  0.00000000000E+00 -0.12811189885E+03  0.14054528483E+04  0.13996017470E+04 0.  0.
        3    1    3    3  502    0  0.17244077193E+03  0.67391820789E+03  0.12549808901E+02  0.69574354374E+03  0.10100000352E+00 0.  1.
       -3    1    3    3    0  502 -0.17244077193E+03 -0.67391820789E+03 -0.14066170775E+03  0.70970930456E+03  0.10100000352E+00 0. -1.
</event>
<event>
 5   0  0.2427569E-05  0.1399340E+04  0.7818609E-02  0.8954297E-01
        1   -1    0    0  501    0  0.00000000000E+00  0.00000000000E+00  0.94122519867E+03  0.94122519869E+03  0.50400001928E-02 0. -1.
       -1   -1    0    0    0  501  0.00000000000E+00  0.00000000000E+00 -0.52010704806E+03  0.52010704809E+03  0.50400001928E-02 0.  1.
    10030    2    1    2    0    0  0.00000000000E+00  0.00000000000E+00  0.42111815061E+03  0.14613322468E+04  0.13993396438E+04 0.  0.
        1    1    3    3  502    0 -0.13730207335E+03 -0.21612056180E+03 -0.46942296318E+03  0.53471289021E+03  0.50400001928E-02 0.  1.
       -1    1    3    3    0  502  0.13730207335E+03  0.21612056180E+03  0.89054111379E+03  0.92661935656E+03  0.50400001928E-02 0. -1.
</event>
<event>
 5   0  0.2467303E-05  0.1400782E+04  0.7818609E-02  0.8953253E-01
        1   -1    0    0  501    0  0.00000000000E+00  0.00000000000E+00  0.19005645964E+04  0.19005645964E+04  0.50400001928E-02 0. -1.
       -1   -1    0    0    0  501  0.00000000000E+00  0.00000000000E+00 -0.25810620106E+03  0.25810620111E+03  0.50400001928E-02 0.  1.
    10030    2    1    2    0    0  0.00000000000E+00  0.00000000000E+00  0.16424583954E+04  0.21586707975E+04  0.14007819358E+04 0.  0.
        3    1    3    3  502    0 -0.59270685513E+02 -0.58003355138E+03  0.22320057322E+03  0.62431597847E+03  0.10100000352E+00 0.  1.
       -3    1    3    3    0  502  0.59270685513E+02  0.58003355138E+03  0.14192578221E+04  0.15343548191E+04  0.10100000352E+00 0. -1.
</event>
<event>
 5   0  0.1661000E-05  0.1400060E+04  0.7818609E-02  0.8953775E-01
        3   -1    0    0  501    0  0.00000000000E+00  0.00000000000E+00  0.11906580358E+04  0.11906580401E+04  0.10100000352E+00 0.  1.
       -3   -1    0    0    0  501  0.00000000000E+00  0.00000000000E+00 -0.41157257045E+03  0.41157258284E+03  0.10100000352E+00 0. -1.
    10030    2    1    2    0    0  0.00000000000E+00  0.00000000000E+00  0.77908546539E+03  0.16022306230E+04  0.14000602868E+04 0.  0.
        2    1    3    3  502    0 -0.26884464069E+03 -0.29573685057E+03 -0.26816889625E+03  0.48130269326E+03  0.25500000920E-02 0. -1.
       -2    1    3    3    0  502  0.26884464069E+03  0.29573685057E+03  0.10472543616E+04  0.11209279297E+04  0.25500000920E-02 0.  1.
</event>
<event>
 5   0  0.2428507E-05  0.1400641E+04  0.7818609E-02  0.8953355E-01
       -1   -1    0    0    0  501  0.00000000000E+00  0.00000000000E+00  0.58148928790E+03  0.58148928792E+03  0.50400001928E-02 0.  1.
        1   -1    0    0  501    0  0.00000000000E+00  0.00000000000E+00 -0.84343509222E+03  0.84343509223E+03  0.50400001928E-02 0. -1.
    10030    2    1    2    0    0  0.00000000000E+00  0.00000000000E+00 -0.26194580432E+03  0.14249243802E+04  0.14006405266E+04 0.  0.
        4    1    3    3  502    0  0.56301933119E+03 -0.16839749773E+03  0.25654913230E+03  0.64122348266E+03  0.12699999809E+01 0.  1.
       -4    1    3    3    0  502 -0.56301933119E+03  0.16839749773E+03 -0.51849493662E+03  0.78370089749E+03  0.12699999809E+01 0. -1.
</event>
<event>
 5   0  0.2428507E-05  0.1399732E+04  0.7818609E-02  0.8954012E-01
       -1   -1    0    0    0  501  0.00000000000E+00  0.00000000000E+00  0.51260954043E+03  0.51260954046E+03  0.50400001928E-02 0. -1.
        1   -1    0    0  501    0  0.00000000000E+00  0.00000000000E+00 -0.95552794465E+03  0.95552794466E+03  0.50400001928E-02 0.  1.
    10030    2    1    2    0    0  0.00000000000E+00  0.00000000000E+00 -0.44291840422E+03  0.14681374851E+04  0.13997324610E+04 0.  0.
        4    1    3    3  502    0 -0.24603855881E+03 -0.21303015277E+03  0.42841235582E+03  0.53801076005E+03  0.12699999809E+01 0. -1.
       -4    1    3    3    0  502  0.24603855881E+03  0.21303015277E+03 -0.87133076003E+03  0.93012672507E+03  0.12699999809E+01 0.  1.
</event>
<event>
 5   0  0.4460282E-05  0.1401036E+04  0.7818609E-02  0.8953069E-01
       -2   -1    0    0    0  501  0.00000000000E+00  0.00000000000E+00  0.65860572608E+03  0.65860572608E+03  0.25500000920E-02 0. -1.
        2   -1    0    0  501    0  0.00000000000E+00  0.00000000000E+00 -0.74509764925E+03  0.74509764925E+03  0.25500000920E-02 0.  1.
    10030    2    1    2    0    0  0.00000000000E+00  0.00000000000E+00 -0.86491923172E+02  0.14037033753E+04  0.14010361570E+04 0.  0.
        1    1    3    3  502    0 -0.24889742126E+02  0.46180401321E+03  0.48391455884E+03  0.66936966331E+03  0.50400001928E-02 0. -1.
       -1    1    3    3    0  502  0.24889742126E+02 -0.46180401321E+03 -0.57040648201E+03  0.73433371203E+03  0.50400001928E-02 0.  1.
</event>
<event>
 5   0  0.4441253E-05  0.1400241E+04  0.7818609E-02  0.8953644E-01
       -2   -1    0    0    0  501  0.00000000000E+00  0.00000000000E+00  0.34424402618E+03  0.34424402619E+03  0.25500000920E-02 0. -1.
        2   -1    0    0  501    0  0.00000000000E+00  0.00000000000E+00 -0.14238998154E+04  0.14238998154E+04  0.25500000920E-02 0.  1.
    10030    2    1    2    0    0  0.00000000000E+00  0.00000000000E+00 -0.10796557892E+04  0.17681438416E+04  0.14002414154E+04 0.  0.
        3    1    3    3  502    0  0.55078806430E+03 -0.42917737791E+03 -0.60431782642E+03  0.92345046376E+03  0.10100000352E+00 0.  1.
       -3    1    3    3    0  502 -0.55078806430E+03  0.42917737791E+03 -0.47533796279E+03  0.84469337783E+03  0.10100000352E+00 0. -1.
</event>
<event>
 5   0  0.2316714E-05  0.1400363E+04  0.7818609E-02  0.8953556E-01
        1   -1    0    0  501    0  0.00000000000E+00  0.00000000000E+00  0.63831661476E+03  0.63831661478E+03  0.50400001928E-02 0. -1.
       -1   -1    0    0    0  501  0.00000000000E+00  0.00000000000E+00 -0.76804186732E+03  0.76804186734E+03  0.50400001928E-02 0.  1.
    10030    2    1    2    0    0  0.00000000000E+00  0.00000000000E+00 -0.12972525256E+03  0.14063584821E+04  0.14003626456E+04 0.  0.
        5    1    3    3  502    0  0.32050389860E+03 -0.33030872057E+03 -0.59476295228E+03  0.75205828186E+03  0.46999998093E+01 0.  1.
       -5    1    3    3    0  502 -0.32050389860E+03  0.33030872057E+03  0.46503769972E+03  0.65430020026E+03  0.46999998093E+01 0. -1.
</event>
<event>
 5   0  0.4243281E-05  0.1398873E+04  0.7818609E-02  0.8954635E-01
        2   -1    0    0  501    0  0.00000000000E+00  0.00000000000E+00  0.13094600340E+04  0.13094600340E+04  0.25500000920E-02 0.  1.
       -2   -1    0    0    0  501  0.00000000000E+00  0.00000000000E+00 -0.37359790226E+03  0.37359790227E+03  0.25500000920E-02 0. -1.
    10030    2    1    2    0    0  0.00000000000E+00  0.00000000000E+00  0.93586213173E+03  0.16830579363E+04  0.13988731491E+04 0.  0.
        2    1    3    3  502    0  0.49688964017E+03  0.37306169739E+03  0.85432326727E+03  0.10563818389E+04  0.25500000920E-02 0.  1.
       -2    1    3    3    0  502 -0.49688964017E+03 -0.37306169739E+03  0.81538864464E+02  0.62667609736E+03  0.25500000920E-02 0. -1.
</event>
<event>
 5   0  0.4527503E-05  0.1400227E+04  0.7818609E-02  0.8953655E-01
        2   -1    0    0  501    0  0.00000000000E+00  0.00000000000E+00  0.72268274033E+03  0.72268274034E+03  0.25500000920E-02 0.  1.
       -2   -1    0    0    0  501  0.00000000000E+00  0.00000000000E+00 -0.67824861888E+03  0.67824861888E+03  0.25500000920E-02 0. -1.
    10030    2    1    2    0    0  0.00000000000E+00  0.00000000000E+00  0.44434121457E+02  0.14009313592E+04  0.14002265110E+04 0.  0.
        4    1    3    3  502    0 -0.26748557936E+03  0.49607329564E+03 -0.39334693916E+03  0.68728500439E+03  0.12699999809E+01 0. -1.
       -4    1    3    3    0  502  0.26748557936E+03 -0.49607329564E+03  0.43778106062E+03  0.71364635482E+03  0.12699999809E+01 0.  1.
</event>
<event>
 5   0  0.2428507E-05  0.1399848E+04  0.7818609E-02  0.8953928E-01
        1   -1    0    0  501    0  0.00000000000E+00  0.00000000000E+00  0.21659810835E+04  0.21659810835E+04  0.50400001928E-02 0.  1.
       -1   -1    0    0    0  501  0.00000000000E+00  0.00000000000E+00 -0.22617637843E+03  0.22617637848E+03  0.50400001928E-02 0. -1.
    10030    2    1    2    0    0  0.00000000000E+00  0.00000000000E+00  0.19398047051E+04  0.23921574620E+04  0.13998482165E+04 0.  0.
        4    1    3    3  502    0 -0.44984456766E+03 -0.36171499354E+03  0.29345285791E+03  0.64754464272E+03  0.12699999809E+01 0. -1.
       -4    1    3    3    0  502  0.44984456766E+03  0.36171499354E+03  0.16463518472E+04  0.17446128193E+04  0.12699999809E+01 0.  1.
</event>
<event>
 5   0  0.4621450E-05  0.1401139E+04  0.7818609E-02  0.8952994E-01
       -2   -1    0    0    0  501  0.00000000000E+00  0.00000000000E+00  0.48114393633E+03  0.48114393634E+03  0.25500000920E-02 0. -1.
        2   -1    0    0  501    0  0.00000000000E+00  0.00000000000E+00 -0.10200644407E+04  0.10200644407E+04  0.25500000920E-02 0.  1.
    10030    2    1    2    0    0  0.00000000000E+00  0.00000000000E+00 -0.53892050433E+03  0.15012083770E+04  0.14011392797E+04 0.  0.
        5    1    3    3  502    0 -0.25205321332E+03  0.56651684045E+03 -0.61878842391E+03  0.87600990657E+03  0.46999998093E+01 0.  1.
       -5    1    3    3    0  502  0.25205321332E+03 -0.56651684045E+03  0.79867919582E+02  0.62519847043E+03  0.46999998093E+01 0. -1.
</event>
<event>
 5   0  0.4441253E-05  0.1400416E+04  0.7818609E-02  0.8953518E-01
        2   -1    0    0  501    0  0.00000000000E+00  0.00000000000E+00  0.96294527532E+03  0.96294527532E+03  0.25500000920E-02 0.  1.
       -2   -1    0    0    0  501  0.00000000000E+00  0.00000000000E+00 -0.50915784756E+03  0.50915784757E+03  0.25500000920E-02 0. -1.
    10030    2    1    2    0    0  0.00000000000E+00  0.00000000000E+00  0.45378742775E+03  0.14721031229E+04  0.14004158578E+04 0.  0.
        3    1    3    3  502    0  0.55641787151E+03  0.34128616433E+03  0.49327039928E+03  0.81816428100E+03  0.10100000352E+00 0.  1.
       -3    1    3    3    0  502 -0.55641787151E+03 -0.34128616433E+03 -0.39482971523E+02  0.65393884189E+03  0.10100000352E+00 0. -1.
</event>
<event>
 5   0  0.2428507E-05  0.1399268E+04  0.7818609E-02  0.8954348E-01
        1   -1    0    0  501    0  0.00000000000E+00  0.00000000000E+00  0.10201421633E+04  0.10201421633E+04  0.50400001928E-02 0.  1.
       -1   -1    0    0    0  501  0.00000000000E+00  0.00000000000E+00 -0.47982333586E+03  0.47982333589E+03  0.50400001928E-02 0. -1.
    10030    2    1    2    0    0  0.00000000000E+00  0.00000000000E+00  0.54031882743E+03  0.14999654992E+04  0.13992684030E+04 0.  0.
        4    1    3    3  502    0 -0.91452908980E+02  0.17050908787E+03  0.99089041063E+03  0.10096050725E+04  0.12699999809E+01 0.  1.
       -4    1    3    3    0  502  0.91452908980E+02 -0.17050908787E+03 -0.45057158320E+03  0.49036042672E+03  0.12699999809E+01 0. -1.
</event>
<event>
 5   0  0.2467303E-05  0.1400052E+04  0.7818609E-02  0.8953781E-01
       -1   -1    0    0    0  501  0.00000000000E+00  0.00000000000E+00  0.92669632815E+03  0.92669632817E+03  0.50400001928E-02 0. -1.
        1   -1    0    0  501    0  0.00000000000E+00  0.00000000000E+00 -0.52879922370E+03  0.52879922373E+03  0.50400001928E-02 0.  1.
    10030    2    1    2    0    0  0.00000000000E+00  0.00000000000E+00  0.39789710445E+03  0.14554955519E+04  0.14000518547E+04 0.  0.
        3    1    3    3  502    0  0.66978487327E+03 -0.11471104425E+03  0.37373110698E+03  0.77552907789E+03  0.10100000352E+00 0. -1.
       -3    1    3    3    0  502 -0.66978487327E+03  0.11471104425E+03  0.24165997474E+02  0.67996647400E+03  0.10100000352E+00 0.  1.
</event>
<event>
 5   0  0.4527503E-05  0.1403942E+04  0.7818609E-02  0.8950970E-01
        2   -1    0    0  501    0  0.00000000000E+00  0.00000000000E+00  0.63051520248E+03  0.63051520249E+03  0.25500000920E-02 0. -1.
       -2   -1    0    0    0  501  0.00000000000E+00  0.00000000000E+00 -0.78152508077E+03  0.78152508077E+03  0.25500000920E-02 0.  1.
    10030    2    1    2    0    0  0.00000000000E+00  0.00000000000E+00 -0.15100987828E+03  0.14120402833E+04  0.14039422275E+04 0.  0.
        4    1    3    3  502    0 -0.23731755498E+03  0.49040873956E+03 -0.52071097076E+03  0.75363245797E+03  0.12699999809E+01 0.  1.
       -4    1    3    3    0  502  0.23731755498E+03 -0.49040873956E+03  0.36970109247E+03  0.65840782530E+03  0.12699999809E+01 0. -1.
</event>
<event>
 5   0  0.4441253E-05  0.1400303E+04  0.7818609E-02  0.8953600E-01
        2   -1    0    0  501    0  0.00000000000E+00  0.00000000000E+00  0.17486163362E+04  0.17486163362E+04  0.25500000920E-02 0. -1.
       -2   -1    0    0    0  501  0.00000000000E+00  0.00000000000E+00 -0.28034272075E+03  0.28034272076E+03  0.25500000920E-02 0.  1.
    10030    2    1    2    0    0  0.00000000000E+00  0.00000000000E+00  0.14682736155E+04  0.20289590570E+04  0.14003026262E+04 0.  0.
        3    1    3    3  502    0  0.19103411802E+03 -0.59353118857E+03  0.11956168095E+04  0.13484334880E+04  0.10100000352E+00 0.  1.
       -3    1    3    3    0  502 -0.19103411802E+03  0.59353118857E+03  0.27265680596E+03  0.68052556902E+03  0.10100000352E+00 0. -1.
</event>
<event>
 5   0  0.4243281E-05  0.1400160E+04  0.7818609E-02  0.8953703E-01
       -2   -1    0    0    0  501  0.00000000000E+00  0.00000000000E+00  0.35993643350E+03  0.35993643351E+03  0.25500000920E-02 0.  1.
        2   -1    0    0  501    0  0.00000000000E+00  0.00000000000E+00 -0.13616625973E+04  0.13616625973E+04  0.25500000920E-02 0. -1.
    10030    2    1    2    0    0  0.00000000000E+00  0.00000000000E+00 -0.10017261637E+04  0.17215990308E+04  0.14001599607E+04 0.  0.
        2    1    3    3  502    0  0.57668516409E+03  0.30311485829E+03 -0.18577652726E+03  0.67746388382E+03  0.25500000920E-02 0.  1.
       -2    1    3    3    0  502 -0.57668516409E+03 -0.30311485829E+03 -0.81594963648E+03  0.10441351469E+04  0.25500000920E-02 0. -1.
</event>
<event>
 5   0  0.4243281E-05  0.1400019E+04  0.7818609E-02  0.8953805E-01
        2   -1    0    0  501    0  0.00000000000E+00  0.00000000000E+00  0.13942827769E+04  0.13942827769E+04  0.25500000920E-02 0.  1.
       -2   -1    0    0    0  501  0.00000000000E+00  0.00000000000E+00 -0.35144475998E+03  0.35144475998E+03  0.25500000920E-02 0. -1.
    10030    2    1    2    0    0  0.00000000000E+00  0.00000000000E+00  0.10428380169E+04  0.17457275369E+04  0.14000191083E+04 0.  0.
        2    1    3    3  502    0 -0.34016422952E+03 -0.61155656534E+03  0.49981288121E+03  0.85995700583E+03  0.25500000920E-02 0. -1.
       -2    1    3    3    0  502  0.34016422952E+03  0.61155656534E+03  0.54302513571E+03  0.88577053105E+03  0.25500000920E-02 0.  1.
</event>
<event>
 5   0  0.4527503E-05  0.1400462E+04  0.7818609E-02  0.8953484E-01
        2   -1    0    0  501    0  0.00000000000E+00  0.00000000000E+00  0.18574417307E+04  0.18574417307E+04  0.25500000920E-02 0. -1.
       -2   -1    0    0    0  501  0.00000000000E+00  0.00000000000E+00 -0.26397797670E+03  0.26397797672E+03  0.25500000920E-02 0.  1.
    10030    2    1    2    0    0  0.00000000000E+00  0.00000000000E+00  0.15934637540E+04  0.21214197074E+04  0.14004623664E+04 0.  0.
        4    1    3    3  502    0 -0.50659418055E+03  0.36586457367E+03  0.12753403204E+04  0.14202074129E+04  0.12699999809E+01 0. -1.
       -4    1    3    3    0  502  0.50659418055E+03 -0.36586457367E+03  0.31812343361E+03  0.70121229449E+03  0.12699999809E+01 0.  1.
</event>
<event>
 5   0  0.4621450E-05  0.1400063E+04  0.7818609E-02  0.8953773E-01
       -2   -1    0    0    0  501  0.00000000000E+00  0.00000000000E+00  0.24347939305E+03  0.24347939307E+03  0.25500000920E-02 0. -1.
        2   -1    0    0  501    0  0.00000000000E+00  0.00000000000E+00 -0.20126717775E+04  0.20126717775E+04  0.25500000920E-02 0.  1.
    10030    2    1    2    0    0  0.00000000000E+00  0.00000000000E+00 -0.17691923845E+04  0.22561511706E+04  0.14000630026E+04 0.  0.
        5    1    3    3  502    0 -0.39406908820E+03 -0.52207260138E+03 -0.48278945330E+03  0.81299323097E+03  0.46999998093E+01 0.  1.
       -5    1    3    3    0  502  0.39406908820E+03  0.52207260138E+03 -0.12864029312E+04  0.14431579396E+04  0.46999998093E+01 0. -1.
</event>
<event>
 5   0  0.4621450E-05  0.1398851E+04  0.7818609E-02  0.8954651E-01
        2   -1    0    0  501    0  0.00000000000E+00  0.00000000000E+00  0.18445512141E+04  0.18445512141E+04  0.25500000920E-02 0. -1.
       -2   -1    0    0    0  501  0.00000000000E+00  0.00000000000E+00 -0.26521142765E+03  0.26521142766E+03  0.25500000920E-02 0.  1.
    10030    2    1    2    0    0  0.00000000000E+00  0.00000000000E+00  0.15793397864E+04  0.21097626417E+04  0.13988510441E+04 0.  0.
        5    1    3    3  502    0  0.48439702343E+03  0.30314204329E+03  0.18143172718E+03  0.59956245408E+03  0.46999998093E+01 0.  1.
       -5    1    3    3    0  502 -0.48439702343E+03 -0.30314204329E+03  0.13979080592E+04  0.15102001876E+04  0.46999998093E+01 0. -1.
</event>
<event>
 5   0  0.4441253E-05  0.1399701E+04  0.7818609E-02  0.8954035E-01
        2   -1    0    0  501    0  0.00000000000E+00  0.00000000000E+00  0.10195141869E+04  0.10195141869E+04  0.25500000920E-02 0.  1.
       -2   -1    0    0    0  501  0.00000000000E+00  0.00000000000E+00 -0.48041571385E+03  0.48041571386E+03  0.25500000920E-02 0. -1.
    10030    2    1    2    0    0  0.00000000000E+00  0.00000000000E+00  0.53909847301E+03  0.14999299007E+04  0.13997008764E+04 0.  0.
        3    1    3    3  502    0  0.28455020805E+03  0.63284916398E+03  0.36731684510E+03  0.78510417152E+03  0.10100000352E+00 0.  1.
       -3    1    3    3    0  502 -0.28455020805E+03 -0.63284916398E+03  0.17178162792E+03  0.71482572921E+03  0.10100000352E+00 0. -1.
</event>
<event>
 5   0  0.2427569E-05  0.1400392E+04  0.7818609E-02  0.8953535E-01
        1   -1    0    0  501    0  0.00000000000E+00  0.00000000000E+00  0.23752909289E+04  0.23752909289E+04  0.50400001928E-02 0. -1.
       -1   -1    0    0    0  501  0.00000000000E+00  0.00000000000E+00 -0.20640603137E+03  0.20640603143E+03  0.50400001928E-02 0.  1.
    10030    2    1    2    0    0  0.00000000000E+00  0.00000000000E+00  0.21688848975E+04  0.25816969603E+04  0.14003919081E+04 0.  0.
        1    1    3    3  502    0 -0.36319356003E+03 -0.59244666551E+03  0.12427280026E+04  0.14238242525E+04  0.50400001928E-02 0.  1.
       -1    1    3    3    0  502  0.36319356003E+03  0.59244666551E+03  0.92615689491E+03  0.11578727078E+04  0.50400001928E-02 0. -1.
</event>
<event>
 5   0  0.2427569E-05  0.1399953E+04  0.7818609E-02  0.8953853E-01
        1   -1    0    0  501    0  0.00000000000E+00  0.00000000000E+00  0.74075931707E+03  0.74075931708E+03  0.50400001928E-02 0.  1.
       -1   -1    0    0    0  501  0.00000000000E+00  0.00000000000E+00 -0.66143893883E+03  0.66143893885E+03  0.50400001928E-02 0. -1.
    10030    2    1    2    0    0  0.00000000000E+00  0.00000000000E+00  0.79320378234E+02  0.14021982559E+04  0.13999529373E+04 0.  0.
        1    1    3    3  502    0  0.27551262619E+02  0.52837407816E+03 -0.41936385058E+03  0.67513278527E+03  0.50400001928E-02 0. -1.
       -1    1    3    3    0  502 -0.27551262619E+02 -0.52837407816E+03  0.49868422882E+03  0.72706547067E+03  0.50400001928E-02 0.  1.
</event>
<event>
 5   0  0.4243281E-05  0.1398402E+04  0.7818609E-02  0.8954976E-01
        2   -1    0    0  501    0  0.00000000000E+00  0.00000000000E+00  0.10539985461E+04  0.10539985461E+04  0.25500000920E-02 0.  1.
       -2   -1    0    0    0  501  0.00000000000E+00  0.00000000000E+00 -0.46383575631E+03  0.46383575632E+03  0.25500000920E-02 0. -1.
    10030    2    1    2    0    0  0.00000000000E+00  0.00000000000E+00  0.59016278981E+03  0.15178343024E+04  0.13984022494E+04 0.  0.
        2    1    3    3  502    0  0.65765198621E+03  0.22848457148E+03  0.36517945742E+03  0.78617260860E+03  0.25500000920E-02 0.  1.
       -2    1    3    3    0  502 -0.65765198621E+03 -0.22848457148E+03  0.22498333238E+03  0.73166169384E+03  0.25500000920E-02 0. -1.
</event>
<event>
 5   0  0.4527503E-05  0.1399037E+04  0.7818609E-02  0.8954516E-01
        2   -1    0    0  501    0  0.00000000000E+00  0.00000000000E+00  0.15883558204E+04  0.15883558204E+04  0.25500000920E-02 0. -1.
       -2   -1    0    0    0  501  0.00000000000E+00  0.00000000000E+00 -0.30807092379E+03  0.30807092380E+03  0.25500000920E-02 0.  1.
    10030    2    1    2    0    0  0.00000000000E+00  0.00000000000E+00  0.12802848966E+04  0.18964267442E+04  0.13990371616E+04 0.  0.
        4    1    3    3  502    0  0.97033156873E+02 -0.34462712644E+01  0.15791757275E+04  0.15821583048E+04  0.12699999809E+01 0. -1.
       -4    1    3    3    0  502 -0.97033156873E+02  0.34462712644E+01 -0.29889083087E+03  0.31426843939E+03  0.12699999809E+01 0.  1.
</event>
<event>
 5   0  0.2316714E-05  0.1399922E+04  0.7818609E-02  0.8953875E-01
        1   -1    0    0  501    0  0.00000000000E+00  0.00000000000E+00  0.42158423633E+03  0.42158423636E+03  0.50400001928E-02 0.  1.
       -1   -1    0    0    0  501  0.00000000000E+00  0.00000000000E+00 -0.11621534025E+04  0.11621534025E+04  0.50400001928E-02 0. -1.
    10030    2    1    2    0    0  0.00000000000E+00  0.00000000000E+00 -0.74056916617E+03  0.15837376389E+04  0.13999222189E+04 0.  0.
        5    1    3    3  502    0  0.17334604131E+02  0.68980512983E+03 -0.23742565709E+03  0.72974285764E+03  0.46999998093E+01 0.  1.
       -5    1    3    3    0  502 -0.17334604131E+02 -0.68980512983E+03 -0.50314350908E+03  0.85399478123E+03  0.46999998093E+01 0. -1.
</event>
<event>
 5   0  0.1661000E-05  0.1400167E+04  0.7818609E-02  0.8953697E-01
       -3   -1    0    0    0  501  0.00000000000E+00  0.00000000000E+00  0.14068970330E+04  0.14068970366E+04  0.10100000352E+00 0. -1.
        3   -1    0    0  501    0  0.00000000000E+00  0.00000000000E+00 -0.34836745811E+03  0.34836747275E+03  0.10100000352E+00 0.  1.
    10030    2    1    2    0    0  0.00000000000E+00  0.00000000000E+00  0.10585295749E+04  0.17552645094E+04  0.14001673603E+04 0.  0.
        3    1    3    3  502    0  0.35893764619E+03  0.43991290522E+02 -0.22221765328E+03  0.42444335679E+03  0.10100000352E+00 0.  1.
       -3    1    3    3    0  502 -0.35893764619E+03 -0.43991290522E+02  0.12807472282E+04  0.13308211526E+04  0.10100000352E+00 0. -1.
</event>
<event>
 5   0  0.4460282E-05  0.1401416E+04  0.7818609E-02  0.8952794E-01
        2   -1    0    0  501    0  0.00000000000E+00  0.00000000000E+00  0.56166729659E+03  0.56166729660E+03  0.25500000920E-02 0. -1.
       -2   -1    0    0    0  501  0.00000000000E+00  0.00000000000E+00 -0.87416862797E+03  0.87416862797E+03  0.25500000920E-02 0.  1.
    10030    2    1    2    0    0  0.00000000000E+00  0.00000000000E+00 -0.31250133137E+03  0.14358359246E+04  0.14014163265E+04 0.  0.
        1    1    3    3  502    0 -0.25789551255E+03 -0.19605792177E+03  0.48033309313E+03  0.57936921256E+03  0.50400001928E-02 0. -1.
       -1    1    3    3    0  502  0.25789551255E+03  0.19605792177E+03 -0.79283442450E+03  0.85646671201E+03  0.50400001928E-02 0.  1.
</event>
<event>
 5   0  0.2316714E-05  0.1400209E+04  0.7818609E-02  0.8953667E-01
        1   -1    0    0  501    0  0.00000000000E+00  0.00000000000E+00  0.14249433307E+04  0.14249433307E+04  0.50400001928E-02 0. -1.
       -1   -1    0    0    0  501  0.00000000000E+00  0.00000000000E+00 -0.34397586306E+03  0.34397586310E+03  0.50400001928E-02 0.  1.
    10030    2    1    2    0    0  0.00000000000E+00  0.00000000000E+00  0.10809674676E+04  0.17689191938E+04  0.14002087159E+04 0.  0.
        5    1    3    3  502    0 -0.52922005374E+03  0.14534381540E+03 -0.86274823884E+01  0.54890364675E+03  0.46999998093E+01 0.  1.
       -5    1    3    3    0  502  0.52922005374E+03 -0.14534381540E+03  0.10895949500E+04  0.12200155471E+04  0.46999998093E+01 0. -1.
</event>
<event>
 5   0  0.2428507E-05  0.1401791E+04  0.7818609E-02  0.8952523E-01
        1   -1    0    0  501    0  0.00000000000E+00  0.00000000000E+00  0.83325072176E+03  0.83325072177E+03  0.50400001928E-02 0.  1.
       -1   -1    0    0    0  501  0.00000000000E+00  0.00000000000E+00 -0.58956344433E+03  0.58956344435E+03  0.50400001928E-02 0. -1.
    10030    2    1    2    0    0  0.00000000000E+00  0.00000000000E+00  0.24368727743E+03  0.14228141661E+04  0.14017905201E+04 0.  0.
        4    1    3    3  502    0 -0.60309835986E+03  0.33130154590E+03 -0.13437724277E+02  0.68823726383E+03  0.12699999809E+01 0.  1.
       -4    1    3    3    0  502  0.60309835986E+03 -0.33130154590E+03  0.25712500171E+03  0.73457690230E+03  0.12699999809E+01 0. -1.
</event>
<event>
 5   0  0.2427569E-05  0.1403571E+04  0.7818609E-02  0.8951238E-01
       -1   -1    0    0    0  501  0.00000000000E+00  0.00000000000E+00  0.76045044099E+03  0.76045044101E+03  0.50400001928E-02 0. -1.
        1   -1    0    0  501    0  0.00000000000E+00  0.00000000000E+00 -0.64764583217E+03  0.64764583219E+03  0.50400001928E-02 0.  1.
    10030    2    1    2    0    0  0.00000000000E+00  0.00000000000E+00  0.11280460882E+03  0.14080962732E+04  0.14035705308E+04 0.  0.
        1    1    3    3  502    0  0.68637717066E+03 -0.12797049439E+03 -0.14624929832E+02  0.69835804315E+03  0.50400001928E-02 0. -1.
       -1    1    3    3    0  502 -0.68637717066E+03  0.12797049439E+03  0.12742953865E+03  0.70973823004E+03  0.50400001928E-02 0.  1.
</event>
<event>
 5   0  0.2427569E-05  0.1399941E+04  0.7818609E-02  0.8953861E-01
        1   -1    0    0  501    0  0.00000000000E+00  0.00000000000E+00  0.58908400530E+03  0.58908400532E+03  0.50400001928E-02 0.  1.
       -1   -1    0    0    0  501  0.00000000000E+00  0.00000000000E+00 -0.83172985221E+03  0.83172985223E+03  0.50400001928E-02 0. -1.
    10030    2    1    2    0    0  0.00000000000E+00  0.00000000000E+00 -0.24264584691E+03  0.14208138575E+04  0.13999410740E+04 0.  0.
        1    1    3    3  502    0 -0.51084378484E+03  0.34720767937E+03  0.21289567074E+03  0.65332925219E+03  0.50400001928E-02 0. -1.
       -1    1    3    3    0  502  0.51084378484E+03 -0.34720767937E+03 -0.45554151765E+03  0.76748460536E+03  0.50400001928E-02 0.  1.
</event>
<event>
 5   0  0.2427569E-05  0.1399751E+04  0.7818609E-02  0.8953999E-01
       -1   -1    0    0    0  501  0.00000000000E+00  0.00000000000E+00  0.68583591683E+03  0.68583591685E+03  0.50400001928E-02 0. -1.
        1   -1    0    0  501    0  0.00000000000E+00  0.00000000000E+00 -0.71420231487E+03  0.71420231489E+03  0.50400001928E-02 0.  1.
    10030    2    1    2    0    0  0.00000000000E+00  0.00000000000E+00 -0.28366398044E+02  0.14000382317E+04  0.13997508342E+04 0.  0.
        1    1    3    3  502    0 -0.67374715361E+03  0.71439222639E+02  0.16131453179E+03  0.69646332834E+03  0.50400001928E-02 0. -1.
       -1    1    3    3    0  502  0.67374715361E+03 -0.71439222639E+02 -0.18968092983E+03  0.70357490340E+03  0.50400001928E-02 0.  1.
</event>
<event>
 5   0  0.2363419E-05  0.1400243E+04  0.7818609E-02  0.8953643E-01
       -1   -1    0    0    0  501  0.00000000000E+00  0.00000000000E+00  0.59227807665E+03  0.59227807667E+03  0.50400001928E-02 0. -1.
        1   -1    0    0  501    0  0.00000000000E+00  0.00000000000E+00 -0.82760102294E+03  0.82760102296E+03  0.50400001928E-02 0.  1.
    10030    2    1    2    0    0  0.00000000000E+00  0.00000000000E+00 -0.23532294629E+03  0.14198790996E+04  0.14002427534E+04 0.  0.
        2    1    3    3  502    0  0.54464357877E+03  0.56091460474E+02 -0.56011407065E+03  0.78326920786E+03  0.25500000920E-02 0. -1.
       -2    1    3    3    0  502 -0.54464357877E+03 -0.56091460474E+02  0.32479112436E+03  0.63660989177E+03  0.25500000920E-02 0.  1.
</event>
<event>
 5   0  0.2316714E-05  0.1400335E+04  0.7818609E-02  0.8953576E-01
        1   -1    0    0  501    0  0.00000000000E+00  0.00000000000E+00  0.43511522249E+03  0.43511522252E+03  0.50400001928E-02 0. -1.
       -1   -1    0    0    0  501  0.00000000000E+00  0.00000000000E+00 -0.11266770702E+04  0.11266770702E+04  0.50400001928E-02 0.  1.
    10030    2    1    2    0    0  0.00000000000E+00  0.00000000000E+00 -0.69156184771E+03  0.15617922927E+04  0.14003347373E+04 0.  0.
        5    1    3    3  502    0 -0.36443045317E+03 -0.31766424530E+03  0.21906296171E+03  0.53078319409E+03  0.46999998093E+01 0. -1.
       -5    1    3    3    0  502  0.36443045317E+03  0.31766424530E+03 -0.91062480942E+03  0.10310090986E+04  0.46999998093E+01 0.  1.
</event>
<event>
 5   0  0.4441253E-05  0.1399326E+04  0.7818609E-02  0.8954306E-01
       -2   -1    0    0    0  501  0.00000000000E+00  0.00000000000E+00  0.52673900755E+03  0.52673900755E+03  0.25500000920E-02 0. -1.
        2   -1    0    0  501    0  0.00000000000E+00  0.00000000000E+00 -0.92935681844E+03  0.92935681844E+03  0.25500000920E-02 0.  1.
    10030    2    1    2    0    0  0.00000000000E+00  0.00000000000E+00 -0.40261781089E+03  0.14560958260E+04  0.13993262496E+04 0.  0.
        3    1    3    3  502    0 -0.22327349095E+03  0.68002965722E+02  0.48503545769E+03  0.53827024859E+03  0.10100000352E+00 0. -1.
       -3    1    3    3    0  502  0.22327349095E+03 -0.68002965722E+02 -0.88765326858E+03  0.91782557740E+03  0.10100000352E+00 0.  1.
</event>
<event>
 5   0  0.2467303E-05  0.1399984E+04  0.7818609E-02  0.8953830E-01
       -1   -1    0    0    0  501  0.00000000000E+00  0.00000000000E+00  0.51290026979E+03  0.51290026982E+03  0.50400001928E-02 0.  1.
        1   -1    0    0  501    0  0.00000000000E+00  0.00000000000E+00 -0.95532904591E+03  0.95532904593E+03  0.50400001928E-02 0. -1.
    10030    2    1    2    0    0  0.00000000000E+00  0.00000000000E+00 -0.44242877612E+03  0.14682293157E+04  0.13999836076E+04 0.  0.
        3    1    3    3  502    0  0.12591562161E+03  0.50747197312E+03  0.26688262478E+03  0.58703397933E+03  0.10100000352E+00 0.  1.
       -3    1    3    3    0  502 -0.12591562161E+03 -0.50747197312E+03 -0.70931140090E+03  0.88119533642E+03  0.10100000352E+00 0. -1.
</event>
<event>
 5   0  0.2363419E-05  0.1399844E+04  0.7818609E-02  0.8953932E-01
       -1   -1    0    0    0  501  0.00000000000E+00  0.00000000000E+00  0.34747180206E+03  0.34747180210E+03  0.50400001928E-02 0.  1.
        1   -1    0    0  501    0  0.00000000000E+00  0.00000000000E+00 -0.14098718763E+04  0.14098718763E+04  0.50400001928E-02 0. -1.
    10030    2    1    2    0    0  0.00000000000E+00  0.00000000000E+00 -0.10624000742E+04  0.17573436784E+04  0.13998438792E+04 0.  0.
        2    1    3    3  502    0  0.19497949729E+03  0.12207587675E+03  0.29865743101E+03  0.37698247327E+03  0.25500000920E-02 0.  1.
       -2    1    3    3    0  502 -0.19497949729E+03 -0.12207587675E+03 -0.13610575052E+04  0.13803612051E+04  0.25500000920E-02 0. -1.
</event>
<event>
 5   0  0.4621450E-05  0.1400271E+04  0.7818609E-02  0.8953622E-01
        2   -1    0    0  501    0  0.00000000000E+00  0.00000000000E+00  0.10561113830E+04  0.10561113831E+04  0.25500000920E-02 0. -1.
       -2   -1    0    0    0  501  0.00000000000E+00  0.00000000000E+00 -0.46414584143E+03  0.46414584143E+03  0.25500000920E-02 0.  1.
    10030    2    1    2    0    0  0.00000000000E+00  0.00000000000E+00  0.59196554162E+03  0.15202572245E+04  0.14002709831E+04 0.  0.
        5    1    3    3  502    0 -0.15746845685E+03  0.23939667277E+03 -0.39755047363E+03  0.49007708671E+03  0.46999998093E+01 0.  1.
       -5    1    3    3    0  502  0.15746845685E+03 -0.23939667277E+03  0.98951601525E+03  0.10301801378E+04  0.46999998093E+01 0. -1.
</event>
<event>
 5   0  0.4441253E-05  0.1399956E+04  0.7818609E-02  0.8953850E-01
        2   -1    0    0  501    0  0.00000000000E+00  0.00000000000E+00  0.14178014716E+04  0.14178014716E+04  0.25500000920E-02 0.  1.
       -2   -1    0    0    0  501  0.00000000000E+00  0.00000000000E+00 -0.34558401013E+03  0.34558401014E+03  0.25500000920E-02 0. -1.
    10030    2    1    2    0    0  0.00000000000E+00  0.00000000000E+00  0.10722174615E+04  0.17633854818E+04  0.13999564538E+04 0.  0.
        3    1    3    3  502    0  0.29109833555E+03 -0.10769034625E+03 -0.25416776720E+03  0.40116918590E+03  0.10100000352E+00 0. -1.
       -3    1    3    3    0  502 -0.29109833555E+03  0.10769034625E+03  0.13263852287E+04  0.13622162959E+04  0.10100000352E+00 0.  1.
</event>
<event>
 5   0  0.2427569E-05  0.1400082E+04  0.7818609E-02  0.8953760E-01
       -1   -1    0    0    0  501  0.00000000000E+00  0.00000000000E+00  0.42269056321E+03  0.42269056324E+03  0.50400001928E-02 0.  1.
        1   -1    0    0  501    0  0.00000000000E+00  0.00000000000E+00 -0.11593754285E+04  0.11593754285E+04  0.50400001928E-02 0. -1.
    10030    2    1    2    0    0  0.00000000000E+00  0.00000000000E+00 -0.73668486531E+03  0.15820659918E+04  0.14000815018E+04 0.  0.
        1    1    3    3  502    0  0.10793175080E+03  0.69059408433E+03 -0.32475969907E+03  0.77073881070E+03  0.50400001928E-02 0.  1.
       -1    1    3    3    0  502 -0.10793175080E+03 -0.69059408433E+03 -0.41192516624E+03  0.81132718108E+03  0.50400001928E-02 0. -1.
</event>
<event>
 5   0  0.4527503E-05  0.1400991E+04  0.7818609E-02  0.8953102E-01
       -2   -1    0    0    0  501  0.00000000000E+00  0.00000000000E+00  0.46447170486E+03  0.46447170486E+03  0.25500000920E-02 0.  1.
        2   -1    0    0  501    0  0.00000000000E+00  0.00000000000E+00 -0.10564556191E+04  0.10564556191E+04  0.25500000920E-02 0. -1.
    10030    2    1    2    0    0  0.00000000000E+00  0.00000000000E+00 -0.59198391423E+03  0.15209273240E+04  0.14009907102E+04 0.  0.
        4    1    3    3  502    0  0.59322116000E+03 -0.28452899608E+03 -0.55704418552E+03  0.86207188320E+03  0.12699999809E+01 0.  1.
       -4    1    3    3    0  502 -0.59322116000E+03  0.28452899608E+03 -0.34939728710E+02  0.65885544076E+03  0.12699999809E+01 0. -1.
</event>
<event>
 5   0  0.4460282E-05  0.1400050E+04  0.7818609E-02  0.8953782E-01
       -2   -1    0    0    0  501  0.00000000000E+00  0.00000000000E+00  0.30883012496E+03  0.30883012497E+03  0.25500000920E-02 0. -1.
        2   -1    0    0  501    0  0.00000000000E+00  0.00000000000E+00 -0.15867463073E+04  0.15867463073E+04  0.25500000920E-02 0.  1.
    10030    2    1    2    0    0  0.00000000000E+00  0.00000000000E+00 -0.12779161824E+04  0.18955764323E+04  0.14000500854E+04 0.  0.
        1    1    3    3  502    0  0.63762557559E+03 -0.23642346323E+03 -0.86377907211E+03  0.10993528615E+04  0.50400001928E-02 0. -1.
       -1    1    3    3    0  502 -0.63762557559E+03  0.23642346323E+03 -0.41413711026E+03  0.79622357082E+03  0.50400001928E-02 0.  1.
</event>
<event>
 5   0  0.4441253E-05  0.1400098E+04  0.7818609E-02  0.8953748E-01
       -2   -1    0    0    0  501  0.00000000000E+00  0.00000000000E+00  0.25837620443E+03  0.25837620445E+03  0.25500000920E-02 0. -1.
        2   -1    0    0  501    0  0.00000000000E+00  0.00000000000E+00 -0.18967242430E+04  0.18967242430E+04  0.25500000920E-02 0.  1.
    10030    2    1    2    0    0  0.00000000000E+00  0.00000000000E+00 -0.16383480386E+04  0.21551004475E+04  0.14000977263E+04 0.  0.
        3    1    3    3  502    0  0.37532709427E+03  0.28502916744E+03 -0.16159590947E+04  0.16832812777E+04  0.10100000352E+00 0.  1.
       -3    1    3    3    0  502 -0.37532709427E+03 -0.28502916744E+03 -0.22388943946E+02  0.47181916981E+03  0.10100000352E+00 0. -1.
</event>
<event>
 5   0  0.2316714E-05  0.1400222E+04  0.7818609E-02  0.8953658E-01
       -1   -1    0    0    0  501  0.00000000000E+00  0.00000000000E+00  0.19019328658E+03  0.19019328665E+03  0.50400001928E-02 0.  1.
        1   -1    0    0  501    0  0.00000000000E+00  0.00000000000E+00 -0.25771426695E+04  0.25771426695E+04  0.50400001928E-02 0. -1.
    10030    2    1    2    0    0  0.00000000000E+00  0.00000000000E+00 -0.23869493829E+04  0.27673359561E+04  0.14002217459E+04 0.  0.
        5    1    3    3  502    0 -0.78008336955E+01  0.63145133380E+03 -0.17907838145E+04  0.18988734555E+04  0.46999998093E+01 0. -1.
       -5    1    3    3    0  502  0.78008336955E+01 -0.63145133380E+03 -0.59616556841E+03  0.86846250059E+03  0.46999998093E+01 0.  1.
</event>
<event>
 5   0  0.2363419E-05  0.1399738E+04  0.7818609E-02  0.8954008E-01
        1   -1    0    0  501    0  0.00000000000E+00  0.00000000000E+00  0.78106011550E+03  0.78106011552E+03  0.50400001928E-02 0. -1.
       -1   -1    0    0    0  501  0.00000000000E+00  0.00000000000E+00 -0.62711754538E+03  0.62711754540E+03  0.50400001928E-02 0.  1.
    10030    2    1    2    0    0  0.00000000000E+00  0.00000000000E+00  0.15394257012E+03  0.14081776609E+04  0.13997378361E+04 0.  0.
        2    1    3    3  502    0  0.10808167224E+03  0.50807711543E+03  0.54883293859E+03  0.75567294353E+03  0.25500000920E-02 0. -1.
       -2    1    3    3    0  502 -0.10808167224E+03 -0.50807711543E+03 -0.39489036847E+03  0.65250471739E+03  0.25500000920E-02 0.  1.
</event>
<event>
 5   0  0.2427569E-05  0.1400330E+04  0.7818609E-02  0.8953580E-01
        1   -1    0    0  501    0  0.00000000000E+00  0.00000000000E+00  0.11525534900E+04  0.11525534900E+04  0.50400001928E-02 0. -1.
       -1   -1    0    0    0  501  0.00000000000E+00  0.00000000000E+00 -0.42534343012E+03  0.42534343015E+03  0.50400001928E-02 0.  1.
    10030    2    1    2    0    0  0.00000000000E+00  0.00000000000E+00  0.72721005989E+03  0.15778969202E+04  0.14003300395E+04 0.  0.
        1    1    3    3  502    0  0.58094441783E+03  0.36741951224E+03  0.21353467133E+03  0.71978508631E+03  0.50400001928E-02 0.  1.
       -1    1    3    3    0  502 -0.58094441783E+03 -0.36741951224E+03  0.51367538856E+03  0.85811183387E+03  0.50400001928E-02 0. -1.
</event>
<event>
 5   0  0.4243281E-05  0.1400077E+04  0.7818609E-02  0.8953763E-01
        2   -1    0    0  501    0  0.00000000000E+00  0.00000000000E+00  0.73409211413E+03  0.73409211413E+03  0.25500000920E-02 0.  1.
       -2   -1    0    0    0  501  0.00000000000E+00  0.00000000000E+00 -0.66756452912E+03  0.66756452912E+03  0.25500000920E-02 0. -1.
    10030    2    1    2    0    0  0.00000000000E+00  0.00000000000E+00  0.66527585010E+02  0.14016566433E+04  0.14000769357E+04 0.  0.
        2    1    3    3  502    0  0.84864622484E+02  0.37222590100E+03 -0.55416885589E+03  0.67294668910E+03  0.25500000920E-02 0. -1.
       -2    1    3    3    0  502 -0.84864622484E+02 -0.37222590100E+03  0.62069644090E+03  0.72870995415E+03  0.25500000920E-02 0.  1.
</event>
<event>
 5   0  0.4527503E-05  0.1400504E+04  0.7818609E-02  0.8953454E-01
       -2   -1    0    0    0  501  0.00000000000E+00  0.00000000000E+00  0.39169577563E+03  0.39169577564E+03  0.25500000920E-02 0.  1.
        2   -1    0    0  501    0  0.00000000000E+00  0.00000000000E+00 -0.12518717449E+04  0.12518717449E+04  0.25500000920E-02 0. -1.
    10030    2    1    2    0    0  0.00000000000E+00  0.00000000000E+00 -0.86017596929E+03  0.16435675206E+04  0.14005040152E+04 0.  0.
        4    1    3    3  502    0 -0.88963672868E+01  0.66006099026E+03 -0.70428714690E+03  0.96528837888E+03  0.12699999809E+01 0. -1.
       -4    1    3    3    0  502  0.88963672868E+01 -0.66006099026E+03 -0.15588882240E+03  0.67827914170E+03  0.12699999809E+01 0.  1.
</event>
<event>
 5   0  0.2363419E-05  0.1400057E+04  0.7818609E-02  0.8953777E-01
       -1   -1    0    0    0  501  0.00000000000E+00  0.00000000000E+00  0.22574740161E+03  0.22574740167E+03  0.50400001928E-02 0.  1.
        1   -1    0    0  501    0  0.00000000000E+00  0.00000000000E+00 -0.21707449582E+04  0.21707449582E+04  0.50400001928E-02 0. -1.
    10030    2    1    2    0    0  0.00000000000E+00  0.00000000000E+00 -0.19449975566E+04  0.23964923599E+04  0.14000571902E+04 0.  0.
        2    1    3    3  502    0  0.25877827554E+03 -0.61714590464E+03 -0.13241491199E+04  0.14836462366E+04  0.25500000920E-02 0.  1.
       -2    1    3    3    0  502 -0.25877827554E+03  0.61714590464E+03 -0.62084843669E+03  0.91284612332E+03  0.25500000920E-02 0. -1.
</event>
<event>
 5   0  0.2316714E-05  0.1402026E+04  0.7818609E-02  0.8952354E-01
       -1   -1    0    0    0  501  0.00000000000E+00  0.00000000000E+00  0.21148988068E+03  0.21148988074E+03  0.50400001928E-02 0. -1.
        1   -1    0    0  501    0  0.00000000000E+00  0.00000000000E+00 -0.23236050324E+04  0.23236050324E+04  0.50400001928E-02 0.  1.
    10030    2    1    2    0    0  0.00000000000E+00  0.00000000000E+00 -0.21121151517E+04  0.25350949131E+04  0.14020256077E+04 0.  0.
        5    1    3    3  502    0  0.30576182747E+03  0.28214183239E+03 -0.35920954358E+02  0.41762029846E+03  0.46999998093E+01 0. -1.
       -5    1    3    3    0  502 -0.30576182747E+03 -0.28214183239E+03 -0.20761941973E+04  0.21174746147E+04  0.46999998093E+01 0.  1.
</event>
<event>
 5   0  0.2363419E-05  0.1400036E+04  0.7818609E-02  0.8953792E-01
        1   -1    0    0  501    0  0.00000000000E+00  0.00000000000E+00  0.66031122186E+03  0.66031122188E+03  0.50400001928E-02 0.  1.
       -1   -1    0    0    0  501  0.00000000000E+00  0.00000000000E+00 -0.74211269459E+03  0.74211269460E+03  0.50400001928E-02 0. -1.
    10030    2    1    2    0    0  0.00000000000E+00  0.00000000000E+00 -0.81801472725E+02  0.14024239165E+04  0.14000361997E+04 0.  0.
        2    1    3    3  502    0  0.29442178537E+03 -0.60753555034E+03 -0.22626147485E+03  0.71202379710E+03  0.25500000920E-02 0. -1.
       -2    1    3    3    0  502 -0.29442178537E+03  0.60753555034E+03  0.14446000212E+03  0.69040011938E+03  0.25500000920E-02 0.  1.
</event>
<event>
 5   0  0.1661000E-05  0.1399984E+04  0.7818609E-02  0.8953830E-01
       -3   -1    0    0    0  501  0.00000000000E+00  0.00000000000E+00  0.45984458002E+03  0.45984459111E+03  0.10100000352E+00 0. -1.
        3   -1    0    0  501    0  0.00000000000E+00  0.00000000000E+00 -0.10655528238E+04  0.10655528286E+04  0.10100000352E+00 0.  1.
    10030    2    1    2    0    0  0.00000000000E+00  0.00000000000E+00 -0.60570824379E+03  0.15253974197E+04  0.13999838611E+04 0.  0.
        1    1    3    3  502    0 -0.51360566870E+03  0.47432769549E+03 -0.26493482830E+03  0.74764163133E+03  0.50400001928E-02 0. -1.
       -1    1    3    3    0  502  0.51360566870E+03 -0.47432769549E+03 -0.34077341550E+03  0.77775578838E+03  0.50400001928E-02 0.  1.
</event>
<event>
 5   0  0.4243281E-05  0.1400288E+04  0.7818609E-02  0.8953610E-01
        2   -1    0    0  501    0  0.00000000000E+00  0.00000000000E+00  0.18227591724E+04  0.18227591724E+04  0.25500000920E-02 0. -1.
       -2   -1    0    0    0  501  0.00000000000E+00  0.00000000000E+00 -0.26893369557E+03  0.26893369559E+03  0.25500000920E-02 0.  1.
    10030    2    1    2    0    0  0.00000000000E+00  0.00000000000E+00  0.15538254768E+04  0.20916928680E+04  0.14002876281E+04 0.  0.
        2    1    3    3  502    0  0.41343004832E+03 -0.56390472648E+03  0.72329499342E+03  0.10060161991E+04  0.25500000920E-02 0.  1.
       -2    1    3    3    0  502 -0.41343004832E+03  0.56390472648E+03  0.83053048338E+03  0.10856766688E+04  0.25500000920E-02 0. -1.
</event>
<event>
 5   0  0.4441253E-05  0.1399956E+04  0.7818609E-02  0.8953850E-01
       -2   -1    0    0    0  501  0.00000000000E+00  0.00000000000E+00  0.16747946517E+03  0.16747946519E+03  0.25500000920E-02 0. -1.
        2   -1    0    0  501    0  0.00000000000E+00  0.00000000000E+00 -0.29255486879E+04  0.29255486879E+04  0.25500000920E-02 0.  1.
    10030    2    1    2    0    0  0.00000000000E+00  0.00000000000E+00 -0.27580692228E+04  0.30930281531E+04  0.13999561845E+04 0.  0.
        3    1    3    3  502    0  0.32971810295E+02  0.65812969884E+03 -0.19006880139E+04  0.20116751172E+04  0.10100000352E+00 0. -1.
       -3    1    3    3    0  502 -0.32971810295E+02 -0.65812969884E+03 -0.85738120881E+03  0.10813530359E+04  0.10100000352E+00 0.  1.
</event>
<event>
 5   0  0.4243281E-05  0.1400856E+04  0.7818609E-02  0.8953199E-01
        2   -1    0    0  501    0  0.00000000000E+00  0.00000000000E+00  0.71388644212E+03  0.71388644213E+03  0.25500000920E-02 0.  1.
       -2   -1    0    0    0  501  0.00000000000E+00  0.00000000000E+00 -0.68722362314E+03  0.68722362314E+03  0.25500000920E-02 0. -1.
    10030    2    1    2    0    0  0.00000000000E+00  0.00000000000E+00  0.26662818985E+02  0.14011100653E+04  0.14008563485E+04 0.  0.
        2    1    3    3  502    0  0.31024505318E+03  0.60946952674E+03  0.16466819973E+03  0.70343493875E+03  0.25500000920E-02 0. -1.
       -2    1    3    3    0  502 -0.31024505318E+03 -0.60946952674E+03 -0.13800538074E+03  0.69767512652E+03  0.25500000920E-02 0.  1.
</event>
<event>
 5   0  0.2467303E-05  0.1400174E+04  0.7818609E-02  0.8953692E-01
        1   -1    0    0  501    0  0.00000000000E+00  0.00000000000E+00  0.64998931497E+03  0.64998931499E+03  0.50400001928E-02 0.  1.
       -1   -1    0    0    0  501  0.00000000000E+00  0.00000000000E+00 -0.75404615732E+03  0.75404615734E+03  0.50400001928E-02 0. -1.
    10030    2    1    2    0    0  0.00000000000E+00  0.00000000000E+00 -0.10405684235E+03  0.14040354723E+04  0.14001741967E+04 0.  0.
        3    1    3    3  502    0  0.63266450540E+03  0.29470095912E+03 -0.10703316311E+03  0.70609428542E+03  0.10100000352E+00 0. -1.
       -3    1    3    3    0  502 -0.63266450540E+03 -0.29470095912E+03  0.29763207568E+01  0.69794118691E+03  0.10100000352E+00 0.  1.
</event>
<event>
 5   0  0.2316714E-05  0.1399911E+04  0.7818609E-02  0.8953883E-01
        1   -1    0    0  501    0  0.00000000000E+00  0.00000000000E+00  0.73846135547E+03  0.73846135548E+03  0.50400001928E-02 0. -1.
       -1   -1    0    0    0  501  0.00000000000E+00  0.00000000000E+00 -0.66345791751E+03  0.66345791753E+03  0.50400001928E-02 0.  1.
    10030    2    1    2    0    0  0.00000000000E+00  0.00000000000E+00  0.75003437957E+02  0.14019192730E+04  0.13999114730E+04 0.  0.
        5    1    3    3  502    0 -0.18386499364E+03 -0.66923187671E+03 -0.53393553928E+02  0.69609669033E+03  0.46999998093E+01 0.  1.
       -5    1    3    3    0  502  0.18386499364E+03  0.66923187671E+03  0.12839699188E+03  0.70582258268E+03  0.46999998093E+01 0. -1.
</event>
<event>
 5   0  0.4621450E-05  0.1399754E+04  0.7818609E-02  0.8953997E-01
        2   -1    0    0  501    0  0.00000000000E+00  0.00000000000E+00  0.83137755700E+03  0.83137755701E+03  0.25500000920E-02 0. -1.
       -2   -1    0    0    0  501  0.00000000000E+00  0.00000000000E+00 -0.58917579218E+03  0.58917579219E+03  0.25500000920E-02 0.  1.
    10030    2    1    2    0    0  0.00000000000E+00  0.00000000000E+00  0.24220176482E+03  0.14205533492E+04  0.13997535937E+04 0.  0.
        5    1    3    3  502    0 -0.39638396120E+03  0.49249688129E+03  0.42578197518E+03  0.76222424729E+03  0.46999998093E+01 0. -1.
       -5    1    3    3    0  502  0.39638396120E+03 -0.49249688129E+03 -0.18358021036E+03  0.65832910190E+03  0.46999998093E+01 0.  1.
</event>
<event>
 5   0  0.2316714E-05  0.1399480E+04  0.7818609E-02  0.8954195E-01
       -1   -1    0    0    0  501  0.00000000000E+00  0.00000000000E+00  0.96845267110E+03  0.96845267111E+03  0.50400001928E-02 0. -1.
        1   -1    0    0  501    0  0.00000000000E+00  0.00000000000E+00 -0.50558616667E+03  0.50558616669E+03  0.50400001928E-02 0.  1.
    10030    2    1    2    0    0  0.00000000000E+00  0.00000000000E+00  0.46286650443E+03  0.14740388378E+04  0.13994802944E+04 0.  0.
        5    1    3    3  502    0 -0.29002757930E+03 -0.17667005680E+03  0.87581593301E+03  0.93936358469E+03  0.46999998093E+01 0. -1.
       -5    1    3    3    0  502  0.29002757930E+03  0.17667005680E+03 -0.41294942858E+03  0.53467525311E+03  0.46999998093E+01 0.  1.
</event>
<event>
 5   0  0.2363419E-05  0.1399153E+04  0.7818609E-02  0.8954432E-01
       -1   -1    0    0    0  501  0.00000000000E+00  0.00000000000E+00  0.55953253742E+03  0.55953253744E+03  0.50400001928E-02 0. -1.
        1   -1    0    0  501    0  0.00000000000E+00  0.00000000000E+00 -0.87467228208E+03  0.87467228210E+03  0.50400001928E-02 0.  1.
    10030    2    1    2    0    0  0.00000000000E+00  0.00000000000E+00 -0.31513974466E+03  0.14342048195E+04  0.13991534604E+04 0.  0.
        2    1    3    3  502    0 -0.11170996113E+03 -0.67697252219E+03 -0.29750611852E+03  0.74785078845E+03  0.25500000920E-02 0. -1.
       -2    1    3    3    0  502  0.11170996113E+03  0.67697252219E+03 -0.17633626144E+02  0.68635403109E+03  0.25500000920E-02 0.  1.
</event>
<event>
 5   0  0.4621450E-05  0.1400805E+04  0.7818609E-02  0.8953236E-01
        2   -1    0    0  501    0  0.00000000000E+00  0.00000000000E+00  0.65666066322E+03  0.65666066322E+03  0.25500000920E-02 0. -1.
       -2   -1    0    0    0  501  0.00000000000E+00  0.00000000000E+00 -0.74705841913E+03  0.74705841914E+03  0.25500000920E-02 0.  1.
    10030    2    1    2    0    0  0.00000000000E+00  0.00000000000E+00 -0.90397755915E+02  0.14037190824E+04  0.14008053069E+04 0.  0.
        5    1    3    3  502    0  0.15872173256E+03  0.67426493339E+03  0.58534552738E+02  0.69517923779E+03  0.46999998093E+01 0. -1.
       -5    1    3    3    0  502 -0.15872173256E+03 -0.67426493339E+03 -0.14893230865E+03  0.70853984457E+03  0.46999998093E+01 0.  1.
</event>
<event>
 5   0  0.2427569E-05  0.1401028E+04  0.7818609E-02  0.8953075E-01
        1   -1    0    0  501    0  0.00000000000E+00  0.00000000000E+00  0.15641444182E+04  0.15641444182E+04  0.50400001928E-02 0.  1.
       -1   -1    0    0    0  501  0.00000000000E+00  0.00000000000E+00 -0.31373036524E+03  0.31373036528E+03  0.50400001928E-02 0. -1.
    10030    2    1    2    0    0  0.00000000000E+00  0.00000000000E+00  0.12504140529E+04  0.18778747834E+04  0.14010276223E+04 0.  0.
        1    1    3    3  502    0 -0.26662270717E+03 -0.99242872394E+02  0.14832257926E+04  0.15102634100E+04  0.50400001928E-02 0.  1.
       -1    1    3    3    0  502  0.26662270717E+03  0.99242872394E+02 -0.23281173971E+03  0.36761137342E+03  0.50400001928E-02 0. -1.
</event>
<event>
 5   0  0.4441253E-05  0.1400635E+04  0.7818609E-02  0.8953359E-01
       -2   -1    0    0    0  501  0.00000000000E+00  0.00000000000E+00  0.25754525329E+03  0.25754525331E+03  0.25500000920E-02 0.  1.
        2   -1    0    0  501    0  0.00000000000E+00  0.00000000000E+00 -0.19043055057E+04  0.19043055057E+04  0.25500000920E-02 0. -1.
    10030    2    1    2    0    0  0.00000000000E+00  0.00000000000E+00 -0.16467602524E+04  0.21618507590E+04  0.14006353470E+04 0.  0.
        3    1    3    3  502    0  0.65504023169E+03 -0.14948660796E+03 -0.51848592034E+03  0.84867638761E+03  0.10100000352E+00 0. -1.
       -3    1    3    3    0  502 -0.65504023169E+03  0.14948660796E+03 -0.11282743320E+04  0.13131743714E+04  0.10100000352E+00 0.  1.
</event>
<event>
 5   0  0.4460282E-05  0.1400158E+04  0.7818609E-02  0.8953704E-01
        2   -1    0    0  501    0  0.00000000000E+00  0.00000000000E+00  0.81042159167E+03  0.81042159168E+03  0.25500000920E-02 0.  1.
       -2   -1    0    0    0  501  0.00000000000E+00  0.00000000000E+00 -0.60476015162E+03  0.60476015163E+03  0.25500000920E-02 0. -1.
    10030    2    1    2    0    0  0.00000000000E+00  0.00000000000E+00  0.20566144005E+03  0.14151817433E+04  0.14001581120E+04 0.  0.
        1    1    3    3  502    0 -0.16880918464E+03 -0.11749191309E+03  0.77919697274E+03  0.80588387055E+03  0.50400001928E-02 0.  1.
       -1    1    3    3    0  502  0.16880918464E+03  0.11749191309E+03 -0.57353553269E+03  0.60929787276E+03  0.50400001928E-02 0. -1.
</event>
<event>
 5   0  0.4441253E-05  0.1400043E+04  0.7818609E-02  0.8953788E-01
       -2   -1    0    0    0  501  0.00000000000E+00  0.00000000000E+00  0.30926658266E+03  0.30926658267E+03  0.25500000920E-02 0.  1.
        2   -1    0    0  501    0  0.00000000000E+00  0.00000000000E+00 -0.15844902352E+04  0.15844902352E+04  0.25500000920E-02 0. -1.
    10030    2    1    2    0    0  0.00000000000E+00  0.00000000000E+00 -0.12752236526E+04  0.18937568179E+04  0.14000426855E+04 0.  0.
        3    1    3    3  502    0  0.17217220940E+03 -0.15717381466E+03 -0.15304407188E+04  0.15480942096E+04  0.10100000352E+00 0. -1.
       -3    1    3    3    0  502 -0.17217220940E+03  0.15717381466E+03  0.25521706623E+03  0.34566260834E+03  0.10100000352E+00 0.  1.
</event>
<event>
 5   0  0.2363419E-05  0.1398252E+04  0.7818609E-02  0.8955084E-01
        1   -1    0    0  501    0  0.00000000000E+00  0.00000000000E+00  0.58001432106E+03  0.58001432108E+03  0.50400001928E-02 0.  1.
       -1   -1    0    0    0  501  0.00000000000E+00  0.00000000000E+00 -0.84269900958E+03  0.84269900959E+03  0.50400001928E-02 0. -1.
    10030    2    1    2    0    0  0.00000000000E+00  0.00000000000E+00 -0.26268468852E+03  0.14227133307E+04  0.13982524721E+04 0.  0.
        2    1    3    3  502    0  0.28629756379E+03 -0.42790203283E+03  0.34991295234E+03  0.62249941282E+03  0.25500000920E-02 0.  1.
       -2    1    3    3    0  502 -0.28629756379E+03  0.42790203283E+03 -0.61259764086E+03  0.80021391785E+03  0.25500000920E-02 0. -1.
</event>
<event>
 5   0  0.4527503E-05  0.1400152E+04  0.7818609E-02  0.8953708E-01
        2   -1    0    0  501    0  0.00000000000E+00  0.00000000000E+00  0.92956333804E+03  0.92956333804E+03  0.25500000920E-02 0. -1.
       -2   -1    0    0    0  501  0.00000000000E+00  0.00000000000E+00 -0.52724396493E+03  0.52724396494E+03  0.25500000920E-02 0.  1.
    10030    2    1    2    0    0  0.00000000000E+00  0.00000000000E+00  0.40231937311E+03  0.14568073030E+04  0.14001523631E+04 0.  0.
        4    1    3    3  502    0  0.65595167595E+03 -0.24032491409E+03  0.15374854667E+03  0.71531034805E+03  0.12699999809E+01 0. -1.
       -4    1    3    3    0  502 -0.65595167595E+03  0.24032491409E+03  0.24857082643E+03  0.74149695493E+03  0.12699999809E+01 0.  1.
</event>
<event>
 5   0  0.2316714E-05  0.1399780E+04  0.7818609E-02  0.8953978E-01
       -1   -1    0    0    0  501  0.00000000000E+00  0.00000000000E+00  0.41114395000E+03  0.41114395003E+03  0.50400001928E-02 0.  1.
        1   -1    0    0  501    0  0.00000000000E+00  0.00000000000E+00 -0.11914222495E+04  0.11914222495E+04  0.50400001928E-02 0. -1.
    10030    2    1    2    0    0  0.00000000000E+00  0.00000000000E+00 -0.78027829947E+03  0.16025661995E+04  0.13997800539E+04 0.  0.
        5    1    3    3  502    0 -0.60337930799E+03  0.23127042193E+03 -0.69791837264E+03  0.95113865563E+03  0.46999998093E+01 0. -1.
       -5    1    3    3    0  502  0.60337930799E+03 -0.23127042193E+03 -0.82359926823E+02  0.65142754387E+03  0.46999998093E+01 0.  1.
</event>
<event>
 5   0  0.1661000E-05  0.1400599E+04  0.7818609E-02  0.8953385E-01
        4   -1    0    0  501    0  0.00000000000E+00  0.00000000000E+00  0.12225638132E+04  0.12225644729E+04  0.12699999809E+01 0.  1.
       -4   -1    0    0    0  501  0.00000000000E+00  0.00000000000E+00 -0.40113808907E+03  0.40114009947E+03  0.12699999809E+01 0. -1.
    10030    2    1    2    0    0  0.00000000000E+00  0.00000000000E+00  0.82142572418E+03  0.16237045724E+04  0.14005985570E+04 0.  0.
        5    1    3    3  502    0 -0.19882101236E+03 -0.43351895970E+03 -0.18373281895E+03  0.51112456616E+03  0.46999998093E+01 0. -1.
       -5    1    3    3    0  502  0.19882101236E+03  0.43351895970E+03  0.10051585431E+04  0.11125800062E+04  0.46999998093E+01 0.  1.
</event>
<event>
 5   0  0.1661000E-05  0.1400336E+04  0.7818609E-02  0.8953575E-01
        3   -1    0    0  501    0  0.00000000000E+00  0.00000000000E+00  0.13591495053E+04  0.13591495090E+04  0.10100000352E+00 0.  1.
       -3   -1    0    0    0  501  0.00000000000E+00  0.00000000000E+00 -0.36069259081E+03  0.36069260495E+03  0.10100000352E+00 0. -1.
    10030    2    1    2    0    0  0.00000000000E+00  0.00000000000E+00  0.99845691445E+03  0.17198421140E+04  0.14003359193E+04 0.  0.
        4    1    3    3  502    0  0.44551636171E+03  0.45237506231E+03  0.13675248570E+03  0.64948508897E+03  0.12699999809E+01 0. -1.
       -4    1    3    3    0  502 -0.44551636171E+03 -0.45237506231E+03  0.86170442875E+03  0.10703570250E+04  0.12699999809E+01 0.  1.
</event>
<event>
 5   0  0.2363419E-05  0.1399461E+04  0.7818609E-02  0.8954209E-01
       -1   -1    0    0    0  501  0.00000000000E+00  0.00000000000E+00  0.34314561150E+04  0.34314561150E+04  0.50400001928E-02 0. -1.
        1   -1    0    0  501    0  0.00000000000E+00  0.00000000000E+00 -0.14268660459E+03  0.14268660468E+03  0.50400001928E-02 0.  1.
    10030    2    1    2    0    0  0.00000000000E+00  0.00000000000E+00  0.32887695104E+04  0.35741427197E+04  0.13994610706E+04 0.  0.
        2    1    3    3  502    0  0.70732732942E+02  0.19702939991E+03  0.33496057492E+04  0.33561409951E+04  0.25500000920E-02 0. -1.
       -2    1    3    3    0  502 -0.70732732942E+02 -0.19702939991E+03 -0.60836238834E+02  0.21800172453E+03  0.25500000920E-02 0.  1.
</event>
<event>
 5   0  0.2467303E-05  0.1399716E+04  0.7818609E-02  0.8954024E-01
        1   -1    0    0  501    0  0.00000000000E+00  0.00000000000E+00  0.80744206877E+03  0.80744206878E+03  0.50400001928E-02 0. -1.
       -1   -1    0    0    0  501  0.00000000000E+00  0.00000000000E+00 -0.60660880867E+03  0.60660880869E+03  0.50400001928E-02 0.  1.
    10030    2    1    2    0    0  0.00000000000E+00  0.00000000000E+00  0.20083326010E+03  0.14140508775E+04  0.13997163590E+04 0.  0.
        3    1    3    3  502    0  0.17291636629E+02  0.66409439992E+03 -0.12202249513E+03  0.67543309974E+03  0.10100000352E+00 0.  1.
       -3    1    3    3    0  502 -0.17291636629E+02 -0.66409439992E+03  0.32285575523E+03  0.73861777774E+03  0.10100000352E+00 0. -1.
</event>
<event>
 5   0  0.2316714E-05  0.1400124E+04  0.7818609E-02  0.8953729E-01
       -1   -1    0    0    0  501  0.00000000000E+00  0.00000000000E+00  0.47903133475E+03  0.47903133477E+03  0.50400001928E-02 0.  1.
        1   -1    0    0  501    0  0.00000000000E+00  0.00000000000E+00 -0.10230785406E+04  0.10230785406E+04  0.50400001928E-02 0. -1.
    10030    2    1    2    0    0  0.00000000000E+00  0.00000000000E+00 -0.54404720581E+03  0.15021098753E+04  0.14001238215E+04 0.  0.
        5    1    3    3  502    0  0.65442327906E+03  0.20387249791E+03 -0.42461899252E+03  0.80632326171E+03  0.46999998093E+01 0. -1.
       -5    1    3    3    0  502 -0.65442327906E+03 -0.20387249791E+03 -0.11942821329E+03  0.69578661363E+03  0.46999998093E+01 0.  1.
</event>
<event>
 5   0  0.4621450E-05  0.1395534E+04  0.7818609E-02  0.8957057E-01
       -2   -1    0    0    0  501  0.00000000000E+00  0.00000000000E+00  0.45474640247E+03  0.45474640248E+03  0.25500000920E-02 0.  1.
        2   -1    0    0  501    0  0.00000000000E+00  0.00000000000E+00 -0.10706607686E+04  0.10706607686E+04  0.25500000920E-02 0. -1.
    10030    2    1    2    0    0  0.00000000000E+00  0.00000000000E+00 -0.61591436612E+03  0.15254071711E+04  0.13955344966E+04 0.  0.
        5    1    3    3  502    0  0.31885533081E+02  0.25559450786E+03  0.40086010664E+03  0.47650409732E+03  0.46999998093E+01 0.  1.
       -5    1    3    3    0  502 -0.31885533081E+02 -0.25559450786E+03 -0.10167744728E+04  0.10489030737E+04  0.46999998093E+01 0. -1.
</event>
<event>
 5   0  0.2427569E-05  0.1402133E+04  0.7818609E-02  0.8952276E-01
       -1   -1    0    0    0  501  0.00000000000E+00  0.00000000000E+00  0.44829819391E+03  0.44829819394E+03  0.50400001928E-02 0.  1.
        1   -1    0    0  501    0  0.00000000000E+00  0.00000000000E+00 -0.10963558413E+04  0.10963558413E+04  0.50400001928E-02 0. -1.
    10030    2    1    2    0    0  0.00000000000E+00  0.00000000000E+00 -0.64805764741E+03  0.15446540353E+04  0.14021331514E+04 0.  0.
        1    1    3    3  502    0 -0.60065592582E+03 -0.24031120928E+03 -0.26467544699E+02  0.64748555928E+03  0.50400001928E-02 0.  1.
       -1    1    3    3    0  502  0.60065592582E+03  0.24031120928E+03 -0.62159010271E+03  0.89716847601E+03  0.50400001928E-02 0. -1.
</event>
<event>
 5   0  0.2316714E-05  0.1399860E+04  0.7818609E-02  0.8953920E-01
       -1   -1    0    0    0  501  0.00000000000E+00  0.00000000000E+00  0.35426750733E+03  0.35426750737E+03  0.50400001928E-02 0.  1.
        1   -1    0    0  501    0  0.00000000000E+00  0.00000000000E+00 -0.13828582112E+04  0.13828582112E+04  0.50400001928E-02 0. -1.
    10030    2    1    2    0    0  0.00000000000E+00  0.00000000000E+00 -0.10285907039E+04  0.17371257186E+04  0.13998596094E+04 0.  0.
        5    1    3    3  502    0  0.32560280528E+03 -0.57007191796E+03 -0.81541034179E+03  0.10468597298E+04  0.46999998093E+01 0. -1.
       -5    1    3    3    0  502 -0.32560280528E+03  0.57007191796E+03 -0.21318036208E+03  0.69026598875E+03  0.46999998093E+01 0.  1.
</event>
<event>
 5   0  0.2428507E-05  0.1399516E+04  0.7818609E-02  0.8954169E-01
       -1   -1    0    0    0  501  0.00000000000E+00  0.00000000000E+00  0.31210514843E+03  0.31210514847E+03  0.50400001928E-02 0. -1.
        1   -1    0    0  501    0  0.00000000000E+00  0.00000000000E+00 -0.15688979630E+04  0.15688979630E+04  0.50400001928E-02 0.  1.
    10030    2    1    2    0    0  0.00000000000E+00  0.00000000000E+00 -0.12567928146E+04  0.18810031115E+04  0.13995158186E+04 0.  0.
        4    1    3    3  502    0  0.35101830869E+03 -0.18014977521E+03  0.14835054021E+03  0.42151784093E+03  0.12699999809E+01 0. -1.
       -4    1    3    3    0  502 -0.35101830869E+03  0.18014977521E+03 -0.14051433548E+04  0.14594852706E+04  0.12699999809E+01 0.  1.
</event>
<event>
 5   0  0.2363419E-05  0.1400207E+04  0.7818609E-02  0.8953669E-01
       -1   -1    0    0    0  501  0.00000000000E+00  0.00000000000E+00  0.81701858025E+03  0.81701858027E+03  0.50400001928E-02 0.  1.
        1   -1    0    0  501    0  0.00000000000E+00  0.00000000000E+00 -0.59991874824E+03  0.59991874827E+03  0.50400001928E-02 0. -1.
    10030    2    1    2    0    0  0.00000000000E+00  0.00000000000E+00  0.21709983201E+03  0.14169373285E+04  0.14002067904E+04 0.  0.
        2    1    3    3  502    0 -0.27220277108E+03 -0.18422174085E+02  0.76101044031E+03  0.80843714372E+03  0.25500000920E-02 0.  1.
       -2    1    3    3    0  502  0.27220277108E+03  0.18422174085E+02 -0.54391060830E+03  0.60850018481E+03  0.25500000920E-02 0. -1.
</event>
<event>
 5   0  0.4243281E-05  0.1399678E+04  0.7818609E-02  0.8954052E-01
       -2   -1    0    0    0  501  0.00000000000E+00  0.00000000000E+00  0.82635757340E+03  0.82635757340E+03  0.25500000920E-02 0.  1.
        2   -1    0    0  501    0  0.00000000000E+00  0.00000000000E+00 -0.59269078382E+03  0.59269078383E+03  0.25500000920E-02 0. -1.
    10030    2    1    2    0    0  0.00000000000E+00  0.00000000000E+00  0.23366678958E+03  0.14190483572E+04  0.13996778457E+04 0.  0.
        2    1    3    3  502    0 -0.33845181258E+03 -0.56436580835E+03 -0.12461391669E+03  0.66976639458E+03  0.25500000920E-02 0. -1.
       -2    1    3    3    0  502  0.33845181258E+03  0.56436580835E+03  0.35828070627E+03  0.74928196265E+03  0.25500000920E-02 0.  1.
</event>
<event>
 5   0  0.4441253E-05  0.1401400E+04  0.7818609E-02  0.8952806E-01
        2   -1    0    0  501    0  0.00000000000E+00  0.00000000000E+00  0.90016606183E+03  0.90016606183E+03  0.25500000920E-02 0.  1.
       -2   -1    0    0    0  501  0.00000000000E+00  0.00000000000E+00 -0.54543301511E+03  0.54543301511E+03  0.25500000920E-02 0. -1.
    10030    2    1    2    0    0  0.00000000000E+00  0.00000000000E+00  0.35473304672E+03  0.14455990769E+04  0.14013997134E+04 0.  0.
        3    1    3    3  502    0  0.40258622734E+02  0.29067526009E+03  0.83372674130E+03  0.88386263236E+03  0.10100000352E+00 0.  1.
       -3    1    3    3    0  502 -0.40258622734E+02 -0.29067526009E+03 -0.47899369457E+03  0.56173644458E+03  0.10100000352E+00 0. -1.
</event>
<event>
 5   0  0.4527503E-05  0.1400376E+04  0.7818609E-02  0.8953546E-01
        2   -1    0    0  501    0  0.00000000000E+00  0.00000000000E+00  0.26439413648E+03  0.26439413649E+03  0.25500000920E-02 0. -1.
       -2   -1    0    0    0  501  0.00000000000E+00  0.00000000000E+00 -0.18542895213E+04  0.18542895213E+04  0.25500000920E-02 0.  1.
    10030    2    1    2    0    0  0.00000000000E+00  0.00000000000E+00 -0.15898953848E+04  0.21186836578E+04  0.14003760592E+04 0.  0.
        4    1    3    3  502    0 -0.31491240222E+02 -0.51441281800E+03 -0.77856995120E+02  0.52122506666E+03  0.12699999809E+01 0. -1.
       -4    1    3    3    0  502  0.31491240222E+02  0.51441281800E+03 -0.15120383897E+04  0.15974585911E+04  0.12699999809E+01 0.  1.
</event>
<event>
 5   0  0.2316714E-05  0.1405171E+04  0.7818609E-02  0.8950084E-01
       -1   -1    0    0    0  501  0.00000000000E+00  0.00000000000E+00  0.31677194553E+03  0.31677194557E+03  0.50400001928E-02 0.  1.
        1   -1    0    0  501    0  0.00000000000E+00  0.00000000000E+00 -0.15583011573E+04  0.15583011573E+04  0.50400001928E-02 0. -1.
    10030    2    1    2    0    0  0.00000000000E+00  0.00000000000E+00 -0.12415292117E+04  0.18750731028E+04  0.14051705795E+04 0.  0.
        5    1    3    3  502    0 -0.26670226001E+03  0.30610663472E+03  0.14436848521E+03  0.43092425881E+03  0.46999998093E+01 0.  1.
       -5    1    3    3    0  502  0.26670226001E+03 -0.30610663472E+03 -0.13858976970E+04  0.14441488440E+04  0.46999998093E+01 0. -1.
</event>
<event>
 5   0  0.4460282E-05  0.1396445E+04  0.7818609E-02  0.8956396E-01
        2   -1    0    0  501    0  0.00000000000E+00  0.00000000000E+00  0.96160483305E+03  0.96160483305E+03  0.25500000920E-02 0.  1.
       -2   -1    0    0    0  501  0.00000000000E+00  0.00000000000E+00 -0.50698008325E+03  0.50698008325E+03  0.25500000920E-02 0. -1.
    10030    2    1    2    0    0  0.00000000000E+00  0.00000000000E+00  0.45462474980E+03  0.14685849163E+04  0.13964447691E+04 0.  0.
        1    1    3    3  502    0  0.13806247798E+03 -0.59738048363E+03  0.57861999122E+03  0.84304554107E+03  0.50400001928E-02 0.  1.
       -1    1    3    3    0  502 -0.13806247798E+03  0.59738048363E+03 -0.12399524142E+03  0.62553937523E+03  0.50400001928E-02 0. -1.
</event>
<event>
 5   0  0.4621450E-05  0.1400371E+04  0.7818609E-02  0.8953550E-01
       -2   -1    0    0    0  501  0.00000000000E+00  0.00000000000E+00  0.39298661554E+03  0.39298661554E+03  0.25500000920E-02 0.  1.
        2   -1    0    0  501    0  0.00000000000E+00  0.00000000000E+00 -0.12475222783E+04  0.12475222783E+04  0.25500000920E-02 0. -1.
    10030    2    1    2    0    0  0.00000000000E+00  0.00000000000E+00 -0.85453566276E+03  0.16405088938E+04  0.14003707480E+04 0.  0.
        5    1    3    3  502    0 -0.15719260723E+03 -0.14277788294E+02 -0.12263902793E+04  0.12365146899E+04  0.46999998093E+01 0. -1.
       -5    1    3    3    0  502  0.15719260723E+03  0.14277788294E+02  0.37185461656E+03  0.40399420399E+03  0.46999998093E+01 0.  1.
</event>
<event>
 5   0  0.2428507E-05  0.1399063E+04  0.7818609E-02  0.8954497E-01
       -1   -1    0    0    0  501  0.00000000000E+00  0.00000000000E+00  0.88324681663E+03  0.88324681664E+03  0.50400001928E-02 0.  1.
        1   -1    0    0  501    0  0.00000000000E+00  0.00000000000E+00 -0.55402877224E+03  0.55402877226E+03  0.50400001928E-02 0. -1.
    10030    2    1    2    0    0  0.00000000000E+00  0.00000000000E+00  0.32921804439E+03  0.14372755889E+04  0.13990627569E+04 0.  0.
        4    1    3    3  502    0  0.38672199169E+03 -0.12367722479E+03 -0.42059222098E+03  0.58459334929E+03  0.12699999809E+01 0. -1.
       -4    1    3    3    0  502 -0.38672199169E+03  0.12367722479E+03  0.74981026537E+03  0.85268223961E+03  0.12699999809E+01 0.  1.
</event>
<event>
 5   0  0.2363419E-05  0.1400009E+04  0.7818609E-02  0.8953812E-01
        1   -1    0    0  501    0  0.00000000000E+00  0.00000000000E+00  0.22077128441E+04  0.22077128441E+04  0.50400001928E-02 0. -1.
       -1   -1    0    0    0  501  0.00000000000E+00  0.00000000000E+00 -0.22195211406E+03  0.22195211411E+03  0.50400001928E-02 0.  1.
    10030    2    1    2    0    0  0.00000000000E+00  0.00000000000E+00  0.19857607300E+04  0.24296649582E+04  0.14000093329E+04 0.  0.
        2    1    3    3  502    0  0.44117276199E+03 -0.27647750776E+03  0.18085165266E+03  0.55116289651E+03  0.25500000920E-02 0.  1.
       -2    1    3    3    0  502 -0.44117276199E+03  0.27647750776E+03  0.18049090774E+04  0.18785020617E+04  0.25500000920E-02 0. -1.
</event>
<event>
 5   0  0.2363419E-05  0.1401475E+04  0.7818609E-02  0.8952752E-01
        1   -1    0    0  501    0  0.00000000000E+00  0.00000000000E+00  0.92309306186E+03  0.92309306188E+03  0.50400001928E-02 0.  1.
       -1   -1    0    0    0  501  0.00000000000E+00  0.00000000000E+00 -0.53194298149E+03  0.53194298151E+03  0.50400001928E-02 0. -1.
    10030    2    1    2    0    0  0.00000000000E+00  0.00000000000E+00  0.39115008038E+03  0.14550360434E+04  0.14014747597E+04 0.  0.
        2    1    3    3  502    0  0.25400569900E+03  0.40176175531E+03  0.73013268010E+03  0.87122048513E+03  0.25500000920E-02 0. -1.
       -2    1    3    3    0  502 -0.25400569900E+03 -0.40176175531E+03 -0.33898259972E+03  0.58381555826E+03  0.25500000920E-02 0.  1.
</event>
<event>
 5   0  0.2467303E-05  0.1398137E+04  0.7818609E-02  0.8955168E-01
        1   -1    0    0  501    0  0.00000000000E+00  0.00000000000E+00  0.16871106042E+04  0.16871106042E+04  0.50400001928E-02 0.  1.
       -1   -1    0    0    0  501  0.00000000000E+00  0.00000000000E+00 -0.28966488291E+03  0.28966488295E+03  0.50400001928E-02 0. -1.
    10030    2    1    2    0    0  0.00000000000E+00  0.00000000000E+00  0.13974457213E+04  0.19767754872E+04  0.13981368970E+04 0.  0.
        3    1    3    3  502    0 -0.28674682563E+03  0.53795558331E+03  0.11824973344E+04  0.13303833687E+04  0.10100000352E+00 0.  1.
       -3    1    3    3    0  502  0.28674682563E+03 -0.53795558331E+03  0.21494838691E+03  0.64639211850E+03  0.10100000352E+00 0. -1.
</event>
<event>
 5   0  0.2363419E-05  0.1399944E+04  0.7818609E-02  0.8953859E-01
        1   -1    0    0  501    0  0.00000000000E+00  0.00000000000E+00  0.40770503410E+03  0.40770503414E+03  0.50400001928E-02 0. -1.
       -1   -1    0    0    0  501  0.00000000000E+00  0.00000000000E+00 -0.12017538104E+04  0.12017538104E+04  0.50400001928E-02 0.  1.
    10030    2    1    2    0    0  0.00000000000E+00  0.00000000000E+00 -0.79404877631E+03  0.16094588446E+04  0.13999443965E+04 0.  0.
        2    1    3    3  502    0  0.69682444772E+03  0.14021238087E+02 -0.32251643394E+03  0.76796989278E+03  0.25500000920E-02 0. -1.
       -2    1    3    3    0  502 -0.69682444772E+03 -0.14021238087E+02 -0.47153234237E+03  0.84148895178E+03  0.25500000920E-02 0.  1.
</event>
<event>
 5   0  0.4243281E-05  0.1400369E+04  0.7818609E-02  0.8953551E-01
        2   -1    0    0  501    0  0.00000000000E+00  0.00000000000E+00  0.16311251079E+04  0.16311251079E+04  0.25500000920E-02 0. -1.
       -2   -1    0    0    0  501  0.00000000000E+00  0.00000000000E+00 -0.30056458066E+03  0.30056458067E+03  0.25500000920E-02 0.  1.
    10030    2    1    2    0    0  0.00000000000E+00  0.00000000000E+00  0.13305605272E+04  0.19316896885E+04  0.14003691429E+04 0.  0.
        2    1    3    3  502    0 -0.61607223809E+03  0.32915575432E+03  0.59812783008E+03  0.91958980762E+03  0.25500000920E-02 0. -1.
       -2    1    3    3    0  502  0.61607223809E+03 -0.32915575432E+03  0.73243269712E+03  0.10120998809E+04  0.25500000920E-02 0.  1.
</event>
<event>
 5   0  0.4243281E-05  0.1400259E+04  0.7818609E-02  0.8953631E-01
       -2   -1    0    0    0  501  0.00000000000E+00  0.00000000000E+00  0.79750406127E+03  0.79750406128E+03  0.25500000920E-02 0.  1.
        2   -1    0    0  501    0  0.00000000000E+00  0.00000000000E+00 -0.61464446073E+03  0.61464446074E+03  0.25500000920E-02 0. -1.
    10030    2    1    2    0    0  0.00000000000E+00  0.00000000000E+00  0.18285960054E+03  0.14121485220E+04  0.14002591955E+04 0.  0.
        2    1    3    3  502    0 -0.55043596900E+03 -0.36701657153E+03 -0.13964564711E+03  0.67615222140E+03  0.25500000920E-02 0. -1.
       -2    1    3    3    0  502  0.55043596900E+03  0.36701657153E+03  0.32250524764E+03  0.73599630061E+03  0.25500000920E-02 0.  1.
</event>
<event>
 5   0  0.4441253E-05  0.1400982E+04  0.7818609E-02  0.8953108E-01
       -2   -1    0    0    0  501  0.00000000000E+00  0.00000000000E+00  0.71300507009E+03  0.71300507010E+03  0.25500000920E-02 0.  1.
        2   -1    0    0  501    0  0.00000000000E+00  0.00000000000E+00 -0.68819617297E+03  0.68819617297E+03  0.25500000920E-02 0. -1.
    10030    2    1    2    0    0  0.00000000000E+00  0.00000000000E+00  0.24808897126E+02  0.14012012431E+04  0.14009815995E+04 0.  0.
        3    1    3    3  502    0 -0.34138592749E+03  0.92871160990E+02  0.61708003587E+03  0.71130667430E+03  0.10100000352E+00 0.  1.
       -3    1    3    3    0  502  0.34138592749E+03 -0.92871160990E+02 -0.59227113875E+03  0.68989456877E+03  0.10100000352E+00 0. -1.
</event>
<event>
 5   0  0.2427569E-05  0.1397572E+04  0.7818609E-02  0.8955578E-01
       -1   -1    0    0    0  501  0.00000000000E+00  0.00000000000E+00  0.54358045856E+03  0.54358045858E+03  0.50400001928E-02 0. -1.
        1   -1    0    0  501    0  0.00000000000E+00  0.00000000000E+00 -0.89830675291E+03  0.89830675292E+03  0.50400001928E-02 0.  1.
    10030    2    1    2    0    0  0.00000000000E+00  0.00000000000E+00 -0.35472629435E+03  0.14418872115E+04  0.13975721759E+04 0.  0.
        1    1    3    3  502    0  0.60619159706E+03  0.10836642367E+03  0.16339828575E+03  0.63711108446E+03  0.50400001928E-02 0. -1.
       -1    1    3    3    0  502 -0.60619159706E+03 -0.10836642367E+03 -0.51812458010E+03  0.80477612704E+03  0.50400001928E-02 0.  1.
</event>
<event>
 5   0  0.2363419E-05  0.1399938E+04  0.7818609E-02  0.8953863E-01
        1   -1    0    0  501    0  0.00000000000E+00  0.00000000000E+00  0.59139716220E+03  0.59139716222E+03  0.50400001928E-02 0. -1.
       -1   -1    0    0    0  501  0.00000000000E+00  0.00000000000E+00 -0.82847304211E+03  0.82847304213E+03  0.50400001928E-02 0.  1.
    10030    2    1    2    0    0  0.00000000000E+00  0.00000000000E+00 -0.23707587991E+03  0.14198702043E+04  0.13999380073E+04 0.  0.
        2    1    3    3  502    0  0.17909093304E+03 -0.60346082391E+03  0.19195485548E+03  0.65809208690E+03  0.25500000920E-02 0. -1.
       -2    1    3    3    0  502 -0.17909093304E+03  0.60346082391E+03 -0.42903073540E+03  0.76177811744E+03  0.25500000920E-02 0.  1.
</event>
<event>
 5   0  0.2363419E-05  0.1400124E+04  0.7818609E-02  0.8953729E-01
        1   -1    0    0  501    0  0.00000000000E+00  0.00000000000E+00  0.19885935058E+04  0.19885935058E+04  0.50400001928E-02 0.  1.
       -1   -1    0    0    0  501  0.00000000000E+00  0.00000000000E+00 -0.24644887654E+03  0.24644887660E+03  0.50400001928E-02 0. -1.
    10030    2    1    2    0    0  0.00000000000E+00  0.00000000000E+00  0.17421446293E+04  0.22350423824E+04  0.14001237595E+04 0.  0.
        2    1    3    3  502    0 -0.47832217456E+03 -0.50977226673E+03  0.93136937622E+03  0.11645208378E+04  0.25500000920E-02 0.  1.
       -2    1    3    3    0  502  0.47832217456E+03  0.50977226673E+03  0.81077525305E+03  0.10705215447E+04  0.25500000920E-02 0. -1.
</event>
<event>
 5   0  0.4441253E-05  0.1400006E+04  0.7818609E-02  0.8953814E-01
       -2   -1    0    0    0  501  0.00000000000E+00  0.00000000000E+00  0.37687305080E+03  0.37687305081E+03  0.25500000920E-02 0. -1.
        2   -1    0    0  501    0  0.00000000000E+00  0.00000000000E+00 -0.13001833885E+04  0.13001833885E+04  0.25500000920E-02 0.  1.
    10030    2    1    2    0    0  0.00000000000E+00  0.00000000000E+00 -0.92331033773E+03  0.16770564393E+04  0.14000058289E+04 0.  0.
        3    1    3    3  502    0 -0.55296324432E+03 -0.18550598428E+02  0.52032068102E+02  0.55571559325E+03  0.10100000352E+00 0.  1.
       -3    1    3    3    0  502  0.55296324432E+03  0.18550598428E+02 -0.97534240583E+03  0.11213408461E+04  0.10100000352E+00 0. -1.
</event>
<event>
 5   0  0.4243281E-05  0.1400458E+04  0.7818609E-02  0.8953487E-01
       -2   -1    0    0    0  501  0.00000000000E+00  0.00000000000E+00  0.52277021821E+03  0.52277021822E+03  0.25500000920E-02 0. -1.
        2   -1    0    0  501    0  0.00000000000E+00  0.00000000000E+00 -0.93792832823E+03  0.93792832823E+03  0.25500000920E-02 0.  1.
    10030    2    1    2    0    0  0.00000000000E+00  0.00000000000E+00 -0.41515811001E+03  0.14606985465E+04  0.14004584918E+04 0.  0.
        2    1    3    3  502    0  0.41650469711E+03  0.55895724246E+03 -0.13830188271E+03  0.71065939266E+03  0.25500000920E-02 0. -1.
       -2    1    3    3    0  502 -0.41650469711E+03 -0.55895724246E+03 -0.27685622730E+03  0.75003915379E+03  0.25500000920E-02 0.  1.
</event>
<event>
 5   0  0.4243281E-05  0.1399979E+04  0.7818609E-02  0.8953834E-01
        2   -1    0    0  501    0  0.00000000000E+00  0.00000000000E+00  0.74153690608E+03  0.74153690608E+03  0.25500000920E-02 0. -1.
       -2   -1    0    0    0  501  0.00000000000E+00  0.00000000000E+00 -0.66076957393E+03  0.66076957394E+03  0.25500000920E-02 0.  1.
    10030    2    1    2    0    0  0.00000000000E+00  0.00000000000E+00  0.80767332146E+02  0.14023064800E+04  0.13999786077E+04 0.  0.
        2    1    3    3  502    0  0.68161491360E+03 -0.15176745091E+03 -0.82024096078E+01  0.69835487334E+03  0.25500000920E-02 0.  1.
       -2    1    3    3    0  502 -0.68161491360E+03  0.15176745091E+03  0.88969741753E+02  0.70395160668E+03  0.25500000920E-02 0. -1.
</event>
<event>
 5   0  0.2428507E-05  0.1400114E+04  0.7818609E-02  0.8953736E-01
        1   -1    0    0  501    0  0.00000000000E+00  0.00000000000E+00  0.21558592014E+04  0.21558592014E+04  0.50400001928E-02 0. -1.
       -1   -1    0    0    0  501  0.00000000000E+00  0.00000000000E+00 -0.22732451130E+03  0.22732451136E+03  0.50400001928E-02 0.  1.
    10030    2    1    2    0    0  0.00000000000E+00  0.00000000000E+00  0.19285346901E+04  0.23831837127E+04  0.14001137660E+04 0.  0.
        4    1    3    3  502    0  0.42462360845E+03 -0.52471757669E+03  0.12801696300E+04  0.14472282607E+04  0.12699999809E+01 0.  1.
       -4    1    3    3    0  502 -0.42462360845E+03  0.52471757669E+03  0.64836506004E+03  0.93595545199E+03  0.12699999809E+01 0. -1.
</event>
<event>
 5   0  0.1661000E-05  0.1399495E+04  0.7818609E-02  0.8954184E-01
       -3   -1    0    0    0  501  0.00000000000E+00  0.00000000000E+00  0.11146278305E+04  0.11146278351E+04  0.10100000352E+00 0.  1.
        3   -1    0    0  501    0  0.00000000000E+00  0.00000000000E+00 -0.43929154349E+03  0.43929155510E+03  0.10100000352E+00 0. -1.
    10030    2    1    2    0    0  0.00000000000E+00  0.00000000000E+00  0.67533628705E+03  0.15539193902E+04  0.13994950413E+04 0.  0.
        2    1    3    3  502    0  0.58709268969E+03  0.87588436718E+02  0.74909031939E+03  0.95576454587E+03  0.25500000920E-02 0.  1.
       -2    1    3    3    0  502 -0.58709268969E+03 -0.87588436718E+02 -0.73754032339E+02  0.59815484435E+03  0.25500000920E-02 0. -1.
</event>
<event>
 5   0  0.4460282E-05  0.1400002E+04  0.7818609E-02  0.8953817E-01
       -2   -1    0    0    0  501  0.00000000000E+00  0.00000000000E+00  0.34213386114E+03  0.34213386115E+03  0.25500000920E-02 0.  1.
        2   -1    0    0  501    0  0.00000000000E+00  0.00000000000E+00 -0.14321911677E+04  0.14321911677E+04  0.25500000920E-02 0. -1.
    10030    2    1    2    0    0  0.00000000000E+00  0.00000000000E+00 -0.10900573066E+04  0.17743250289E+04  0.14000015630E+04 0.  0.
        1    1    3    3  502    0 -0.41778096193E+03  0.85503584026E+02 -0.12485629121E+04  0.13193790738E+04  0.50400001928E-02 0. -1.
       -1    1    3    3    0  502  0.41778096193E+03 -0.85503584026E+02  0.15850560548E+03  0.45494595506E+03  0.50400001928E-02 0.  1.
</event>
<event>
 5   0  0.4441253E-05  0.1400431E+04  0.7818609E-02  0.8953506E-01
        2   -1    0    0  501    0  0.00000000000E+00  0.00000000000E+00  0.93616805259E+03  0.93616805259E+03  0.25500000920E-02 0. -1.
       -2   -1    0    0    0  501  0.00000000000E+00  0.00000000000E+00 -0.52373294855E+03  0.52373294856E+03  0.25500000920E-02 0.  1.
    10030    2    1    2    0    0  0.00000000000E+00  0.00000000000E+00  0.41243510403E+03  0.14599010012E+04  0.14004314400E+04 0.  0.
        3    1    3    3  502    0  0.24190382841E+03  0.11291667772E+03 -0.46860004013E+03  0.53930848882E+03  0.10100000352E+00 0.  1.
       -3    1    3    3    0  502 -0.24190382841E+03 -0.11291667772E+03  0.88103514416E+03  0.92059251233E+03  0.10100000352E+00 0. -1.
</event>
<event>
 5   0  0.2363419E-05  0.1400050E+04  0.7818609E-02  0.8953782E-01
        1   -1    0    0  501    0  0.00000000000E+00  0.00000000000E+00  0.47370979442E+03  0.47370979445E+03  0.50400001928E-02 0.  1.
       -1   -1    0    0    0  501  0.00000000000E+00  0.00000000000E+00 -0.10344625790E+04  0.10344625791E+04  0.50400001928E-02 0. -1.
    10030    2    1    2    0    0  0.00000000000E+00  0.00000000000E+00 -0.56075278462E+03  0.15081723735E+04  0.14000500786E+04 0.  0.
        2    1    3    3  502    0 -0.19345996430E+03 -0.66690525886E+03 -0.37579268291E+03  0.78956286806E+03  0.25500000920E-02 0.  1.
       -2    1    3    3    0  502  0.19345996430E+03  0.66690525886E+03 -0.18496010171E+03  0.71860950544E+03  0.25500000920E-02 0. -1.
</event>
<event>
 5   0  0.4441253E-05  0.1400130E+04  0.7818609E-02  0.8953725E-01
        2   -1    0    0  501    0  0.00000000000E+00  0.00000000000E+00  0.12159358741E+04  0.12159358741E+04  0.25500000920E-02 0.  1.
       -2   -1    0    0    0  501  0.00000000000E+00  0.00000000000E+00 -0.40305657152E+03  0.40305657153E+03  0.25500000920E-02 0. -1.
    10030    2    1    2    0    0  0.00000000000E+00  0.00000000000E+00  0.81287930257E+03  0.16189924456E+04  0.14001299149E+04 0.  0.
        3    1    3    3  502    0 -0.67371315675E+03  0.18883768061E+03  0.43335592342E+03  0.82301060367E+03  0.10100000352E+00 0. -1.
       -3    1    3    3    0  502  0.67371315675E+03 -0.18883768061E+03  0.37952337916E+03  0.79598184196E+03  0.10100000352E+00 0.  1.
</event>
<event>
 5   0  0.4243281E-05  0.1400284E+04  0.7818609E-02  0.8953613E-01
        2   -1    0    0  501    0  0.00000000000E+00  0.00000000000E+00  0.91765951427E+03  0.91765951427E+03  0.25500000920E-02 0.  1.
       -2   -1    0    0    0  501  0.00000000000E+00  0.00000000000E+00 -0.53418350731E+03  0.53418350731E+03  0.25500000920E-02 0. -1.
    10030    2    1    2    0    0  0.00000000000E+00  0.00000000000E+00  0.38347600696E+03  0.14518430216E+04  0.14002836539E+04 0.  0.
        2    1    3    3  502    0 -0.36619165313E+03 -0.10510381567E+01  0.81045255198E+03  0.88934288692E+03  0.25500000920E-02 0.  1.
       -2    1    3    3    0  502  0.36619165313E+03  0.10510381567E+01 -0.42697654501E+03  0.56250013467E+03  0.25500000920E-02 0. -1.
</event>
<event>
 5   0  0.4621450E-05  0.1399692E+04  0.7818609E-02  0.8954042E-01
        2   -1    0    0  501    0  0.00000000000E+00  0.00000000000E+00  0.56989407920E+03  0.56989407920E+03  0.25500000920E-02 0.  1.
       -2   -1    0    0    0  501  0.00000000000E+00  0.00000000000E+00 -0.85943013814E+03  0.85943013814E+03  0.25500000920E-02 0. -1.
    10030    2    1    2    0    0  0.00000000000E+00  0.00000000000E+00 -0.28953605894E+03  0.14293242173E+04  0.13996916049E+04 0.  0.
        5    1    3    3  502    0  0.27503112988E+03 -0.59732987512E+03  0.99710063826E+02  0.66513854868E+03  0.46999998093E+01 0.  1.
       -5    1    3    3    0  502 -0.27503112988E+03  0.59732987512E+03 -0.38924612276E+03  0.76418566867E+03  0.46999998093E+01 0. -1.
</event>
<event>
 5   0  0.2316714E-05  0.1400432E+04  0.7818609E-02  0.8953506E-01
       -1   -1    0    0    0  501  0.00000000000E+00  0.00000000000E+00  0.68833373079E+03  0.68833373081E+03  0.50400001928E-02 0.  1.
        1   -1    0    0  501    0  0.00000000000E+00  0.00000000000E+00 -0.71230363069E+03  0.71230363070E+03  0.50400001928E-02 0. -1.
    10030    2    1    2    0    0  0.00000000000E+00  0.00000000000E+00 -0.23969899894E+02  0.14006373615E+04  0.14004322413E+04 0.  0.
        5    1    3    3  502    0  0.21058905637E+03  0.20350226370E+03  0.62412676323E+03  0.68943254099E+03  0.46999998093E+01 0.  1.
       -5    1    3    3    0  502 -0.21058905637E+03 -0.20350226370E+03 -0.64809666312E+03  0.71120482053E+03  0.46999998093E+01 0. -1.
</event>
<event>
 5   0  0.2316714E-05  0.1400046E+04  0.7818609E-02  0.8953785E-01
       -1   -1    0    0    0  501  0.00000000000E+00  0.00000000000E+00  0.34050458658E+03  0.34050458662E+03  0.50400001928E-02 0. -1.
        1   -1    0    0  501    0  0.00000000000E+00  0.00000000000E+00 -0.14391363243E+04  0.14391363243E+04  0.50400001928E-02 0.  1.
    10030    2    1    2    0    0  0.00000000000E+00  0.00000000000E+00 -0.10986317377E+04  0.17796409109E+04  0.14000464552E+04 0.  0.
        5    1    3    3  502    0  0.26785885639E+03  0.16508304908E+03 -0.13441631115E+04  0.13805061899E+04  0.46999998093E+01 0.  1.
       -5    1    3    3    0  502 -0.26785885639E+03 -0.16508304908E+03  0.24553137376E+03  0.39913472104E+03  0.46999998093E+01 0. -1.
</event>
<event>
 5   0  0.4460282E-05  0.1399968E+04  0.7818609E-02  0.8953842E-01
        2   -1    0    0  501    0  0.00000000000E+00  0.00000000000E+00  0.56058927578E+03  0.56058927578E+03  0.25500000920E-02 0. -1.
       -2   -1    0    0    0  501  0.00000000000E+00  0.00000000000E+00 -0.87404018095E+03  0.87404018096E+03  0.25500000920E-02 0.  1.
    10030    2    1    2    0    0  0.00000000000E+00  0.00000000000E+00 -0.31345090517E+03  0.14346294567E+04  0.13999679311E+04 0.  0.
        1    1    3    3  502    0 -0.54195137604E+03  0.22179915374E+03 -0.54971930785E+03  0.80317960385E+03  0.50400001928E-02 0.  1.
       -1    1    3    3    0  502  0.54195137604E+03 -0.22179915374E+03  0.23626840268E+03  0.63144985289E+03  0.50400001928E-02 0. -1.
</event>
<event>
 5   0  0.2363419E-05  0.1399272E+04  0.7818609E-02  0.8954346E-01
       -1   -1    0    0    0  501  0.00000000000E+00  0.00000000000E+00  0.53471569161E+03  0.53471569164E+03  0.50400001928E-02 0.  1.
        1   -1    0    0  501    0  0.00000000000E+00  0.00000000000E+00 -0.91542225204E+03  0.91542225206E+03  0.50400001928E-02 0. -1.
    10030    2    1    2    0    0  0.00000000000E+00  0.00000000000E+00 -0.38070656043E+03  0.14501379437E+04  0.13992721574E+04 0.  0.
        2    1    3    3  502    0  0.60899366377E+02 -0.29824735201E+03  0.46249100328E+03  0.55367693101E+03  0.25500000920E-02 0.  1.
       -2    1    3    3    0  502 -0.60899366377E+02  0.29824735201E+03 -0.84319756371E+03  0.89646101269E+03  0.25500000920E-02 0. -1.
</event>
<event>
 5   0  0.4243281E-05  0.1401003E+04  0.7818609E-02  0.8953093E-01
       -2   -1    0    0    0  501  0.00000000000E+00  0.00000000000E+00  0.26680146389E+03  0.26680146390E+03  0.25500000920E-02 0. -1.
        2   -1    0    0  501    0  0.00000000000E+00  0.00000000000E+00 -0.18392053650E+04  0.18392053650E+04  0.25500000920E-02 0.  1.
    10030    2    1    2    0    0  0.00000000000E+00  0.00000000000E+00 -0.15724039011E+04  0.21060068289E+04  0.14010034744E+04 0.  0.
        2    1    3    3  502    0  0.10998258077E+03 -0.18323190189E+03 -0.17890068997E+04  0.18017257796E+04  0.25500000920E-02 0.  1.
       -2    1    3    3    0  502 -0.10998258077E+03  0.18323190189E+03  0.21660299856E+03  0.30428104926E+03  0.25500000920E-02 0. -1.
</event>
<event>
 5   0  0.2427569E-05  0.1400022E+04  0.7818609E-02  0.8953802E-01
        1   -1    0    0  501    0  0.00000000000E+00  0.00000000000E+00  0.13233358193E+04  0.13233358193E+04  0.50400001928E-02 0.  1.
       -1   -1    0    0    0  501  0.00000000000E+00  0.00000000000E+00 -0.37028811285E+03  0.37028811289E+03  0.50400001928E-02 0. -1.
    10030    2    1    2    0    0  0.00000000000E+00  0.00000000000E+00  0.95304770647E+03  0.16936239322E+04  0.14000221759E+04 0.  0.
        1    1    3    3  502    0 -0.36474233441E+00  0.18245200907E+03  0.12940661787E+04  0.13068650059E+04  0.50400001928E-02 0.  1.
       -1    1    3    3    0  502  0.36474233441E+00 -0.18245200907E+03 -0.34101847226E+03  0.38675892634E+03  0.50400001928E-02 0. -1.
</event>
<event>
 5   0  0.4527503E-05  0.1398400E+04  0.7818609E-02  0.8954977E-01
       -2   -1    0    0    0  501  0.00000000000E+00  0.00000000000E+00  0.33242471369E+03  0.33242471370E+03  0.25500000920E-02 0. -1.
        2   -1    0    0  501    0  0.00000000000E+00  0.00000000000E+00 -0.14706509775E+04  0.14706509775E+04  0.25500000920E-02 0.  1.
    10030    2    1    2    0    0  0.00000000000E+00  0.00000000000E+00 -0.11382262638E+04  0.18030756912E+04  0.13984001289E+04 0.  0.
        4    1    3    3  502    0 -0.37068490846E+03  0.44425511697E+03 -0.10752835914E+04  0.12210676988E+04  0.12699999809E+01 0.  1.
       -4    1    3    3    0  502  0.37068490846E+03 -0.44425511697E+03 -0.62942672458E+02  0.58200799241E+03  0.12699999809E+01 0. -1.
</event>
<event>
 5   0  0.2428507E-05  0.1399997E+04  0.7818609E-02  0.8953821E-01
       -1   -1    0    0    0  501  0.00000000000E+00  0.00000000000E+00  0.92447670158E+03  0.92447670159E+03  0.50400001928E-02 0.  1.
        1   -1    0    0  501    0  0.00000000000E+00  0.00000000000E+00 -0.53002719353E+03  0.53002719355E+03  0.50400001928E-02 0. -1.
    10030    2    1    2    0    0  0.00000000000E+00  0.00000000000E+00  0.39444950805E+03  0.14545038951E+04  0.13999968452E+04 0.  0.
        4    1    3    3  502    0  0.25563201461E+03  0.19414114210E+03 -0.44905352615E+03  0.55198658697E+03  0.12699999809E+01 0. -1.
       -4    1    3    3    0  502 -0.25563201461E+03 -0.19414114210E+03  0.84350303420E+03  0.90251730817E+03  0.12699999809E+01 0.  1.
</event>
<event>
 5   0  0.1661000E-05  0.1400255E+04  0.7818609E-02  0.8953634E-01
       -4   -1    0    0    0  501  0.00000000000E+00  0.00000000000E+00  0.38504895543E+03  0.38505104983E+03  0.12699999809E+01 0. -1.
        4   -1    0    0  501    0  0.00000000000E+00  0.00000000000E+00 -0.12730230306E+04  0.12730236641E+04  0.12699999809E+01 0.  1.
    10030    2    1    2    0    0  0.00000000000E+00  0.00000000000E+00 -0.88797407513E+03  0.16580747139E+04  0.14002549049E+04 0.  0.
        2    1    3    3  502    0  0.40699711351E+03  0.27309264711E+03 -0.10359921812E+04  0.11460829131E+04  0.25500000920E-02 0.  1.
       -2    1    3    3    0  502 -0.40699711351E+03 -0.27309264711E+03  0.14801810604E+03  0.51199180075E+03  0.25500000920E-02 0. -1.
</event>
<event>
 5   0  0.2428507E-05  0.1399291E+04  0.7818609E-02  0.8954332E-01
       -1   -1    0    0    0  501  0.00000000000E+00  0.00000000000E+00  0.64644750945E+03  0.64644750947E+03  0.50400001928E-02 0. -1.
        1   -1    0    0  501    0  0.00000000000E+00  0.00000000000E+00 -0.75722158925E+03  0.75722158927E+03  0.50400001928E-02 0.  1.
    10030    2    1    2    0    0  0.00000000000E+00  0.00000000000E+00 -0.11077407980E+03  0.14036690987E+04  0.13992912642E+04 0.  0.
        4    1    3    3  502    0  0.26060242611E+02 -0.24730401586E+03 -0.71139325750E+03  0.75360493112E+03  0.12699999809E+01 0.  1.
       -4    1    3    3    0  502 -0.26060242611E+02  0.24730401586E+03  0.60061917769E+03  0.65006416762E+03  0.12699999809E+01 0. -1.
</event>
<event>
 5   0  0.2316714E-05  0.1399289E+04  0.7818609E-02  0.8954333E-01
       -1   -1    0    0    0  501  0.00000000000E+00  0.00000000000E+00  0.96550938687E+03  0.96550938688E+03  0.50400001928E-02 0.  1.
        1   -1    0    0  501    0  0.00000000000E+00  0.00000000000E+00 -0.50698874763E+03  0.50698874766E+03  0.50400001928E-02 0. -1.
    10030    2    1    2    0    0  0.00000000000E+00  0.00000000000E+00  0.45852063924E+03  0.14724981345E+04  0.13992889550E+04 0.  0.
        5    1    3    3  502    0 -0.40427232221E+03  0.20243428065E+03 -0.33258783452E+03  0.56129538227E+03  0.46999998093E+01 0. -1.
       -5    1    3    3    0  502  0.40427232221E+03 -0.20243428065E+03  0.79110847376E+03  0.91120275227E+03  0.46999998093E+01 0.  1.
</event>
<event>
 5   0  0.4460282E-05  0.1399775E+04  0.7818609E-02  0.8953981E-01
       -2   -1    0    0    0  501  0.00000000000E+00  0.00000000000E+00  0.54673717293E+03  0.54673717293E+03  0.25500000920E-02 0.  1.
        2   -1    0    0  501    0  0.00000000000E+00  0.00000000000E+00 -0.89593781887E+03  0.89593781888E+03  0.25500000920E-02 0. -1.
    10030    2    1    2    0    0  0.00000000000E+00  0.00000000000E+00 -0.34920064595E+03  0.14426749918E+04  0.13997749965E+04 0.  0.
        1    1    3    3  502    0  0.15039397442E+03 -0.67848782277E+03 -0.89122165124E+02  0.70064743882E+03  0.50400001928E-02 0. -1.
       -1    1    3    3    0  502 -0.15039397442E+03  0.67848782277E+03 -0.26007848082E+03  0.74202755299E+03  0.50400001928E-02 0.  1.
</event>
<event>
 5   0  0.2467303E-05  0.1399952E+04  0.7818609E-02  0.8953853E-01
       -1   -1    0    0    0  501  0.00000000000E+00  0.00000000000E+00  0.34077194647E+03  0.34077194650E+03  0.50400001928E-02 0.  1.
        1   -1    0    0  501    0  0.00000000000E+00  0.00000000000E+00 -0.14378127509E+04  0.14378127509E+04  0.50400001928E-02 0. -1.
    10030    2    1    2    0    0  0.00000000000E+00  0.00000000000E+00 -0.10970408044E+04  0.17785846974E+04  0.13999517846E+04 0.  0.
        3    1    3    3  502    0 -0.63126930503E+03 -0.24928745204E+03 -0.76606654289E+03  0.10234760024E+04  0.10100000352E+00 0. -1.
       -3    1    3    3    0  502  0.63126930503E+03  0.24928745204E+03 -0.33097426152E+03  0.75510869496E+03  0.10100000352E+00 0.  1.
</event>
<event>
 5   0  0.4460282E-05  0.1401116E+04  0.7818609E-02  0.8953011E-01
        2   -1    0    0  501    0  0.00000000000E+00  0.00000000000E+00  0.12394579491E+04  0.12394579491E+04  0.25500000920E-02 0.  1.
       -2   -1    0    0    0  501  0.00000000000E+00  0.00000000000E+00 -0.39596450644E+03  0.39596450645E+03  0.25500000920E-02 0. -1.
    10030    2    1    2    0    0  0.00000000000E+00  0.00000000000E+00  0.84349344267E+03  0.16354224556E+04  0.14011157769E+04 0.  0.
        1    1    3    3  502    0  0.28020787960E+03  0.55241197219E+03  0.39747343514E+02  0.62068937010E+03  0.50400001928E-02 0. -1.
       -1    1    3    3    0  502 -0.28020787960E+03 -0.55241197219E+03  0.80374609915E+03  0.10147330855E+04  0.50400001928E-02 0.  1.
</event>
<event>
 5   0  0.2467303E-05  0.1399696E+04  0.7818609E-02  0.8954038E-01
        1   -1    0    0  501    0  0.00000000000E+00  0.00000000000E+00  0.53662055119E+03  0.53662055121E+03  0.50400001928E-02 0.  1.
       -1   -1    0    0    0  501  0.00000000000E+00  0.00000000000E+00 -0.91272585663E+03  0.91272585664E+03  0.50400001928E-02 0. -1.
    10030    2    1    2    0    0  0.00000000000E+00  0.00000000000E+00 -0.37610530544E+03  0.14493464079E+04  0.13996963275E+04 0.  0.
        3    1    3    3  502    0  0.11637694539E+03 -0.67874418491E+03 -0.31717638997E+03  0.75818080596E+03  0.10100000352E+00 0. -1.
       -3    1    3    3    0  502 -0.11637694539E+03  0.67874418491E+03 -0.58928915475E+02  0.69116560190E+03  0.10100000352E+00 0.  1.
</event>
<event>
 5   0  0.2316714E-05  0.1400148E+04  0.7818609E-02  0.8953712E-01
        1   -1    0    0  501    0  0.00000000000E+00  0.00000000000E+00  0.90926703865E+03  0.90926703866E+03  0.50400001928E-02 0.  1.
       -1   -1    0    0    0  501  0.00000000000E+00  0.00000000000E+00 -0.53900917807E+03  0.53900917810E+03  0.50400001928E-02 0. -1.
    10030    2    1    2    0    0  0.00000000000E+00  0.00000000000E+00  0.37025786058E+03  0.14482762168E+04  0.14001475339E+04 0.  0.
        5    1    3    3  502    0  0.53865086718E+03  0.17211836188E+03  0.61200306780E+03  0.83327026360E+03  0.46999998093E+01 0.  1.
       -5    1    3    3    0  502 -0.53865086718E+03 -0.17211836188E+03 -0.24174520723E+03  0.61500595316E+03  0.46999998093E+01 0. -1.
</event>
<event>
 5   0  0.4527503E-05  0.1399972E+04  0.7818609E-02  0.8953839E-01
       -2   -1    0    0    0  501  0.00000000000E+00  0.00000000000E+00  0.51749310212E+03  0.51749310213E+03  0.25500000920E-02 0.  1.
        2   -1    0    0  501    0  0.00000000000E+00  0.00000000000E+00 -0.94683489600E+03  0.94683489601E+03  0.25500000920E-02 0. -1.
    10030    2    1    2    0    0  0.00000000000E+00  0.00000000000E+00 -0.42934179388E+03  0.14643279981E+04  0.13999721819E+04 0.  0.
        4    1    3    3  502    0 -0.29726335114E+03  0.47329211914E+03  0.22613784963E+03  0.60291862627E+03  0.12699999809E+01 0.  1.
       -4    1    3    3    0  502  0.29726335114E+03 -0.47329211914E+03 -0.65547964352E+03  0.86140937186E+03  0.12699999809E+01 0. -1.
</event>
<event>
 5   0  0.4243281E-05  0.1400046E+04  0.7818609E-02  0.8953785E-01
        2   -1    0    0  501    0  0.00000000000E+00  0.00000000000E+00  0.15438277823E+04  0.15438277823E+04  0.25500000920E-02 0. -1.
       -2   -1    0    0    0  501  0.00000000000E+00  0.00000000000E+00 -0.31741393158E+03  0.31741393159E+03  0.25500000920E-02 0.  1.
    10030    2    1    2    0    0  0.00000000000E+00  0.00000000000E+00  0.12264138508E+04  0.18612417139E+04  0.14000463508E+04 0.  0.
        2    1    3    3  502    0  0.15019982458E+03  0.28348351958E+03  0.14403436576E+04  0.14756397748E+04  0.25500000920E-02 0. -1.
       -2    1    3    3    0  502 -0.15019982458E+03 -0.28348351958E+03 -0.21392980681E+03  0.38560193909E+03  0.25500000920E-02 0.  1.
</event>
<event>
 5   0  0.2428507E-05  0.1400148E+04  0.7818609E-02  0.8953712E-01
       -1   -1    0    0    0  501  0.00000000000E+00  0.00000000000E+00  0.12984398934E+04  0.12984398935E+04  0.50400001928E-02 0.  1.
        1   -1    0    0  501    0  0.00000000000E+00  0.00000000000E+00 -0.37745568337E+03  0.37745568341E+03  0.50400001928E-02 0. -1.
    10030    2    1    2    0    0  0.00000000000E+00  0.00000000000E+00  0.92098421007E+03  0.16758955769E+04  0.14001478741E+04 0.  0.
        4    1    3    3  502    0 -0.39936587294E+03  0.36801112215E+03  0.98928662222E+03  0.11285454888E+04  0.12699999809E+01 0.  1.
       -4    1    3    3    0  502  0.39936587294E+03 -0.36801112215E+03 -0.68302412148E+02  0.54735008806E+03  0.12699999809E+01 0. -1.
</event>
<event>
 5   0  0.4621450E-05  0.1400313E+04  0.7818609E-02  0.8953592E-01
       -2   -1    0    0    0  501  0.00000000000E+00  0.00000000000E+00  0.11415421410E+04  0.11415421410E+04  0.25500000920E-02 0.  1.
        2   -1    0    0  501    0  0.00000000000E+00  0.00000000000E+00 -0.42943589578E+03  0.42943589579E+03  0.25500000920E-02 0. -1.
    10030    2    1    2    0    0  0.00000000000E+00  0.00000000000E+00  0.71210624524E+03  0.15709780368E+04  0.14003130677E+04 0.  0.
        5    1    3    3  502    0 -0.14513587967E+03  0.65843962341E+03  0.56769835102E+03  0.88142536212E+03  0.46999998093E+01 0.  1.
       -5    1    3    3    0  502  0.14513587967E+03 -0.65843962341E+03  0.14440789422E+03  0.68955267468E+03  0.46999998093E+01 0. -1.
</event>
<event>
 5   0  0.2427569E-05  0.1400024E+04  0.7818609E-02  0.8953801E-01
       -1   -1    0    0    0  501  0.00000000000E+00  0.00000000000E+00  0.17659754685E+03  0.17659754692E+03  0.50400001928E-02 0.  1.
        1   -1    0    0  501    0  0.00000000000E+00  0.00000000000E+00 -0.27747642319E+04  0.27747642319E+04  0.50400001928E-02 0. -1.
    10030    2    1    2    0    0  0.00000000000E+00  0.00000000000E+00 -0.25981666850E+04  0.29513617788E+04  0.14000236520E+04 0.  0.
        1    1    3    3  502    0 -0.41729040747E+03  0.54957179338E+03 -0.15472296607E+04  0.16941310643E+04  0.50400001928E-02 0. -1.
       -1    1    3    3    0  502  0.41729040747E+03 -0.54957179338E+03 -0.10509370244E+04  0.12572307145E+04  0.50400001928E-02 0.  1.
</event>
<event>
 5   0  0.4527503E-05  0.1403852E+04  0.7818609E-02  0.8951035E-01
       -2   -1    0    0    0  501  0.00000000000E+00  0.00000000000E+00  0.68581246557E+03  0.68581246557E+03  0.25500000920E-02 0. -1.
        2   -1    0    0  501    0  0.00000000000E+00  0.00000000000E+00 -0.71841818695E+03  0.71841818695E+03  0.25500000920E-02 0.  1.
    10030    2    1    2    0    0  0.00000000000E+00  0.00000000000E+00 -0.32605721384E+02  0.14042306525E+04  0.14038520550E+04 0.  0.
        4    1    3    3  502    0  0.12703803745E+03  0.44399356118E+03 -0.54505641955E+03  0.71439279022E+03  0.12699999809E+01 0.  1.
       -4    1    3    3    0  502 -0.12703803745E+03 -0.44399356118E+03  0.51245069816E+03  0.68983786231E+03  0.12699999809E+01 0. -1.
</event>
<event>
 5   0  0.2363419E-05  0.1400033E+04  0.7818609E-02  0.8953795E-01
        1   -1    0    0  501    0  0.00000000000E+00  0.00000000000E+00  0.17743130124E+04  0.17743130124E+04  0.50400001928E-02 0.  1.
       -1   -1    0    0    0  501  0.00000000000E+00  0.00000000000E+00 -0.27617608322E+03  0.27617608327E+03  0.50400001928E-02 0. -1.
    10030    2    1    2    0    0  0.00000000000E+00  0.00000000000E+00  0.14981369292E+04  0.20504890957E+04  0.14000325971E+04 0.  0.
        2    1    3    3  502    0  0.27672137883E+03 -0.63926003326E+03  0.85048303030E+03  0.10993404825E+04  0.25500000920E-02 0.  1.
       -2    1    3    3    0  502 -0.27672137883E+03  0.63926003326E+03  0.64765389889E+03  0.95114861319E+03  0.25500000920E-02 0. -1.
</event>
<event>
 5   0  0.2363419E-05  0.1400323E+04  0.7818609E-02  0.8953585E-01
       -1   -1    0    0    0  501  0.00000000000E+00  0.00000000000E+00  0.60608037184E+03  0.60608037186E+03  0.50400001928E-02 0. -1.
        1   -1    0    0  501    0  0.00000000000E+00  0.00000000000E+00 -0.80884680761E+03  0.80884680762E+03  0.50400001928E-02 0.  1.
    10030    2    1    2    0    0  0.00000000000E+00  0.00000000000E+00 -0.20276643577E+03  0.14149271795E+04  0.14003230684E+04 0.  0.
        2    1    3    3  502    0  0.66015096319E+02 -0.12697631818E+03 -0.79391071081E+03  0.80670638714E+03  0.25500000920E-02 0.  1.
       -2    1    3    3    0  502 -0.66015096319E+02  0.12697631818E+03  0.59114427504E+03  0.60822079234E+03  0.25500000920E-02 0. -1.
</event>
<event>
 5   0  0.4243281E-05  0.1399355E+04  0.7818609E-02  0.8954286E-01
        2   -1    0    0  501    0  0.00000000000E+00  0.00000000000E+00  0.92881779856E+03  0.92881779856E+03  0.25500000920E-02 0. -1.
       -2   -1    0    0    0  501  0.00000000000E+00  0.00000000000E+00 -0.52706638132E+03  0.52706638133E+03  0.25500000920E-02 0.  1.
    10030    2    1    2    0    0  0.00000000000E+00  0.00000000000E+00  0.40175141724E+03  0.14558841799E+04  0.13993550457E+04 0.  0.
        2    1    3    3  502    0 -0.32202817000E+03  0.75163468865E+02 -0.44063398195E+03  0.55091741249E+03  0.25500000920E-02 0.  1.
       -2    1    3    3    0  502  0.32202817000E+03 -0.75163468865E+02  0.84238539919E+03  0.90496676740E+03  0.25500000920E-02 0. -1.
</event>
<event>
 5   0  0.2316714E-05  0.1399914E+04  0.7818609E-02  0.8953881E-01
       -1   -1    0    0    0  501  0.00000000000E+00  0.00000000000E+00  0.45172306337E+03  0.45172306340E+03  0.50400001928E-02 0.  1.
        1   -1    0    0  501    0  0.00000000000E+00  0.00000000000E+00 -0.10846014444E+04  0.10846014444E+04  0.50400001928E-02 0. -1.
    10030    2    1    2    0    0  0.00000000000E+00  0.00000000000E+00 -0.63287838106E+03  0.15363245078E+04  0.13999135502E+04 0.  0.
        5    1    3    3  502    0  0.36943575047E+03  0.20564734735E+03 -0.92859547359E+03  0.10203358510E+04  0.46999998093E+01 0. -1.
       -5    1    3    3    0  502 -0.36943575047E+03 -0.20564734735E+03  0.29571709253E+03  0.51598865686E+03  0.46999998093E+01 0.  1.
</event>
<event>
 5   0  0.2428507E-05  0.1400203E+04  0.7818609E-02  0.8953671E-01
       -1   -1    0    0    0  501  0.00000000000E+00  0.00000000000E+00  0.88007437572E+03  0.88007437573E+03  0.50400001928E-02 0. -1.
        1   -1    0    0  501    0  0.00000000000E+00  0.00000000000E+00 -0.55693298343E+03  0.55693298345E+03  0.50400001928E-02 0.  1.
    10030    2    1    2    0    0  0.00000000000E+00  0.00000000000E+00  0.32314139229E+03  0.14370073592E+04  0.14002034820E+04 0.  0.
        4    1    3    3  502    0 -0.46312634637E+03 -0.22753454829E+03  0.64717022170E+03  0.82770096782E+03  0.12699999809E+01 0. -1.
       -4    1    3    3    0  502  0.46312634637E+03  0.22753454829E+03 -0.32402882941E+03  0.60930639137E+03  0.12699999809E+01 0.  1.
</event>
<event>
 5   0  0.2316714E-05  0.1400131E+04  0.7818609E-02  0.8953724E-01
        1   -1    0    0  501    0  0.00000000000E+00  0.00000000000E+00  0.75414256821E+03  0.75414256823E+03  0.50400001928E-02 0. -1.
       -1   -1    0    0    0  501  0.00000000000E+00  0.00000000000E+00 -0.64986588618E+03  0.64986588620E+03  0.50400001928E-02 0.  1.
    10030    2    1    2    0    0  0.00000000000E+00  0.00000000000E+00  0.10427668204E+03  0.14040084544E+04  0.14001307488E+04 0.  0.
        5    1    3    3  502    0 -0.24404142823E+03  0.32580829239E+03  0.62324369607E+03  0.74442061818E+03  0.46999998093E+01 0. -1.
       -5    1    3    3    0  502  0.24404142823E+03 -0.32580829239E+03 -0.51896701403E+03  0.65958783625E+03  0.46999998093E+01 0.  1.
</event>
<event>
 5   0  0.4243281E-05  0.1399823E+04  0.7818609E-02  0.8953947E-01
       -2   -1    0    0    0  501  0.00000000000E+00  0.00000000000E+00  0.26556664692E+03  0.26556664693E+03  0.25500000920E-02 0.  1.
        2   -1    0    0  501    0  0.00000000000E+00  0.00000000000E+00 -0.18446445489E+04  0.18446445489E+04  0.25500000920E-02 0. -1.
    10030    2    1    2    0    0  0.00000000000E+00  0.00000000000E+00 -0.15790779020E+04  0.21102111958E+04  0.13998229425E+04 0.  0.
        2    1    3    3  502    0 -0.14522359611E+03 -0.52295694964E+03 -0.12333625259E+03  0.55658395167E+03  0.25500000920E-02 0.  1.
       -2    1    3    3    0  502  0.14522359611E+03  0.52295694964E+03 -0.14557416494E+04  0.15536272441E+04  0.25500000920E-02 0. -1.
</event>
<event>
 5   0  0.4243281E-05  0.1400070E+04  0.7818609E-02  0.8953768E-01
        2   -1    0    0  501    0  0.00000000000E+00  0.00000000000E+00  0.31688750188E+03  0.31688750189E+03  0.25500000920E-02 0. -1.
       -2   -1    0    0    0  501  0.00000000000E+00  0.00000000000E+00 -0.15464437493E+04  0.15464437493E+04  0.25500000920E-02 0.  1.
    10030    2    1    2    0    0  0.00000000000E+00  0.00000000000E+00 -0.12295562474E+04  0.18633312512E+04  0.14000695647E+04 0.  0.
        2    1    3    3  502    0 -0.26194193711E+03 -0.47485066419E+03 -0.25642527215E+02  0.54291276547E+03  0.25500000920E-02 0. -1.
       -2    1    3    3    0  502  0.26194193711E+03  0.47485066419E+03 -0.12039137202E+04  0.13204184857E+04  0.25500000920E-02 0.  1.
</event>
<event>
 5   0  0.2427569E-05  0.1399173E+04  0.7818609E-02  0.8954417E-01
        1   -1    0    0  501    0  0.00000000000E+00  0.00000000000E+00  0.14803745497E+04  0.14803745497E+04  0.50400001928E-02 0.  1.
       -1   -1    0    0    0  501  0.00000000000E+00  0.00000000000E+00 -0.33060651886E+03  0.33060651890E+03  0.50400001928E-02 0. -1.
    10030    2    1    2    0    0  0.00000000000E+00  0.00000000000E+00  0.11497680308E+04  0.18109810686E+04  0.13991732938E+04 0.  0.
        1    1    3    3  502    0 -0.83245937378E+02  0.50740321094E+03  0.11888807481E+04  0.12953089739E+04  0.50400001928E-02 0.  1.
       -1    1    3    3    0  502  0.83245937378E+02 -0.50740321094E+03 -0.39112717303E+02  0.51567209469E+03  0.50400001928E-02 0. -1.
</event>
<event>
 5   0  0.4441253E-05  0.1399780E+04  0.7818609E-02  0.8953978E-01
        2   -1    0    0  501    0  0.00000000000E+00  0.00000000000E+00  0.24397098498E+04  0.24397098498E+04  0.25500000920E-02 0. -1.
       -2   -1    0    0    0  501  0.00000000000E+00  0.00000000000E+00 -0.20078049874E+03  0.20078049875E+03  0.25500000920E-02 0.  1.
    10030    2    1    2    0    0  0.00000000000E+00  0.00000000000E+00  0.22389293511E+04  0.26404903486E+04  0.13997802119E+04 0.  0.
        3    1    3    3  502    0 -0.25551700552E+03  0.34741519101E+03  0.79636870132E+02  0.43855250123E+03  0.10100000352E+00 0.  1.
       -3    1    3    3    0  502  0.25551700552E+03 -0.34741519101E+03  0.21592924809E+04  0.22019378473E+04  0.10100000352E+00 0. -1.
</event>
<event>
 5   0  0.4441253E-05  0.1399989E+04  0.7818609E-02  0.8953826E-01
       -2   -1    0    0    0  501  0.00000000000E+00  0.00000000000E+00  0.43324380926E+03  0.43324380927E+03  0.25500000920E-02 0.  1.
        2   -1    0    0  501    0  0.00000000000E+00  0.00000000000E+00 -0.11309858194E+04  0.11309858194E+04  0.25500000920E-02 0. -1.
    10030    2    1    2    0    0  0.00000000000E+00  0.00000000000E+00 -0.69774201014E+03  0.15642296287E+04  0.13999894351E+04 0.  0.
        3    1    3    3  502    0  0.35547264906E+03 -0.23364219827E+03  0.27226296925E+03  0.50505110204E+03  0.10100000352E+00 0.  1.
       -3    1    3    3    0  502 -0.35547264906E+03  0.23364219827E+03 -0.97000497939E+03  0.10591785266E+04  0.10100000352E+00 0. -1.
</event>
<event>
 5   0  0.4527503E-05  0.1399313E+04  0.7818609E-02  0.8954316E-01
       -2   -1    0    0    0  501  0.00000000000E+00  0.00000000000E+00  0.38259447613E+03  0.38259447614E+03  0.25500000920E-02 0. -1.
        2   -1    0    0  501    0  0.00000000000E+00  0.00000000000E+00 -0.12794729971E+04  0.12794729971E+04  0.25500000920E-02 0.  1.
    10030    2    1    2    0    0  0.00000000000E+00  0.00000000000E+00 -0.89687852096E+03  0.16620674732E+04  0.13993131187E+04 0.  0.
        4    1    3    3  502    0  0.44308226295E+02  0.35386095834E+03  0.26653436539E+03  0.44522239116E+03  0.12699999809E+01 0. -1.
       -4    1    3    3    0  502 -0.44308226295E+02 -0.35386095834E+03 -0.11634128864E+04  0.12168450821E+04  0.12699999809E+01 0.  1.
</event>
<event>
 5   0  0.2428507E-05  0.1400743E+04  0.7818609E-02  0.8953281E-01
       -1   -1    0    0    0  501  0.00000000000E+00  0.00000000000E+00  0.99874512720E+03  0.99874512721E+03  0.50400001928E-02 0. -1.
        1   -1    0    0  501    0  0.00000000000E+00  0.00000000000E+00 -0.49113630759E+03  0.49113630761E+03  0.50400001928E-02 0.  1.
    10030    2    1    2    0    0  0.00000000000E+00  0.00000000000E+00  0.50760881961E+03  0.14898814348E+04  0.14007426516E+04 0.  0.
        4    1    3    3  502    0 -0.68846109316E+03  0.11772120248E+03  0.19872668328E+03  0.72617550624E+03  0.12699999809E+01 0.  1.
       -4    1    3    3    0  502  0.68846109316E+03 -0.11772120248E+03  0.30888213633E+03  0.76370592859E+03  0.12699999809E+01 0. -1.
</event>
<event>
 5   0  0.2428507E-05  0.1399485E+04  0.7818609E-02  0.8954192E-01
       -1   -1    0    0    0  501  0.00000000000E+00  0.00000000000E+00  0.60598211568E+03  0.60598211570E+03  0.50400001928E-02 0. -1.
        1   -1    0    0  501    0  0.00000000000E+00  0.00000000000E+00 -0.80800936968E+03  0.80800936970E+03  0.50400001928E-02 0.  1.
    10030    2    1    2    0    0  0.00000000000E+00  0.00000000000E+00 -0.20202725400E+03  0.14139914854E+04  0.13994845156E+04 0.  0.
        4    1    3    3  502    0  0.62221991021E+03  0.19198409326E+03  0.15780991589E+03  0.67001573951E+03  0.12699999809E+01 0. -1.
       -4    1    3    3    0  502 -0.62221991021E+03 -0.19198409326E+03 -0.35983716990E+03  0.74397574589E+03  0.12699999809E+01 0.  1.
</event>
<event>
 5   0  0.4621450E-05  0.1399143E+04  0.7818609E-02  0.8954439E-01
        2   -1    0    0  501    0  0.00000000000E+00  0.00000000000E+00  0.10470485208E+04  0.10470485208E+04  0.25500000920E-02 0.  1.
       -2   -1    0    0    0  501  0.00000000000E+00  0.00000000000E+00 -0.46740931099E+03  0.46740931100E+03  0.25500000920E-02 0. -1.
    10030    2    1    2    0    0  0.00000000000E+00  0.00000000000E+00  0.57963920977E+03  0.15144578318E+04  0.13991429200E+04 0.  0.
        5    1    3    3  502    0  0.54278028515E+03  0.41881132922E+03  0.44044606873E+03  0.81487925295E+03  0.46999998093E+01 0.  1.
       -5    1    3    3    0  502 -0.54278028515E+03 -0.41881132922E+03  0.13919314104E+03  0.69957857882E+03  0.46999998093E+01 0. -1.
</event>
<event>
 5   0  0.2428507E-05  0.1400040E+04  0.7818609E-02  0.8953789E-01
        1   -1    0    0  501    0  0.00000000000E+00  0.00000000000E+00  0.74472529474E+03  0.74472529476E+03  0.50400001928E-02 0. -1.
       -1   -1    0    0    0  501  0.00000000000E+00  0.00000000000E+00 -0.65799847074E+03  0.65799847076E+03  0.50400001928E-02 0.  1.
    10030    2    1    2    0    0  0.00000000000E+00  0.00000000000E+00  0.86726824002E+02  0.14027237655E+04  0.14000401495E+04 0.  0.
        4    1    3    3  502    0 -0.92243243088E+02 -0.28369417298E+03  0.67785075291E+03  0.74059061282E+03  0.12699999809E+01 0. -1.
       -4    1    3    3    0  502  0.92243243088E+02  0.28369417298E+03 -0.59112392890E+03  0.66213315270E+03  0.12699999809E+01 0.  1.
</event>
<event>
 5   0  0.4441253E-05  0.1399591E+04  0.7818609E-02  0.8954115E-01
       -2   -1    0    0    0  501  0.00000000000E+00  0.00000000000E+00  0.51717838764E+03  0.51717838765E+03  0.25500000920E-02 0.  1.
        2   -1    0    0  501    0  0.00000000000E+00  0.00000000000E+00 -0.94689477502E+03  0.94689477503E+03  0.25500000920E-02 0. -1.
    10030    2    1    2    0    0  0.00000000000E+00  0.00000000000E+00 -0.42971638738E+03  0.14640731627E+04  0.13995906730E+04 0.  0.
        3    1    3    3  502    0 -0.32226693159E+02 -0.30348170938E+03 -0.87361292420E+03  0.92538600552E+03  0.10100000352E+00 0. -1.
       -3    1    3    3    0  502  0.32226693159E+02  0.30348170938E+03  0.44389653682E+03  0.53868715715E+03  0.10100000352E+00 0.  1.
</event>
<event>
 5   0  0.4441253E-05  0.1400586E+04  0.7818609E-02  0.8953394E-01
       -2   -1    0    0    0  501  0.00000000000E+00  0.00000000000E+00  0.61009600349E+03  0.61009600349E+03  0.25500000920E-02 0.  1.
        2   -1    0    0  501    0  0.00000000000E+00  0.00000000000E+00 -0.80382515973E+03  0.80382515973E+03  0.25500000920E-02 0. -1.
    10030    2    1    2    0    0  0.00000000000E+00  0.00000000000E+00 -0.19372915624E+03  0.14139211632E+04  0.14005863307E+04 0.  0.
        3    1    3    3  502    0 -0.11246091459E+03 -0.16641517470E+03  0.58039457128E+03  0.61416556094E+03  0.10100000352E+00 0.  1.
       -3    1    3    3    0  502  0.11246091459E+03  0.16641517470E+03 -0.77412372751E+03  0.79975560228E+03  0.10100000352E+00 0. -1.
</event>
<event>
 5   0  0.2428507E-05  0.1398127E+04  0.7818609E-02  0.8955176E-01
       -1   -1    0    0    0  501  0.00000000000E+00  0.00000000000E+00  0.61307145264E+03  0.61307145266E+03  0.50400001928E-02 0.  1.
        1   -1    0    0  501    0  0.00000000000E+00  0.00000000000E+00 -0.79711674210E+03  0.79711674212E+03  0.50400001928E-02 0. -1.
    10030    2    1    2    0    0  0.00000000000E+00  0.00000000000E+00 -0.18404528947E+03  0.14101881948E+04  0.13981266309E+04 0.  0.
        4    1    3    3  502    0 -0.89049185742E+02  0.13988037579E+03 -0.77699220909E+03  0.79449026608E+03  0.12699999809E+01 0. -1.
       -4    1    3    3    0  502  0.89049185742E+02 -0.13988037579E+03  0.59294691962E+03  0.61569792870E+03  0.12699999809E+01 0.  1.
</event>
<event>
 5   0  0.2467303E-05  0.1400475E+04  0.7818609E-02  0.8953475E-01
       -1   -1    0    0    0  501  0.00000000000E+00  0.00000000000E+00  0.41709643031E+03  0.41709643034E+03  0.50400001928E-02 0.  1.
        1   -1    0    0  501    0  0.00000000000E+00  0.00000000000E+00 -0.11755848885E+04  0.11755848885E+04  0.50400001928E-02 0. -1.
    10030    2    1    2    0    0  0.00000000000E+00  0.00000000000E+00 -0.75848845821E+03  0.15926813189E+04  0.14004745775E+04 0.  0.
        3    1    3    3  502    0 -0.28692692097E+03 -0.46397342213E+03 -0.87851099934E+03  0.10341083022E+04  0.10100000352E+00 0. -1.
       -3    1    3    3    0  502  0.28692692097E+03  0.46397342213E+03  0.12002254113E+03  0.55857301671E+03  0.10100000352E+00 0.  1.
</event>
<event>
 5   0  0.2428507E-05  0.1402715E+04  0.7818609E-02  0.8951855E-01
        1   -1    0    0  501    0  0.00000000000E+00  0.00000000000E+00  0.34176316409E+03  0.34176316413E+03  0.50400001928E-02 0. -1.
       -1   -1    0    0    0  501  0.00000000000E+00  0.00000000000E+00 -0.14393085062E+04  0.14393085062E+04  0.50400001928E-02 0.  1.
    10030    2    1    2    0    0  0.00000000000E+00  0.00000000000E+00 -0.10975453421E+04  0.17810716703E+04  0.14027154084E+04 0.  0.
        4    1    3    3  502    0 -0.40573698869E+03  0.54831588360E+03 -0.75596933900E+03  0.10182161198E+04  0.12699999809E+01 0.  1.
       -4    1    3    3    0  502  0.40573698869E+03 -0.54831588360E+03 -0.34157600311E+03  0.76285555055E+03  0.12699999809E+01 0. -1.
</event>
<event>
 5   0  0.4621450E-05  0.1404500E+04  0.7818609E-02  0.8950568E-01
       -2   -1    0    0    0  501  0.00000000000E+00  0.00000000000E+00  0.17119892185E+03  0.17119892187E+03  0.25500000920E-02 0. -1.
        2   -1    0    0  501    0  0.00000000000E+00  0.00000000000E+00 -0.28805970853E+04  0.28805970853E+04  0.25500000920E-02 0.  1.
    10030    2    1    2    0    0  0.00000000000E+00  0.00000000000E+00 -0.27093981635E+04  0.30517960072E+04  0.14045000752E+04 0.  0.
        5    1    3    3  502    0 -0.32629316221E+03 -0.61948520873E+02 -0.10276860360E+02  0.33231393411E+03  0.46999998093E+01 0. -1.
       -5    1    3    3    0  502  0.32629316221E+03  0.61948520873E+02 -0.26991213031E+04  0.27194820731E+04  0.46999998093E+01 0.  1.
</event>
<event>
 5   0  0.2428507E-05  0.1396661E+04  0.7818609E-02  0.8956239E-01
       -1   -1    0    0    0  501  0.00000000000E+00  0.00000000000E+00  0.81450215409E+03  0.81450215411E+03  0.50400001928E-02 0. -1.
        1   -1    0    0  501    0  0.00000000000E+00  0.00000000000E+00 -0.59872814771E+03  0.59872814774E+03  0.50400001928E-02 0.  1.
    10030    2    1    2    0    0  0.00000000000E+00  0.00000000000E+00  0.21577400638E+03  0.14132303018E+04  0.13966608265E+04 0.  0.
        4    1    3    3  502    0  0.37110381981E+03  0.99397781604E+02 -0.48218289544E+03  0.61652244211E+03  0.12699999809E+01 0.  1.
       -4    1    3    3    0  502 -0.37110381981E+03 -0.99397781604E+02  0.69795690182E+03  0.79670785973E+03  0.12699999809E+01 0. -1.
</event>
<event>
 5   0  0.1661000E-05  0.1399402E+04  0.7818609E-02  0.8954252E-01
        3   -1    0    0  501    0  0.00000000000E+00  0.00000000000E+00  0.45304074871E+03  0.45304075997E+03  0.10100000352E+00 0.  1.
       -3   -1    0    0    0  501  0.00000000000E+00  0.00000000000E+00 -0.10806559813E+04  0.10806559861E+04  0.10100000352E+00 0. -1.
    10030    2    1    2    0    0  0.00000000000E+00  0.00000000000E+00 -0.62761523263E+03  0.15336967460E+04  0.13994015966E+04 0.  0.
        3    1    3    3  502    0 -0.39794808489E+03  0.56974439227E+03 -0.22470451783E+03  0.73038584414E+03  0.10100000352E+00 0. -1.
       -3    1    3    3    0  502  0.39794808489E+03 -0.56974439227E+03 -0.40291071481E+03  0.80331090189E+03  0.10100000352E+00 0.  1.
</event>
<event>
 5   0  0.2363419E-05  0.1399925E+04  0.7818609E-02  0.8953873E-01
       -1   -1    0    0    0  501  0.00000000000E+00  0.00000000000E+00  0.82901447185E+03  0.82901447186E+03  0.50400001928E-02 0. -1.
        1   -1    0    0  501    0  0.00000000000E+00  0.00000000000E+00 -0.59099973094E+03  0.59099973096E+03  0.50400001928E-02 0.  1.
    10030    2    1    2    0    0  0.00000000000E+00  0.00000000000E+00  0.23801474091E+03  0.14200142028E+04  0.13999247549E+04 0.  0.
        2    1    3    3  502    0 -0.34339080027E+03  0.60991168342E+03  0.12524595914E+03  0.71105277832E+03  0.25500000920E-02 0. -1.
       -2    1    3    3    0  502  0.34339080027E+03 -0.60991168342E+03  0.11276878177E+03  0.70896142450E+03  0.25500000920E-02 0.  1.
</event>
<event>
 5   0  0.2316714E-05  0.1399143E+04  0.7818609E-02  0.8954439E-01
       -1   -1    0    0    0  501  0.00000000000E+00  0.00000000000E+00  0.57143452391E+03  0.57143452393E+03  0.50400001928E-02 0. -1.
        1   -1    0    0  501    0  0.00000000000E+00  0.00000000000E+00 -0.85644133477E+03  0.85644133479E+03  0.50400001928E-02 0.  1.
    10030    2    1    2    0    0  0.00000000000E+00  0.00000000000E+00 -0.28500681086E+03  0.14278758587E+04  0.13991428039E+04 0.  0.
        5    1    3    3  502    0  0.57649144771E+02 -0.31807594077E+03 -0.77563267800E+03  0.84031176903E+03  0.46999998093E+01 0.  1.
       -5    1    3    3    0  502 -0.57649144771E+02  0.31807594077E+03  0.49062586714E+03  0.58756408969E+03  0.46999998093E+01 0. -1.
</event>
<event>
 5   0  0.4243281E-05  0.1400692E+04  0.7818609E-02  0.8953318E-01
       -2   -1    0    0    0  501  0.00000000000E+00  0.00000000000E+00  0.23001458566E+03  0.23001458567E+03  0.25500000920E-02 0.  1.
        2   -1    0    0  501    0  0.00000000000E+00  0.00000000000E+00 -0.21324051941E+04  0.21324051941E+04  0.25500000920E-02 0. -1.
    10030    2    1    2    0    0  0.00000000000E+00  0.00000000000E+00 -0.19023906085E+04  0.23624197798E+04  0.14006916823E+04 0.  0.
        2    1    3    3  502    0 -0.18157893718E+03 -0.34798141671E+03  0.27070609583E+02  0.39343969641E+03  0.25500000920E-02 0.  1.
       -2    1    3    3    0  502  0.18157893718E+03  0.34798141671E+03 -0.19294612181E+04  0.19689800834E+04  0.25500000920E-02 0. -1.
</event>
<event>
 5   0  0.4527503E-05  0.1399476E+04  0.7818609E-02  0.8954198E-01
        2   -1    0    0  501    0  0.00000000000E+00  0.00000000000E+00  0.95743790931E+03  0.95743790931E+03  0.25500000920E-02 0.  1.
       -2   -1    0    0    0  501  0.00000000000E+00  0.00000000000E+00 -0.51139983267E+03  0.51139983268E+03  0.25500000920E-02 0. -1.
    10030    2    1    2    0    0  0.00000000000E+00  0.00000000000E+00  0.44603807663E+03  0.14688377420E+04  0.13994764544E+04 0.  0.
        4    1    3    3  502    0 -0.32140997164E+03  0.55699562571E+03  0.51252226089E+03  0.82233154976E+03  0.12699999809E+01 0.  1.
       -4    1    3    3    0  502  0.32140997164E+03 -0.55699562571E+03 -0.66484184259E+02  0.64650619222E+03  0.12699999809E+01 0. -1.
</event>
<event>
 5   0  0.4441253E-05  0.1400199E+04  0.7818609E-02  0.8953674E-01
        2   -1    0    0  501    0  0.00000000000E+00  0.00000000000E+00  0.13540697989E+04  0.13540697989E+04  0.25500000920E-02 0.  1.
       -2   -1    0    0    0  501  0.00000000000E+00  0.00000000000E+00 -0.36197493291E+03  0.36197493291E+03  0.25500000920E-02 0. -1.
    10030    2    1    2    0    0  0.00000000000E+00  0.00000000000E+00  0.99209486604E+03  0.17160447319E+04  0.14001990210E+04 0.  0.
        3    1    3    3  502    0 -0.21204326371E+03 -0.64978842205E+03  0.68172048187E+03  0.96536530117E+03  0.10100000352E+00 0.  1.
       -3    1    3    3    0  502  0.21204326371E+03  0.64978842205E+03  0.31037438417E+03  0.75067943069E+03  0.10100000352E+00 0. -1.
</event>
<event>
 5   0  0.2428507E-05  0.1398792E+04  0.7818609E-02  0.8954693E-01
       -1   -1    0    0    0  501  0.00000000000E+00  0.00000000000E+00  0.56220576622E+03  0.56220576624E+03  0.50400001928E-02 0.  1.
        1   -1    0    0  501    0  0.00000000000E+00  0.00000000000E+00 -0.87006381555E+03  0.87006381557E+03  0.50400001928E-02 0. -1.
    10030    2    1    2    0    0  0.00000000000E+00  0.00000000000E+00 -0.30785804933E+03  0.14322695818E+04  0.13987921849E+04 0.  0.
        4    1    3    3  502    0 -0.16814551733E+03  0.61914759416E+03 -0.43904727151E+03  0.77741930635E+03  0.12699999809E+01 0. -1.
       -4    1    3    3    0  502  0.16814551733E+03 -0.61914759416E+03  0.13118922218E+03  0.65485027546E+03  0.12699999809E+01 0.  1.
</event>
<event>
 5   0  0.2467303E-05  0.1400553E+04  0.7818609E-02  0.8953418E-01
       -1   -1    0    0    0  501  0.00000000000E+00  0.00000000000E+00  0.47510890332E+03  0.47510890335E+03  0.50400001928E-02 0.  1.
        1   -1    0    0  501    0  0.00000000000E+00  0.00000000000E+00 -0.10321579080E+04  0.10321579080E+04  0.50400001928E-02 0. -1.
    10030    2    1    2    0    0  0.00000000000E+00  0.00000000000E+00 -0.55704900463E+03  0.15072668113E+04  0.14005533360E+04 0.  0.
        3    1    3    3  502    0  0.52810464127E+03  0.45371306468E+03 -0.35932755456E+03  0.78349624049E+03  0.10100000352E+00 0.  1.
       -3    1    3    3    0  502 -0.52810464127E+03 -0.45371306468E+03 -0.19772145007E+03  0.72377057083E+03  0.10100000352E+00 0. -1.
</event>
<event>
 5   0  0.2316714E-05  0.1400042E+04  0.7818609E-02  0.8953788E-01
        1   -1    0    0  501    0  0.00000000000E+00  0.00000000000E+00  0.22534189527E+03  0.22534189533E+03  0.50400001928E-02 0.  1.
       -1   -1    0    0    0  501  0.00000000000E+00  0.00000000000E+00 -0.21746029097E+04  0.21746029097E+04  0.50400001928E-02 0. -1.
    10030    2    1    2    0    0  0.00000000000E+00  0.00000000000E+00 -0.19492610145E+04  0.23999448051E+04  0.14000416297E+04 0.  0.
        5    1    3    3  502    0 -0.31917428895E+03 -0.61705455700E+03 -0.11218767737E+04  0.13195674057E+04  0.46999998093E+01 0.  1.
       -5    1    3    3    0  502  0.31917428895E+03  0.61705455700E+03 -0.82738424080E+03  0.10803773993E+04  0.46999998093E+01 0. -1.
</event>
<event>
 5   0  0.2316714E-05  0.1399966E+04  0.7818609E-02  0.8953843E-01
        1   -1    0    0  501    0  0.00000000000E+00  0.00000000000E+00  0.62591608782E+03  0.62591608784E+03  0.50400001928E-02 0. -1.
       -1   -1    0    0    0  501  0.00000000000E+00  0.00000000000E+00 -0.78281452268E+03  0.78281452270E+03  0.50400001928E-02 0.  1.
    10030    2    1    2    0    0  0.00000000000E+00  0.00000000000E+00 -0.15689843486E+03  0.14087306105E+04  0.13999660047E+04 0.  0.
        5    1    3    3  502    0 -0.58165904765E+03 -0.17820739354E+03  0.26993934285E+03  0.66556326645E+03  0.46999998093E+01 0. -1.
       -5    1    3    3    0  502  0.58165904765E+03  0.17820739354E+03 -0.42683777771E+03  0.74316734408E+03  0.46999998093E+01 0.  1.
</event>
<event>
 5   0  0.4243281E-05  0.1400003E+04  0.7818609E-02  0.8953816E-01
        2   -1    0    0  501    0  0.00000000000E+00  0.00000000000E+00  0.95190505110E+03  0.95190505110E+03  0.25500000920E-02 0.  1.
       -2   -1    0    0    0  501  0.00000000000E+00  0.00000000000E+00 -0.51475945973E+03  0.51475945974E+03  0.25500000920E-02 0. -1.
    10030    2    1    2    0    0  0.00000000000E+00  0.00000000000E+00  0.43714559137E+03  0.14666645108E+04  0.14000030426E+04 0.  0.
        2    1    3    3  502    0  0.40229566678E+03  0.43099904855E+03  0.61390029188E+03  0.85116129596E+03  0.25500000920E-02 0.  1.
       -2    1    3    3    0  502 -0.40229566678E+03 -0.43099904855E+03 -0.17675470052E+03  0.61550321488E+03  0.25500000920E-02 0. -1.
</event>
<event>
 5   0  0.4243281E-05  0.1398344E+04  0.7818609E-02  0.8955018E-01
       -2   -1    0    0    0  501  0.00000000000E+00  0.00000000000E+00  0.10523398454E+04  0.10523398454E+04  0.25500000920E-02 0.  1.
        2   -1    0    0  501    0  0.00000000000E+00  0.00000000000E+00 -0.46452782219E+03  0.46452782220E+03  0.25500000920E-02 0. -1.
    10030    2    1    2    0    0  0.00000000000E+00  0.00000000000E+00  0.58781202325E+03  0.15168676676E+04  0.13983435009E+04 0.  0.
        2    1    3    3  502    0  0.66036198894E+03 -0.19200833688E+03  0.15714022659E+03  0.70543476572E+03  0.25500000920E-02 0.  1.
       -2    1    3    3    0  502 -0.66036198894E+03  0.19200833688E+03  0.43067179666E+03  0.81143290192E+03  0.25500000920E-02 0. -1.
</event>
<event>
 5   0  0.2467303E-05  0.1399818E+04  0.7818609E-02  0.8953950E-01
        1   -1    0    0  501    0  0.00000000000E+00  0.00000000000E+00  0.38112960616E+03  0.38112960619E+03  0.50400001928E-02 0.  1.
       -1   -1    0    0    0  501  0.00000000000E+00  0.00000000000E+00 -0.12853180551E+04  0.12853180551E+04  0.50400001928E-02 0. -1.
    10030    2    1    2    0    0  0.00000000000E+00  0.00000000000E+00 -0.90418844896E+03  0.16664476613E+04  0.13998182227E+04 0.  0.
        3    1    3    3  502    0 -0.42971987013E+03 -0.72502826752E+02  0.19990860947E+03  0.47945728591E+03  0.10100000352E+00 0.  1.
       -3    1    3    3    0  502  0.42971987013E+03  0.72502826752E+02 -0.11040970584E+04  0.11869903754E+04  0.10100000352E+00 0. -1.
</event>
<event>
 5   0  0.2427569E-05  0.1394060E+04  0.7818609E-02  0.8958130E-01
       -1   -1    0    0    0  501  0.00000000000E+00  0.00000000000E+00  0.49750693444E+03  0.49750693446E+03  0.50400001928E-02 0.  1.
        1   -1    0    0  501    0  0.00000000000E+00  0.00000000000E+00 -0.97657042445E+03  0.97657042446E+03  0.50400001928E-02 0. -1.
    10030    2    1    2    0    0  0.00000000000E+00  0.00000000000E+00 -0.47906349001E+03  0.14740773589E+04  0.13940596231E+04 0.  0.
        1    1    3    3  502    0  0.28512462652E+03 -0.39170014461E+03  0.29035656210E+03  0.56482916808E+03  0.50400001928E-02 0.  1.
       -1    1    3    3    0  502 -0.28512462652E+03  0.39170014461E+03 -0.76942005211E+03  0.90924819084E+03  0.50400001928E-02 0. -1.
</event>
<event>
 5   0  0.4460282E-05  0.1400043E+04  0.7818609E-02  0.8953788E-01
       -2   -1    0    0    0  501  0.00000000000E+00  0.00000000000E+00  0.35265212042E+03  0.35265212043E+03  0.25500000920E-02 0. -1.
        2   -1    0    0  501    0  0.00000000000E+00  0.00000000000E+00 -0.13895557982E+04  0.13895557982E+04  0.25500000920E-02 0.  1.
    10030    2    1    2    0    0  0.00000000000E+00  0.00000000000E+00 -0.10369036778E+04  0.17422079186E+04  0.14000425689E+04 0.  0.
        1    1    3    3  502    0  0.58694943620E+03  0.33556732836E+03 -0.74421540967E+03  0.10054708591E+04  0.50400001928E-02 0.  1.
       -1    1    3    3    0  502 -0.58694943620E+03 -0.33556732836E+03 -0.29268826809E+03  0.73673705949E+03  0.50400001928E-02 0. -1.
</event>
<event>
 5   0  0.4621450E-05  0.1399997E+04  0.7818609E-02  0.8953821E-01
       -2   -1    0    0    0  501  0.00000000000E+00  0.00000000000E+00  0.40386235366E+03  0.40386235367E+03  0.25500000920E-02 0.  1.
        2   -1    0    0  501    0  0.00000000000E+00  0.00000000000E+00 -0.12132789276E+04  0.12132789276E+04  0.25500000920E-02 0. -1.
    10030    2    1    2    0    0  0.00000000000E+00  0.00000000000E+00 -0.80941657398E+03  0.16171412813E+04  0.13999966905E+04 0.  0.
        5    1    3    3  502    0 -0.34426108156E+03  0.10265268148E+03 -0.10986577270E+04  0.11559083685E+04  0.46999998093E+01 0. -1.
       -5    1    3    3    0  502  0.34426108156E+03 -0.10265268148E+03  0.28924115300E+03  0.46123291283E+03  0.46999998093E+01 0.  1.
</event>
<event>
 5   0  0.2363419E-05  0.1399511E+04  0.7818609E-02  0.8954172E-01
        1   -1    0    0  501    0  0.00000000000E+00  0.00000000000E+00  0.45254960400E+03  0.45254960402E+03  0.50400001928E-02 0.  1.
       -1   -1    0    0    0  501  0.00000000000E+00  0.00000000000E+00 -0.10819983641E+04  0.10819983641E+04  0.50400001928E-02 0. -1.
    10030    2    1    2    0    0  0.00000000000E+00  0.00000000000E+00 -0.62944876007E+03  0.15345479681E+04  0.13995112450E+04 0.  0.
        2    1    3    3  502    0 -0.29003498402E+03 -0.59700192386E+03 -0.71693594587E+02  0.66758636937E+03  0.25500000920E-02 0.  1.
       -2    1    3    3    0  502  0.29003498402E+03  0.59700192386E+03 -0.55775516548E+03  0.86696159873E+03  0.25500000920E-02 0. -1.
</event>
<event>
 5   0  0.2363419E-05  0.1399756E+04  0.7818609E-02  0.8953995E-01
       -1   -1    0    0    0  501  0.00000000000E+00  0.00000000000E+00  0.11616867560E+04  0.11616867560E+04  0.50400001928E-02 0. -1.
        1   -1    0    0  501    0  0.00000000000E+00  0.00000000000E+00 -0.42165341734E+03  0.42165341737E+03  0.50400001928E-02 0.  1.
    10030    2    1    2    0    0  0.00000000000E+00  0.00000000000E+00  0.74003333869E+03  0.15833401734E+04  0.13997559653E+04 0.  0.
        2    1    3    3  502    0 -0.50952451778E+03 -0.43076702197E+03  0.13098757222E+03  0.67995088463E+03  0.25500000920E-02 0. -1.
       -2    1    3    3    0  502  0.50952451778E+03  0.43076702197E+03  0.60904576647E+03  0.90338928878E+03  0.25500000920E-02 0.  1.
</event>
<event>
 5   0  0.2467303E-05  0.1399982E+04  0.7818609E-02  0.8953832E-01
       -1   -1    0    0    0  501  0.00000000000E+00  0.00000000000E+00  0.32002736795E+03  0.32002736799E+03  0.50400001928E-02 0.  1.
        1   -1    0    0  501    0  0.00000000000E+00  0.00000000000E+00 -0.15310791976E+04  0.15310791976E+04  0.50400001928E-02 0. -1.
    10030    2    1    2    0    0  0.00000000000E+00  0.00000000000E+00 -0.12110518297E+04  0.18511065656E+04  0.13999817796E+04 0.  0.
        3    1    3    3  502    0  0.67577684679E+03 -0.89083311766E+02 -0.39489135633E+03  0.78774956465E+03  0.10100000352E+00 0.  1.
       -3    1    3    3    0  502 -0.67577684679E+03  0.89083311766E+02 -0.81616047335E+03  0.10633570010E+04  0.10100000352E+00 0. -1.
</event>
<event>
 5   0  0.4441253E-05  0.1399375E+04  0.7818609E-02  0.8954271E-01
       -2   -1    0    0    0  501  0.00000000000E+00  0.00000000000E+00  0.35622271997E+03  0.35622271998E+03  0.25500000920E-02 0.  1.
        2   -1    0    0  501    0  0.00000000000E+00  0.00000000000E+00 -0.13743164016E+04  0.13743164016E+04  0.25500000920E-02 0. -1.
    10030    2    1    2    0    0  0.00000000000E+00  0.00000000000E+00 -0.10180936817E+04  0.17305391216E+04  0.13993751844E+04 0.  0.
        3    1    3    3  502    0  0.48635200791E+03  0.29843242703E+03 -0.82984578150E+01  0.57067421853E+03  0.10100000352E+00 0. -1.
       -3    1    3    3    0  502 -0.48635200791E+03 -0.29843242703E+03 -0.10097952239E+04  0.11598649031E+04  0.10100000352E+00 0.  1.
</event>
<event>
 5   0  0.2316714E-05  0.1401309E+04  0.7818609E-02  0.8952871E-01
        1   -1    0    0  501    0  0.00000000000E+00  0.00000000000E+00  0.50590480979E+03  0.50590480982E+03  0.50400001928E-02 0.  1.
       -1   -1    0    0    0  501  0.00000000000E+00  0.00000000000E+00 -0.97037431260E+03  0.97037431261E+03  0.50400001928E-02 0. -1.
    10030    2    1    2    0    0  0.00000000000E+00  0.00000000000E+00 -0.46446950280E+03  0.14762791224E+04  0.14013094335E+04 0.  0.
        5    1    3    3  502    0 -0.93820945366E+02 -0.36600958391E+03 -0.85382598504E+03  0.93370567527E+03  0.46999998093E+01 0. -1.
       -5    1    3    3    0  502  0.93820945366E+02  0.36600958391E+03  0.38935648224E+03  0.54257344716E+03  0.46999998093E+01 0.  1.
</event>
<event>
 5   0  0.2363419E-05  0.1399387E+04  0.7818609E-02  0.8954262E-01
        1   -1    0    0  501    0  0.00000000000E+00  0.00000000000E+00  0.16497574873E+04  0.16497574873E+04  0.50400001928E-02 0. -1.
       -1   -1    0    0    0  501  0.00000000000E+00  0.00000000000E+00 -0.29675329379E+03  0.29675329384E+03  0.50400001928E-02 0.  1.
    10030    2    1    2    0    0  0.00000000000E+00  0.00000000000E+00  0.13530041935E+04  0.19465107811E+04  0.13993869634E+04 0.  0.
        2    1    3    3  502    0  0.63469926779E+03 -0.10898860300E+03  0.10570530715E+04  0.12377733525E+04  0.25500000920E-02 0.  1.
       -2    1    3    3    0  502 -0.63469926779E+03  0.10898860300E+03  0.29595112192E+03  0.70873742859E+03  0.25500000920E-02 0. -1.
</event>
<event>
 5   0  0.4441253E-05  0.1398654E+04  0.7818609E-02  0.8954794E-01
       -2   -1    0    0    0  501  0.00000000000E+00  0.00000000000E+00  0.17061775754E+03  0.17061775756E+03  0.25500000920E-02 0.  1.
        2   -1    0    0  501    0  0.00000000000E+00  0.00000000000E+00 -0.28663962848E+04  0.28663962848E+04  0.25500000920E-02 0. -1.
    10030    2    1    2    0    0  0.00000000000E+00  0.00000000000E+00 -0.26957785273E+04  0.30370140424E+04  0.13986537904E+04 0.  0.
        3    1    3    3  502    0 -0.26364466815E+03 -0.62098423960E+03 -0.17478494136E+04  0.18735280942E+04  0.10100000352E+00 0.  1.
       -3    1    3    3    0  502  0.26364466815E+03  0.62098423960E+03 -0.94792911369E+03  0.11634859482E+04  0.10100000352E+00 0. -1.
</event>
<event>
 5   0  0.4621450E-05  0.1395544E+04  0.7818609E-02  0.8957050E-01
       -2   -1    0    0    0  501  0.00000000000E+00  0.00000000000E+00  0.22713321057E+03  0.22713321058E+03  0.25500000920E-02 0.  1.
        2   -1    0    0  501    0  0.00000000000E+00  0.00000000000E+00 -0.21436138662E+04  0.21436138662E+04  0.25500000920E-02 0. -1.
    10030    2    1    2    0    0  0.00000000000E+00  0.00000000000E+00 -0.19164806556E+04  0.23707470768E+04  0.13955441944E+04 0.  0.
        5    1    3    3  502    0  0.25584385013E+03 -0.95744015879E+01 -0.20609105307E+04  0.20767575810E+04  0.46999998093E+01 0. -1.
       -5    1    3    3    0  502 -0.25584385013E+03  0.95744015879E+01  0.14442987506E+03  0.29398949577E+03  0.46999998093E+01 0.  1.
</event>
<event>
 5   0  0.4621450E-05  0.1400032E+04  0.7818609E-02  0.8953796E-01
       -2   -1    0    0    0  501  0.00000000000E+00  0.00000000000E+00  0.42405672224E+03  0.42405672225E+03  0.25500000920E-02 0. -1.
        2   -1    0    0  501    0  0.00000000000E+00  0.00000000000E+00 -0.11555581660E+04  0.11555581660E+04  0.25500000920E-02 0.  1.
    10030    2    1    2    0    0  0.00000000000E+00  0.00000000000E+00 -0.73150144379E+03  0.15796148883E+04  0.14000317257E+04 0.  0.
        5    1    3    3  502    0 -0.64735201951E+03 -0.23784406442E+03 -0.50098178651E+03  0.85243139112E+03  0.46999998093E+01 0.  1.
       -5    1    3    3    0  502  0.64735201951E+03  0.23784406442E+03 -0.23051965729E+03  0.72718349716E+03  0.46999998093E+01 0. -1.
</event>
<event>
 5   0  0.4621450E-05  0.1400392E+04  0.7818609E-02  0.8953535E-01
        2   -1    0    0  501    0  0.00000000000E+00  0.00000000000E+00  0.12289930510E+04  0.12289930510E+04  0.25500000920E-02 0.  1.
       -2   -1    0    0    0  501  0.00000000000E+00  0.00000000000E+00 -0.39892343367E+03  0.39892343368E+03  0.25500000920E-02 0. -1.
    10030    2    1    2    0    0  0.00000000000E+00  0.00000000000E+00  0.83006961728E+03  0.16279164846E+04  0.14003915565E+04 0.  0.
        5    1    3    3  502    0 -0.49683657016E+03 -0.46284594636E+03  0.21646257926E+03  0.71270687224E+03  0.46999998093E+01 0. -1.
       -5    1    3    3    0  502  0.49683657016E+03  0.46284594636E+03  0.61360703802E+03  0.91520961239E+03  0.46999998093E+01 0.  1.
</event>
<event>
 5   0  0.4243281E-05  0.1400108E+04  0.7818609E-02  0.8953740E-01
       -2   -1    0    0    0  501  0.00000000000E+00  0.00000000000E+00  0.38131707520E+03  0.38131707521E+03  0.25500000920E-02 0.  1.
        2   -1    0    0  501    0  0.00000000000E+00  0.00000000000E+00 -0.12852188164E+04  0.12852188164E+04  0.25500000920E-02 0. -1.
    10030    2    1    2    0    0  0.00000000000E+00  0.00000000000E+00 -0.90390174115E+03  0.16665358916E+04  0.14001083959E+04 0.  0.
        2    1    3    3  502    0  0.58793245697E+03 -0.25514721716E+03 -0.78716342995E+03  0.10150817415E+04  0.25500000920E-02 0. -1.
       -2    1    3    3    0  502 -0.58793245697E+03  0.25514721716E+03 -0.11673831120E+03  0.65145415011E+03  0.25500000920E-02 0.  1.
</event>
<event>
 5   0  0.4527503E-05  0.1399715E+04  0.7818609E-02  0.8954025E-01
        2   -1    0    0  501    0  0.00000000000E+00  0.00000000000E+00  0.77640153976E+03  0.77640153976E+03  0.25500000920E-02 0.  1.
       -2   -1    0    0    0  501  0.00000000000E+00  0.00000000000E+00 -0.63086007986E+03  0.63086007987E+03  0.25500000920E-02 0. -1.
    10030    2    1    2    0    0  0.00000000000E+00  0.00000000000E+00  0.14554145989E+03  0.14072616196E+04  0.13997153102E+04 0.  0.
        4    1    3    3  502    0 -0.42474743695E+03  0.46896747312E+03  0.37347896775E+03  0.73473058211E+03  0.12699999809E+01 0.  1.
       -4    1    3    3    0  502  0.42474743695E+03 -0.46896747312E+03 -0.22793750786E+03  0.67253103752E+03  0.12699999809E+01 0. -1.
</event>
<event>
 5   0  0.4441253E-05  0.1400981E+04  0.7818609E-02  0.8953109E-01
        2   -1    0    0  501    0  0.00000000000E+00  0.00000000000E+00  0.16228724881E+04  0.16228724881E+04  0.25500000920E-02 0.  1.
       -2   -1    0    0    0  501  0.00000000000E+00  0.00000000000E+00 -0.30235684530E+03  0.30235684531E+03  0.25500000920E-02 0. -1.
    10030    2    1    2    0    0  0.00000000000E+00  0.00000000000E+00  0.13205156428E+04  0.19252293334E+04  0.14009805221E+04 0.  0.
        3    1    3    3  502    0 -0.55424599536E+03  0.94365994107E+01  0.12487769767E+04  0.13662802130E+04  0.10100000352E+00 0.  1.
       -3    1    3    3    0  502  0.55424599536E+03 -0.94365994107E+01  0.71738666113E+02  0.55894912040E+03  0.10100000352E+00 0. -1.
</event>
<event>
 5   0  0.4621450E-05  0.1400181E+04  0.7818609E-02  0.8953687E-01
        2   -1    0    0  501    0  0.00000000000E+00  0.00000000000E+00  0.14039429916E+04  0.14039429916E+04  0.25500000920E-02 0.  1.
       -2   -1    0    0    0  501  0.00000000000E+00  0.00000000000E+00 -0.34910746634E+03  0.34910746635E+03  0.25500000920E-02 0. -1.
    10030    2    1    2    0    0  0.00000000000E+00  0.00000000000E+00  0.10548355253E+04  0.17530504580E+04  0.14001813893E+04 0.  0.
        5    1    3    3  502    0 -0.31376450201E+03 -0.11525300385E+03 -0.24272361303E+03  0.41312015194E+03  0.46999998093E+01 0. -1.
       -5    1    3    3    0  502  0.31376450201E+03  0.11525300385E+03  0.12975591383E+04  0.13399303061E+04  0.46999998093E+01 0.  1.
</event>
<event>
 5   0  0.4460282E-05  0.1399544E+04  0.7818609E-02  0.8954149E-01
        2   -1    0    0  501    0  0.00000000000E+00  0.00000000000E+00  0.79911452310E+03  0.79911452310E+03  0.25500000920E-02 0. -1.
       -2   -1    0    0    0  501  0.00000000000E+00  0.00000000000E+00 -0.61277900451E+03  0.61277900451E+03  0.25500000920E-02 0.  1.
    10030    2    1    2    0    0  0.00000000000E+00  0.00000000000E+00  0.18633551859E+03  0.14118935276E+04  0.13995436427E+04 0.  0.
        1    1    3    3  502    0  0.33278117746E+03 -0.61197859721E+03  0.26101913883E+02  0.69709570752E+03  0.50400001928E-02 0. -1.
       -1    1    3    3    0  502 -0.33278117746E+03  0.61197859721E+03  0.16023360471E+03  0.71479782010E+03  0.50400001928E-02 0.  1.
</event>
<event>
 5   0  0.1661000E-05  0.1400112E+04  0.7818609E-02  0.8953737E-01
       -3   -1    0    0    0  501  0.00000000000E+00  0.00000000000E+00  0.10790128692E+04  0.10790128739E+04  0.10100000352E+00 0.  1.
        3   -1    0    0  501    0  0.00000000000E+00  0.00000000000E+00 -0.45419140928E+03  0.45419142051E+03  0.10100000352E+00 0. -1.
    10030    2    1    2    0    0  0.00000000000E+00  0.00000000000E+00  0.62482145993E+03  0.15332042944E+04  0.14001119783E+04 0.  0.
        4    1    3    3  502    0  0.60231553904E+03 -0.19087553329E+03 -0.17671346469E+02  0.63208493667E+03  0.12699999809E+01 0. -1.
       -4    1    3    3    0  502 -0.60231553904E+03  0.19087553329E+03  0.64249280640E+03  0.90111935777E+03  0.12699999809E+01 0.  1.
</event>
<event>
 5   0  0.4460282E-05  0.1399495E+04  0.7818609E-02  0.8954184E-01
        2   -1    0    0  501    0  0.00000000000E+00  0.00000000000E+00  0.18635621577E+04  0.18635621577E+04  0.25500000920E-02 0. -1.
       -2   -1    0    0    0  501  0.00000000000E+00  0.00000000000E+00 -0.26274751756E+03  0.26274751757E+03  0.25500000920E-02 0.  1.
    10030    2    1    2    0    0  0.00000000000E+00  0.00000000000E+00  0.16008146402E+04  0.21263096753E+04  0.13994946670E+04 0.  0.
        1    1    3    3  502    0  0.13199295923E+03 -0.33772495768E+03  0.17096869702E+04  0.17477156017E+04  0.50400001928E-02 0. -1.
       -1    1    3    3    0  502 -0.13199295923E+03  0.33772495768E+03 -0.10887233000E+03  0.37859407363E+03  0.50400001928E-02 0.  1.
</event>
<event>
 5   0  0.2363419E-05  0.1399350E+04  0.7818609E-02  0.8954289E-01
        1   -1    0    0  501    0  0.00000000000E+00  0.00000000000E+00  0.70603341469E+03  0.70603341470E+03  0.50400001928E-02 0. -1.
       -1   -1    0    0    0  501  0.00000000000E+00  0.00000000000E+00 -0.69337428175E+03  0.69337428177E+03  0.50400001928E-02 0.  1.
    10030    2    1    2    0    0  0.00000000000E+00  0.00000000000E+00  0.12659132933E+02  0.13994076965E+04  0.13993504376E+04 0.  0.
        2    1    3    3  502    0  0.59045148061E+03  0.44962404996E+01  0.38170108246E+03  0.70309948336E+03  0.25500000920E-02 0. -1.
       -2    1    3    3    0  502 -0.59045148061E+03 -0.44962404996E+01 -0.36904194953E+03  0.69630821312E+03  0.25500000920E-02 0.  1.
</event>
<event>
 5   0  0.4441253E-05  0.1399934E+04  0.7818609E-02  0.8953866E-01
        2   -1    0    0  501    0  0.00000000000E+00  0.00000000000E+00  0.20242544970E+04  0.20242544970E+04  0.25500000920E-02 0.  1.
       -2   -1    0    0    0  501  0.00000000000E+00  0.00000000000E+00 -0.24204157668E+03  0.24204157670E+03  0.25500000920E-02 0. -1.
    10030    2    1    2    0    0  0.00000000000E+00  0.00000000000E+00  0.17822129203E+04  0.22662960737E+04  0.13999339271E+04 0.  0.
        3    1    3    3  502    0 -0.46920889738E+03  0.48209423424E+03  0.57810973599E+03  0.88700773227E+03  0.10100000352E+00 0.  1.
       -3    1    3    3    0  502  0.46920889738E+03 -0.48209423424E+03  0.12041031843E+04  0.13792883414E+04  0.10100000352E+00 0. -1.
</event>
<event>
 5   0  0.2428507E-05  0.1400144E+04  0.7818609E-02  0.8953714E-01
       -1   -1    0    0    0  501  0.00000000000E+00  0.00000000000E+00  0.15892575512E+04  0.15892575512E+04  0.50400001928E-02 0.  1.
        1   -1    0    0  501    0  0.00000000000E+00  0.00000000000E+00 -0.30838371270E+03  0.30838371274E+03  0.50400001928E-02 0. -1.
    10030    2    1    2    0    0  0.00000000000E+00  0.00000000000E+00  0.12808738385E+04  0.18976412640E+04  0.14001444841E+04 0.  0.
        4    1    3    3  502    0 -0.13830931245E+03 -0.41939930035E+03  0.13766557960E+04  0.14457551773E+04  0.12699999809E+01 0.  1.
       -4    1    3    3    0  502  0.13830931245E+03  0.41939930035E+03 -0.95781957503E+02  0.45188608667E+03  0.12699999809E+01 0. -1.
</event>
<event>
 5   0  0.2427569E-05  0.1399696E+04  0.7818609E-02  0.8954039E-01
        1   -1    0    0  501    0  0.00000000000E+00  0.00000000000E+00  0.97061400405E+03  0.97061400406E+03  0.50400001928E-02 0. -1.
       -1   -1    0    0    0  501  0.00000000000E+00  0.00000000000E+00 -0.50461594783E+03  0.50461594786E+03  0.50400001928E-02 0.  1.
    10030    2    1    2    0    0  0.00000000000E+00  0.00000000000E+00  0.46599805622E+03  0.14752299519E+04  0.13996961180E+04 0.  0.
        1    1    3    3  502    0  0.13424088009E+03 -0.32222051778E+03  0.87231394371E+03  0.93956281981E+03  0.50400001928E-02 0. -1.
       -1    1    3    3    0  502 -0.13424088009E+03  0.32222051778E+03 -0.40631588749E+03  0.53566713210E+03  0.50400001928E-02 0.  1.
</event>
<event>
 5   0  0.2316714E-05  0.1400362E+04  0.7818609E-02  0.8953557E-01
        1   -1    0    0  501    0  0.00000000000E+00  0.00000000000E+00  0.80124665400E+03  0.80124665402E+03  0.50400001928E-02 0.  1.
       -1   -1    0    0    0  501  0.00000000000E+00  0.00000000000E+00 -0.61186307958E+03  0.61186307960E+03  0.50400001928E-02 0. -1.
    10030    2    1    2    0    0  0.00000000000E+00  0.00000000000E+00  0.18938357442E+03  0.14131097336E+04  0.14003617322E+04 0.  0.
        5    1    3    3  502    0 -0.57046722512E+03 -0.39601778944E+03  0.46143420127E+01  0.69448277634E+03  0.46999998093E+01 0. -1.
       -5    1    3    3    0  502  0.57046722512E+03  0.39601778944E+03  0.18476923241E+03  0.71862695728E+03  0.46999998093E+01 0.  1.
</event>
<event>
 5   0  0.4527503E-05  0.1399911E+04  0.7818609E-02  0.8953883E-01
       -2   -1    0    0    0  501  0.00000000000E+00  0.00000000000E+00  0.30131495301E+03  0.30131495302E+03  0.25500000920E-02 0. -1.
        2   -1    0    0  501    0  0.00000000000E+00  0.00000000000E+00 -0.16259988522E+04  0.16259988522E+04  0.25500000920E-02 0.  1.
    10030    2    1    2    0    0  0.00000000000E+00  0.00000000000E+00 -0.13246838992E+04  0.19273138052E+04  0.13999110940E+04 0.  0.
        4    1    3    3  502    0  0.60807789733E+03 -0.13399399978E+03 -0.11025179497E+04  0.12661992590E+04  0.12699999809E+01 0.  1.
       -4    1    3    3    0  502 -0.60807789733E+03  0.13399399978E+03 -0.22216594951E+03  0.66111454622E+03  0.12699999809E+01 0. -1.
</event>
<event>
 5   0  0.2363419E-05  0.1397225E+04  0.7818609E-02  0.8955829E-01
        1   -1    0    0  501    0  0.00000000000E+00  0.00000000000E+00  0.39875129955E+03  0.39875129958E+03  0.50400001928E-02 0. -1.
       -1   -1    0    0    0  501  0.00000000000E+00  0.00000000000E+00 -0.12239700576E+04  0.12239700576E+04  0.50400001928E-02 0.  1.
    10030    2    1    2    0    0  0.00000000000E+00  0.00000000000E+00 -0.82521875808E+03  0.16227213572E+04  0.13972253235E+04 0.  0.
        2    1    3    3  502    0  0.45404717620E+03 -0.47774541753E+03 -0.68164101949E+03  0.94817403553E+03  0.25500000920E-02 0.  1.
       -2    1    3    3    0  502 -0.45404717620E+03  0.47774541753E+03 -0.14357773859E+03  0.67454732170E+03  0.25500000920E-02 0. -1.
</event>
<event>
 5   0  0.4243281E-05  0.1400138E+04  0.7818609E-02  0.8953718E-01
        2   -1    0    0  501    0  0.00000000000E+00  0.00000000000E+00  0.10243067050E+04  0.10243067050E+04  0.25500000920E-02 0. -1.
       -2   -1    0    0    0  501  0.00000000000E+00  0.00000000000E+00 -0.47846694363E+03  0.47846694364E+03  0.25500000920E-02 0.  1.
    10030    2    1    2    0    0  0.00000000000E+00  0.00000000000E+00  0.54583976141E+03  0.15027736487E+04  0.14001384196E+04 0.  0.
        2    1    3    3  502    0  0.11653547210E+03  0.22463365395E+03  0.97349707226E+03  0.10058515519E+04  0.25500000920E-02 0. -1.
       -2    1    3    3    0  502 -0.11653547210E+03 -0.22463365395E+03 -0.42765731085E+03  0.49692209679E+03  0.25500000920E-02 0.  1.
</event>
<event>
 5   0  0.4460282E-05  0.1400094E+04  0.7818609E-02  0.8953750E-01
        2   -1    0    0  501    0  0.00000000000E+00  0.00000000000E+00  0.74343263069E+03  0.74343263069E+03  0.25500000920E-02 0. -1.
       -2   -1    0    0    0  501  0.00000000000E+00  0.00000000000E+00 -0.65919375173E+03  0.65919375174E+03  0.25500000920E-02 0.  1.
    10030    2    1    2    0    0  0.00000000000E+00  0.00000000000E+00  0.84238878951E+02  0.14026263824E+04  0.14000944897E+04 0.  0.
        1    1    3    3  502    0  0.89421343516E+02 -0.46375304050E+03  0.55977728120E+03  0.73240266509E+03  0.50400001928E-02 0. -1.
       -1    1    3    3    0  502 -0.89421343516E+02  0.46375304050E+03 -0.47553840225E+03  0.67022371734E+03  0.50400001928E-02 0.  1.
</event>
<event>
 5   0  0.4621450E-05  0.1405999E+04  0.7818609E-02  0.8949488E-01
        2   -1    0    0  501    0  0.00000000000E+00  0.00000000000E+00  0.14302538015E+04  0.14302538015E+04  0.25500000920E-02 0.  1.
       -2   -1    0    0    0  501  0.00000000000E+00  0.00000000000E+00 -0.34553885892E+03  0.34553885893E+03  0.25500000920E-02 0. -1.
    10030    2    1    2    0    0  0.00000000000E+00  0.00000000000E+00  0.10847149425E+04  0.17757926604E+04  0.14059989567E+04 0.  0.
        5    1    3    3  502    0 -0.65622115574E+03 -0.10137446606E+03  0.25081464295E+03  0.70981199111E+03  0.46999998093E+01 0. -1.
       -5    1    3    3    0  502  0.65622115574E+03  0.10137446606E+03  0.83390029959E+03  0.10659806693E+04  0.46999998093E+01 0.  1.
</event>
<event>
 5   0  0.2363419E-05  0.1400113E+04  0.7818609E-02  0.8953737E-01
        1   -1    0    0  501    0  0.00000000000E+00  0.00000000000E+00  0.65160042420E+03  0.65160042422E+03  0.50400001928E-02 0.  1.
       -1   -1    0    0    0  501  0.00000000000E+00  0.00000000000E+00 -0.75211563371E+03  0.75211563373E+03  0.50400001928E-02 0. -1.
    10030    2    1    2    0    0  0.00000000000E+00  0.00000000000E+00 -0.10051520951E+03  0.14037160579E+04  0.14001126612E+04 0.  0.
        2    1    3    3  502    0 -0.44517497155E+03 -0.22532377375E+03 -0.54256854138E+03  0.73711069753E+03  0.25500000920E-02 0. -1.
       -2    1    3    3    0  502  0.44517497155E+03  0.22532377375E+03  0.44205333187E+03  0.66660536041E+03  0.25500000920E-02 0.  1.
</event>
<event>
 5   0  0.2428507E-05  0.1401776E+04  0.7818609E-02  0.8952534E-01
        1   -1    0    0  501    0  0.00000000000E+00  0.00000000000E+00  0.35420275162E+03  0.35420275166E+03  0.50400001928E-02 0. -1.
       -1   -1    0    0    0  501  0.00000000000E+00  0.00000000000E+00 -0.13869012938E+04  0.13869012938E+04  0.50400001928E-02 0.  1.
    10030    2    1    2    0    0  0.00000000000E+00  0.00000000000E+00 -0.10326985422E+04  0.17411040455E+04  0.14017763795E+04 0.  0.
        4    1    3    3  502    0 -0.79982728168E+02  0.39441177063E+03  0.19639182811E+03  0.44780491809E+03  0.12699999809E+01 0. -1.
       -4    1    3    3    0  502  0.79982728168E+02 -0.39441177063E+03 -0.12290903703E+04  0.12932991274E+04  0.12699999809E+01 0.  1.
</event>
<event>
 5   0  0.4527503E-05  0.1399636E+04  0.7818609E-02  0.8954082E-01
       -2   -1    0    0    0  501  0.00000000000E+00  0.00000000000E+00  0.15368679211E+04  0.15368679212E+04  0.25500000920E-02 0.  1.
        2   -1    0    0  501    0  0.00000000000E+00  0.00000000000E+00 -0.31866433026E+03  0.31866433027E+03  0.25500000920E-02 0. -1.
    10030    2    1    2    0    0  0.00000000000E+00  0.00000000000E+00  0.12182035909E+04  0.18555322514E+04  0.13996356480E+04 0.  0.
        4    1    3    3  502    0  0.22203904138E+03 -0.29477849500E+03  0.13973763468E+04  0.14452881943E+04  0.12699999809E+01 0.  1.
       -4    1    3    3    0  502 -0.22203904138E+03  0.29477849500E+03 -0.17917275596E+03  0.41024405710E+03  0.12699999809E+01 0. -1.
</event>
<event>
 5   0  0.4441253E-05  0.1399721E+04  0.7818609E-02  0.8954020E-01
        2   -1    0    0  501    0  0.00000000000E+00  0.00000000000E+00  0.18234503366E+04  0.18234503366E+04  0.25500000920E-02 0. -1.
       -2   -1    0    0    0  501  0.00000000000E+00  0.00000000000E+00 -0.26861426077E+03  0.26861426078E+03  0.25500000920E-02 0.  1.
    10030    2    1    2    0    0  0.00000000000E+00  0.00000000000E+00  0.15548360759E+04  0.20920645974E+04  0.13997210640E+04 0.  0.
        3    1    3    3  502    0 -0.29960087893E+03 -0.32256150539E+03 -0.35745852480E+02  0.44168358310E+03  0.10100000352E+00 0.  1.
       -3    1    3    3    0  502  0.29960087893E+03  0.32256150539E+03  0.15905819284E+04  0.16503810143E+04  0.10100000352E+00 0. -1.
</event>
<event>
 5   0  0.2427569E-05  0.1399270E+04  0.7818609E-02  0.8954347E-01
        1   -1    0    0  501    0  0.00000000000E+00  0.00000000000E+00  0.67788253631E+03  0.67788253633E+03  0.50400001928E-02 0. -1.
       -1   -1    0    0    0  501  0.00000000000E+00  0.00000000000E+00 -0.72208539145E+03  0.72208539147E+03  0.50400001928E-02 0.  1.
    10030    2    1    2    0    0  0.00000000000E+00  0.00000000000E+00 -0.44202855147E+02  0.13999679278E+04  0.13992699191E+04 0.  0.
        1    1    3    3  502    0 -0.17219175304E+03 -0.25216386661E+02 -0.70008480548E+03  0.72139074076E+03  0.50400001928E-02 0.  1.
       -1    1    3    3    0  502  0.17219175304E+03  0.25216386661E+02  0.65588195033E+03  0.67857718704E+03  0.50400001928E-02 0. -1.
</event>
<event>
 5   0  0.2467303E-05  0.1399025E+04  0.7818609E-02  0.8954525E-01
        1   -1    0    0  501    0  0.00000000000E+00  0.00000000000E+00  0.77508133391E+03  0.77508133393E+03  0.50400001928E-02 0.  1.
       -1   -1    0    0    0  501  0.00000000000E+00  0.00000000000E+00 -0.63131140338E+03  0.63131140340E+03  0.50400001928E-02 0. -1.
    10030    2    1    2    0    0  0.00000000000E+00  0.00000000000E+00  0.14376993053E+03  0.14063927373E+04  0.13990249243E+04 0.  0.
        3    1    3    3  502    0  0.21060402213E+03  0.16805137188E+03  0.72082499386E+03  0.76953492429E+03  0.10100000352E+00 0.  1.
       -3    1    3    3    0  502 -0.21060402213E+03 -0.16805137188E+03 -0.57705506333E+03  0.63685781305E+03  0.10100000352E+00 0. -1.
</event>
<event>
 5   0  0.2363419E-05  0.1400136E+04  0.7818609E-02  0.8953720E-01
       -1   -1    0    0    0  501  0.00000000000E+00  0.00000000000E+00  0.54348303754E+03  0.54348303756E+03  0.50400001928E-02 0. -1.
        1   -1    0    0  501    0  0.00000000000E+00  0.00000000000E+00 -0.90176696609E+03  0.90176696610E+03  0.50400001928E-02 0.  1.
    10030    2    1    2    0    0  0.00000000000E+00  0.00000000000E+00 -0.35828392855E+03  0.14452500037E+04  0.14001357790E+04 0.  0.
        2    1    3    3  502    0 -0.13964477846E+03 -0.47541883442E+03 -0.68961826818E+03  0.84917435671E+03  0.25500000920E-02 0.  1.
       -2    1    3    3    0  502  0.13964477846E+03  0.47541883442E+03  0.33133433963E+03  0.59607564696E+03  0.25500000920E-02 0. -1.
</event>
<event>
 5   0  0.2363419E-05  0.1399688E+04  0.7818609E-02  0.8954044E-01
        1   -1    0    0  501    0  0.00000000000E+00  0.00000000000E+00  0.80342558668E+03  0.80342558670E+03  0.50400001928E-02 0.  1.
       -1   -1    0    0    0  501  0.00000000000E+00  0.00000000000E+00 -0.60961670091E+03  0.60961670094E+03  0.50400001928E-02 0. -1.
    10030    2    1    2    0    0  0.00000000000E+00  0.00000000000E+00  0.19380888577E+03  0.14130422876E+04  0.13996880447E+04 0.  0.
        2    1    3    3  502    0 -0.44313762579E+03  0.11202230735E+03 -0.43811574338E+03  0.63313928747E+03  0.25500000920E-02 0. -1.
       -2    1    3    3    0  502  0.44313762579E+03 -0.11202230735E+03  0.63192462914E+03  0.77990300016E+03  0.25500000920E-02 0.  1.
</event>
<event>
 5   0  0.4621450E-05  0.1401016E+04  0.7818609E-02  0.8953084E-01
       -2   -1    0    0    0  501  0.00000000000E+00  0.00000000000E+00  0.49263559269E+03  0.49263559270E+03  0.25500000920E-02 0.  1.
        2   -1    0    0  501    0  0.00000000000E+00  0.00000000000E+00 -0.99609352961E+03  0.99609352962E+03  0.25500000920E-02 0. -1.
    10030    2    1    2    0    0  0.00000000000E+00  0.00000000000E+00 -0.50345793692E+03  0.14887291223E+04  0.14010155265E+04 0.  0.
        5    1    3    3  502    0  0.52875405476E+03 -0.29111698618E+03  0.12599624402E+03  0.61662557000E+03  0.46999998093E+01 0.  1.
       -5    1    3    3    0  502 -0.52875405476E+03  0.29111698618E+03 -0.62945418094E+03  0.87210355232E+03  0.46999998093E+01 0. -1.
</event>
<event>
 5   0  0.2316714E-05  0.1400005E+04  0.7818609E-02  0.8953815E-01
       -1   -1    0    0    0  501  0.00000000000E+00  0.00000000000E+00  0.80537818854E+03  0.80537818856E+03  0.50400001928E-02 0.  1.
        1   -1    0    0  501    0  0.00000000000E+00  0.00000000000E+00 -0.60841407095E+03  0.60841407097E+03  0.50400001928E-02 0. -1.
    10030    2    1    2    0    0  0.00000000000E+00  0.00000000000E+00  0.19696411759E+03  0.14137922595E+04  0.14000048891E+04 0.  0.
        5    1    3    3  502    0 -0.10965981250E+03  0.51567421401E+03  0.56349069151E+03  0.77167934979E+03  0.46999998093E+01 0.  1.
       -5    1    3    3    0  502  0.10965981250E+03 -0.51567421401E+03 -0.36652657392E+03  0.64211290974E+03  0.46999998093E+01 0. -1.
</event>
<event>
 5   0  0.2467303E-05  0.1400048E+04  0.7818609E-02  0.8953784E-01
        1   -1    0    0  501    0  0.00000000000E+00  0.00000000000E+00  0.16318530272E+04  0.16318530272E+04  0.50400001928E-02 0.  1.
       -1   -1    0    0    0  501  0.00000000000E+00  0.00000000000E+00 -0.30029263918E+03  0.30029263922E+03  0.50400001928E-02 0. -1.
    10030    2    1    2    0    0  0.00000000000E+00  0.00000000000E+00  0.13315603880E+04  0.19321456665E+04  0.14000477883E+04 0.  0.
        3    1    3    3  502    0  0.42704933788E+01 -0.55387310312E+03  0.12565345041E+04  0.13731979543E+04  0.10100000352E+00 0.  1.
       -3    1    3    3    0  502 -0.42704933788E+01  0.55387310312E+03  0.75025883951E+02  0.55894771217E+03  0.10100000352E+00 0. -1.
</event>
<event>
 5   0  0.2316714E-05  0.1398869E+04  0.7818609E-02  0.8954638E-01
        1   -1    0    0  501    0  0.00000000000E+00  0.00000000000E+00  0.31702049988E+03  0.31702049992E+03  0.50400001928E-02 0.  1.
       -1   -1    0    0    0  501  0.00000000000E+00  0.00000000000E+00 -0.15431444966E+04  0.15431444966E+04  0.50400001928E-02 0. -1.
    10030    2    1    2    0    0  0.00000000000E+00  0.00000000000E+00 -0.12261239967E+04  0.18601649965E+04  0.13988687426E+04 0.  0.
        5    1    3    3  502    0  0.20671784550E+03  0.43767387403E+03  0.58298406413E+02  0.48755664476E+03  0.46999998093E+01 0.  1.
       -5    1    3    3    0  502 -0.20671784550E+03 -0.43767387403E+03 -0.12844224031E+04  0.13726083517E+04  0.46999998093E+01 0. -1.
</event>
<event>
 5   0  0.2427569E-05  0.1399782E+04  0.7818609E-02  0.8953977E-01
       -1   -1    0    0    0  501  0.00000000000E+00  0.00000000000E+00  0.67900370800E+03  0.67900370802E+03  0.50400001928E-02 0.  1.
        1   -1    0    0  501    0  0.00000000000E+00  0.00000000000E+00 -0.72142057816E+03  0.72142057818E+03  0.50400001928E-02 0. -1.
    10030    2    1    2    0    0  0.00000000000E+00  0.00000000000E+00 -0.42416870167E+02  0.14004242862E+04  0.13997817653E+04 0.  0.
        1    1    3    3  502    0 -0.17777444572E+03 -0.67680429721E+03 -0.78068643414E+01  0.69980622848E+03  0.50400001928E-02 0. -1.
       -1    1    3    3    0  502  0.17777444572E+03  0.67680429721E+03 -0.34610005825E+02  0.70061805771E+03  0.50400001928E-02 0.  1.
</event>
<event>
 5   0  0.4243281E-05  0.1394614E+04  0.7818609E-02  0.8957726E-01
        2   -1    0    0  501    0  0.00000000000E+00  0.00000000000E+00  0.15684968773E+04  0.15684968773E+04  0.25500000920E-02 0. -1.
       -2   -1    0    0    0  501  0.00000000000E+00  0.00000000000E+00 -0.31000192043E+03  0.31000192044E+03  0.25500000920E-02 0.  1.
    10030    2    1    2    0    0  0.00000000000E+00  0.00000000000E+00  0.12584949569E+04  0.18784987978E+04  0.13946139884E+04 0.  0.
        2    1    3    3  502    0 -0.58253693486E+03 -0.20359975336E+02  0.11447562286E+04  0.12846130281E+04  0.25500000920E-02 0. -1.
       -2    1    3    3    0  502  0.58253693486E+03  0.20359975336E+02  0.11373872828E+03  0.59388576965E+03  0.25500000920E-02 0.  1.
</event>
<event>
 5   0  0.4460282E-05  0.1401100E+04  0.7818609E-02  0.8953023E-01
       -2   -1    0    0    0  501  0.00000000000E+00  0.00000000000E+00  0.44505856888E+03  0.44505856889E+03  0.25500000920E-02 0.  1.
        2   -1    0    0  501    0  0.00000000000E+00  0.00000000000E+00 -0.11027089091E+04  0.11027089091E+04  0.25500000920E-02 0. -1.
    10030    2    1    2    0    0  0.00000000000E+00  0.00000000000E+00 -0.65765034023E+03  0.15477674780E+04  0.14010996381E+04 0.  0.
        1    1    3    3  502    0  0.19555593228E+03  0.67267604783E+03 -0.32230278264E+03  0.77111235997E+03  0.50400001928E-02 0.  1.
       -1    1    3    3    0  502 -0.19555593228E+03 -0.67267604783E+03 -0.33534755758E+03  0.77665511804E+03  0.50400001928E-02 0. -1.
</event>
<event>
 5   0  0.2316714E-05  0.1400035E+04  0.7818609E-02  0.8953793E-01
       -1   -1    0    0    0  501  0.00000000000E+00  0.00000000000E+00  0.63466281676E+03  0.63466281678E+03  0.50400001928E-02 0.  1.
        1   -1    0    0  501    0  0.00000000000E+00  0.00000000000E+00 -0.77210260608E+03  0.77210260609E+03  0.50400001928E-02 0. -1.
    10030    2    1    2    0    0  0.00000000000E+00  0.00000000000E+00 -0.13743978931E+03  0.14067654229E+04  0.14000354493E+04 0.  0.
        5    1    3    3  502    0 -0.37758587149E+03  0.45220103959E+03  0.31117935442E+03  0.66626687684E+03  0.46999998093E+01 0.  1.
       -5    1    3    3    0  502  0.37758587149E+03 -0.45220103959E+03 -0.44861914373E+03  0.74049854603E+03  0.46999998093E+01 0. -1.
</event>
<event>
 5   0  0.2363419E-05  0.1400279E+04  0.7818609E-02  0.8953617E-01
        1   -1    0    0  501    0  0.00000000000E+00  0.00000000000E+00  0.73145688330E+03  0.73145688331E+03  0.50400001928E-02 0. -1.
       -1   -1    0    0    0  501  0.00000000000E+00  0.00000000000E+00 -0.67016257231E+03  0.67016257233E+03  0.50400001928E-02 0.  1.
    10030    2    1    2    0    0  0.00000000000E+00  0.00000000000E+00  0.61294310987E+02  0.14016194556E+04  0.14002785815E+04 0.  0.
        2    1    3    3  502    0  0.43161017226E+03 -0.50274900800E+03  0.25702986191E+03  0.71070968458E+03  0.25500000920E-02 0. -1.
       -2    1    3    3    0  502 -0.43161017226E+03  0.50274900800E+03 -0.19573555092E+03  0.69090977106E+03  0.25500000920E-02 0.  1.
</event>
<event>
 5   0  0.2467303E-05  0.1398644E+04  0.7818609E-02  0.8954800E-01
       -1   -1    0    0    0  501  0.00000000000E+00  0.00000000000E+00  0.63096854211E+03  0.63096854213E+03  0.50400001928E-02 0.  1.
        1   -1    0    0  501    0  0.00000000000E+00  0.00000000000E+00 -0.77508055457E+03  0.77508055458E+03  0.50400001928E-02 0. -1.
    10030    2    1    2    0    0  0.00000000000E+00  0.00000000000E+00 -0.14411201246E+03  0.14060490967E+04  0.13986442686E+04 0.  0.
        3    1    3    3  502    0 -0.35772402340E+03  0.34094505939E+03  0.42537822322E+03  0.65204037715E+03  0.10100000352E+00 0.  1.
       -3    1    3    3    0  502  0.35772402340E+03 -0.34094505939E+03 -0.56949023568E+03  0.75400871956E+03  0.10100000352E+00 0. -1.
</event>
<event>
 5   0  0.4243281E-05  0.1399797E+04  0.7818609E-02  0.8953966E-01
        2   -1    0    0  501    0  0.00000000000E+00  0.00000000000E+00  0.94035638884E+03  0.94035638885E+03  0.25500000920E-02 0.  1.
       -2   -1    0    0    0  501  0.00000000000E+00  0.00000000000E+00 -0.52092792415E+03  0.52092792416E+03  0.25500000920E-02 0. -1.
    10030    2    1    2    0    0  0.00000000000E+00  0.00000000000E+00  0.41942846470E+03  0.14612843130E+04  0.13997969876E+04 0.  0.
        2    1    3    3  502    0 -0.74999499887E+02  0.51327457903E+03 -0.28080007484E+03  0.58985116809E+03  0.25500000920E-02 0.  1.
       -2    1    3    3    0  502  0.74999499887E+02 -0.51327457903E+03  0.70022853954E+03  0.87143314491E+03  0.25500000920E-02 0. -1.
</event>
<event>
 5   0  0.4460282E-05  0.1399322E+04  0.7818609E-02  0.8954310E-01
       -2   -1    0    0    0  501  0.00000000000E+00  0.00000000000E+00  0.30054792218E+03  0.30054792219E+03  0.25500000920E-02 0.  1.
        2   -1    0    0  501    0  0.00000000000E+00  0.00000000000E+00 -0.16287763107E+04  0.16287763107E+04  0.25500000920E-02 0. -1.
    10030    2    1    2    0    0  0.00000000000E+00  0.00000000000E+00 -0.13282283885E+04  0.19293242329E+04  0.13993217441E+04 0.  0.
        1    1    3    3  502    0 -0.41619480440E+03 -0.31516980898E+03 -0.21881075799E+02  0.52252167917E+03  0.50400001928E-02 0.  1.
       -1    1    3    3    0  502  0.41619480440E+03  0.31516980898E+03 -0.13063473127E+04  0.14068025537E+04  0.50400001928E-02 0. -1.
</event>
<event>
 5   0  0.2427569E-05  0.1399866E+04  0.7818609E-02  0.8953915E-01
       -1   -1    0    0    0  501  0.00000000000E+00  0.00000000000E+00  0.61412799153E+03  0.61412799155E+03  0.50400001928E-02 0.  1.
        1   -1    0    0  501    0  0.00000000000E+00  0.00000000000E+00 -0.79772665371E+03  0.79772665373E+03  0.50400001928E-02 0. -1.
    10030    2    1    2    0    0  0.00000000000E+00  0.00000000000E+00 -0.18359866218E+03  0.14118546453E+04  0.13998660903E+04 0.  0.
        1    1    3    3  502    0 -0.29858100079E+03 -0.80358434658E+00 -0.73027297240E+03  0.78895492521E+03  0.50400001928E-02 0. -1.
       -1    1    3    3    0  502  0.29858100079E+03  0.80358434658E+00  0.54667431021E+03  0.62289972006E+03  0.50400001928E-02 0.  1.
</event>
<event>
 5   0  0.4243281E-05  0.1400633E+04  0.7818609E-02  0.8953360E-01
       -2   -1    0    0    0  501  0.00000000000E+00  0.00000000000E+00  0.75373406125E+03  0.75373406126E+03  0.25500000920E-02 0.  1.
        2   -1    0    0  501    0  0.00000000000E+00  0.00000000000E+00 -0.65068506682E+03  0.65068506683E+03  0.25500000920E-02 0. -1.
    10030    2    1    2    0    0  0.00000000000E+00  0.00000000000E+00  0.10304899443E+03  0.14044191281E+04  0.14006334253E+04 0.  0.
        2    1    3    3  502    0  0.47681446024E+02 -0.60418275321E+03 -0.30032731694E+03  0.67639250209E+03  0.25500000920E-02 0. -1.
       -2    1    3    3    0  502 -0.47681446024E+02  0.60418275321E+03  0.40337631137E+03  0.72802662599E+03  0.25500000920E-02 0.  1.
</event>
<event>
 5   0  0.2428507E-05  0.1401957E+04  0.7818609E-02  0.8952404E-01
        1   -1    0    0  501    0  0.00000000000E+00  0.00000000000E+00  0.16484074880E+04  0.16484074880E+04  0.50400001928E-02 0. -1.
       -1   -1    0    0    0  501  0.00000000000E+00  0.00000000000E+00 -0.29808801622E+03  0.29808801626E+03  0.50400001928E-02 0.  1.
    10030    2    1    2    0    0  0.00000000000E+00  0.00000000000E+00  0.13503194718E+04  0.19464955043E+04  0.14019565158E+04 0.  0.
        4    1    3    3  502    0 -0.41672809404E+02  0.69021733940E+03  0.51544807068E+03  0.86245285386E+03  0.12699999809E+01 0. -1.
       -4    1    3    3    0  502  0.41672809404E+02 -0.69021733940E+03  0.83487140112E+03  0.10840426504E+04  0.12699999809E+01 0.  1.
</event>
<event>
 5   0  0.1661000E-05  0.1400021E+04  0.7818609E-02  0.8953803E-01
        3   -1    0    0  501    0  0.00000000000E+00  0.00000000000E+00  0.85143706834E+03  0.85143707433E+03  0.10100000352E+00 0. -1.
       -3   -1    0    0    0  501  0.00000000000E+00  0.00000000000E+00 -0.57551512936E+03  0.57551513822E+03  0.10100000352E+00 0.  1.
    10030    2    1    2    0    0  0.00000000000E+00  0.00000000000E+00  0.27592193898E+03  0.14269522126E+04  0.14000213214E+04 0.  0.
        5    1    3    3  502    0 -0.38870324172E+03 -0.34905235132E+03  0.61282553298E+03  0.80529806777E+03  0.46999998093E+01 0. -1.
       -5    1    3    3    0  502  0.38870324172E+03  0.34905235132E+03 -0.33690359400E+03  0.62165414479E+03  0.46999998093E+01 0.  1.
</event>
<event>
 5   0  0.2467303E-05  0.1400255E+04  0.7818609E-02  0.8953634E-01
       -1   -1    0    0    0  501  0.00000000000E+00  0.00000000000E+00  0.21442148680E+03  0.21442148685E+03  0.50400001928E-02 0. -1.
        1   -1    0    0  501    0  0.00000000000E+00  0.00000000000E+00 -0.22860515808E+04  0.22860515808E+04  0.50400001928E-02 0.  1.
    10030    2    1    2    0    0  0.00000000000E+00  0.00000000000E+00 -0.20716300940E+04  0.25004730676E+04  0.14002550895E+04 0.  0.
        3    1    3    3  502    0  0.19053798372E+03 -0.30479261458E+02  0.16600014389E+03  0.25453834012E+03  0.10100000352E+00 0. -1.
       -3    1    3    3    0  502 -0.19053798372E+03  0.30479261458E+02 -0.22376302379E+04  0.22459347275E+04  0.10100000352E+00 0.  1.
</event>
<event>
 5   0  0.4621450E-05  0.1400763E+04  0.7818609E-02  0.8953266E-01
        2   -1    0    0  501    0  0.00000000000E+00  0.00000000000E+00  0.76859589745E+03  0.76859589745E+03  0.25500000920E-02 0. -1.
       -2   -1    0    0    0  501  0.00000000000E+00  0.00000000000E+00 -0.63822120374E+03  0.63822120375E+03  0.25500000920E-02 0.  1.
    10030    2    1    2    0    0  0.00000000000E+00  0.00000000000E+00  0.13037469370E+03  0.14068171012E+04  0.14007629334E+04 0.  0.
        5    1    3    3  502    0 -0.47779308790E+03  0.50591654030E+03 -0.14365663133E+02  0.69603609309E+03  0.46999998093E+01 0. -1.
       -5    1    3    3    0  502  0.47779308790E+03 -0.50591654030E+03  0.14474035684E+03  0.71078100811E+03  0.46999998093E+01 0.  1.
</event>
<event>
 5   0  0.4243281E-05  0.1400956E+04  0.7818609E-02  0.8953127E-01
       -2   -1    0    0    0  501  0.00000000000E+00  0.00000000000E+00  0.92292013524E+03  0.92292013524E+03  0.25500000920E-02 0. -1.
        2   -1    0    0  501    0  0.00000000000E+00  0.00000000000E+00 -0.53164907128E+03  0.53164907129E+03  0.25500000920E-02 0.  1.
    10030    2    1    2    0    0  0.00000000000E+00  0.00000000000E+00  0.39127106396E+03  0.14545692065E+04  0.14009562916E+04 0.  0.
        2    1    3    3  502    0 -0.26713957104E+03  0.57480169558E+03  0.50522265866E+03  0.81056182645E+03  0.25500000920E-02 0. -1.
       -2    1    3    3    0  502  0.26713957104E+03 -0.57480169558E+03 -0.11395159470E+03  0.64400738008E+03  0.25500000920E-02 0.  1.
</event>
<event>
 5   0  0.1661000E-05  0.1401861E+04  0.7818609E-02  0.8952473E-01
       -3   -1    0    0    0  501  0.00000000000E+00  0.00000000000E+00  0.89079634579E+03  0.89079635152E+03  0.10100000352E+00 0. -1.
        3   -1    0    0  501    0  0.00000000000E+00  0.00000000000E+00 -0.55153297471E+03  0.55153298396E+03  0.10100000352E+00 0.  1.
    10030    2    1    2    0    0  0.00000000000E+00  0.00000000000E+00  0.33926337108E+03  0.14423293355E+04  0.14018610049E+04 0.  0.
        2    1    3    3  502    0 -0.30921685581E+03 -0.49044843013E+03  0.57489169632E+03  0.81648955231E+03  0.25500000920E-02 0. -1.
       -2    1    3    3    0  502  0.30921685581E+03  0.49044843013E+03 -0.23562832524E+03  0.62583978316E+03  0.25500000920E-02 0.  1.
</event>
<event>
 5   0  0.2316714E-05  0.1399547E+04  0.7818609E-02  0.8954146E-01
       -1   -1    0    0    0  501  0.00000000000E+00  0.00000000000E+00  0.51444347177E+03  0.51444347179E+03  0.50400001928E-02 0.  1.
        1   -1    0    0  501    0  0.00000000000E+00  0.00000000000E+00 -0.95186990975E+03  0.95186990976E+03  0.50400001928E-02 0. -1.
    10030    2    1    2    0    0  0.00000000000E+00  0.00000000000E+00 -0.43742643798E+03  0.14663133816E+04  0.13995474427E+04 0.  0.
        5    1    3    3  502    0  0.40935263072E+03  0.46096704215E+03  0.12814053030E+03  0.62968426670E+03  0.46999998093E+01 0.  1.
       -5    1    3    3    0  502 -0.40935263072E+03 -0.46096704215E+03 -0.56556696828E+03  0.83662911486E+03  0.46999998093E+01 0. -1.
</event>
<event>
 5   0  0.2363419E-05  0.1400360E+04  0.7818609E-02  0.8953558E-01
        1   -1    0    0  501    0  0.00000000000E+00  0.00000000000E+00  0.10628780410E+04  0.10628780410E+04  0.50400001928E-02 0.  1.
       -1   -1    0    0    0  501  0.00000000000E+00  0.00000000000E+00 -0.46124956571E+03  0.46124956574E+03  0.50400001928E-02 0. -1.
    10030    2    1    2    0    0  0.00000000000E+00  0.00000000000E+00  0.60162847532E+03  0.15241276068E+04  0.14003600035E+04 0.  0.
        2    1    3    3  502    0  0.12488420724E+01  0.31346239784E+03  0.98224246979E+03  0.10310482549E+04  0.25500000920E-02 0.  1.
       -2    1    3    3    0  502 -0.12488420724E+01 -0.31346239784E+03 -0.38061399447E+03  0.49307935189E+03  0.25500000920E-02 0. -1.
</event>
<event>
 5   0  0.2427569E-05  0.1404475E+04  0.7818609E-02  0.8950585E-01
       -1   -1    0    0    0  501  0.00000000000E+00  0.00000000000E+00  0.28150700142E+03  0.28150700147E+03  0.50400001928E-02 0.  1.
        1   -1    0    0  501    0  0.00000000000E+00  0.00000000000E+00 -0.17517781262E+04  0.17517781262E+04  0.50400001928E-02 0. -1.
    10030    2    1    2    0    0  0.00000000000E+00  0.00000000000E+00 -0.14702711248E+04  0.20332851277E+04  0.14044754288E+04 0.  0.
        1    1    3    3  502    0  0.12967386894E+03 -0.63952818460E+03 -0.11107793215E+04  0.12882710555E+04  0.50400001928E-02 0. -1.
       -1    1    3    3    0  502 -0.12967386894E+03  0.63952818460E+03 -0.35949180326E+03  0.74501407223E+03  0.50400001928E-02 0.  1.
</event>
<event>
 5   0  0.4243281E-05  0.1399608E+04  0.7818609E-02  0.8954102E-01
       -2   -1    0    0    0  501  0.00000000000E+00  0.00000000000E+00  0.40331060114E+03  0.40331060115E+03  0.25500000920E-02 0.  1.
        2   -1    0    0  501    0  0.00000000000E+00  0.00000000000E+00 -0.12142647363E+04  0.12142647363E+04  0.25500000920E-02 0. -1.
    10030    2    1    2    0    0  0.00000000000E+00  0.00000000000E+00 -0.81095413519E+03  0.16175753375E+04  0.13996082891E+04 0.  0.
        2    1    3    3  502    0  0.36548914202E+03 -0.24072201604E+03 -0.10365931354E+04  0.11251909751E+04  0.25500000920E-02 0. -1.
       -2    1    3    3    0  502 -0.36548914202E+03  0.24072201604E+03  0.22563900023E+03  0.49238436243E+03  0.25500000920E-02 0.  1.
</event>
<event>
 5   0  0.2427569E-05  0.1399865E+04  0.7818609E-02  0.8953916E-01
       -1   -1    0    0    0  501  0.00000000000E+00  0.00000000000E+00  0.38041551145E+03  0.38041551148E+03  0.50400001928E-02 0. -1.
        1   -1    0    0  501    0  0.00000000000E+00  0.00000000000E+00 -0.12878165900E+04  0.12878165900E+04  0.50400001928E-02 0.  1.
    10030    2    1    2    0    0  0.00000000000E+00  0.00000000000E+00 -0.90740107856E+03  0.16682321015E+04  0.13998648603E+04 0.  0.
        1    1    3    3  502    0  0.16249657908E+03 -0.66895355233E+03 -0.30295324211E+03  0.75212011030E+03  0.50400001928E-02 0. -1.
       -1    1    3    3    0  502 -0.16249657908E+03  0.66895355233E+03 -0.60444783645E+03  0.91611199120E+03  0.50400001928E-02 0.  1.
</event>
<event>
 5   0  0.4621450E-05  0.1400505E+04  0.7818609E-02  0.8953453E-01
        2   -1    0    0  501    0  0.00000000000E+00  0.00000000000E+00  0.18459654132E+04  0.18459654132E+04  0.25500000920E-02 0. -1.
       -2   -1    0    0    0  501  0.00000000000E+00  0.00000000000E+00 -0.26563515451E+03  0.26563515452E+03  0.25500000920E-02 0.  1.
    10030    2    1    2    0    0  0.00000000000E+00  0.00000000000E+00  0.15803302587E+04  0.21116005677E+04  0.14005046344E+04 0.  0.
        5    1    3    3  502    0 -0.39215975460E+03 -0.36013610552E+03  0.10444229701E+03  0.54260259032E+03  0.46999998093E+01 0.  1.
       -5    1    3    3    0  502  0.39215975460E+03  0.36013610552E+03  0.14758879617E+04  0.15689979774E+04  0.46999998093E+01 0. -1.
</event>
<event>
 5   0  0.2467303E-05  0.1398837E+04  0.7818609E-02  0.8954661E-01
        1   -1    0    0  501    0  0.00000000000E+00  0.00000000000E+00  0.17188563621E+04  0.17188563621E+04  0.50400001928E-02 0. -1.
       -1   -1    0    0    0  501  0.00000000000E+00  0.00000000000E+00 -0.28459974994E+03  0.28459974998E+03  0.50400001928E-02 0.  1.
    10030    2    1    2    0    0  0.00000000000E+00  0.00000000000E+00  0.14342566122E+04  0.20034561121E+04  0.13988367895E+04 0.  0.
        3    1    3    3  502    0 -0.50549113621E+03 -0.22112160838E+03  0.10148587052E+03  0.56099505042E+03  0.10100000352E+00 0.  1.
       -3    1    3    3    0  502  0.50549113621E+03  0.22112160838E+03  0.13327707416E+04  0.14424610617E+04  0.10100000352E+00 0. -1.
</event>
<event>
 5   0  0.1661000E-05  0.1400629E+04  0.7818609E-02  0.8953364E-01
        3   -1    0    0  501    0  0.00000000000E+00  0.00000000000E+00  0.57876445715E+03  0.57876446596E+03  0.10100000352E+00 0. -1.
       -3   -1    0    0    0  501  0.00000000000E+00  0.00000000000E+00 -0.84739147913E+03  0.84739148515E+03  0.10100000352E+00 0.  1.
    10030    2    1    2    0    0  0.00000000000E+00  0.00000000000E+00 -0.26862702198E+03  0.14261559511E+04  0.14006285446E+04 0.  0.
        2    1    3    3  502    0  0.22267208575E+03  0.50195616900E+03  0.30823087562E+03  0.62972146705E+03  0.25500000920E-02 0. -1.
       -2    1    3    3    0  502 -0.22267208575E+03 -0.50195616900E+03 -0.57685789761E+03  0.79643448406E+03  0.25500000920E-02 0.  1.
</event>
<event>
 5   0  0.2316714E-05  0.1400022E+04  0.7818609E-02  0.8953802E-01
       -1   -1    0    0    0  501  0.00000000000E+00  0.00000000000E+00  0.35795764101E+03  0.35795764105E+03  0.50400001928E-02 0. -1.
        1   -1    0    0  501    0  0.00000000000E+00  0.00000000000E+00 -0.13689210398E+04  0.13689210398E+04  0.50400001928E-02 0.  1.
    10030    2    1    2    0    0  0.00000000000E+00  0.00000000000E+00 -0.10109633988E+04  0.17268786809E+04  0.14000224944E+04 0.  0.
        5    1    3    3  502    0  0.27682615242E+03 -0.51971144706E+03 -0.38617333877E+02  0.59012379663E+03  0.46999998093E+01 0. -1.
       -5    1    3    3    0  502 -0.27682615242E+03  0.51971144706E+03 -0.97234606490E+03  0.11367548842E+04  0.46999998093E+01 0.  1.
</event>
<event>
 5   0  0.4243281E-05  0.1399840E+04  0.7818609E-02  0.8953934E-01
       -2   -1    0    0    0  501  0.00000000000E+00  0.00000000000E+00  0.30744209026E+03  0.30744209027E+03  0.25500000920E-02 0. -1.
        2   -1    0    0  501    0  0.00000000000E+00  0.00000000000E+00 -0.15934328265E+04  0.15934328265E+04  0.25500000920E-02 0.  1.
    10030    2    1    2    0    0  0.00000000000E+00  0.00000000000E+00 -0.12859907362E+04  0.19008749168E+04  0.13998404464E+04 0.  0.
        2    1    3    3  502    0  0.60438126473E+02  0.66781321100E+03 -0.37052602659E+03  0.76610494601E+03  0.25500000920E-02 0. -1.
       -2    1    3    3    0  502 -0.60438126473E+02 -0.66781321100E+03 -0.91546470964E+03  0.11347699707E+04  0.25500000920E-02 0.  1.
</event>
<event>
 5   0  0.1661000E-05  0.1400200E+04  0.7818609E-02  0.8953674E-01
       -3   -1    0    0    0  501  0.00000000000E+00  0.00000000000E+00  0.31837468962E+03  0.31837470564E+03  0.10100000352E+00 0. -1.
        3   -1    0    0  501    0  0.00000000000E+00  0.00000000000E+00 -0.15395071371E+04  0.15395071404E+04  0.10100000352E+00 0.  1.
    10030    2    1    2    0    0  0.00000000000E+00  0.00000000000E+00 -0.12211324475E+04  0.18578818461E+04  0.14002001641E+04 0.  0.
        2    1    3    3  502    0  0.51500674554E+03  0.29146078713E+03 -0.11417047769E+03  0.60267423735E+03  0.25500000920E-02 0. -1.
       -2    1    3    3    0  502 -0.51500674554E+03 -0.29146078713E+03 -0.11069619698E+04  0.12552076087E+04  0.25500000920E-02 0.  1.
</event>
<event>
 5   0  0.2427569E-05  0.1400460E+04  0.7818609E-02  0.8953486E-01
        1   -1    0    0  501    0  0.00000000000E+00  0.00000000000E+00  0.57588923886E+03  0.57588923888E+03  0.50400001928E-02 0. -1.
       -1   -1    0    0    0  501  0.00000000000E+00  0.00000000000E+00 -0.85141688212E+03  0.85141688213E+03  0.50400001928E-02 0.  1.
    10030    2    1    2    0    0  0.00000000000E+00  0.00000000000E+00 -0.27552764326E+03  0.14273061210E+04  0.14004596677E+04 0.  0.
        1    1    3    3  502    0  0.24683704790E+03 -0.65212242048E+03 -0.20325799353E+03  0.72629607700E+03  0.50400001928E-02 0. -1.
       -1    1    3    3    0  502 -0.24683704790E+03  0.65212242048E+03 -0.72269649733E+02  0.70101004401E+03  0.50400001928E-02 0.  1.
</event>
<event>
 5   0  0.4243281E-05  0.1401447E+04  0.7818609E-02  0.8952772E-01
       -2   -1    0    0    0  501  0.00000000000E+00  0.00000000000E+00  0.34856981993E+03  0.34856981994E+03  0.25500000920E-02 0.  1.
        2   -1    0    0  501    0  0.00000000000E+00  0.00000000000E+00 -0.14086523578E+04  0.14086523578E+04  0.25500000920E-02 0. -1.
    10030    2    1    2    0    0  0.00000000000E+00  0.00000000000E+00 -0.10600825378E+04  0.17572221777E+04  0.14014473928E+04 0.  0.
        2    1    3    3  502    0  0.57111334005E+02  0.68136845256E+03 -0.72220984882E+03  0.99454096867E+03  0.25500000920E-02 0.  1.
       -2    1    3    3    0  502 -0.57111334005E+02 -0.68136845256E+03 -0.33787268901E+03  0.76268120903E+03  0.25500000920E-02 0. -1.
</event>
<event>
 5   0  0.2363419E-05  0.1402883E+04  0.7818609E-02  0.8951735E-01
        1   -1    0    0  501    0  0.00000000000E+00  0.00000000000E+00  0.98899497354E+03  0.98899497355E+03  0.50400001928E-02 0.  1.
       -1   -1    0    0    0  501  0.00000000000E+00  0.00000000000E+00 -0.49749485221E+03  0.49749485223E+03  0.50400001928E-02 0. -1.
    10030    2    1    2    0    0  0.00000000000E+00  0.00000000000E+00  0.49150012133E+03  0.14864898258E+04  0.14028826155E+04 0.  0.
        2    1    3    3  502    0  0.37969697954E+02  0.33091735866E+03 -0.40834983079E+03  0.52697018942E+03  0.25500000920E-02 0. -1.
       -2    1    3    3    0  502 -0.37969697954E+02 -0.33091735866E+03  0.89984995212E+03  0.95951963636E+03  0.25500000920E-02 0.  1.
</event>
<event>
 5   0  0.2363419E-05  0.1399689E+04  0.7818609E-02  0.8954044E-01
        1   -1    0    0  501    0  0.00000000000E+00  0.00000000000E+00  0.11491396117E+04  0.11491396117E+04  0.50400001928E-02 0.  1.
       -1   -1    0    0    0  501  0.00000000000E+00  0.00000000000E+00 -0.42621654881E+03  0.42621654884E+03  0.50400001928E-02 0. -1.
    10030    2    1    2    0    0  0.00000000000E+00  0.00000000000E+00  0.72292306285E+03  0.15753561605E+04  0.13996889932E+04 0.  0.
        2    1    3    3  502    0  0.43629849803E+03 -0.54529976502E+03  0.31020340676E+03  0.76415598322E+03  0.25500000920E-02 0. -1.
       -2    1    3    3    0  502 -0.43629849803E+03  0.54529976502E+03  0.41271965610E+03  0.81120017730E+03  0.25500000920E-02 0.  1.
</event>
<event>
 5   0  0.2428507E-05  0.1400080E+04  0.7818609E-02  0.8953760E-01
        1   -1    0    0  501    0  0.00000000000E+00  0.00000000000E+00  0.99988625299E+03  0.99988625301E+03  0.50400001928E-02 0. -1.
       -1   -1    0    0    0  501  0.00000000000E+00  0.00000000000E+00 -0.49011190550E+03  0.49011190552E+03  0.50400001928E-02 0.  1.
    10030    2    1    2    0    0  0.00000000000E+00  0.00000000000E+00  0.50977434750E+03  0.14899981585E+04  0.14000802216E+04 0.  0.
        4    1    3    3  502    0  0.29501981329E+03 -0.59678852530E+03  0.24509694373E+02  0.66617983472E+03  0.12699999809E+01 0.  1.
       -4    1    3    3    0  502 -0.29501981329E+03  0.59678852530E+03  0.48526465312E+03  0.82381832381E+03  0.12699999809E+01 0. -1.
</event>
<event>
 5   0  0.2428507E-05  0.1397486E+04  0.7818609E-02  0.8955640E-01
       -1   -1    0    0    0  501  0.00000000000E+00  0.00000000000E+00  0.25770018367E+03  0.25770018372E+03  0.50400001928E-02 0.  1.
        1   -1    0    0  501    0  0.00000000000E+00  0.00000000000E+00 -0.18946124638E+04  0.18946124638E+04  0.50400001928E-02 0. -1.
    10030    2    1    2    0    0  0.00000000000E+00  0.00000000000E+00 -0.16369122801E+04  0.21523126475E+04  0.13974862861E+04 0.  0.
        4    1    3    3  502    0  0.66948160445E+03 -0.91797162400E+02 -0.10922706843E+04  0.12844022728E+04  0.12699999809E+01 0. -1.
       -4    1    3    3    0  502 -0.66948160445E+03  0.91797162400E+02 -0.54464159580E+03  0.86791037468E+03  0.12699999809E+01 0.  1.
</event>
<event>
 5   0  0.2316714E-05  0.1399458E+04  0.7818609E-02  0.8954211E-01
       -1   -1    0    0    0  501  0.00000000000E+00  0.00000000000E+00  0.91765763844E+03  0.91765763846E+03  0.50400001928E-02 0. -1.
        1   -1    0    0  501    0  0.00000000000E+00  0.00000000000E+00 -0.53355447054E+03  0.53355447056E+03  0.50400001928E-02 0.  1.
    10030    2    1    2    0    0  0.00000000000E+00  0.00000000000E+00  0.38410316790E+03  0.14512121090E+04  0.13994575170E+04 0.  0.
        5    1    3    3  502    0 -0.39705783260E+03  0.14927437986E+02 -0.40520002232E+03  0.56752700281E+03  0.46999998093E+01 0.  1.
       -5    1    3    3    0  502  0.39705783260E+03 -0.14927437986E+02  0.78930319023E+03  0.88368510621E+03  0.46999998093E+01 0. -1.
</event>
<event>
 5   0  0.2467303E-05  0.1400194E+04  0.7818609E-02  0.8953678E-01
        1   -1    0    0  501    0  0.00000000000E+00  0.00000000000E+00  0.92168975948E+03  0.92168975949E+03  0.50400001928E-02 0. -1.
       -1   -1    0    0    0  501  0.00000000000E+00  0.00000000000E+00 -0.53177963132E+03  0.53177963134E+03  0.50400001928E-02 0.  1.
    10030    2    1    2    0    0  0.00000000000E+00  0.00000000000E+00  0.38991012816E+03  0.14534693908E+04  0.14001940444E+04 0.  0.
        3    1    3    3  502    0 -0.18596482473E+03 -0.64003766854E+03  0.41736092475E+03  0.78639766334E+03  0.10100000352E+00 0. -1.
       -3    1    3    3    0  502  0.18596482473E+03  0.64003766854E+03 -0.27450796588E+02  0.66707172750E+03  0.10100000352E+00 0.  1.
</event>
<event>
 5   0  0.4621450E-05  0.1400658E+04  0.7818609E-02  0.8953343E-01
       -2   -1    0    0    0  501  0.00000000000E+00  0.00000000000E+00  0.47468462838E+03  0.47468462838E+03  0.25500000920E-02 0.  1.
        2   -1    0    0  501    0  0.00000000000E+00  0.00000000000E+00 -0.10332343198E+04  0.10332343198E+04  0.25500000920E-02 0. -1.
    10030    2    1    2    0    0  0.00000000000E+00  0.00000000000E+00 -0.55854969143E+03  0.15079189482E+04  0.14006576300E+04 0.  0.
        5    1    3    3  502    0 -0.36997598958E+03  0.11713334875E+03 -0.90687152637E+03  0.98642815734E+03  0.46999998093E+01 0. -1.
       -5    1    3    3    0  502  0.36997598958E+03 -0.11713334875E+03  0.34832183494E+03  0.52149079086E+03  0.46999998093E+01 0.  1.
</event>
<event>
 5   0  0.2316714E-05  0.1399891E+04  0.7818609E-02  0.8953897E-01
        1   -1    0    0  501    0  0.00000000000E+00  0.00000000000E+00  0.58729834473E+03  0.58729834475E+03  0.50400001928E-02 0.  1.
       -1   -1    0    0    0  501  0.00000000000E+00  0.00000000000E+00 -0.83419942815E+03  0.83419942817E+03  0.50400001928E-02 0. -1.
    10030    2    1    2    0    0  0.00000000000E+00  0.00000000000E+00 -0.24690108342E+03  0.14214977729E+04  0.13998913434E+04 0.  0.
        5    1    3    3  502    0  0.35176305371E+03 -0.28524322920E+03  0.41845368713E+03  0.61662510818E+03  0.46999998093E+01 0.  1.
       -5    1    3    3    0  502 -0.35176305371E+03  0.28524322920E+03 -0.66535477055E+03  0.80487266474E+03  0.46999998093E+01 0. -1.
</event>
<event>
 5   0  0.4460282E-05  0.1407842E+04  0.7818609E-02  0.8948162E-01
       -2   -1    0    0    0  501  0.00000000000E+00  0.00000000000E+00  0.38080603182E+03  0.38080603183E+03  0.25500000920E-02 0. -1.
        2   -1    0    0  501    0  0.00000000000E+00  0.00000000000E+00 -0.13011996979E+04  0.13011996979E+04  0.25500000920E-02 0.  1.
    10030    2    1    2    0    0  0.00000000000E+00  0.00000000000E+00 -0.92039366609E+03  0.16820057297E+04  0.14078418854E+04 0.  0.
        1    1    3    3  502    0 -0.48827467660E+03 -0.47337069696E+03 -0.67727403917E+03  0.95978752894E+03  0.50400001928E-02 0.  1.
       -1    1    3    3    0  502  0.48827467660E+03  0.47337069696E+03 -0.24311962692E+03  0.72221820080E+03  0.50400001928E-02 0. -1.
</event>
<event>
 5   0  0.2467303E-05  0.1399851E+04  0.7818609E-02  0.8953926E-01
       -1   -1    0    0    0  501  0.00000000000E+00  0.00000000000E+00  0.26384978473E+03  0.26384978478E+03  0.50400001928E-02 0. -1.
        1   -1    0    0  501    0  0.00000000000E+00  0.00000000000E+00 -0.18567225371E+04  0.18567225371E+04  0.50400001928E-02 0.  1.
    10030    2    1    2    0    0  0.00000000000E+00  0.00000000000E+00 -0.15928727524E+04  0.21205723219E+04  0.13998511946E+04 0.  0.
        3    1    3    3  502    0  0.43911230429E+02 -0.64774276202E+03 -0.40025908042E+03  0.76269667861E+03  0.10100000352E+00 0. -1.
       -3    1    3    3    0  502 -0.43911230429E+02  0.64774276202E+03 -0.11926136720E+04  0.13578756433E+04  0.10100000352E+00 0.  1.
</event>
<event>
 5   0  0.2363419E-05  0.1399502E+04  0.7818609E-02  0.8954179E-01
        1   -1    0    0  501    0  0.00000000000E+00  0.00000000000E+00  0.17809231093E+04  0.17809231093E+04  0.50400001928E-02 0. -1.
       -1   -1    0    0    0  501  0.00000000000E+00  0.00000000000E+00 -0.27494238571E+03  0.27494238576E+03  0.50400001928E-02 0.  1.
    10030    2    1    2    0    0  0.00000000000E+00  0.00000000000E+00  0.15059807235E+04  0.20558654950E+04  0.13995016949E+04 0.  0.
        2    1    3    3  502    0  0.23593604288E+03 -0.65591764204E+03  0.66294329917E+03  0.96197067906E+03  0.25500000920E-02 0.  1.
       -2    1    3    3    0  502 -0.23593604288E+03  0.65591764204E+03  0.84303742438E+03  0.10938948160E+04  0.25500000920E-02 0. -1.
</event>
<event>
 5   0  0.1661000E-05  0.1400133E+04  0.7818609E-02  0.8953722E-01
        3   -1    0    0  501    0  0.00000000000E+00  0.00000000000E+00  0.18741546024E+04  0.18741546051E+04  0.10100000352E+00 0. -1.
       -3   -1    0    0    0  501  0.00000000000E+00  0.00000000000E+00 -0.26150103421E+03  0.26150105372E+03  0.10100000352E+00 0.  1.
    10030    2    1    2    0    0  0.00000000000E+00  0.00000000000E+00  0.16126535682E+04  0.21356556588E+04  0.14001334087E+04 0.  0.
        5    1    3    3  502    0  0.15157493435E+03  0.54007900298E+03  0.14451640427E+04  0.15502198201E+04  0.46999998093E+01 0. -1.
       -5    1    3    3    0  502 -0.15157493435E+03 -0.54007900298E+03  0.16748952548E+03  0.58543583878E+03  0.46999998093E+01 0.  1.
</event>
<event>
 5   0  0.4460282E-05  0.1400340E+04  0.7818609E-02  0.8953573E-01
        2   -1    0    0  501    0  0.00000000000E+00  0.00000000000E+00  0.50139439711E+03  0.50139439712E+03  0.25500000920E-02 0. -1.
       -2   -1    0    0    0  501  0.00000000000E+00  0.00000000000E+00 -0.97774874323E+03  0.97774874323E+03  0.25500000920E-02 0.  1.
    10030    2    1    2    0    0  0.00000000000E+00  0.00000000000E+00 -0.47635434612E+03  0.14791431403E+04  0.14003395897E+04 0.  0.
        1    1    3    3  502    0  0.18474920521E+03  0.67507181724E+03 -0.25886275077E+03  0.74623330870E+03  0.50400001928E-02 0. -1.
       -1    1    3    3    0  502 -0.18474920521E+03 -0.67507181724E+03 -0.21749159535E+03  0.73290983165E+03  0.50400001928E-02 0.  1.
</event>
<event>
 5   0  0.4441253E-05  0.1399676E+04  0.7818609E-02  0.8954053E-01
        2   -1    0    0  501    0  0.00000000000E+00  0.00000000000E+00  0.11980103164E+04  0.11980103164E+04  0.25500000920E-02 0. -1.
       -2   -1    0    0    0  501  0.00000000000E+00  0.00000000000E+00 -0.40882200106E+03  0.40882200107E+03  0.25500000920E-02 0.  1.
    10030    2    1    2    0    0  0.00000000000E+00  0.00000000000E+00  0.78918831530E+03  0.16068323174E+04  0.13996756408E+04 0.  0.
        3    1    3    3  502    0 -0.27431611393E+03  0.30601031504E+03  0.10448965806E+04  0.11228092080E+04  0.10100000352E+00 0. -1.
       -3    1    3    3    0  502  0.27431611393E+03 -0.30601031504E+03 -0.25570826531E+03  0.48402310939E+03  0.10100000352E+00 0.  1.
</event>
<event>
 5   0  0.4460282E-05  0.1400038E+04  0.7818609E-02  0.8953791E-01
       -2   -1    0    0    0  501  0.00000000000E+00  0.00000000000E+00  0.72802636764E+03  0.72802636765E+03  0.25500000920E-02 0. -1.
        2   -1    0    0  501    0  0.00000000000E+00  0.00000000000E+00 -0.67308866442E+03  0.67308866442E+03  0.25500000920E-02 0.  1.
    10030    2    1    2    0    0  0.00000000000E+00  0.00000000000E+00  0.54937703225E+02  0.14011150321E+04  0.14000375644E+04 0.  0.
        1    1    3    3  502    0  0.26847213595E+02 -0.69102266946E+03 -0.81211192084E+02  0.69629617285E+03  0.50400001928E-02 0.  1.
       -1    1    3    3    0  502 -0.26847213595E+02  0.69102266946E+03  0.13614889531E+03  0.70481885921E+03  0.50400001928E-02 0. -1.
</event>
<event>
 5   0  0.4441253E-05  0.1399770E+04  0.7818609E-02  0.8953985E-01
       -2   -1    0    0    0  501  0.00000000000E+00  0.00000000000E+00  0.68968706687E+03  0.68968706687E+03  0.25500000920E-02 0.  1.
        2   -1    0    0  501    0  0.00000000000E+00  0.00000000000E+00 -0.71023383355E+03  0.71023383355E+03  0.25500000920E-02 0. -1.
    10030    2    1    2    0    0  0.00000000000E+00  0.00000000000E+00 -0.20546766678E+02  0.13999209004E+04  0.13997701089E+04 0.  0.
        3    1    3    3  502    0  0.19373136232E+03 -0.64777943576E+03  0.17054720290E+03  0.69730652998E+03  0.10100000352E+00 0.  1.
       -3    1    3    3    0  502 -0.19373136232E+03  0.64777943576E+03 -0.19109396958E+03  0.70261437044E+03  0.10100000352E+00 0. -1.
</event>
<event>
 5   0  0.4243281E-05  0.1398555E+04  0.7818609E-02  0.8954865E-01
        2   -1    0    0  501    0  0.00000000000E+00  0.00000000000E+00  0.55480262505E+03  0.55480262505E+03  0.25500000920E-02 0. -1.
       -2   -1    0    0    0  501  0.00000000000E+00  0.00000000000E+00 -0.88137437922E+03  0.88137437923E+03  0.25500000920E-02 0.  1.
    10030    2    1    2    0    0  0.00000000000E+00  0.00000000000E+00 -0.32657175417E+03  0.14361770043E+04  0.13985547100E+04 0.  0.
        2    1    3    3  502    0  0.57933609766E+03  0.26397077603E+03 -0.46033890561E+03  0.78563527967E+03  0.25500000920E-02 0.  1.
       -2    1    3    3    0  502 -0.57933609766E+03 -0.26397077603E+03  0.13376715143E+03  0.65054172461E+03  0.25500000920E-02 0. -1.
</event>
<event>
 5   0  0.4460282E-05  0.1398660E+04  0.7818609E-02  0.8954789E-01
        2   -1    0    0  501    0  0.00000000000E+00  0.00000000000E+00  0.57441594785E+03  0.57441594786E+03  0.25500000920E-02 0.  1.
       -2   -1    0    0    0  501  0.00000000000E+00  0.00000000000E+00 -0.85140786466E+03  0.85140786466E+03  0.25500000920E-02 0. -1.
    10030    2    1    2    0    0  0.00000000000E+00  0.00000000000E+00 -0.27699191681E+03  0.14258238125E+04  0.13986597236E+04 0.  0.
        1    1    3    3  502    0  0.10333728357E+03 -0.65419591523E+03  0.90389407837E+02  0.66844680772E+03  0.50400001928E-02 0.  1.
       -1    1    3    3    0  502 -0.10333728357E+03  0.65419591523E+03 -0.36738132464E+03  0.75737700480E+03  0.50400001928E-02 0. -1.
</event>
<event>
 5   0  0.2316714E-05  0.1399506E+04  0.7818609E-02  0.8954176E-01
        1   -1    0    0  501    0  0.00000000000E+00  0.00000000000E+00  0.89727946217E+03  0.89727946218E+03  0.50400001928E-02 0. -1.
       -1   -1    0    0    0  501  0.00000000000E+00  0.00000000000E+00 -0.54570991638E+03  0.54570991640E+03  0.50400001928E-02 0.  1.
    10030    2    1    2    0    0  0.00000000000E+00  0.00000000000E+00  0.35156954579E+03  0.14429893786E+04  0.13995060561E+04 0.  0.
        5    1    3    3  502    0 -0.58973405690E+03  0.25817638228E+03  0.45851420256E+03  0.79037881182E+03  0.46999998093E+01 0.  1.
       -5    1    3    3    0  502  0.58973405690E+03 -0.25817638228E+03 -0.10694465677E+03  0.65261056676E+03  0.46999998093E+01 0. -1.
</event>
<event>
 5   0  0.2316714E-05  0.1400045E+04  0.7818609E-02  0.8953786E-01
        1   -1    0    0  501    0  0.00000000000E+00  0.00000000000E+00  0.12148145634E+04  0.12148145634E+04  0.50400001928E-02 0. -1.
       -1   -1    0    0    0  501  0.00000000000E+00  0.00000000000E+00 -0.40337970269E+03  0.40337970272E+03  0.50400001928E-02 0.  1.
    10030    2    1    2    0    0  0.00000000000E+00  0.00000000000E+00  0.81143486068E+03  0.16181942661E+04  0.14000450527E+04 0.  0.
        5    1    3    3  502    0 -0.48399422372E+03  0.25188179588E+03  0.91258531420E+03  0.10632633227E+04  0.46999998093E+01 0. -1.
       -5    1    3    3    0  502  0.48399422372E+03 -0.25188179588E+03 -0.10115045353E+03  0.55493094340E+03  0.46999998093E+01 0.  1.
</event>
<event>
 5   0  0.4243281E-05  0.1400967E+04  0.7818609E-02  0.8953119E-01
        2   -1    0    0  501    0  0.00000000000E+00  0.00000000000E+00  0.10964241312E+04  0.10964241312E+04  0.25500000920E-02 0. -1.
       -2   -1    0    0    0  501  0.00000000000E+00  0.00000000000E+00 -0.44752520993E+03  0.44752520994E+03  0.25500000920E-02 0.  1.
    10030    2    1    2    0    0  0.00000000000E+00  0.00000000000E+00  0.64889892127E+03  0.15439493411E+04  0.14009674364E+04 0.  0.
        2    1    3    3  502    0  0.16224138177E+03  0.65391123300E+03  0.53573259521E+03  0.86077382638E+03  0.25500000920E-02 0.  1.
       -2    1    3    3    0  502 -0.16224138177E+03 -0.65391123300E+03  0.11316632606E+03  0.68317551476E+03  0.25500000920E-02 0. -1.
</event>
<event>
 5   0  0.2467303E-05  0.1400368E+04  0.7818609E-02  0.8953552E-01
        1   -1    0    0  501    0  0.00000000000E+00  0.00000000000E+00  0.64728172959E+03  0.64728172961E+03  0.50400001928E-02 0. -1.
       -1   -1    0    0    0  501  0.00000000000E+00  0.00000000000E+00 -0.75740964505E+03  0.75740964507E+03  0.50400001928E-02 0.  1.
    10030    2    1    2    0    0  0.00000000000E+00  0.00000000000E+00 -0.11012791546E+03  0.14046913747E+04  0.14003677018E+04 0.  0.
        3    1    3    3  502    0 -0.13140218968E+03 -0.48120782506E+03 -0.54793620555E+03  0.74098691075E+03  0.10100000352E+00 0.  1.
       -3    1    3    3    0  502  0.13140218968E+03  0.48120782506E+03  0.43780829009E+03  0.66370446392E+03  0.10100000352E+00 0. -1.
</event>
<event>
 5   0  0.2316714E-05  0.1400308E+04  0.7818609E-02  0.8953595E-01
        1   -1    0    0  501    0  0.00000000000E+00  0.00000000000E+00  0.97871365987E+03  0.97871365989E+03  0.50400001928E-02 0. -1.
       -1   -1    0    0    0  501  0.00000000000E+00  0.00000000000E+00 -0.50087764857E+03  0.50087764860E+03  0.50400001928E-02 0.  1.
    10030    2    1    2    0    0  0.00000000000E+00  0.00000000000E+00  0.47783601130E+03  0.14795913085E+04  0.14003082469E+04 0.  0.
        5    1    3    3  502    0  0.27625211120E+03  0.29165501122E+03  0.84480898270E+03  0.93546896355E+03  0.46999998093E+01 0. -1.
       -5    1    3    3    0  502 -0.27625211120E+03 -0.29165501122E+03 -0.36697297140E+03  0.54412234493E+03  0.46999998093E+01 0.  1.
</event>
<event>
 5   0  0.1661000E-05  0.1400139E+04  0.7818609E-02  0.8953718E-01
        4   -1    0    0  501    0  0.00000000000E+00  0.00000000000E+00  0.78973887980E+03  0.78973990096E+03  0.12699999809E+01 0. -1.
       -4   -1    0    0    0  501  0.00000000000E+00  0.00000000000E+00 -0.62057961187E+03  0.62058091138E+03  0.12699999809E+01 0.  1.
    10030    2    1    2    0    0  0.00000000000E+00  0.00000000000E+00  0.16915926793E+03  0.14103208123E+04  0.14001392558E+04 0.  0.
        4    1    3    3  502    0 -0.45642169136E+02  0.29046696399E+03  0.72452757433E+03  0.78191820777E+03  0.12699999809E+01 0. -1.
       -4    1    3    3    0  502  0.45642169136E+02 -0.29046696399E+03 -0.55536830640E+03  0.62840260457E+03  0.12699999809E+01 0.  1.
</event>
<event>
 5   0  0.4441253E-05  0.1401816E+04  0.7818609E-02  0.8952505E-01
       -2   -1    0    0    0  501  0.00000000000E+00  0.00000000000E+00  0.26621161950E+03  0.26621161951E+03  0.25500000920E-02 0. -1.
        2   -1    0    0  501    0  0.00000000000E+00  0.00000000000E+00 -0.18454198129E+04  0.18454198129E+04  0.25500000920E-02 0.  1.
    10030    2    1    2    0    0  0.00000000000E+00  0.00000000000E+00 -0.15792081934E+04  0.21116314325E+04  0.14018162463E+04 0.  0.
        3    1    3    3  502    0 -0.18415290885E+03 -0.47722114149E+03 -0.67779349655E+02  0.51599066093E+03  0.10100000352E+00 0. -1.
       -3    1    3    3    0  502  0.18415290885E+03  0.47722114149E+03 -0.15114288438E+04  0.15956407715E+04  0.10100000352E+00 0.  1.
</event>
<event>
 5   0  0.2316714E-05  0.1402264E+04  0.7818609E-02  0.8952181E-01
        1   -1    0    0  501    0  0.00000000000E+00  0.00000000000E+00  0.73069903919E+03  0.73069903921E+03  0.50400001928E-02 0. -1.
       -1   -1    0    0    0  501  0.00000000000E+00  0.00000000000E+00 -0.67276153494E+03  0.67276153496E+03  0.50400001928E-02 0.  1.
    10030    2    1    2    0    0  0.00000000000E+00  0.00000000000E+00  0.57937504253E+02  0.14034605742E+04  0.14022641794E+04 0.  0.
        5    1    3    3  502    0  0.28339654342E+03  0.52384040128E+02  0.66865913937E+03  0.72813791492E+03  0.46999998093E+01 0. -1.
       -5    1    3    3    0  502 -0.28339654342E+03 -0.52384040128E+02 -0.61072163512E+03  0.67532265924E+03  0.46999998093E+01 0.  1.
</event>
<event>
 5   0  0.4243281E-05  0.1405389E+04  0.7818609E-02  0.8949927E-01
       -2   -1    0    0    0  501  0.00000000000E+00  0.00000000000E+00  0.50511445964E+03  0.50511445965E+03  0.25500000920E-02 0. -1.
        2   -1    0    0  501    0  0.00000000000E+00  0.00000000000E+00 -0.97756012988E+03  0.97756012989E+03  0.25500000920E-02 0.  1.
    10030    2    1    2    0    0  0.00000000000E+00  0.00000000000E+00 -0.47244567024E+03  0.14826745895E+04  0.14053892796E+04 0.  0.
        2    1    3    3  502    0 -0.60954625611E+02 -0.59503583186E+02  0.49964728739E+03  0.50685654242E+03  0.25500000920E-02 0. -1.
       -2    1    3    3    0  502  0.60954625611E+02  0.59503583186E+02 -0.97209295763E+03  0.97581804711E+03  0.25500000920E-02 0.  1.
</event>
<event>
 5   0  0.2427569E-05  0.1398667E+04  0.7818609E-02  0.8954784E-01
       -1   -1    0    0    0  501  0.00000000000E+00  0.00000000000E+00  0.25363861108E+03  0.25363861113E+03  0.50400001928E-02 0. -1.
        1   -1    0    0  501    0  0.00000000000E+00  0.00000000000E+00 -0.19282054780E+04  0.19282054780E+04  0.50400001928E-02 0.  1.
    10030    2    1    2    0    0  0.00000000000E+00  0.00000000000E+00 -0.16745668669E+04  0.21818440891E+04  0.13986670217E+04 0.  0.
        1    1    3    3  502    0 -0.55966971449E+03 -0.16695873290E+03 -0.23723762858E+03  0.63038646896E+03  0.50400001928E-02 0. -1.
       -1    1    3    3    0  502  0.55966971449E+03  0.16695873290E+03 -0.14373292383E+04  0.15514576202E+04  0.50400001928E-02 0.  1.
</event>
<event>
 5   0  0.1661000E-05  0.1400169E+04  0.7818609E-02  0.8953696E-01
       -3   -1    0    0    0  501  0.00000000000E+00  0.00000000000E+00  0.55676594884E+03  0.55676595800E+03  0.10100000352E+00 0.  1.
        3   -1    0    0  501    0  0.00000000000E+00  0.00000000000E+00 -0.88029511817E+03  0.88029512397E+03  0.10100000352E+00 0. -1.
    10030    2    1    2    0    0  0.00000000000E+00  0.00000000000E+00 -0.32352916934E+03  0.14370610820E+04  0.14001690719E+04 0.  0.
        1    1    3    3  502    0  0.33996038272E+03  0.53328835672E+03  0.14639436210E+03  0.64915394362E+03  0.50400001928E-02 0.  1.
       -1    1    3    3    0  502 -0.33996038272E+03 -0.53328835672E+03 -0.46992353143E+03  0.78790713835E+03  0.50400001928E-02 0. -1.
</event>
<event>
 5   0  0.4441253E-05  0.1399595E+04  0.7818609E-02  0.8954112E-01
        2   -1    0    0  501    0  0.00000000000E+00  0.00000000000E+00  0.10335654728E+04  0.10335654728E+04  0.25500000920E-02 0. -1.
       -2   -1    0    0    0  501  0.00000000000E+00  0.00000000000E+00 -0.47381260433E+03  0.47381260433E+03  0.25500000920E-02 0.  1.
    10030    2    1    2    0    0  0.00000000000E+00  0.00000000000E+00  0.55975286844E+03  0.15073780771E+04  0.13995947248E+04 0.  0.
        3    1    3    3  502    0  0.10713683738E+03 -0.68884866587E+03  0.21413862883E+03  0.72927782700E+03  0.10100000352E+00 0.  1.
       -3    1    3    3    0  502 -0.10713683738E+03  0.68884866587E+03  0.34561423961E+03  0.77810025011E+03  0.10100000352E+00 0. -1.
</event>
<event>
 5   0  0.2363419E-05  0.1399040E+04  0.7818609E-02  0.8954514E-01
        1   -1    0    0  501    0  0.00000000000E+00  0.00000000000E+00  0.16529516635E+04  0.16529516635E+04  0.50400001928E-02 0. -1.
       -1   -1    0    0    0  501  0.00000000000E+00  0.00000000000E+00 -0.29603291004E+03  0.29603291008E+03  0.50400001928E-02 0.  1.
    10030    2    1    2    0    0  0.00000000000E+00  0.00000000000E+00  0.13569187534E+04  0.19489845736E+04  0.13990398009E+04 0.  0.
        2    1    3    3  502    0 -0.62710068948E+03  0.30877638149E+03  0.64082119417E+03  0.94828789480E+03  0.25500000920E-02 0.  1.
       -2    1    3    3    0  502  0.62710068948E+03 -0.30877638149E+03  0.71609755927E+03  0.10006966788E+04  0.25500000920E-02 0. -1.
</event>
<event>
 5   0  0.2467303E-05  0.1398507E+04  0.7818609E-02  0.8954900E-01
        1   -1    0    0  501    0  0.00000000000E+00  0.00000000000E+00  0.10479705337E+04  0.10479705337E+04  0.50400001928E-02 0.  1.
       -1   -1    0    0    0  501  0.00000000000E+00  0.00000000000E+00 -0.46657338053E+03  0.46657338056E+03  0.50400001928E-02 0. -1.
    10030    2    1    2    0    0  0.00000000000E+00  0.00000000000E+00  0.58139715313E+03  0.15145439142E+04  0.13985065672E+04 0.  0.
        3    1    3    3  502    0 -0.79088858195E+02  0.29690775457E+03 -0.38954761291E+03  0.49614172889E+03  0.10100000352E+00 0. -1.
       -3    1    3    3    0  502  0.79088858195E+02 -0.29690775457E+03  0.97094476605E+03  0.10184021854E+04  0.10100000352E+00 0.  1.
</event>
<event>
 5   0  0.2316714E-05  0.1400139E+04  0.7818609E-02  0.8953718E-01
       -1   -1    0    0    0  501  0.00000000000E+00  0.00000000000E+00  0.27768841423E+03  0.27768841428E+03  0.50400001928E-02 0. -1.
        1   -1    0    0  501    0  0.00000000000E+00  0.00000000000E+00 -0.17649183742E+04  0.17649183742E+04  0.50400001928E-02 0.  1.
    10030    2    1    2    0    0  0.00000000000E+00  0.00000000000E+00 -0.14872299600E+04  0.20426067885E+04  0.14001391140E+04 0.  0.
        5    1    3    3  502    0 -0.24441477849E+03  0.43714783263E+03 -0.30057270320E+02  0.50175924607E+03  0.46999998093E+01 0. -1.
       -5    1    3    3    0  502  0.24441477849E+03 -0.43714783263E+03 -0.14571726896E+04  0.15408475424E+04  0.46999998093E+01 0.  1.
</event>
<event>
 5   0  0.2363419E-05  0.1397823E+04  0.7818609E-02  0.8955396E-01
       -1   -1    0    0    0  501  0.00000000000E+00  0.00000000000E+00  0.27770244080E+03  0.27770244085E+03  0.50400001928E-02 0.  1.
        1   -1    0    0  501    0  0.00000000000E+00  0.00000000000E+00 -0.17589944486E+04  0.17589944486E+04  0.50400001928E-02 0. -1.
    10030    2    1    2    0    0  0.00000000000E+00  0.00000000000E+00 -0.14812920078E+04  0.20366968895E+04  0.13978226666E+04 0.  0.
        2    1    3    3  502    0  0.38612730987E+02 -0.35830763379E+03  0.13188430699E+03  0.38375613854E+03  0.25500000920E-02 0.  1.
       -2    1    3    3    0  502 -0.38612730987E+02  0.35830763379E+03 -0.16131763148E+04  0.16529407509E+04  0.25500000920E-02 0. -1.
</event>
<event>
 5   0  0.4527503E-05  0.1396244E+04  0.7818609E-02  0.8956542E-01
        2   -1    0    0  501    0  0.00000000000E+00  0.00000000000E+00  0.75528671768E+03  0.75528671768E+03  0.25500000920E-02 0.  1.
       -2   -1    0    0    0  501  0.00000000000E+00  0.00000000000E+00 -0.64528418314E+03  0.64528418315E+03  0.25500000920E-02 0. -1.
    10030    2    1    2    0    0  0.00000000000E+00  0.00000000000E+00  0.11000253454E+03  0.14005709008E+04  0.13962443521E+04 0.  0.
        4    1    3    3  502    0  0.50734457603E+03 -0.86274083178E+02  0.52819517815E+03  0.73745067318E+03  0.12699999809E+01 0.  1.
       -4    1    3    3    0  502 -0.50734457603E+03  0.86274083178E+02 -0.41819264361E+03  0.66312022765E+03  0.12699999809E+01 0. -1.
</event>
<event>
 5   0  0.2428507E-05  0.1400330E+04  0.7818609E-02  0.8953580E-01
        1   -1    0    0  501    0  0.00000000000E+00  0.00000000000E+00  0.87866085213E+03  0.87866085215E+03  0.50400001928E-02 0.  1.
       -1   -1    0    0    0  501  0.00000000000E+00  0.00000000000E+00 -0.55792953067E+03  0.55792953070E+03  0.50400001928E-02 0. -1.
    10030    2    1    2    0    0  0.00000000000E+00  0.00000000000E+00  0.32073132146E+03  0.14365903828E+04  0.14003297281E+04 0.  0.
        4    1    3    3  502    0  0.53241663804E+03 -0.19163812413E+03 -0.26266692581E+03  0.62384948016E+03  0.12699999809E+01 0. -1.
       -4    1    3    3    0  502 -0.53241663804E+03  0.19163812413E+03  0.58339824727E+03  0.81274090269E+03  0.12699999809E+01 0.  1.
</event>
<event>
 5   0  0.2316714E-05  0.1402000E+04  0.7818609E-02  0.8952372E-01
       -1   -1    0    0    0  501  0.00000000000E+00  0.00000000000E+00  0.86931265589E+03  0.86931265591E+03  0.50400001928E-02 0. -1.
        1   -1    0    0  501    0  0.00000000000E+00  0.00000000000E+00 -0.56527495232E+03  0.56527495235E+03  0.50400001928E-02 0.  1.
    10030    2    1    2    0    0  0.00000000000E+00  0.00000000000E+00  0.30403770357E+03  0.14345876083E+04  0.14019995294E+04 0.  0.
        5    1    3    3  502    0 -0.40042768256E+03  0.59016784869E+02 -0.43360691540E+03  0.59317986896E+03  0.46999998093E+01 0.  1.
       -5    1    3    3    0  502  0.40042768256E+03 -0.59016784869E+02  0.73764461897E+03  0.84140773930E+03  0.46999998093E+01 0. -1.
</event>
<event>
 5   0  0.1661000E-05  0.1399982E+04  0.7818609E-02  0.8953832E-01
        4   -1    0    0  501    0  0.00000000000E+00  0.00000000000E+00  0.35996867906E+03  0.35997091938E+03  0.12699999809E+01 0. -1.
       -4   -1    0    0    0  501  0.00000000000E+00  0.00000000000E+00 -0.13611875348E+04  0.13611881273E+04  0.12699999809E+01 0.  1.
    10030    2    1    2    0    0  0.00000000000E+00  0.00000000000E+00 -0.10012188558E+04  0.17211590467E+04  0.13999818809E+04 0.  0.
        5    1    3    3  502    0 -0.27377292763E+02 -0.64646518621E+03 -0.82888510443E+03  0.10515414207E+04  0.46999998093E+01 0.  1.
       -5    1    3    3    0  502  0.27377292763E+02  0.64646518621E+03 -0.17233375133E+03  0.66961762595E+03  0.46999998093E+01 0. -1.
</event>
<event>
 5   0  0.4460282E-05  0.1400594E+04  0.7818609E-02  0.8953389E-01
       -2   -1    0    0    0  501  0.00000000000E+00  0.00000000000E+00  0.29525039871E+03  0.29525039872E+03  0.25500000920E-02 0. -1.
        2   -1    0    0  501    0  0.00000000000E+00  0.00000000000E+00 -0.16610170519E+04  0.16610170519E+04  0.25500000920E-02 0.  1.
    10030    2    1    2    0    0  0.00000000000E+00  0.00000000000E+00 -0.13657666532E+04  0.19562674506E+04  0.14005940837E+04 0.  0.
        1    1    3    3  502    0 -0.29994331797E+03 -0.23706040592E+03 -0.15023935529E+04  0.15502741751E+04  0.50400001928E-02 0.  1.
       -1    1    3    3    0  502  0.29994331797E+03  0.23706040592E+03  0.13662689972E+03  0.40599327556E+03  0.50400001928E-02 0. -1.
</event>
<event>
 5   0  0.4441253E-05  0.1400352E+04  0.7818609E-02  0.8953564E-01
        2   -1    0    0  501    0  0.00000000000E+00  0.00000000000E+00  0.10339627091E+04  0.10339627091E+04  0.25500000920E-02 0.  1.
       -2   -1    0    0    0  501  0.00000000000E+00  0.00000000000E+00 -0.47414294766E+03  0.47414294767E+03  0.25500000920E-02 0. -1.
    10030    2    1    2    0    0  0.00000000000E+00  0.00000000000E+00  0.55981976145E+03  0.15081056568E+04  0.14003515654E+04 0.  0.
        3    1    3    3  502    0  0.67549043194E+03  0.88643647719E+02  0.45389979106E+03  0.81863914545E+03  0.10100000352E+00 0.  1.
       -3    1    3    3    0  502 -0.67549043194E+03 -0.88643647719E+02  0.10591997039E+03  0.68946651134E+03  0.10100000352E+00 0. -1.
</event>
<event>
 5   0  0.4441253E-05  0.1399669E+04  0.7818609E-02  0.8954058E-01
        2   -1    0    0  501    0  0.00000000000E+00  0.00000000000E+00  0.57253590442E+03  0.57253590443E+03  0.25500000920E-02 0.  1.
       -2   -1    0    0    0  501  0.00000000000E+00  0.00000000000E+00 -0.85543668936E+03  0.85543668937E+03  0.25500000920E-02 0. -1.
    10030    2    1    2    0    0  0.00000000000E+00  0.00000000000E+00 -0.28290078494E+03  0.14279725938E+04  0.13996688446E+04 0.  0.
        3    1    3    3  502    0  0.44167391985E+03  0.32769618827E+03  0.30009182652E+03  0.62651078029E+03  0.10100000352E+00 0.  1.
       -3    1    3    3    0  502 -0.44167391985E+03 -0.32769618827E+03 -0.58299261146E+03  0.80146181350E+03  0.10100000352E+00 0. -1.
</event>
<event>
 5   0  0.2428507E-05  0.1399763E+04  0.7818609E-02  0.8953990E-01
       -1   -1    0    0    0  501  0.00000000000E+00  0.00000000000E+00  0.21523466580E+03  0.21523466586E+03  0.50400001928E-02 0. -1.
        1   -1    0    0  501    0  0.00000000000E+00  0.00000000000E+00 -0.22758132428E+04  0.22758132428E+04  0.50400001928E-02 0.  1.
    10030    2    1    2    0    0  0.00000000000E+00  0.00000000000E+00 -0.20605785770E+04  0.24910479087E+04  0.13997626982E+04 0.  0.
        4    1    3    3  502    0  0.33538806245E+03 -0.52635027299E+03 -0.15939056641E+04  0.17117437428E+04  0.12699999809E+01 0.  1.
       -4    1    3    3    0  502 -0.33538806245E+03  0.52635027299E+03 -0.46667291295E+03  0.77930416584E+03  0.12699999809E+01 0. -1.
</event>
<event>
 5   0  0.4460282E-05  0.1399981E+04  0.7818609E-02  0.8953832E-01
       -2   -1    0    0    0  501  0.00000000000E+00  0.00000000000E+00  0.43869935386E+03  0.43869935386E+03  0.25500000920E-02 0. -1.
        2   -1    0    0  501    0  0.00000000000E+00  0.00000000000E+00 -0.11169074092E+04  0.11169074093E+04  0.25500000920E-02 0.  1.
    10030    2    1    2    0    0  0.00000000000E+00  0.00000000000E+00 -0.67820805539E+03  0.15556067631E+04  0.13999807981E+04 0.  0.
        1    1    3    3  502    0 -0.59891534348E+03 -0.10724021594E+03  0.45471542455E+02  0.61013745482E+03  0.50400001928E-02 0. -1.
       -1    1    3    3    0  502  0.59891534348E+03  0.10724021594E+03 -0.72367959785E+03  0.94546930830E+03  0.50400001928E-02 0.  1.
</event>
<event>
 5   0  0.2363419E-05  0.1400694E+04  0.7818609E-02  0.8953316E-01
       -1   -1    0    0    0  501  0.00000000000E+00  0.00000000000E+00  0.10723465901E+04  0.10723465902E+04  0.50400001928E-02 0.  1.
        1   -1    0    0  501    0  0.00000000000E+00  0.00000000000E+00 -0.45739507004E+03  0.45739507007E+03  0.50400001928E-02 0. -1.
    10030    2    1    2    0    0  0.00000000000E+00  0.00000000000E+00  0.61495152011E+03  0.15297416602E+04  0.14006941761E+04 0.  0.
        2    1    3    3  502    0 -0.33810887645E+03  0.60376716652E+03  0.18967920711E+03  0.71751697215E+03  0.25500000920E-02 0. -1.
       -2    1    3    3    0  502  0.33810887645E+03 -0.60376716652E+03  0.42527231300E+03  0.81222468808E+03  0.25500000920E-02 0.  1.
</event>
<event>
 5   0  0.2427569E-05  0.1399783E+04  0.7818609E-02  0.8953975E-01
        1   -1    0    0  501    0  0.00000000000E+00  0.00000000000E+00  0.13582663665E+04  0.13582663665E+04  0.50400001928E-02 0. -1.
       -1   -1    0    0    0  501  0.00000000000E+00  0.00000000000E+00 -0.36064232966E+03  0.36064232970E+03  0.50400001928E-02 0.  1.
    10030    2    1    2    0    0  0.00000000000E+00  0.00000000000E+00  0.99762403686E+03  0.17189086962E+04  0.13997833358E+04 0.  0.
        1    1    3    3  502    0  0.73795532052E+02 -0.31230141887E+02  0.13526147716E+04  0.13549862813E+04  0.50400001928E-02 0. -1.
       -1    1    3    3    0  502 -0.73795532052E+02  0.31230141887E+02 -0.35499073471E+03  0.36392241490E+03  0.50400001928E-02 0.  1.
</event>
<event>
 5   0  0.2316714E-05  0.1399892E+04  0.7818609E-02  0.8953897E-01
        1   -1    0    0  501    0  0.00000000000E+00  0.00000000000E+00  0.75277185189E+03  0.75277185190E+03  0.50400001928E-02 0. -1.
       -1   -1    0    0    0  501  0.00000000000E+00  0.00000000000E+00 -0.65082693202E+03  0.65082693204E+03  0.50400001928E-02 0.  1.
    10030    2    1    2    0    0  0.00000000000E+00  0.00000000000E+00  0.10194491987E+03  0.14035987839E+04  0.13998917028E+04 0.  0.
        5    1    3    3  502    0  0.56642259998E+03  0.25246330729E+03  0.37637745718E+03  0.72543391399E+03  0.46999998093E+01 0. -1.
       -5    1    3    3    0  502 -0.56642259998E+03 -0.25246330729E+03 -0.27443253731E+03  0.67816486995E+03  0.46999998093E+01 0.  1.
</event>
<event>
 5   0  0.4243281E-05  0.1399908E+04  0.7818609E-02  0.8953885E-01
        2   -1    0    0  501    0  0.00000000000E+00  0.00000000000E+00  0.61421199052E+03  0.61421199052E+03  0.25500000920E-02 0.  1.
       -2   -1    0    0    0  501  0.00000000000E+00  0.00000000000E+00 -0.79766526072E+03  0.79766526073E+03  0.25500000920E-02 0. -1.
    10030    2    1    2    0    0  0.00000000000E+00  0.00000000000E+00 -0.18345327021E+03  0.14118772512E+04  0.13999079506E+04 0.  0.
        2    1    3    3  502    0  0.28001060342E+03  0.64075656716E+03 -0.60467257997E+02  0.70187691633E+03  0.25500000920E-02 0. -1.
       -2    1    3    3    0  502 -0.28001060342E+03 -0.64075656716E+03 -0.12298601221E+03  0.71000033492E+03  0.25500000920E-02 0.  1.
</event>
<event>
 5   0  0.4460282E-05  0.1400269E+04  0.7818609E-02  0.8953624E-01
        2   -1    0    0  501    0  0.00000000000E+00  0.00000000000E+00  0.89369864743E+03  0.89369864743E+03  0.25500000920E-02 0.  1.
       -2   -1    0    0    0  501  0.00000000000E+00  0.00000000000E+00 -0.54849364713E+03  0.54849364714E+03  0.25500000920E-02 0. -1.
    10030    2    1    2    0    0  0.00000000000E+00  0.00000000000E+00  0.34520500030E+03  0.14421922946E+04  0.14002685893E+04 0.  0.
        1    1    3    3  502    0  0.19083853214E+03  0.50206911883E+03 -0.28994857744E+03  0.61037932715E+03  0.50400001928E-02 0. -1.
       -1    1    3    3    0  502 -0.19083853214E+03 -0.50206911883E+03  0.63515357773E+03  0.83181296742E+03  0.50400001928E-02 0.  1.
</event>
<event>
 5   0  0.4621450E-05  0.1400071E+04  0.7818609E-02  0.8953767E-01
       -2   -1    0    0    0  501  0.00000000000E+00  0.00000000000E+00  0.96818465444E+03  0.96818465444E+03  0.25500000920E-02 0. -1.
        2   -1    0    0  501    0  0.00000000000E+00  0.00000000000E+00 -0.50615292070E+03  0.50615292071E+03  0.25500000920E-02 0.  1.
    10030    2    1    2    0    0  0.00000000000E+00  0.00000000000E+00  0.46203173374E+03  0.14743375752E+04  0.14000706991E+04 0.  0.
        5    1    3    3  502    0 -0.28457812038E+03  0.87734033679E+02 -0.43610746573E+03  0.52810394708E+03  0.46999998093E+01 0.  1.
       -5    1    3    3    0  502  0.28457812038E+03 -0.87734033679E+02  0.89813919947E+03  0.94623362807E+03  0.46999998093E+01 0. -1.
</event>
<event>
 5   0  0.1661000E-05  0.1400075E+04  0.7818609E-02  0.8953764E-01
       -3   -1    0    0    0  501  0.00000000000E+00  0.00000000000E+00  0.67465981654E+03  0.67465982410E+03  0.10100000352E+00 0.  1.
        3   -1    0    0  501    0  0.00000000000E+00  0.00000000000E+00 -0.72637019710E+03  0.72637020413E+03  0.10100000352E+00 0. -1.
    10030    2    1    2    0    0  0.00000000000E+00  0.00000000000E+00 -0.51710380562E+02  0.14010300282E+04  0.14000754182E+04 0.  0.
        4    1    3    3  502    0  0.34994813327E+03 -0.53227365678E+03  0.26463955495E+03  0.68979319265E+03  0.12699999809E+01 0. -1.
       -4    1    3    3    0  502 -0.34994813327E+03  0.53227365678E+03 -0.31634993551E+03  0.71123683558E+03  0.12699999809E+01 0.  1.
</event>
<event>
 5   0  0.1661000E-05  0.1396289E+04  0.7818609E-02  0.8956509E-01
       -4   -1    0    0    0  501  0.00000000000E+00  0.00000000000E+00  0.11141967697E+04  0.11141974935E+04  0.12699999809E+01 0.  1.
        4   -1    0    0  501    0  0.00000000000E+00  0.00000000000E+00 -0.43744823129E+03  0.43745007482E+03  0.12699999809E+01 0. -1.
    10030    2    1    2    0    0  0.00000000000E+00  0.00000000000E+00  0.67674853842E+03  0.15516475683E+04  0.13962885060E+04 0.  0.
        5    1    3    3  502    0 -0.13792030087E+03 -0.22034150657E+03  0.10583946460E+04  0.10898594889E+04  0.46999998093E+01 0.  1.
       -5    1    3    3    0  502  0.13792030087E+03  0.22034150657E+03 -0.38164610754E+03  0.46178807944E+03  0.46999998093E+01 0. -1.
</event>
<event>
 5   0  0.4527503E-05  0.1399957E+04  0.7818609E-02  0.8953850E-01
       -2   -1    0    0    0  501  0.00000000000E+00  0.00000000000E+00  0.93674011409E+03  0.93674011410E+03  0.25500000920E-02 0. -1.
        2   -1    0    0  501    0  0.00000000000E+00  0.00000000000E+00 -0.52305821083E+03  0.52305821084E+03  0.25500000920E-02 0.  1.
    10030    2    1    2    0    0  0.00000000000E+00  0.00000000000E+00  0.41368190326E+03  0.14597983249E+04  0.13999565823E+04 0.  0.
        4    1    3    3  502    0  0.59085804720E+02  0.50853939169E+03  0.70459714979E+03  0.87095476439E+03  0.12699999809E+01 0. -1.
       -4    1    3    3    0  502 -0.59085804720E+02 -0.50853939169E+03 -0.29091524653E+03  0.58884356054E+03  0.12699999809E+01 0.  1.
</event>
<event>
 5   0  0.4460282E-05  0.1399723E+04  0.7818609E-02  0.8954019E-01
       -2   -1    0    0    0  501  0.00000000000E+00  0.00000000000E+00  0.71917064142E+03  0.71917064143E+03  0.25500000920E-02 0. -1.
        2   -1    0    0  501    0  0.00000000000E+00  0.00000000000E+00 -0.68107101247E+03  0.68107101247E+03  0.25500000920E-02 0.  1.
    10030    2    1    2    0    0  0.00000000000E+00  0.00000000000E+00  0.38099628951E+02  0.14002416539E+04  0.13997232254E+04 0.  0.
        1    1    3    3  502    0  0.58265005051E+03 -0.13787131329E+03 -0.34346085913E+03  0.69025715655E+03  0.50400001928E-02 0.  1.
       -1    1    3    3    0  502 -0.58265005051E+03  0.13787131329E+03  0.38156048808E+03  0.70998449735E+03  0.50400001928E-02 0. -1.
</event>
<event>
 5   0  0.2427569E-05  0.1399989E+04  0.7818609E-02  0.8953826E-01
       -1   -1    0    0    0  501  0.00000000000E+00  0.00000000000E+00  0.56561009096E+03  0.56561009098E+03  0.50400001928E-02 0. -1.
        1   -1    0    0  501    0  0.00000000000E+00  0.00000000000E+00 -0.86630795552E+03  0.86630795554E+03  0.50400001928E-02 0.  1.
    10030    2    1    2    0    0  0.00000000000E+00  0.00000000000E+00 -0.30069786456E+03  0.14319180465E+04  0.13999893165E+04 0.  0.
        1    1    3    3  502    0  0.32865420190E+03  0.29063640247E+02  0.48109155547E+03  0.58335869273E+03  0.50400001928E-02 0. -1.
       -1    1    3    3    0  502 -0.32865420190E+03 -0.29063640247E+02 -0.78178942003E+03  0.84855935379E+03  0.50400001928E-02 0.  1.
</event>
<event>
 5   0  0.2316714E-05  0.1400727E+04  0.7818609E-02  0.8953293E-01
        1   -1    0    0  501    0  0.00000000000E+00  0.00000000000E+00  0.50648700094E+03  0.50648700097E+03  0.50400001928E-02 0. -1.
       -1   -1    0    0    0  501  0.00000000000E+00  0.00000000000E+00 -0.96845291480E+03  0.96845291482E+03  0.50400001928E-02 0.  1.
    10030    2    1    2    0    0  0.00000000000E+00  0.00000000000E+00 -0.46196591386E+03  0.14749399158E+04  0.14007266863E+04 0.  0.
        5    1    3    3  502    0 -0.23960427492E+03  0.31408008351E+03 -0.83992180336E+03  0.92819568690E+03  0.46999998093E+01 0.  1.
       -5    1    3    3    0  502  0.23960427492E+03 -0.31408008351E+03  0.37795588949E+03  0.54674422889E+03  0.46999998093E+01 0. -1.
</event>
<event>
 5   0  0.4621450E-05  0.1400657E+04  0.7818609E-02  0.8953343E-01
       -2   -1    0    0    0  501  0.00000000000E+00  0.00000000000E+00  0.33228225228E+03  0.33228225229E+03  0.25500000920E-02 0. -1.
        2   -1    0    0  501    0  0.00000000000E+00  0.00000000000E+00 -0.14760346976E+04  0.14760346976E+04  0.25500000920E-02 0.  1.
    10030    2    1    2    0    0  0.00000000000E+00  0.00000000000E+00 -0.11437524454E+04  0.18083169499E+04  0.14006571797E+04 0.  0.
        5    1    3    3  502    0 -0.29108809327E+03  0.26692601568E+03 -0.13185181450E+04  0.13764061771E+04  0.46999998093E+01 0.  1.
       -5    1    3    3    0  502  0.29108809327E+03 -0.26692601568E+03  0.17476569961E+03  0.43191077278E+03  0.46999998093E+01 0. -1.
</event>
<event>
 5   0  0.4621450E-05  0.1400097E+04  0.7818609E-02  0.8953748E-01
        2   -1    0    0  501    0  0.00000000000E+00  0.00000000000E+00  0.12403979942E+04  0.12403979942E+04  0.25500000920E-02 0. -1.
       -2   -1    0    0    0  501  0.00000000000E+00  0.00000000000E+00 -0.39508921786E+03  0.39508921787E+03  0.25500000920E-02 0.  1.
    10030    2    1    2    0    0  0.00000000000E+00  0.00000000000E+00  0.84530877638E+03  0.16354872121E+04  0.14000969586E+04 0.  0.
        5    1    3    3  502    0 -0.16358566062E+03  0.31494189471E+03 -0.28219716513E+03  0.45343797306E+03  0.46999998093E+01 0.  1.
       -5    1    3    3    0  502  0.16358566062E+03 -0.31494189471E+03  0.11275059415E+04  0.11820492391E+04  0.46999998093E+01 0. -1.
</event>
<event>
 5   0  0.4621450E-05  0.1401241E+04  0.7818609E-02  0.8952920E-01
       -2   -1    0    0    0  501  0.00000000000E+00  0.00000000000E+00  0.53740252513E+03  0.53740252513E+03  0.25500000920E-02 0.  1.
        2   -1    0    0  501    0  0.00000000000E+00  0.00000000000E+00 -0.91341102094E+03  0.91341102095E+03  0.25500000920E-02 0. -1.
    10030    2    1    2    0    0  0.00000000000E+00  0.00000000000E+00 -0.37600849582E+03  0.14508135461E+04  0.14012414341E+04 0.  0.
        5    1    3    3  502    0 -0.71010353706E+02 -0.26003652305E+03  0.48154617772E+03  0.55187885893E+03  0.46999998093E+01 0.  1.
       -5    1    3    3    0  502  0.71010353706E+02  0.26003652305E+03 -0.85755467354E+03  0.89893468715E+03  0.46999998093E+01 0. -1.
</event>
<event>
 5   0  0.4527503E-05  0.1400590E+04  0.7818609E-02  0.8953392E-01
       -2   -1    0    0    0  501  0.00000000000E+00  0.00000000000E+00  0.24222834504E+03  0.24222834506E+03  0.25500000920E-02 0. -1.
        2   -1    0    0  501    0  0.00000000000E+00  0.00000000000E+00 -0.20245900770E+04  0.20245900770E+04  0.25500000920E-02 0.  1.
    10030    2    1    2    0    0  0.00000000000E+00  0.00000000000E+00 -0.17823617320E+04  0.22668184221E+04  0.14005900239E+04 0.  0.
        4    1    3    3  502    0  0.32656845657E+03  0.46835833728E+03 -0.23494008093E+03  0.61741796496E+03  0.12699999809E+01 0. -1.
       -4    1    3    3    0  502 -0.32656845657E+03 -0.46835833728E+03 -0.15474216510E+04  0.16494004571E+04  0.12699999809E+01 0.  1.
</event>
<event>
 5   0  0.4527503E-05  0.1399035E+04  0.7818609E-02  0.8954517E-01
       -2   -1    0    0    0  501  0.00000000000E+00  0.00000000000E+00  0.49829996192E+03  0.49829996192E+03  0.25500000920E-02 0.  1.
        2   -1    0    0  501    0  0.00000000000E+00  0.00000000000E+00 -0.98198874986E+03  0.98198874986E+03  0.25500000920E-02 0. -1.
    10030    2    1    2    0    0  0.00000000000E+00  0.00000000000E+00 -0.48368878794E+03  0.14802887118E+04  0.13990353200E+04 0.  0.
        4    1    3    3  502    0 -0.40359507875E+03 -0.31308449168E+03  0.26383777663E+03  0.57491118601E+03  0.12699999809E+01 0.  1.
       -4    1    3    3    0  502  0.40359507875E+03  0.31308449168E+03 -0.74752656457E+03  0.90537752577E+03  0.12699999809E+01 0. -1.
</event>
<event>
 5   0  0.2316714E-05  0.1400136E+04  0.7818609E-02  0.8953720E-01
       -1   -1    0    0    0  501  0.00000000000E+00  0.00000000000E+00  0.68581654802E+03  0.68581654803E+03  0.50400001928E-02 0.  1.
        1   -1    0    0  501    0  0.00000000000E+00  0.00000000000E+00 -0.71461580917E+03  0.71461580919E+03  0.50400001928E-02 0. -1.
    10030    2    1    2    0    0  0.00000000000E+00  0.00000000000E+00 -0.28799261155E+02  0.14004323572E+04  0.14001362040E+04 0.  0.
        5    1    3    3  502    0  0.60449130225E+03  0.54946112090E+02  0.33444978248E+03  0.69304224743E+03  0.46999998093E+01 0. -1.
       -5    1    3    3    0  502 -0.60449130225E+03 -0.54946112090E+02 -0.36324904364E+03  0.70739010979E+03  0.46999998093E+01 0.  1.
</event>
<event>
 5   0  0.4441253E-05  0.1400311E+04  0.7818609E-02  0.8953593E-01
        2   -1    0    0  501    0  0.00000000000E+00  0.00000000000E+00  0.39642143167E+03  0.39642143168E+03  0.25500000920E-02 0.  1.
       -2   -1    0    0    0  501  0.00000000000E+00  0.00000000000E+00 -0.12366083124E+04  0.12366083124E+04  0.25500000920E-02 0. -1.
    10030    2    1    2    0    0  0.00000000000E+00  0.00000000000E+00 -0.84018688077E+03  0.16330297441E+04  0.14003114477E+04 0.  0.
        3    1    3    3  502    0 -0.38121074634E+03  0.13035892752E+03 -0.10878868274E+04  0.11600917388E+04  0.10100000352E+00 0. -1.
       -3    1    3    3    0  502  0.38121074634E+03 -0.13035892752E+03  0.24769994660E+03  0.47293800530E+03  0.10100000352E+00 0.  1.
</event>
<event>
 5   0  0.4243281E-05  0.1400209E+04  0.7818609E-02  0.8953667E-01
        2   -1    0    0  501    0  0.00000000000E+00  0.00000000000E+00  0.11197476248E+04  0.11197476248E+04  0.25500000920E-02 0.  1.
       -2   -1    0    0    0  501  0.00000000000E+00  0.00000000000E+00 -0.43772912858E+03  0.43772912858E+03  0.25500000920E-02 0. -1.
    10030    2    1    2    0    0  0.00000000000E+00  0.00000000000E+00  0.68201849619E+03  0.15574767534E+04  0.14002087730E+04 0.  0.
        2    1    3    3  502    0 -0.45790544674E+03 -0.35685496278E+03  0.77626989561E+03  0.96933885378E+03  0.25500000920E-02 0.  1.
       -2    1    3    3    0  502  0.45790544674E+03  0.35685496278E+03 -0.94251399421E+02  0.58813789957E+03  0.25500000920E-02 0. -1.
</event>
<event>
 5   0  0.2467303E-05  0.1400441E+04  0.7818609E-02  0.8953499E-01
       -1   -1    0    0    0  501  0.00000000000E+00  0.00000000000E+00  0.68769147287E+03  0.68769147289E+03  0.50400001928E-02 0. -1.
        1   -1    0    0  501    0  0.00000000000E+00  0.00000000000E+00 -0.71297825128E+03  0.71297825130E+03  0.50400001928E-02 0.  1.
    10030    2    1    2    0    0  0.00000000000E+00  0.00000000000E+00 -0.25286778408E+02  0.14006697242E+04  0.14004414501E+04 0.  0.
        3    1    3    3  502    0 -0.30084328239E+03  0.39796021969E+03  0.47879200829E+03  0.69146280769E+03  0.10100000352E+00 0. -1.
       -3    1    3    3    0  502  0.30084328239E+03 -0.39796021969E+03 -0.50407878670E+03  0.70920691650E+03  0.10100000352E+00 0.  1.
</event>
<event>
 5   0  0.4621450E-05  0.1399526E+04  0.7818609E-02  0.8954162E-01
        2   -1    0    0  501    0  0.00000000000E+00  0.00000000000E+00  0.77101639086E+03  0.77101639087E+03  0.25500000920E-02 0. -1.
       -2   -1    0    0    0  501  0.00000000000E+00  0.00000000000E+00 -0.63509414387E+03  0.63509414387E+03  0.25500000920E-02 0.  1.
    10030    2    1    2    0    0  0.00000000000E+00  0.00000000000E+00  0.13592224699E+03  0.14061105347E+04  0.13995256263E+04 0.  0.
        5    1    3    3  502    0 -0.90954544097E+01  0.59626054206E+03  0.43579372323E+03  0.73861195529E+03  0.46999998093E+01 0. -1.
       -5    1    3    3    0  502  0.90954544097E+01 -0.59626054206E+03 -0.29987147623E+03  0.66749857944E+03  0.46999998093E+01 0.  1.
</event>
<event>
 5   0  0.4243281E-05  0.1398675E+04  0.7818609E-02  0.8954778E-01
       -2   -1    0    0    0  501  0.00000000000E+00  0.00000000000E+00  0.27576837862E+03  0.27576837863E+03  0.25500000920E-02 0.  1.
        2   -1    0    0  501    0  0.00000000000E+00  0.00000000000E+00 -0.17734909864E+04  0.17734909864E+04  0.25500000920E-02 0. -1.
    10030    2    1    2    0    0  0.00000000000E+00  0.00000000000E+00 -0.14977226078E+04  0.20492593650E+04  0.13986747067E+04 0.  0.
        2    1    3    3  502    0  0.38300573550E+03 -0.15107325743E+03  0.79374191375E+02  0.41930512136E+03  0.25500000920E-02 0.  1.
       -2    1    3    3    0  502 -0.38300573550E+03  0.15107325743E+03 -0.15770967992E+04  0.16299542437E+04  0.25500000920E-02 0. -1.
</event>
<event>
 5   0  0.2427569E-05  0.1400484E+04  0.7818609E-02  0.8953468E-01
        1   -1    0    0  501    0  0.00000000000E+00  0.00000000000E+00  0.57811737948E+03  0.57811737950E+03  0.50400001928E-02 0.  1.
       -1   -1    0    0    0  501  0.00000000000E+00  0.00000000000E+00 -0.84816543565E+03  0.84816543567E+03  0.50400001928E-02 0. -1.
    10030    2    1    2    0    0  0.00000000000E+00  0.00000000000E+00 -0.27004805618E+03  0.14262828152E+04  0.14004844577E+04 0.  0.
        1    1    3    3  502    0 -0.49046474698E+03  0.38219253381E+03  0.19295241559E+03  0.65104334390E+03  0.50400001928E-02 0.  1.
       -1    1    3    3    0  502  0.49046474698E+03 -0.38219253381E+03 -0.46300047176E+03  0.77523947127E+03  0.50400001928E-02 0. -1.
</event>
<event>
 5   0  0.4621450E-05  0.1396752E+04  0.7818609E-02  0.8956173E-01
       -2   -1    0    0    0  501  0.00000000000E+00  0.00000000000E+00  0.27271629243E+03  0.27271629244E+03  0.25500000920E-02 0. -1.
        2   -1    0    0  501    0  0.00000000000E+00  0.00000000000E+00 -0.17884115932E+04  0.17884115932E+04  0.25500000920E-02 0.  1.
    10030    2    1    2    0    0  0.00000000000E+00  0.00000000000E+00 -0.15156953008E+04  0.20611278857E+04  0.13967519165E+04 0.  0.
        5    1    3    3  502    0  0.41912931806E+03  0.13464455885E+03  0.42155363073E+02  0.44226429555E+03  0.46999998093E+01 0. -1.
       -5    1    3    3    0  502 -0.41912931806E+03 -0.13464455885E+03 -0.15578506639E+04  0.16188635901E+04  0.46999998093E+01 0.  1.
</event>
<event>
 5   0  0.1661000E-05  0.1398422E+04  0.7818609E-02  0.8954962E-01
        4   -1    0    0  501    0  0.00000000000E+00  0.00000000000E+00  0.82868260181E+03  0.82868357498E+03  0.12699999809E+01 0. -1.
       -4   -1    0    0    0  501  0.00000000000E+00  0.00000000000E+00 -0.58996570426E+03  0.58996707120E+03  0.12699999809E+01 0.  1.
    10030    2    1    2    0    0  0.00000000000E+00  0.00000000000E+00  0.23871689755E+03  0.14186506462E+04  0.13984219316E+04 0.  0.
        4    1    3    3  502    0  0.95663639773E+02 -0.11754954396E+03 -0.57310237842E+03  0.59280466961E+03  0.12699999809E+01 0.  1.
       -4    1    3    3    0  502 -0.95663639773E+02  0.11754954396E+03  0.81181927597E+03  0.82584597656E+03  0.12699999809E+01 0. -1.
</event>
<event>
 5   0  0.4441253E-05  0.1400430E+04  0.7818609E-02  0.8953508E-01
       -2   -1    0    0    0  501  0.00000000000E+00  0.00000000000E+00  0.43142172365E+03  0.43142172366E+03  0.25500000920E-02 0. -1.
        2   -1    0    0  501    0  0.00000000000E+00  0.00000000000E+00 -0.11364768444E+04  0.11364768444E+04  0.25500000920E-02 0.  1.
    10030    2    1    2    0    0  0.00000000000E+00  0.00000000000E+00 -0.70505512072E+03  0.15678985680E+04  0.14004296471E+04 0.  0.
        3    1    3    3  502    0  0.25601976504E+03  0.34539495889E+03  0.26624593394E+03  0.50569823537E+03  0.10100000352E+00 0. -1.
       -3    1    3    3    0  502 -0.25601976504E+03 -0.34539495889E+03 -0.97130105466E+03  0.10622003327E+04  0.10100000352E+00 0.  1.
</event>
<event>
 5   0  0.2363419E-05  0.1400143E+04  0.7818609E-02  0.8953715E-01
       -1   -1    0    0    0  501  0.00000000000E+00  0.00000000000E+00  0.52913948481E+03  0.52913948483E+03  0.50400001928E-02 0. -1.
        1   -1    0    0  501    0  0.00000000000E+00  0.00000000000E+00 -0.92622141002E+03  0.92622141004E+03  0.50400001928E-02 0.  1.
    10030    2    1    2    0    0  0.00000000000E+00  0.00000000000E+00 -0.39708192522E+03  0.14553608949E+04  0.14001433066E+04 0.  0.
        2    1    3    3  502    0 -0.43243977877E+03 -0.54914516768E+03 -0.15780693218E+03  0.71656653934E+03  0.25500000920E-02 0. -1.
       -2    1    3    3    0  502  0.43243977877E+03  0.54914516768E+03 -0.23927499304E+03  0.73879435552E+03  0.25500000920E-02 0.  1.
</event>
<event>
 5   0  0.2316714E-05  0.1400072E+04  0.7818609E-02  0.8953767E-01
        1   -1    0    0  501    0  0.00000000000E+00  0.00000000000E+00  0.24578462393E+04  0.24578462393E+04  0.50400001928E-02 0. -1.
       -1   -1    0    0    0  501  0.00000000000E+00  0.00000000000E+00 -0.19938190807E+03  0.19938190813E+03  0.50400001928E-02 0.  1.
    10030    2    1    2    0    0  0.00000000000E+00  0.00000000000E+00  0.22584643312E+04  0.26572281474E+04  0.14000715311E+04 0.  0.
        5    1    3    3  502    0  0.12166149069E+03 -0.11458967143E+03  0.24193951270E+04  0.24251653927E+04  0.46999998093E+01 0. -1.
       -5    1    3    3    0  502 -0.12166149069E+03  0.11458967143E+03 -0.16093079579E+03  0.23206275476E+03  0.46999998093E+01 0.  1.
</event>
<event>
 5   0  0.4243281E-05  0.1400285E+04  0.7818609E-02  0.8953612E-01
       -2   -1    0    0    0  501  0.00000000000E+00  0.00000000000E+00  0.28751714957E+03  0.28751714958E+03  0.25500000920E-02 0.  1.
        2   -1    0    0  501    0  0.00000000000E+00  0.00000000000E+00 -0.17049396689E+04  0.17049396689E+04  0.25500000920E-02 0. -1.
    10030    2    1    2    0    0  0.00000000000E+00  0.00000000000E+00 -0.14174225193E+04  0.19924568185E+04  0.14002848193E+04 0.  0.
        2    1    3    3  502    0  0.64012459795E+02 -0.45313953531E+03  0.45243128783E+02  0.45986951864E+03  0.25500000920E-02 0.  1.
       -2    1    3    3    0  502 -0.64012459795E+02  0.45313953531E+03 -0.14626656481E+04  0.15325872998E+04  0.25500000920E-02 0. -1.
</event>
<event>
 5   0  0.4460282E-05  0.1396261E+04  0.7818609E-02  0.8956529E-01
       -2   -1    0    0    0  501  0.00000000000E+00  0.00000000000E+00  0.95381918541E+03  0.95381918541E+03  0.25500000920E-02 0. -1.
        2   -1    0    0  501    0  0.00000000000E+00  0.00000000000E+00 -0.51098407127E+03  0.51098407128E+03  0.25500000920E-02 0.  1.
    10030    2    1    2    0    0  0.00000000000E+00  0.00000000000E+00  0.44283511414E+03  0.14648032567E+04  0.13962613088E+04 0.  0.
        1    1    3    3  502    0 -0.21451808367E+03  0.45265900326E+02  0.91676647703E+03  0.94261751702E+03  0.50400001928E-02 0. -1.
       -1    1    3    3    0  502  0.21451808367E+03 -0.45265900326E+02 -0.47393136289E+03  0.52218573967E+03  0.50400001928E-02 0.  1.
</event>
<event>
 5   0  0.2363419E-05  0.1399960E+04  0.7818609E-02  0.8953848E-01
       -1   -1    0    0    0  501  0.00000000000E+00  0.00000000000E+00  0.83352453766E+03  0.83352453768E+03  0.50400001928E-02 0. -1.
        1   -1    0    0  501    0  0.00000000000E+00  0.00000000000E+00 -0.58783140655E+03  0.58783140657E+03  0.50400001928E-02 0.  1.
    10030    2    1    2    0    0  0.00000000000E+00  0.00000000000E+00  0.24569313111E+03  0.14213559443E+04  0.13999598586E+04 0.  0.
        2    1    3    3  502    0 -0.42445308934E+03  0.15364660231E+03  0.66600342265E+03  0.80456712737E+03  0.25500000920E-02 0. -1.
       -2    1    3    3    0  502  0.42445308934E+03 -0.15364660231E+03 -0.42031029154E+03  0.61678881688E+03  0.25500000920E-02 0.  1.
</event>
<event>
 5   0  0.2467303E-05  0.1393926E+04  0.7818609E-02  0.8958227E-01
       -1   -1    0    0    0  501  0.00000000000E+00  0.00000000000E+00  0.76731085985E+03  0.76731085987E+03  0.50400001928E-02 0. -1.
        1   -1    0    0  501    0  0.00000000000E+00  0.00000000000E+00 -0.63306463246E+03  0.63306463248E+03  0.50400001928E-02 0.  1.
    10030    2    1    2    0    0  0.00000000000E+00  0.00000000000E+00  0.13424622740E+03  0.14003754923E+04  0.13939259198E+04 0.  0.
        3    1    3    3  502    0 -0.39710800940E+03 -0.19728965610E+03 -0.47308167399E+03  0.64840131092E+03  0.10100000352E+00 0.  1.
       -3    1    3    3    0  502  0.39710800940E+03  0.19728965610E+03  0.60732790138E+03  0.75197418143E+03  0.10100000352E+00 0. -1.
</event>
<event>
 5   0  0.4243281E-05  0.1400587E+04  0.7818609E-02  0.8953394E-01
        2   -1    0    0  501    0  0.00000000000E+00  0.00000000000E+00  0.15465792068E+04  0.15465792068E+04  0.25500000920E-02 0.  1.
       -2   -1    0    0    0  501  0.00000000000E+00  0.00000000000E+00 -0.31709392575E+03  0.31709392576E+03  0.25500000920E-02 0. -1.
    10030    2    1    2    0    0  0.00000000000E+00  0.00000000000E+00  0.12294852811E+04  0.18636731326E+04  0.14005868373E+04 0.  0.
        2    1    3    3  502    0  0.10800175788E+03  0.30716917725E+03  0.14397309069E+04  0.14760902301E+04  0.25500000920E-02 0.  1.
       -2    1    3    3    0  502 -0.10800175788E+03 -0.30716917725E+03 -0.21024562578E+03  0.38758290251E+03  0.25500000920E-02 0. -1.
</event>
<event>
 5   0  0.2427569E-05  0.1400023E+04  0.7818609E-02  0.8953802E-01
       -1   -1    0    0    0  501  0.00000000000E+00  0.00000000000E+00  0.35159502352E+03  0.35159502355E+03  0.50400001928E-02 0.  1.
        1   -1    0    0  501    0  0.00000000000E+00  0.00000000000E+00 -0.13936953083E+04  0.13936953083E+04  0.50400001928E-02 0. -1.
    10030    2    1    2    0    0  0.00000000000E+00  0.00000000000E+00 -0.10421002848E+04  0.17452903319E+04  0.14000233352E+04 0.  0.
        1    1    3    3  502    0 -0.45072004691E+03  0.50408306004E+03 -0.29538854484E+03  0.73790425161E+03  0.50400001928E-02 0. -1.
       -1    1    3    3    0  502  0.45072004691E+03 -0.50408306004E+03 -0.74671173997E+03  0.10073860803E+04  0.50400001928E-02 0.  1.
</event>
<event>
 5   0  0.2427569E-05  0.1400474E+04  0.7818609E-02  0.8953476E-01
        1   -1    0    0  501    0  0.00000000000E+00  0.00000000000E+00  0.87817379079E+03  0.87817379080E+03  0.50400001928E-02 0.  1.
       -1   -1    0    0    0  501  0.00000000000E+00  0.00000000000E+00 -0.55835380459E+03  0.55835380461E+03  0.50400001928E-02 0. -1.
    10030    2    1    2    0    0  0.00000000000E+00  0.00000000000E+00  0.31981998620E+03  0.14365275954E+04  0.14004737444E+04 0.  0.
        1    1    3    3  502    0 -0.15641242476E+03 -0.94165819354E+02 -0.53351090419E+03  0.56388468065E+03  0.50400001928E-02 0. -1.
       -1    1    3    3    0  502  0.15641242476E+03  0.94165819354E+02  0.85333089040E+03  0.87264291476E+03  0.50400001928E-02 0.  1.
</event>
<event>
 5   0  0.2363419E-05  0.1398705E+04  0.7818609E-02  0.8954756E-01
       -1   -1    0    0    0  501  0.00000000000E+00  0.00000000000E+00  0.64351987144E+03  0.64351987146E+03  0.50400001928E-02 0. -1.
        1   -1    0    0  501    0  0.00000000000E+00  0.00000000000E+00 -0.76002946361E+03  0.76002946363E+03  0.50400001928E-02 0.  1.
    10030    2    1    2    0    0  0.00000000000E+00  0.00000000000E+00 -0.11650959217E+03  0.14035493351E+04  0.13987052052E+04 0.  0.
        2    1    3    3  502    0 -0.48121273093E+03  0.13236883460E+03  0.43334684165E+03  0.66096647870E+03  0.25500000920E-02 0. -1.
       -2    1    3    3    0  502  0.48121273093E+03 -0.13236883460E+03 -0.54985643382E+03  0.74258285639E+03  0.25500000920E-02 0.  1.
</event>
<event>
 5   0  0.4527503E-05  0.1400092E+04  0.7818609E-02  0.8953752E-01
        2   -1    0    0  501    0  0.00000000000E+00  0.00000000000E+00  0.15036749753E+04  0.15036749753E+04  0.25500000920E-02 0.  1.
       -2   -1    0    0    0  501  0.00000000000E+00  0.00000000000E+00 -0.32591098897E+03  0.32591098898E+03  0.25500000920E-02 0. -1.
    10030    2    1    2    0    0  0.00000000000E+00  0.00000000000E+00  0.11777639863E+04  0.18295859643E+04  0.14000917089E+04 0.  0.
        4    1    3    3  502    0  0.84575007226E+02  0.22138677762E+03 -0.27189357997E+03  0.36068375189E+03  0.12699999809E+01 0. -1.
       -4    1    3    3    0  502 -0.84575007226E+02 -0.22138677762E+03  0.14496575663E+04  0.14689022124E+04  0.12699999809E+01 0.  1.
</event>
<event>
 5   0  0.1661000E-05  0.1401533E+04  0.7818609E-02  0.8952710E-01
       -4   -1    0    0    0  501  0.00000000000E+00  0.00000000000E+00  0.52513945485E+03  0.52514099053E+03  0.12699999809E+01 0. -1.
        4   -1    0    0  501    0  0.00000000000E+00  0.00000000000E+00 -0.93512627687E+03  0.93512713927E+03  0.12699999809E+01 0.  1.
    10030    2    1    2    0    0  0.00000000000E+00  0.00000000000E+00 -0.40998682202E+03  0.14602681298E+04  0.14015326670E+04 0.  0.
        4    1    3    3  502    0 -0.16179068551E+03 -0.68166863164E+03 -0.22056956962E+03  0.73450724791E+03  0.12699999809E+01 0. -1.
       -4    1    3    3    0  502  0.16179068551E+03  0.68166863164E+03 -0.18941725240E+03  0.72576088190E+03  0.12699999809E+01 0.  1.
</event>
<event>
 5   0  0.4527503E-05  0.1400171E+04  0.7818609E-02  0.8953695E-01
        2   -1    0    0  501    0  0.00000000000E+00  0.00000000000E+00  0.48785143272E+03  0.48785143273E+03  0.25500000920E-02 0. -1.
       -2   -1    0    0    0  501  0.00000000000E+00  0.00000000000E+00 -0.10046500159E+04  0.10046500160E+04  0.25500000920E-02 0.  1.
    10030    2    1    2    0    0  0.00000000000E+00  0.00000000000E+00 -0.51679858323E+03  0.14925014487E+04  0.14001713462E+04 0.  0.
        4    1    3    3  502    0  0.60149829691E+03  0.46024402420E+02 -0.63707117848E+03  0.87737092849E+03  0.12699999809E+01 0.  1.
       -4    1    3    3    0  502 -0.60149829691E+03 -0.46024402420E+02  0.12027259525E+03  0.61513052019E+03  0.12699999809E+01 0. -1.
</event>
<event>
 5   0  0.4460282E-05  0.1400820E+04  0.7818609E-02  0.8953225E-01
       -2   -1    0    0    0  501  0.00000000000E+00  0.00000000000E+00  0.57235617895E+03  0.57235617895E+03  0.25500000920E-02 0.  1.
        2   -1    0    0  501    0  0.00000000000E+00  0.00000000000E+00 -0.85711367840E+03  0.85711367840E+03  0.25500000920E-02 0. -1.
    10030    2    1    2    0    0  0.00000000000E+00  0.00000000000E+00 -0.28475749945E+03  0.14294698574E+04  0.14008202025E+04 0.  0.
        1    1    3    3  502    0  0.42526775041E+03 -0.45307843236E+03 -0.47216255998E+03  0.78042950257E+03  0.50400001928E-02 0. -1.
       -1    1    3    3    0  502 -0.42526775041E+03  0.45307843236E+03  0.18740506053E+03  0.64904035479E+03  0.50400001928E-02 0.  1.
</event>
<event>
 5   0  0.1661000E-05  0.1400157E+04  0.7818609E-02  0.8953705E-01
       -4   -1    0    0    0  501  0.00000000000E+00  0.00000000000E+00  0.11061560844E+04  0.11061568135E+04  0.12699999809E+01 0. -1.
        4   -1    0    0  501    0  0.00000000000E+00  0.00000000000E+00 -0.44307278630E+03  0.44307460642E+03  0.12699999809E+01 0.  1.
    10030    2    1    2    0    0  0.00000000000E+00  0.00000000000E+00  0.66308329812E+03  0.15492314199E+04  0.14001566099E+04 0.  0.
        2    1    3    3  502    0 -0.37711149060E+03 -0.28665060529E+03 -0.23883052531E+03  0.53049190916E+03  0.25500000920E-02 0.  1.
       -2    1    3    3    0  502  0.37711149060E+03  0.28665060529E+03  0.90191382343E+03  0.10187395107E+04  0.25500000920E-02 0. -1.
</event>
<event>
 5   0  0.4441253E-05  0.1400220E+04  0.7818609E-02  0.8953659E-01
       -2   -1    0    0    0  501  0.00000000000E+00  0.00000000000E+00  0.10878792893E+04  0.10878792893E+04  0.25500000920E-02 0.  1.
        2   -1    0    0  501    0  0.00000000000E+00  0.00000000000E+00 -0.45055942743E+03  0.45055942743E+03  0.25500000920E-02 0. -1.
    10030    2    1    2    0    0  0.00000000000E+00  0.00000000000E+00  0.63731986185E+03  0.15384387167E+04  0.14002203679E+04 0.  0.
        3    1    3    3  502    0 -0.56083441251E+03  0.34708256493E+03  0.60631681575E+02  0.66232752936E+03  0.10100000352E+00 0. -1.
       -3    1    3    3    0  502  0.56083441251E+03 -0.34708256493E+03  0.57668818028E+03  0.87611118736E+03  0.10100000352E+00 0.  1.
</event>
<event>
 5   0  0.4527503E-05  0.1400080E+04  0.7818609E-02  0.8953760E-01
       -2   -1    0    0    0  501  0.00000000000E+00  0.00000000000E+00  0.33836321863E+03  0.33836321864E+03  0.25500000920E-02 0.  1.
        2   -1    0    0  501    0  0.00000000000E+00  0.00000000000E+00 -0.14483142413E+04  0.14483142413E+04  0.25500000920E-02 0. -1.
    10030    2    1    2    0    0  0.00000000000E+00  0.00000000000E+00 -0.11099510227E+04  0.17866774599E+04  0.14000803810E+04 0.  0.
        4    1    3    3  502    0 -0.33898524235E+03 -0.44753784074E+03 -0.21357591380E+02  0.56183527215E+03  0.12699999809E+01 0.  1.
       -4    1    3    3    0  502  0.33898524235E+03  0.44753784074E+03 -0.10885934313E+04  0.12248421878E+04  0.12699999809E+01 0. -1.
</event>
<event>
 5   0  0.2467303E-05  0.1399868E+04  0.7818609E-02  0.8953914E-01
       -1   -1    0    0    0  501  0.00000000000E+00  0.00000000000E+00  0.25912011673E+03  0.25912011678E+03  0.50400001928E-02 0. -1.
        1   -1    0    0  501    0  0.00000000000E+00  0.00000000000E+00 -0.18906591131E+04  0.18906591131E+04  0.50400001928E-02 0.  1.
    10030    2    1    2    0    0  0.00000000000E+00  0.00000000000E+00 -0.16315389964E+04  0.21497792299E+04  0.13998682940E+04 0.  0.
        3    1    3    3  502    0 -0.19605118451E+03  0.20790987159E+03 -0.17969914118E+04  0.18195715776E+04  0.10100000352E+00 0.  1.
       -3    1    3    3    0  502  0.19605118451E+03 -0.20790987159E+03  0.16545241545E+03  0.33020765229E+03  0.10100000352E+00 0. -1.
</event>
<event>
 5   0  0.2363419E-05  0.1399319E+04  0.7818609E-02  0.8954312E-01
        1   -1    0    0  501    0  0.00000000000E+00  0.00000000000E+00  0.17959648580E+04  0.17959648580E+04  0.50400001928E-02 0.  1.
       -1   -1    0    0    0  501  0.00000000000E+00  0.00000000000E+00 -0.27256854436E+03  0.27256854441E+03  0.50400001928E-02 0. -1.
    10030    2    1    2    0    0  0.00000000000E+00  0.00000000000E+00  0.15233963136E+04  0.20685334024E+04  0.13993191589E+04 0.  0.
        2    1    3    3  502    0  0.21988452217E+03 -0.55700013718E+03  0.12965793562E+04  0.14281863964E+04  0.25500000920E-02 0. -1.
       -2    1    3    3    0  502 -0.21988452217E+03  0.55700013718E+03  0.22681695742E+03  0.64034700600E+03  0.25500000920E-02 0.  1.
</event>
<event>
 5   0  0.2316714E-05  0.1400325E+04  0.7818609E-02  0.8953583E-01
       -1   -1    0    0    0  501  0.00000000000E+00  0.00000000000E+00  0.34524017701E+03  0.34524017705E+03  0.50400001928E-02 0. -1.
        1   -1    0    0  501    0  0.00000000000E+00  0.00000000000E+00 -0.14199608950E+04  0.14199608950E+04  0.50400001928E-02 0.  1.
    10030    2    1    2    0    0  0.00000000000E+00  0.00000000000E+00 -0.10747207180E+04  0.17652010720E+04  0.14003250348E+04 0.  0.
        5    1    3    3  502    0 -0.51670884159E+03 -0.47014264256E+03 -0.47845904747E+03  0.84673920509E+03  0.46999998093E+01 0. -1.
       -5    1    3    3    0  502  0.51670884159E+03  0.47014264256E+03 -0.59626167051E+03  0.91846186696E+03  0.46999998093E+01 0.  1.
</event>
<event>
 5   0  0.4527503E-05  0.1402105E+04  0.7818609E-02  0.8952296E-01
       -2   -1    0    0    0  501  0.00000000000E+00  0.00000000000E+00  0.56775793148E+03  0.56775793149E+03  0.25500000920E-02 0.  1.
        2   -1    0    0  501    0  0.00000000000E+00  0.00000000000E+00 -0.86564132630E+03  0.86564132631E+03  0.25500000920E-02 0. -1.
    10030    2    1    2    0    0  0.00000000000E+00  0.00000000000E+00 -0.29788339482E+03  0.14333992578E+04  0.14021051727E+04 0.  0.
        4    1    3    3  502    0 -0.24991393867E+03 -0.45997912568E+03 -0.62564883307E+03  0.81576703049E+03  0.12699999809E+01 0. -1.
       -4    1    3    3    0  502  0.24991393867E+03  0.45997912568E+03  0.32776543825E+03  0.61763222731E+03  0.12699999809E+01 0.  1.
</event>
<event>
 5   0  0.2427569E-05  0.1399763E+04  0.7818609E-02  0.8953990E-01
        1   -1    0    0  501    0  0.00000000000E+00  0.00000000000E+00  0.10274280185E+04  0.10274280185E+04  0.50400001928E-02 0.  1.
       -1   -1    0    0    0  501  0.00000000000E+00  0.00000000000E+00 -0.47675775588E+03  0.47675775591E+03  0.50400001928E-02 0. -1.
    10030    2    1    2    0    0  0.00000000000E+00  0.00000000000E+00  0.55067026258E+03  0.15041857744E+04  0.13997632320E+04 0.  0.
        1    1    3    3  502    0  0.21346301340E+03  0.66458965471E+03  0.33000692981E+03  0.77210779104E+03  0.50400001928E-02 0.  1.
       -1    1    3    3    0  502 -0.21346301340E+03 -0.66458965471E+03  0.22066333277E+03  0.73207798334E+03  0.50400001928E-02 0. -1.
</event>
<event>
 5   0  0.2316714E-05  0.1400034E+04  0.7818609E-02  0.8953794E-01
       -1   -1    0    0    0  501  0.00000000000E+00  0.00000000000E+00  0.40501605667E+03  0.40501605670E+03  0.50400001928E-02 0. -1.
        1   -1    0    0  501    0  0.00000000000E+00  0.00000000000E+00 -0.12098872621E+04  0.12098872621E+04  0.50400001928E-02 0.  1.
    10030    2    1    2    0    0  0.00000000000E+00  0.00000000000E+00 -0.80487120547E+03  0.16149033188E+04  0.14000339538E+04 0.  0.
        5    1    3    3  502    0 -0.85371101258E+02 -0.41875705222E+03 -0.10419182959E+04  0.11261711767E+04  0.46999998093E+01 0.  1.
       -5    1    3    3    0  502  0.85371101258E+02  0.41875705222E+03  0.23704709047E+03  0.48873214219E+03  0.46999998093E+01 0. -1.
</event>
<event>
 5   0  0.2427569E-05  0.1400731E+04  0.7818609E-02  0.8953290E-01
       -1   -1    0    0    0  501  0.00000000000E+00  0.00000000000E+00  0.41014139970E+03  0.41014139973E+03  0.50400001928E-02 0.  1.
        1   -1    0    0  501    0  0.00000000000E+00  0.00000000000E+00 -0.11959574771E+04  0.11959574771E+04  0.50400001928E-02 0. -1.
    10030    2    1    2    0    0  0.00000000000E+00  0.00000000000E+00 -0.78581607738E+03  0.16060988768E+04  0.14007307716E+04 0.  0.
        1    1    3    3  502    0  0.41704289901E+03 -0.47668927522E+03 -0.73565622443E+03  0.97074586030E+03  0.50400001928E-02 0. -1.
       -1    1    3    3    0  502 -0.41704289901E+03  0.47668927522E+03 -0.50159852953E+02  0.63535301652E+03  0.50400001928E-02 0.  1.
</event>
<event>
 5   0  0.2363419E-05  0.1400335E+04  0.7818609E-02  0.8953576E-01
       -1   -1    0    0    0  501  0.00000000000E+00  0.00000000000E+00  0.89861196326E+03  0.89861196327E+03  0.50400001928E-02 0. -1.
        1   -1    0    0  501    0  0.00000000000E+00  0.00000000000E+00 -0.54554610195E+03  0.54554610198E+03  0.50400001928E-02 0.  1.
    10030    2    1    2    0    0  0.00000000000E+00  0.00000000000E+00  0.35306586130E+03  0.14441580652E+04  0.14003346082E+04 0.  0.
        2    1    3    3  502    0  0.64006142388E+03  0.22572490360E+03 -0.90944265124E+00  0.67869815495E+03  0.25500000920E-02 0.  1.
       -2    1    3    3    0  502 -0.64006142388E+03 -0.22572490360E+03  0.35397530396E+03  0.76545991029E+03  0.25500000920E-02 0. -1.
</event>
<event>
 5   0  0.4621450E-05  0.1400183E+04  0.7818609E-02  0.8953686E-01
        2   -1    0    0  501    0  0.00000000000E+00  0.00000000000E+00  0.21877823277E+04  0.21877823277E+04  0.25500000920E-02 0. -1.
       -2   -1    0    0    0  501  0.00000000000E+00  0.00000000000E+00 -0.22402959319E+03  0.22402959321E+03  0.25500000920E-02 0.  1.
    10030    2    1    2    0    0  0.00000000000E+00  0.00000000000E+00  0.19637527346E+04  0.24118119210E+04  0.14001828236E+04 0.  0.
        5    1    3    3  502    0 -0.47891193619E+02 -0.27596156569E+02 -0.22023807147E+03  0.22711673740E+03  0.46999998093E+01 0.  1.
       -5    1    3    3    0  502  0.47891193619E+02  0.27596156569E+02  0.21839908060E+04  0.21846951836E+04  0.46999998093E+01 0. -1.
</event>
<event>
 5   0  0.4527503E-05  0.1399514E+04  0.7818609E-02  0.8954170E-01
       -2   -1    0    0    0  501  0.00000000000E+00  0.00000000000E+00  0.32619966950E+03  0.32619966951E+03  0.25500000920E-02 0.  1.
        2   -1    0    0  501    0  0.00000000000E+00  0.00000000000E+00 -0.15011053746E+04  0.15011053746E+04  0.25500000920E-02 0. -1.
    10030    2    1    2    0    0  0.00000000000E+00  0.00000000000E+00 -0.11749057051E+04  0.18273050441E+04  0.13995143116E+04 0.  0.
        4    1    3    3  502    0 -0.54001689727E+03  0.10899921341E+03 -0.11508001022E+04  0.12758689455E+04  0.12699999809E+01 0. -1.
       -4    1    3    3    0  502  0.54001689727E+03 -0.10899921341E+03 -0.24105602858E+02  0.55143609861E+03  0.12699999809E+01 0.  1.
</event>
<event>
 5   0  0.2467303E-05  0.1399712E+04  0.7818609E-02  0.8954027E-01
       -1   -1    0    0    0  501  0.00000000000E+00  0.00000000000E+00  0.24438070821E+03  0.24438070827E+03  0.50400001928E-02 0. -1.
        1   -1    0    0  501    0  0.00000000000E+00  0.00000000000E+00 -0.20042428622E+04  0.20042428622E+04  0.50400001928E-02 0.  1.
    10030    2    1    2    0    0  0.00000000000E+00  0.00000000000E+00 -0.17598621540E+04  0.22486235705E+04  0.13997118134E+04 0.  0.
        3    1    3    3  502    0  0.38143724808E+03 -0.29753650985E+03 -0.67459891056E+02  0.48843955206E+03  0.10100000352E+00 0. -1.
       -3    1    3    3    0  502 -0.38143724808E+03  0.29753650985E+03 -0.16924022629E+04  0.17601840184E+04  0.10100000352E+00 0.  1.
</event>
<event>
 5   0  0.2363419E-05  0.1400499E+04  0.7818609E-02  0.8953457E-01
        1   -1    0    0  501    0  0.00000000000E+00  0.00000000000E+00  0.13894999456E+04  0.13894999456E+04  0.50400001928E-02 0.  1.
       -1   -1    0    0    0  501  0.00000000000E+00  0.00000000000E+00 -0.35289631345E+03  0.35289631348E+03  0.50400001928E-02 0. -1.
    10030    2    1    2    0    0  0.00000000000E+00  0.00000000000E+00  0.10366036321E+04  0.17423962590E+04  0.14004990658E+04 0.  0.
        2    1    3    3  502    0 -0.56427344107E+03 -0.41316955011E+03  0.56203799351E+03  0.89721808920E+03  0.25500000920E-02 0.  1.
       -2    1    3    3    0  502  0.56427344107E+03  0.41316955011E+03  0.47456563860E+03  0.84517816985E+03  0.25500000920E-02 0. -1.
</event>
<event>
 5   0  0.4527503E-05  0.1400253E+04  0.7818609E-02  0.8953636E-01
        2   -1    0    0  501    0  0.00000000000E+00  0.00000000000E+00  0.29965690337E+04  0.29965690337E+04  0.25500000920E-02 0. -1.
       -2   -1    0    0    0  501  0.00000000000E+00  0.00000000000E+00 -0.16357937647E+03  0.16357937649E+03  0.25500000920E-02 0.  1.
    10030    2    1    2    0    0  0.00000000000E+00  0.00000000000E+00  0.28329896572E+04  0.31601484102E+04  0.14002526831E+04 0.  0.
        4    1    3    3  502    0  0.32422608887E+03 -0.39630696833E+03  0.24941065558E+04  0.25461246817E+04  0.12699999809E+01 0. -1.
       -4    1    3    3    0  502 -0.32422608887E+03  0.39630696833E+03  0.33888310135E+03  0.61402372848E+03  0.12699999809E+01 0.  1.
</event>
<event>
 5   0  0.2427569E-05  0.1399841E+04  0.7818609E-02  0.8953934E-01
       -1   -1    0    0    0  501  0.00000000000E+00  0.00000000000E+00  0.65529993912E+03  0.65529993914E+03  0.50400001928E-02 0.  1.
        1   -1    0    0  501    0  0.00000000000E+00  0.00000000000E+00 -0.74757950078E+03  0.74757950080E+03  0.50400001928E-02 0. -1.
    10030    2    1    2    0    0  0.00000000000E+00  0.00000000000E+00 -0.92279561663E+02  0.14028794399E+04  0.13998411358E+04 0.  0.
        1    1    3    3  502    0  0.97493397330E+02 -0.58739245548E+03  0.32256354340E+03  0.67718690096E+03  0.50400001928E-02 0.  1.
       -1    1    3    3    0  502 -0.97493397330E+02  0.58739245548E+03 -0.41484310507E+03  0.72569253897E+03  0.50400001928E-02 0. -1.
</event>
<event>
 5   0  0.4460282E-05  0.1400153E+04  0.7818609E-02  0.8953708E-01
        2   -1    0    0  501    0  0.00000000000E+00  0.00000000000E+00  0.34607424258E+03  0.34607424259E+03  0.25500000920E-02 0. -1.
       -2   -1    0    0    0  501  0.00000000000E+00  0.00000000000E+00 -0.14161906057E+04  0.14161906057E+04  0.25500000920E-02 0.  1.
    10030    2    1    2    0    0  0.00000000000E+00  0.00000000000E+00 -0.10701163631E+04  0.17622648483E+04  0.14001529791E+04 0.  0.
        1    1    3    3  502    0 -0.20596315468E+02  0.67213439345E+03 -0.78014489954E+03  0.10299586960E+04  0.50400001928E-02 0.  1.
       -1    1    3    3    0  502  0.20596315468E+02 -0.67213439345E+03 -0.28997146359E+03  0.73230615236E+03  0.50400001928E-02 0. -1.
</event>
<event>
 5   0  0.2427569E-05  0.1399861E+04  0.7818609E-02  0.8953919E-01
        1   -1    0    0  501    0  0.00000000000E+00  0.00000000000E+00  0.14559506874E+04  0.14559506874E+04  0.50400001928E-02 0.  1.
       -1   -1    0    0    0  501  0.00000000000E+00  0.00000000000E+00 -0.33648326393E+03  0.33648326397E+03  0.50400001928E-02 0. -1.
    10030    2    1    2    0    0  0.00000000000E+00  0.00000000000E+00  0.11194674234E+04  0.17924339514E+04  0.13998614781E+04 0.  0.
        1    1    3    3  502    0  0.50772393041E+03  0.43200384443E+03  0.28663086528E+03  0.72565016645E+03  0.50400001928E-02 0. -1.
       -1    1    3    3    0  502 -0.50772393041E+03 -0.43200384443E+03  0.83283655816E+03  0.10667837849E+04  0.50400001928E-02 0.  1.
</event>
<event>
 5   0  0.2427569E-05  0.1401379E+04  0.7818609E-02  0.8952821E-01
        1   -1    0    0  501    0  0.00000000000E+00  0.00000000000E+00  0.90085579238E+03  0.90085579240E+03  0.50400001928E-02 0. -1.
       -1   -1    0    0    0  501  0.00000000000E+00  0.00000000000E+00 -0.54499913497E+03  0.54499913499E+03  0.50400001928E-02 0.  1.
    10030    2    1    2    0    0  0.00000000000E+00  0.00000000000E+00  0.35585665741E+03  0.14458549274E+04  0.14013787891E+04 0.  0.
        1    1    3    3  502    0  0.23640819143E+03  0.46109490122E+03  0.66456320922E+03  0.84269899726E+03  0.50400001928E-02 0. -1.
       -1    1    3    3    0  502 -0.23640819143E+03 -0.46109490122E+03 -0.30870655181E+03  0.60315593013E+03  0.50400001928E-02 0.  1.
</event>
<event>
 5   0  0.4441253E-05  0.1400600E+04  0.7818609E-02  0.8953384E-01
        2   -1    0    0  501    0  0.00000000000E+00  0.00000000000E+00  0.10847171491E+04  0.10847171491E+04  0.25500000920E-02 0.  1.
       -2   -1    0    0    0  501  0.00000000000E+00  0.00000000000E+00 -0.45211813226E+03  0.45211813226E+03  0.25500000920E-02 0. -1.
    10030    2    1    2    0    0  0.00000000000E+00  0.00000000000E+00  0.63259901679E+03  0.15368352813E+04  0.14006002877E+04 0.  0.
        3    1    3    3  502    0 -0.30399542854E+03  0.19882359192E+03 -0.34066710375E+03  0.49799410343E+03  0.10100000352E+00 0. -1.
       -3    1    3    3    0  502  0.30399542854E+03 -0.19882359192E+03  0.97326612054E+03  0.10388411779E+04  0.10100000352E+00 0.  1.
</event>
<event>
 5   0  0.2316714E-05  0.1400098E+04  0.7818609E-02  0.8953748E-01
        1   -1    0    0  501    0  0.00000000000E+00  0.00000000000E+00  0.81426367375E+03  0.81426367377E+03  0.50400001928E-02 0. -1.
       -1   -1    0    0    0  501  0.00000000000E+00  0.00000000000E+00 -0.60185464255E+03  0.60185464257E+03  0.50400001928E-02 0.  1.
    10030    2    1    2    0    0  0.00000000000E+00  0.00000000000E+00  0.21240903120E+03  0.14161183163E+04  0.14000976714E+04 0.  0.
        5    1    3    3  502    0 -0.24206949616E+03 -0.37470860343E+03  0.65186074467E+03  0.78990423400E+03  0.46999998093E+01 0. -1.
       -5    1    3    3    0  502  0.24206949616E+03  0.37470860343E+03 -0.43945171347E+03  0.62621408234E+03  0.46999998093E+01 0.  1.
</event>
<event>
 5   0  0.4441253E-05  0.1400585E+04  0.7818609E-02  0.8953396E-01
        2   -1    0    0  501    0  0.00000000000E+00  0.00000000000E+00  0.10668694513E+04  0.10668694513E+04  0.25500000920E-02 0.  1.
       -2   -1    0    0    0  501  0.00000000000E+00  0.00000000000E+00 -0.45967131215E+03  0.45967131215E+03  0.25500000920E-02 0. -1.
    10030    2    1    2    0    0  0.00000000000E+00  0.00000000000E+00  0.60719813916E+03  0.15265407635E+04  0.14005845645E+04 0.  0.
        3    1    3    3  502    0 -0.97036943490E+02  0.70199144541E+02  0.10556240723E+04  0.10623964799E+04  0.10100000352E+00 0.  1.
       -3    1    3    3    0  502  0.97036943490E+02 -0.70199144541E+02 -0.44842593311E+03  0.46414428359E+03  0.10100000352E+00 0. -1.
</event>
<event>
 5   0  0.4527503E-05  0.1400193E+04  0.7818609E-02  0.8953679E-01
        2   -1    0    0  501    0  0.00000000000E+00  0.00000000000E+00  0.12716342436E+04  0.12716342436E+04  0.25500000920E-02 0.  1.
       -2   -1    0    0    0  501  0.00000000000E+00  0.00000000000E+00 -0.38543701586E+03  0.38543701587E+03  0.25500000920E-02 0. -1.
    10030    2    1    2    0    0  0.00000000000E+00  0.00000000000E+00  0.88619722773E+03  0.16570712595E+04  0.14001927126E+04 0.  0.
        4    1    3    3  502    0 -0.54375879737E+03 -0.43812188511E+03  0.50237657485E+03  0.86023732294E+03  0.12699999809E+01 0.  1.
       -4    1    3    3    0  502  0.54375879737E+03  0.43812188511E+03  0.38382065289E+03  0.79683393653E+03  0.12699999809E+01 0. -1.
</event>
<event>
 5   0  0.4441253E-05  0.1396682E+04  0.7818609E-02  0.8956223E-01
        2   -1    0    0  501    0  0.00000000000E+00  0.00000000000E+00  0.49186311450E+03  0.49186311450E+03  0.25500000920E-02 0.  1.
       -2   -1    0    0    0  501  0.00000000000E+00  0.00000000000E+00 -0.99149624544E+03  0.99149624545E+03  0.25500000920E-02 0. -1.
    10030    2    1    2    0    0  0.00000000000E+00  0.00000000000E+00 -0.49963313095E+03  0.14833593599E+04  0.13966823995E+04 0.  0.
        3    1    3    3  502    0  0.33107018776E+03  0.30098896623E+03  0.31962802559E+03  0.54987626968E+03  0.10100000352E+00 0.  1.
       -3    1    3    3    0  502 -0.33107018776E+03 -0.30098896623E+03 -0.81926115653E+03  0.93348309027E+03  0.10100000352E+00 0. -1.
</event>
<event>
 5   0  0.4460282E-05  0.1400709E+04  0.7818609E-02  0.8953305E-01
        2   -1    0    0  501    0  0.00000000000E+00  0.00000000000E+00  0.33800451775E+03  0.33800451776E+03  0.25500000920E-02 0.  1.
       -2   -1    0    0    0  501  0.00000000000E+00  0.00000000000E+00 -0.14511540499E+04  0.14511540499E+04  0.25500000920E-02 0. -1.
    10030    2    1    2    0    0  0.00000000000E+00  0.00000000000E+00 -0.11131495321E+04  0.17891585676E+04  0.14007092843E+04 0.  0.
        1    1    3    3  502    0 -0.66075016250E+03 -0.10408667204E+03 -0.82166723973E+03  0.10595102007E+04  0.50400001928E-02 0. -1.
       -1    1    3    3    0  502  0.66075016250E+03  0.10408667204E+03 -0.29148229239E+03  0.72964836692E+03  0.50400001928E-02 0.  1.
</event>
<event>
 5   0  0.2363419E-05  0.1401517E+04  0.7818609E-02  0.8952721E-01
       -1   -1    0    0    0  501  0.00000000000E+00  0.00000000000E+00  0.20775369041E+04  0.20775369041E+04  0.50400001928E-02 0.  1.
        1   -1    0    0  501    0  0.00000000000E+00  0.00000000000E+00 -0.23636750049E+03  0.23636750054E+03  0.50400001928E-02 0. -1.
    10030    2    1    2    0    0  0.00000000000E+00  0.00000000000E+00  0.18411694036E+04  0.23139044046E+04  0.14015166146E+04 0.  0.
        2    1    3    3  502    0  0.67629044511E+03 -0.12842736940E+03  0.70405898220E+03  0.98466309252E+03  0.25500000920E-02 0.  1.
       -2    1    3    3    0  502 -0.67629044511E+03  0.12842736940E+03  0.11371104214E+04  0.13292413121E+04  0.25500000920E-02 0. -1.
</event>
<event>
 5   0  0.2428507E-05  0.1399558E+04  0.7818609E-02  0.8954139E-01
        1   -1    0    0  501    0  0.00000000000E+00  0.00000000000E+00  0.74585905022E+03  0.74585905024E+03  0.50400001928E-02 0.  1.
       -1   -1    0    0    0  501  0.00000000000E+00  0.00000000000E+00 -0.65654540860E+03  0.65654540862E+03  0.50400001928E-02 0. -1.
    10030    2    1    2    0    0  0.00000000000E+00  0.00000000000E+00  0.89313641615E+02  0.14024044589E+04  0.13995575514E+04 0.  0.
        4    1    3    3  502    0 -0.55594322021E+03  0.42125343017E+03  0.10099757070E+03  0.70479035090E+03  0.12699999809E+01 0.  1.
       -4    1    3    3    0  502  0.55594322021E+03 -0.42125343017E+03 -0.11683929089E+02  0.69761410796E+03  0.12699999809E+01 0. -1.
</event>
<event>
 5   0  0.4621450E-05  0.1399977E+04  0.7818609E-02  0.8953835E-01
        2   -1    0    0  501    0  0.00000000000E+00  0.00000000000E+00  0.93613655744E+03  0.93613655744E+03  0.25500000920E-02 0.  1.
       -2   -1    0    0    0  501  0.00000000000E+00  0.00000000000E+00 -0.52341082838E+03  0.52341082838E+03  0.25500000920E-02 0. -1.
    10030    2    1    2    0    0  0.00000000000E+00  0.00000000000E+00  0.41272572906E+03  0.14595473858E+04  0.13999771584E+04 0.  0.
        5    1    3    3  502    0  0.18171445610E+03 -0.17264087256E+03  0.88772939786E+03  0.92244814936E+03  0.46999998093E+01 0.  1.
       -5    1    3    3    0  502 -0.18171445610E+03  0.17264087256E+03 -0.47500366880E+03  0.53709923646E+03  0.46999998093E+01 0. -1.
</event>
<event>
 5   0  0.2427569E-05  0.1399488E+04  0.7818609E-02  0.8954189E-01
       -1   -1    0    0    0  501  0.00000000000E+00  0.00000000000E+00  0.39462816368E+03  0.39462816372E+03  0.50400001928E-02 0. -1.
        1   -1    0    0  501    0  0.00000000000E+00  0.00000000000E+00 -0.12407679301E+04  0.12407679302E+04  0.50400001928E-02 0.  1.
    10030    2    1    2    0    0  0.00000000000E+00  0.00000000000E+00 -0.84613976647E+03  0.16353960939E+04  0.13994884349E+04 0.  0.
        1    1    3    3  502    0 -0.26259514958E+03 -0.51934167577E+03 -0.87711493025E+03  0.10526170195E+04  0.50400001928E-02 0.  1.
       -1    1    3    3    0  502  0.26259514958E+03  0.51934167577E+03  0.30975163788E+02  0.58277907441E+03  0.50400001928E-02 0. -1.
</event>
<event>
 5   0  0.2428507E-05  0.1401647E+04  0.7818609E-02  0.8952627E-01
       -1   -1    0    0    0  501  0.00000000000E+00  0.00000000000E+00  0.40339622181E+03  0.40339622184E+03  0.50400001928E-02 0.  1.
        1   -1    0    0  501    0  0.00000000000E+00  0.00000000000E+00 -0.12175464686E+04  0.12175464686E+04  0.50400001928E-02 0. -1.
    10030    2    1    2    0    0  0.00000000000E+00  0.00000000000E+00 -0.81415024676E+03  0.16209426904E+04  0.14016470959E+04 0.  0.
        4    1    3    3  502    0  0.27963472438E+03 -0.42698130717E+03 -0.96246698334E+03  0.10894277960E+04  0.12699999809E+01 0. -1.
       -4    1    3    3    0  502 -0.27963472438E+03  0.42698130717E+03  0.14831673658E+03  0.53151489443E+03  0.12699999809E+01 0.  1.
</event>
<event>
 5   0  0.2316714E-05  0.1399831E+04  0.7818609E-02  0.8953941E-01
       -1   -1    0    0    0  501  0.00000000000E+00  0.00000000000E+00  0.43497914381E+03  0.43497914384E+03  0.50400001928E-02 0.  1.
        1   -1    0    0  501    0  0.00000000000E+00  0.00000000000E+00 -0.11262188353E+04  0.11262188353E+04  0.50400001928E-02 0. -1.
    10030    2    1    2    0    0  0.00000000000E+00  0.00000000000E+00 -0.69123969150E+03  0.15611979792E+04  0.13998309966E+04 0.  0.
        5    1    3    3  502    0 -0.14564596906E+00 -0.16596019281E+03 -0.11039393319E+04  0.11163543100E+04  0.46999998093E+01 0. -1.
       -5    1    3    3    0  502  0.14564596906E+00  0.16596019281E+03  0.41269964043E+03  0.44484366919E+03  0.46999998093E+01 0.  1.
</event>
<event>
 5   0  0.4527503E-05  0.1401846E+04  0.7818609E-02  0.8952483E-01
       -2   -1    0    0    0  501  0.00000000000E+00  0.00000000000E+00  0.82639299690E+03  0.82639299690E+03  0.25500000920E-02 0. -1.
        2   -1    0    0  501    0  0.00000000000E+00  0.00000000000E+00 -0.59450311539E+03  0.59450311540E+03  0.25500000920E-02 0.  1.
    10030    2    1    2    0    0  0.00000000000E+00  0.00000000000E+00  0.23188988151E+03  0.14208961123E+04  0.14018462272E+04 0.  0.
        4    1    3    3  502    0 -0.30984353001E+03  0.18098102432E+03 -0.49434553475E+03  0.61084880690E+03  0.12699999809E+01 0.  1.
       -4    1    3    3    0  502  0.30984353001E+03 -0.18098102432E+03  0.72623541626E+03  0.81004730540E+03  0.12699999809E+01 0. -1.
</event>
<event>
 5   0  0.2427569E-05  0.1400688E+04  0.7818609E-02  0.8953320E-01
        1   -1    0    0  501    0  0.00000000000E+00  0.00000000000E+00  0.45030801268E+03  0.45030801271E+03  0.50400001928E-02 0. -1.
       -1   -1    0    0    0  501  0.00000000000E+00  0.00000000000E+00 -0.10892145955E+04  0.10892145955E+04  0.50400001928E-02 0.  1.
    10030    2    1    2    0    0  0.00000000000E+00  0.00000000000E+00 -0.63890658277E+03  0.15395226082E+04  0.14006884877E+04 0.  0.
        1    1    3    3  502    0 -0.23822212571E+03 -0.18727373890E+03  0.37452565080E+03  0.48175792426E+03  0.50400001928E-02 0. -1.
       -1    1    3    3    0  502  0.23822212571E+03  0.18727373890E+03 -0.10134322336E+04  0.10577646839E+04  0.50400001928E-02 0.  1.
</event>
<event>
 5   0  0.4243281E-05  0.1399686E+04  0.7818609E-02  0.8954046E-01
       -2   -1    0    0    0  501  0.00000000000E+00  0.00000000000E+00  0.32037134167E+03  0.32037134169E+03  0.25500000920E-02 0.  1.
        2   -1    0    0  501    0  0.00000000000E+00  0.00000000000E+00 -0.15287885414E+04  0.15287885414E+04  0.25500000920E-02 0. -1.
    10030    2    1    2    0    0  0.00000000000E+00  0.00000000000E+00 -0.12084171997E+04  0.18491598831E+04  0.13996857307E+04 0.  0.
        2    1    3    3  502    0  0.12776883534E+03 -0.33257041320E+03  0.19160019973E+03  0.40452267126E+03  0.25500000920E-02 0.  1.
       -2    1    3    3    0  502 -0.12776883534E+03  0.33257041320E+03 -0.14000173994E+04  0.14446372118E+04  0.25500000920E-02 0. -1.
</event>
<event>
 5   0  0.4621450E-05  0.1400203E+04  0.7818609E-02  0.8953672E-01
       -2   -1    0    0    0  501  0.00000000000E+00  0.00000000000E+00  0.10551402706E+04  0.10551402706E+04  0.25500000920E-02 0. -1.
        2   -1    0    0  501    0  0.00000000000E+00  0.00000000000E+00 -0.46452784487E+03  0.46452784487E+03  0.25500000920E-02 0.  1.
    10030    2    1    2    0    0  0.00000000000E+00  0.00000000000E+00  0.59061242578E+03  0.15196681155E+04  0.14002028938E+04 0.  0.
        5    1    3    3  502    0 -0.90324361978E+02  0.67025255433E+03  0.49163506673E+03  0.83613641577E+03  0.46999998093E+01 0. -1.
       -5    1    3    3    0  502  0.90324361978E+02 -0.67025255433E+03  0.98977359051E+02  0.68353169974E+03  0.46999998093E+01 0.  1.
</event>
<event>
 5   0  0.2467303E-05  0.1399056E+04  0.7818609E-02  0.8954502E-01
        1   -1    0    0  501    0  0.00000000000E+00  0.00000000000E+00  0.12270459165E+04  0.12270459165E+04  0.50400001928E-02 0. -1.
       -1   -1    0    0    0  501  0.00000000000E+00  0.00000000000E+00 -0.39879481618E+03  0.39879481621E+03  0.50400001928E-02 0.  1.
    10030    2    1    2    0    0  0.00000000000E+00  0.00000000000E+00  0.82825110029E+03  0.16258407327E+04  0.13990561829E+04 0.  0.
        3    1    3    3  502    0 -0.13999571148E+03  0.40294940872E+03 -0.23015550356E+03  0.48470464330E+03  0.10100000352E+00 0.  1.
       -3    1    3    3    0  502  0.13999571148E+03 -0.40294940872E+03  0.10584066039E+04  0.11411360894E+04  0.10100000352E+00 0. -1.
</event>
<event>
 5   0  0.1661000E-05  0.1400039E+04  0.7818609E-02  0.8953790E-01
       -3   -1    0    0    0  501  0.00000000000E+00  0.00000000000E+00  0.36876015608E+03  0.36876016992E+03  0.10100000352E+00 0.  1.
        3   -1    0    0  501    0  0.00000000000E+00  0.00000000000E+00 -0.13288509214E+04  0.13288509253E+04  0.10100000352E+00 0. -1.
    10030    2    1    2    0    0  0.00000000000E+00  0.00000000000E+00 -0.96009076533E+03  0.16976110952E+04  0.14000389826E+04 0.  0.
        5    1    3    3  502    0 -0.63200809188E+03 -0.16796320611E+03 -0.78284045395E+03  0.10200525149E+04  0.46999998093E+01 0. -1.
       -5    1    3    3    0  502  0.63200809188E+03  0.16796320611E+03 -0.17725031138E+03  0.67755858027E+03  0.46999998093E+01 0.  1.
</event>
<event>
 5   0  0.2316714E-05  0.1400071E+04  0.7818609E-02  0.8953767E-01
        1   -1    0    0  501    0  0.00000000000E+00  0.00000000000E+00  0.83955149524E+03  0.83955149525E+03  0.50400001928E-02 0. -1.
       -1   -1    0    0    0  501  0.00000000000E+00  0.00000000000E+00 -0.58370385589E+03  0.58370385591E+03  0.50400001928E-02 0.  1.
    10030    2    1    2    0    0  0.00000000000E+00  0.00000000000E+00  0.25584763935E+03  0.14232553512E+04  0.14000706340E+04 0.  0.
        5    1    3    3  502    0  0.74460078820E+02  0.28027485933E+02  0.83492445728E+03  0.83871972832E+03  0.46999998093E+01 0. -1.
       -5    1    3    3    0  502 -0.74460078820E+02 -0.28027485933E+02 -0.57907681793E+03  0.58453562284E+03  0.46999998093E+01 0.  1.
</event>
<event>
 5   0  0.4243281E-05  0.1401098E+04  0.7818609E-02  0.8953024E-01
       -2   -1    0    0    0  501  0.00000000000E+00  0.00000000000E+00  0.37094886794E+03  0.37094886795E+03  0.25500000920E-02 0.  1.
        2   -1    0    0  501    0  0.00000000000E+00  0.00000000000E+00 -0.13230094934E+04  0.13230094934E+04  0.25500000920E-02 0. -1.
    10030    2    1    2    0    0  0.00000000000E+00  0.00000000000E+00 -0.95206062547E+03  0.16939583614E+04  0.14010979607E+04 0.  0.
        2    1    3    3  502    0  0.53035828862E+03  0.94018219659E+02  0.65538077054E+02  0.54259983366E+03  0.25500000920E-02 0.  1.
       -2    1    3    3    0  502 -0.53035828862E+03 -0.94018219659E+02 -0.10175987025E+04  0.11513585277E+04  0.25500000920E-02 0. -1.
</event>
<event>
 5   0  0.2428507E-05  0.1399679E+04  0.7818609E-02  0.8954051E-01
       -1   -1    0    0    0  501  0.00000000000E+00  0.00000000000E+00  0.48274987507E+03  0.48274987510E+03  0.50400001928E-02 0.  1.
        1   -1    0    0  501    0  0.00000000000E+00  0.00000000000E+00 -0.10145527411E+04  0.10145527411E+04  0.50400001928E-02 0. -1.
    10030    2    1    2    0    0  0.00000000000E+00  0.00000000000E+00 -0.53180286606E+03  0.14973026162E+04  0.13996788332E+04 0.  0.
        4    1    3    3  502    0  0.43265547952E+03  0.17104969345E+02  0.32225555307E+03  0.53975327541E+03  0.12699999809E+01 0.  1.
       -4    1    3    3    0  502 -0.43265547952E+03 -0.17104969345E+02 -0.85405841912E+03  0.95754934082E+03  0.12699999809E+01 0. -1.
</event>
<event>
 5   0  0.4441253E-05  0.1399161E+04  0.7818609E-02  0.8954426E-01
        2   -1    0    0  501    0  0.00000000000E+00  0.00000000000E+00  0.92634940692E+03  0.92634940692E+03  0.25500000920E-02 0.  1.
       -2   -1    0    0    0  501  0.00000000000E+00  0.00000000000E+00 -0.52832449717E+03  0.52832449718E+03  0.25500000920E-02 0. -1.
    10030    2    1    2    0    0  0.00000000000E+00  0.00000000000E+00  0.39802490975E+03  0.14546739041E+04  0.13991612982E+04 0.  0.
        3    1    3    3  502    0  0.68060343796E+03  0.10049002416E+02  0.36694839937E+03  0.77328724302E+03  0.10100000352E+00 0.  1.
       -3    1    3    3    0  502 -0.68060343796E+03 -0.10049002416E+02  0.31076510375E+02  0.68138666109E+03  0.10100000352E+00 0. -1.
</event>
<event>
 5   0  0.4621450E-05  0.1400196E+04  0.7818609E-02  0.8953677E-01
        2   -1    0    0  501    0  0.00000000000E+00  0.00000000000E+00  0.13529499658E+04  0.13529499658E+04  0.25500000920E-02 0.  1.
       -2   -1    0    0    0  501  0.00000000000E+00  0.00000000000E+00 -0.36227305943E+03  0.36227305943E+03  0.25500000920E-02 0. -1.
    10030    2    1    2    0    0  0.00000000000E+00  0.00000000000E+00  0.99067690634E+03  0.17152230252E+04  0.14001961625E+04 0.  0.
        5    1    3    3  502    0  0.54006303777E+03 -0.10872939864E+03  0.10245346357E+04  0.11632641474E+04  0.46999998093E+01 0.  1.
       -5    1    3    3    0  502 -0.54006303777E+03  0.10872939864E+03 -0.33857729403E+02  0.55195887776E+03  0.46999998093E+01 0. -1.
</event>
<event>
 5   0  0.4460282E-05  0.1399458E+04  0.7818609E-02  0.8954211E-01
        2   -1    0    0  501    0  0.00000000000E+00  0.00000000000E+00  0.96361564582E+03  0.96361564582E+03  0.25500000920E-02 0.  1.
       -2   -1    0    0    0  501  0.00000000000E+00  0.00000000000E+00 -0.50810801965E+03  0.50810801965E+03  0.25500000920E-02 0. -1.
    10030    2    1    2    0    0  0.00000000000E+00  0.00000000000E+00  0.45550762617E+03  0.14717236655E+04  0.13994582345E+04 0.  0.
        1    1    3    3  502    0  0.23456827680E+03 -0.57275771209E+03  0.57102494277E+03  0.84210638196E+03  0.50400001928E-02 0.  1.
       -1    1    3    3    0  502 -0.23456827680E+03  0.57275771209E+03 -0.11551731660E+03  0.62961728352E+03  0.50400001928E-02 0. -1.
</event>
<event>
 5   0  0.2428507E-05  0.1400004E+04  0.7818609E-02  0.8953816E-01
       -1   -1    0    0    0  501  0.00000000000E+00  0.00000000000E+00  0.60633674323E+03  0.60633674325E+03  0.50400001928E-02 0. -1.
        1   -1    0    0  501    0  0.00000000000E+00  0.00000000000E+00 -0.80813614044E+03  0.80813614046E+03  0.50400001928E-02 0.  1.
    10030    2    1    2    0    0  0.00000000000E+00  0.00000000000E+00 -0.20179939721E+03  0.14144728837E+04  0.14000037650E+04 0.  0.
        4    1    3    3  502    0  0.20781599602E+03  0.11713630438E+03  0.56399950769E+03  0.61237689341E+03  0.12699999809E+01 0. -1.
       -4    1    3    3    0  502 -0.20781599602E+03 -0.11713630438E+03 -0.76579890490E+03  0.80209599030E+03  0.12699999809E+01 0.  1.
</event>
<event>
 5   0  0.4460282E-05  0.1400115E+04  0.7818609E-02  0.8953735E-01
       -2   -1    0    0    0  501  0.00000000000E+00  0.00000000000E+00  0.40082924553E+03  0.40082924554E+03  0.25500000920E-02 0. -1.
        2   -1    0    0  501    0  0.00000000000E+00  0.00000000000E+00 -0.12226671636E+04  0.12226671636E+04  0.25500000920E-02 0.  1.
    10030    2    1    2    0    0  0.00000000000E+00  0.00000000000E+00 -0.82183791811E+03  0.16234964092E+04  0.14001153620E+04 0.  0.
        1    1    3    3  502    0  0.56015496187E+02  0.92819436426E+02  0.39103644805E+03  0.40578650461E+03  0.50400001928E-02 0. -1.
       -1    1    3    3    0  502 -0.56015496187E+02 -0.92819436426E+02 -0.12128743662E+04  0.12177099046E+04  0.50400001928E-02 0.  1.
</event>
<event>
 5   0  0.2428507E-05  0.1399679E+04  0.7818609E-02  0.8954051E-01
       -1   -1    0    0    0  501  0.00000000000E+00  0.00000000000E+00  0.62153415318E+03  0.62153415320E+03  0.50400001928E-02 0.  1.
        1   -1    0    0  501    0  0.00000000000E+00  0.00000000000E+00 -0.78801044443E+03  0.78801044445E+03  0.50400001928E-02 0. -1.
    10030    2    1    2    0    0  0.00000000000E+00  0.00000000000E+00 -0.16647629125E+03  0.14095445977E+04  0.13996791122E+04 0.  0.
        4    1    3    3  502    0  0.21787712535E+03 -0.47560871704E+03 -0.55137994463E+03  0.76006285906E+03  0.12699999809E+01 0. -1.
       -4    1    3    3    0  502 -0.21787712535E+03  0.47560871704E+03  0.38490365338E+03  0.64948173859E+03  0.12699999809E+01 0.  1.
</event>
<event>
 5   0  0.4527503E-05  0.1400270E+04  0.7818609E-02  0.8953623E-01
       -2   -1    0    0    0  501  0.00000000000E+00  0.00000000000E+00  0.20231746776E+03  0.20231746778E+03  0.25500000920E-02 0.  1.
        2   -1    0    0  501    0  0.00000000000E+00  0.00000000000E+00 -0.24228712436E+04  0.24228712436E+04  0.25500000920E-02 0. -1.
    10030    2    1    2    0    0  0.00000000000E+00  0.00000000000E+00 -0.22205537758E+04  0.26251887113E+04  0.14002702235E+04 0.  0.
        4    1    3    3  502    0  0.69849000800E+02  0.13349452808E+03  0.17156322194E+03  0.22833139066E+03  0.12699999809E+01 0.  1.
       -4    1    3    3    0  502 -0.69849000800E+02 -0.13349452808E+03 -0.23921169977E+04  0.23968573207E+04  0.12699999809E+01 0. -1.
</event>
<event>
 5   0  0.2427569E-05  0.1399985E+04  0.7818609E-02  0.8953830E-01
       -1   -1    0    0    0  501  0.00000000000E+00  0.00000000000E+00  0.43228219435E+03  0.43228219438E+03  0.50400001928E-02 0. -1.
        1   -1    0    0  501    0  0.00000000000E+00  0.00000000000E+00 -0.11334942062E+04  0.11334942062E+04  0.50400001928E-02 0.  1.
    10030    2    1    2    0    0  0.00000000000E+00  0.00000000000E+00 -0.70121201188E+03  0.15657764006E+04  0.13999848039E+04 0.  0.
        1    1    3    3  502    0  0.37408917391E+03 -0.42482520285E+03  0.10994866079E+03  0.57663495476E+03  0.50400001928E-02 0. -1.
       -1    1    3    3    0  502 -0.37408917391E+03  0.42482520285E+03 -0.81116067267E+03  0.98914144586E+03  0.50400001928E-02 0.  1.
</event>
<event>
 5   0  0.4621450E-05  0.1401720E+04  0.7818609E-02  0.8952574E-01
       -2   -1    0    0    0  501  0.00000000000E+00  0.00000000000E+00  0.59601467119E+03  0.59601467119E+03  0.25500000920E-02 0.  1.
        2   -1    0    0  501    0  0.00000000000E+00  0.00000000000E+00 -0.82414889921E+03  0.82414889922E+03  0.25500000920E-02 0. -1.
    10030    2    1    2    0    0  0.00000000000E+00  0.00000000000E+00 -0.22813422803E+03  0.14201635704E+04  0.14017201364E+04 0.  0.
        5    1    3    3  502    0 -0.49084709933E+03 -0.48105141898E+03  0.25002954965E+02  0.68774165236E+03  0.46999998093E+01 0.  1.
       -5    1    3    3    0  502  0.49084709933E+03  0.48105141898E+03 -0.25313718299E+03  0.73242191805E+03  0.46999998093E+01 0. -1.
</event>
<event>
 5   0  0.4621450E-05  0.1399148E+04  0.7818609E-02  0.8954435E-01
       -2   -1    0    0    0  501  0.00000000000E+00  0.00000000000E+00  0.45045488238E+03  0.45045488239E+03  0.25500000920E-02 0.  1.
        2   -1    0    0  501    0  0.00000000000E+00  0.00000000000E+00 -0.10864657112E+04  0.10864657112E+04  0.25500000920E-02 0. -1.
    10030    2    1    2    0    0  0.00000000000E+00  0.00000000000E+00 -0.63601082882E+03  0.15369205936E+04  0.13991480038E+04 0.  0.
        5    1    3    3  502    0  0.30381964516E+03 -0.36793678146E+03  0.24393186373E+03  0.53591855359E+03  0.46999998093E+01 0.  1.
       -5    1    3    3    0  502 -0.30381964516E+03  0.36793678146E+03 -0.87994269255E+03  0.10010020400E+04  0.46999998093E+01 0. -1.
</event>
<event>
 5   0  0.4243281E-05  0.1399736E+04  0.7818609E-02  0.8954010E-01
       -2   -1    0    0    0  501  0.00000000000E+00  0.00000000000E+00  0.52813383196E+03  0.52813383197E+03  0.25500000920E-02 0. -1.
        2   -1    0    0  501    0  0.00000000000E+00  0.00000000000E+00 -0.92744459515E+03  0.92744459516E+03  0.25500000920E-02 0.  1.
    10030    2    1    2    0    0  0.00000000000E+00  0.00000000000E+00 -0.39931076319E+03  0.14555784271E+04  0.13997355007E+04 0.  0.
        2    1    3    3  502    0  0.86275822670E+02 -0.10702909093E+03  0.51395541696E+03  0.53202341538E+03  0.25500000920E-02 0. -1.
       -2    1    3    3    0  502 -0.86275822670E+02  0.10702909093E+03 -0.91326618016E+03  0.92355501174E+03  0.25500000920E-02 0.  1.
</event>
<event>
 5   0  0.4243281E-05  0.1395749E+04  0.7818609E-02  0.8956901E-01
        2   -1    0    0  501    0  0.00000000000E+00  0.00000000000E+00  0.93494306858E+03  0.93494306858E+03  0.25500000920E-02 0. -1.
       -2   -1    0    0    0  501  0.00000000000E+00  0.00000000000E+00 -0.52091811694E+03  0.52091811695E+03  0.25500000920E-02 0.  1.
    10030    2    1    2    0    0  0.00000000000E+00  0.00000000000E+00  0.41402495164E+03  0.14558611855E+04  0.13957489498E+04 0.  0.
        2    1    3    3  502    0 -0.15656211541E+03 -0.35289245724E+03 -0.39938966906E+03  0.55547897361E+03  0.25500000920E-02 0.  1.
       -2    1    3    3    0  502  0.15656211541E+03  0.35289245724E+03  0.81341462070E+03  0.90038221192E+03  0.25500000920E-02 0. -1.
</event>
<event>
 5   0  0.4460282E-05  0.1399424E+04  0.7818609E-02  0.8954235E-01
        2   -1    0    0  501    0  0.00000000000E+00  0.00000000000E+00  0.71438539204E+03  0.71438539204E+03  0.25500000920E-02 0.  1.
       -2   -1    0    0    0  501  0.00000000000E+00  0.00000000000E+00 -0.68534020306E+03  0.68534020307E+03  0.25500000920E-02 0. -1.
    10030    2    1    2    0    0  0.00000000000E+00  0.00000000000E+00  0.29045188976E+02  0.13997255951E+04  0.13994242097E+04 0.  0.
        1    1    3    3  502    0 -0.25558692666E+03 -0.35080221638E+03 -0.53442176616E+03  0.68847185583E+03  0.50400001928E-02 0. -1.
       -1    1    3    3    0  502  0.25558692666E+03  0.35080221638E+03  0.56346695513E+03  0.71125373929E+03  0.50400001928E-02 0.  1.
</event>
<event>
 5   0  0.2316714E-05  0.1399423E+04  0.7818609E-02  0.8954236E-01
       -1   -1    0    0    0  501  0.00000000000E+00  0.00000000000E+00  0.24518007306E+03  0.24518007312E+03  0.50400001928E-02 0. -1.
        1   -1    0    0  501    0  0.00000000000E+00  0.00000000000E+00 -0.19968835491E+04  0.19968835491E+04  0.50400001928E-02 0.  1.
    10030    2    1    2    0    0  0.00000000000E+00  0.00000000000E+00 -0.17517034761E+04  0.22420636222E+04  0.13994228161E+04 0.  0.
        5    1    3    3  502    0 -0.84286054596E+01  0.38427942344E+03 -0.18125624730E+04  0.18528752049E+04  0.46999998093E+01 0.  1.
       -5    1    3    3    0  502  0.84286054596E+01 -0.38427942344E+03  0.60858996900E+02  0.38918841731E+03  0.46999998093E+01 0. -1.
</event>
<event>
 5   0  0.2467303E-05  0.1398402E+04  0.7818609E-02  0.8954976E-01
       -1   -1    0    0    0  501  0.00000000000E+00  0.00000000000E+00  0.81672900051E+03  0.81672900052E+03  0.50400001928E-02 0.  1.
        1   -1    0    0  501    0  0.00000000000E+00  0.00000000000E+00 -0.59858496774E+03  0.59858496777E+03  0.50400001928E-02 0. -1.
    10030    2    1    2    0    0  0.00000000000E+00  0.00000000000E+00  0.21814403276E+03  0.14153139683E+04  0.13984015195E+04 0.  0.
        3    1    3    3  502    0 -0.33657477096E+03  0.80453824823E+02 -0.50583351422E+03  0.61288086011E+03  0.10100000352E+00 0. -1.
       -3    1    3    3    0  502  0.33657477096E+03 -0.80453824823E+02  0.72397754698E+03  0.80243310818E+03  0.10100000352E+00 0.  1.
</event>
<event>
 5   0  0.1661000E-05  0.1399628E+04  0.7818609E-02  0.8954088E-01
       -3   -1    0    0    0  501  0.00000000000E+00  0.00000000000E+00  0.73612937562E+03  0.73612938255E+03  0.10100000352E+00 0. -1.
        3   -1    0    0  501    0  0.00000000000E+00  0.00000000000E+00 -0.66528982155E+03  0.66528982922E+03  0.10100000352E+00 0.  1.
    10030    2    1    2    0    0  0.00000000000E+00  0.00000000000E+00  0.70839554069E+02  0.14014192118E+04  0.13996276522E+04 0.  0.
        3    1    3    3  502    0 -0.19377146868E+03  0.61902558366E+03 -0.22759368378E+03  0.68741468590E+03  0.10100000352E+00 0.  1.
       -3    1    3    3    0  502  0.19377146868E+03 -0.61902558366E+03  0.29843323785E+03  0.71400452586E+03  0.10100000352E+00 0. -1.
</event>
<event>
 5   0  0.4441253E-05  0.1398083E+04  0.7818609E-02  0.8955208E-01
        2   -1    0    0  501    0  0.00000000000E+00  0.00000000000E+00  0.88959972390E+03  0.88959972390E+03  0.25500000920E-02 0.  1.
       -2   -1    0    0    0  501  0.00000000000E+00  0.00000000000E+00 -0.54930177363E+03  0.54930177364E+03  0.25500000920E-02 0. -1.
    10030    2    1    2    0    0  0.00000000000E+00  0.00000000000E+00  0.34029795027E+03  0.14389014975E+04  0.13980825529E+04 0.  0.
        3    1    3    3  502    0  0.30736919722E+03  0.44129377082E+03  0.62977784520E+03  0.82815225658E+03  0.10100000352E+00 0.  1.
       -3    1    3    3    0  502 -0.30736919722E+03 -0.44129377082E+03 -0.28947989493E+03  0.61074924096E+03  0.10100000352E+00 0. -1.
</event>
<event>
 5   0  0.2427569E-05  0.1397470E+04  0.7818609E-02  0.8955652E-01
       -1   -1    0    0    0  501  0.00000000000E+00  0.00000000000E+00  0.51831546823E+03  0.51831546825E+03  0.50400001928E-02 0.  1.
        1   -1    0    0  501    0  0.00000000000E+00  0.00000000000E+00 -0.94195580602E+03  0.94195580604E+03  0.50400001928E-02 0. -1.
    10030    2    1    2    0    0  0.00000000000E+00  0.00000000000E+00 -0.42364033779E+03  0.14602712743E+04  0.13974695198E+04 0.  0.
        1    1    3    3  502    0 -0.67516781054E+03 -0.14705726623E+03 -0.32017618931E+03  0.76157087928E+03  0.50400001928E-02 0. -1.
       -1    1    3    3    0  502  0.67516781054E+03  0.14705726623E+03 -0.10346414849E+03  0.69870039501E+03  0.50400001928E-02 0.  1.
</event>
<event>
 5   0  0.4243281E-05  0.1399649E+04  0.7818609E-02  0.8954073E-01
        2   -1    0    0  501    0  0.00000000000E+00  0.00000000000E+00  0.23035023329E+04  0.23035023329E+04  0.25500000920E-02 0. -1.
       -2   -1    0    0    0  501  0.00000000000E+00  0.00000000000E+00 -0.21261283690E+03  0.21261283691E+03  0.25500000920E-02 0.  1.
    10030    2    1    2    0    0  0.00000000000E+00  0.00000000000E+00  0.20908894960E+04  0.25161151698E+04  0.13996487642E+04 0.  0.
        2    1    3    3  502    0 -0.66734652722E+02 -0.11784989409E+02  0.22975900696E+04  0.22985892473E+04  0.25500000920E-02 0. -1.
       -2    1    3    3    0  502  0.66734652722E+02  0.11784989409E+02 -0.20670057358E+03  0.21752592253E+03  0.25500000920E-02 0.  1.
</event>
<event>
 5   0  0.2428507E-05  0.1400149E+04  0.7818609E-02  0.8953711E-01
        1   -1    0    0  501    0  0.00000000000E+00  0.00000000000E+00  0.51911502837E+03  0.51911502840E+03  0.50400001928E-02 0. -1.
       -1   -1    0    0    0  501  0.00000000000E+00  0.00000000000E+00 -0.94411457217E+03  0.94411457218E+03  0.50400001928E-02 0.  1.
    10030    2    1    2    0    0  0.00000000000E+00  0.00000000000E+00 -0.42499954380E+03  0.14632296006E+04  0.14001486535E+04 0.  0.
        4    1    3    3  502    0 -0.93041802688E+02 -0.68832152338E+03 -0.30395924948E+03  0.75817948722E+03  0.12699999809E+01 0.  1.
       -4    1    3    3    0  502  0.93041802688E+02  0.68832152338E+03 -0.12104029432E+03  0.70505011336E+03  0.12699999809E+01 0. -1.
</event>
<event>
 5   0  0.2427569E-05  0.1399762E+04  0.7818609E-02  0.8953991E-01
        1   -1    0    0  501    0  0.00000000000E+00  0.00000000000E+00  0.64318095541E+03  0.64318095543E+03  0.50400001928E-02 0.  1.
       -1   -1    0    0    0  501  0.00000000000E+00  0.00000000000E+00 -0.76157919976E+03  0.76157919978E+03  0.50400001928E-02 0. -1.
    10030    2    1    2    0    0  0.00000000000E+00  0.00000000000E+00 -0.11839824436E+03  0.14047601552E+04  0.13997617474E+04 0.  0.
        1    1    3    3  502    0  0.15781313899E+03  0.65255427676E+02 -0.74034952095E+03  0.75978988600E+03  0.50400001928E-02 0. -1.
       -1    1    3    3    0  502 -0.15781313899E+03 -0.65255427676E+02  0.62195127659E+03  0.64497026921E+03  0.50400001928E-02 0.  1.
</event>
<event>
 5   0  0.2363419E-05  0.1401256E+04  0.7818609E-02  0.8952910E-01
       -1   -1    0    0    0  501  0.00000000000E+00  0.00000000000E+00  0.10554105703E+04  0.10554105703E+04  0.50400001928E-02 0. -1.
        1   -1    0    0  501    0  0.00000000000E+00  0.00000000000E+00 -0.46510751155E+03  0.46510751158E+03  0.50400001928E-02 0.  1.
    10030    2    1    2    0    0  0.00000000000E+00  0.00000000000E+00  0.59030305877E+03  0.15205180819E+04  0.14012556998E+04 0.  0.
        2    1    3    3  502    0  0.48318172818E+03  0.12811642166E+03  0.82785264334E+03  0.96706690514E+03  0.25500000920E-02 0. -1.
       -2    1    3    3    0  502 -0.48318172818E+03 -0.12811642166E+03 -0.23754958456E+03  0.55345117678E+03  0.25500000920E-02 0.  1.
</event>
<event>
 5   0  0.2467303E-05  0.1398789E+04  0.7818609E-02  0.8954696E-01
        1   -1    0    0  501    0  0.00000000000E+00  0.00000000000E+00  0.40727100260E+03  0.40727100263E+03  0.50400001928E-02 0. -1.
       -1   -1    0    0    0  501  0.00000000000E+00  0.00000000000E+00 -0.12010495134E+04  0.12010495134E+04  0.50400001928E-02 0.  1.
    10030    2    1    2    0    0  0.00000000000E+00  0.00000000000E+00 -0.79377851083E+03  0.16083205161E+04  0.13987889613E+04 0.  0.
        3    1    3    3  502    0 -0.54425689523E+03 -0.35266053816E+03 -0.69796786332E+03  0.95275609241E+03  0.10100000352E+00 0. -1.
       -3    1    3    3    0  502  0.54425689523E+03  0.35266053816E+03 -0.95810647501E+02  0.65556442365E+03  0.10100000352E+00 0.  1.
</event>
<event>
 5   0  0.4527503E-05  0.1399801E+04  0.7818609E-02  0.8953963E-01
       -2   -1    0    0    0  501  0.00000000000E+00  0.00000000000E+00  0.24035736315E+03  0.24035736316E+03  0.25500000920E-02 0. -1.
        2   -1    0    0  501    0  0.00000000000E+00  0.00000000000E+00 -0.20380514158E+04  0.20380514158E+04  0.25500000920E-02 0.  1.
    10030    2    1    2    0    0  0.00000000000E+00  0.00000000000E+00 -0.17976940527E+04  0.22784087790E+04  0.13998009348E+04 0.  0.
        4    1    3    3  502    0 -0.54726491571E+03  0.36136844748E+03 -0.12967873274E+04  0.14531844439E+04  0.12699999809E+01 0.  1.
       -4    1    3    3    0  502  0.54726491571E+03 -0.36136844748E+03 -0.50090672533E+03  0.82522433506E+03  0.12699999809E+01 0. -1.
</event>
<event>
 5   0  0.4527503E-05  0.1399741E+04  0.7818609E-02  0.8954006E-01
        2   -1    0    0  501    0  0.00000000000E+00  0.00000000000E+00  0.40065641652E+03  0.40065641653E+03  0.25500000920E-02 0. -1.
       -2   -1    0    0    0  501  0.00000000000E+00  0.00000000000E+00 -0.12225413026E+04  0.12225413026E+04  0.25500000920E-02 0.  1.
    10030    2    1    2    0    0  0.00000000000E+00  0.00000000000E+00 -0.82188488610E+03  0.16231977191E+04  0.13997414295E+04 0.  0.
        4    1    3    3  502    0 -0.26682307951E+03 -0.62353262376E+03 -0.61122799453E+03  0.91301082296E+03  0.12699999809E+01 0.  1.
       -4    1    3    3    0  502  0.26682307951E+03  0.62353262376E+03 -0.21065689157E+03  0.71018689618E+03  0.12699999809E+01 0. -1.
</event>
<event>
 5   0  0.2363419E-05  0.1396968E+04  0.7818609E-02  0.8956016E-01
        1   -1    0    0  501    0  0.00000000000E+00  0.00000000000E+00  0.51978653153E+03  0.51978653156E+03  0.50400001928E-02 0.  1.
       -1   -1    0    0    0  501  0.00000000000E+00  0.00000000000E+00 -0.93861543132E+03  0.93861543133E+03  0.50400001928E-02 0. -1.
    10030    2    1    2    0    0  0.00000000000E+00  0.00000000000E+00 -0.41882889979E+03  0.14584019629E+04  0.13969676582E+04 0.  0.
        2    1    3    3  502    0  0.64622379885E+03  0.15417109810E+03 -0.43455003185E+03  0.79385619344E+03  0.25500000920E-02 0. -1.
       -2    1    3    3    0  502 -0.64622379885E+03 -0.15417109810E+03  0.15721132056E+02  0.66454576944E+03  0.25500000920E-02 0.  1.
</event>
<event>
 5   0  0.4527503E-05  0.1399746E+04  0.7818609E-02  0.8954002E-01
        2   -1    0    0  501    0  0.00000000000E+00  0.00000000000E+00  0.53631289541E+03  0.53631289541E+03  0.25500000920E-02 0. -1.
       -2   -1    0    0    0  501  0.00000000000E+00  0.00000000000E+00 -0.91331472095E+03  0.91331472095E+03  0.25500000920E-02 0.  1.
    10030    2    1    2    0    0  0.00000000000E+00  0.00000000000E+00 -0.37700182554E+03  0.14496276164E+04  0.13997463519E+04 0.  0.
        4    1    3    3  502    0  0.12086457846E+03  0.28488625987E+03  0.46160499160E+03  0.55574203418E+03  0.12699999809E+01 0. -1.
       -4    1    3    3    0  502 -0.12086457846E+03 -0.28488625987E+03 -0.83860681714E+03  0.89388558218E+03  0.12699999809E+01 0.  1.
</event>
<event>
 5   0  0.4460282E-05  0.1399752E+04  0.7818609E-02  0.8953998E-01
       -2   -1    0    0    0  501  0.00000000000E+00  0.00000000000E+00  0.89908365068E+03  0.89908365069E+03  0.25500000920E-02 0. -1.
        2   -1    0    0  501    0  0.00000000000E+00  0.00000000000E+00 -0.54480656881E+03  0.54480656881E+03  0.25500000920E-02 0.  1.
    10030    2    1    2    0    0  0.00000000000E+00  0.00000000000E+00  0.35427708188E+03  0.14438902195E+04  0.13997523764E+04 0.  0.
        1    1    3    3  502    0 -0.35692175128E+03 -0.26395971388E+03 -0.38099477745E+03  0.58499990390E+03  0.50400001928E-02 0.  1.
       -1    1    3    3    0  502  0.35692175128E+03  0.26395971388E+03  0.73527185933E+03  0.85889031560E+03  0.50400001928E-02 0. -1.
</event>
<event>
 5   0  0.4527503E-05  0.1399436E+04  0.7818609E-02  0.8954227E-01
        2   -1    0    0  501    0  0.00000000000E+00  0.00000000000E+00  0.71344870085E+03  0.71344870085E+03  0.25500000920E-02 0. -1.
       -2   -1    0    0    0  501  0.00000000000E+00  0.00000000000E+00 -0.68625202868E+03  0.68625202868E+03  0.25500000920E-02 0.  1.
    10030    2    1    2    0    0  0.00000000000E+00  0.00000000000E+00  0.27196672171E+02  0.13997007295E+04  0.13994364842E+04 0.  0.
        4    1    3    3  502    0  0.17812983515E+03  0.30629828866E+03 -0.58988540215E+03  0.68812446576E+03  0.12699999809E+01 0.  1.
       -4    1    3    3    0  502 -0.17812983515E+03 -0.30629828866E+03  0.61708207432E+03  0.71157626377E+03  0.12699999809E+01 0. -1.
</event>
<event>
 5   0  0.2316714E-05  0.1399837E+04  0.7818609E-02  0.8953937E-01
        1   -1    0    0  501    0  0.00000000000E+00  0.00000000000E+00  0.64491614153E+03  0.64491614155E+03  0.50400001928E-02 0.  1.
       -1   -1    0    0    0  501  0.00000000000E+00  0.00000000000E+00 -0.75961137697E+03  0.75961137699E+03  0.50400001928E-02 0. -1.
    10030    2    1    2    0    0  0.00000000000E+00  0.00000000000E+00 -0.11469523544E+03  0.14045275185E+04  0.13998366166E+04 0.  0.
        5    1    3    3  502    0  0.33817048413E+02  0.50311711787E+03 -0.54435349917E+03  0.74203318600E+03  0.46999998093E+01 0. -1.
       -5    1    3    3    0  502 -0.33817048413E+02 -0.50311711787E+03  0.42965826373E+03  0.66249433254E+03  0.46999998093E+01 0.  1.
</event>
<event>
 5   0  0.4621450E-05  0.1400101E+04  0.7818609E-02  0.8953745E-01
       -2   -1    0    0    0  501  0.00000000000E+00  0.00000000000E+00  0.32533047318E+03  0.32533047319E+03  0.25500000920E-02 0.  1.
        2   -1    0    0  501    0  0.00000000000E+00  0.00000000000E+00 -0.15063779925E+04  0.15063779925E+04  0.25500000920E-02 0. -1.
    10030    2    1    2    0    0  0.00000000000E+00  0.00000000000E+00 -0.11810475193E+04  0.18317084657E+04  0.14001009465E+04 0.  0.
        5    1    3    3  502    0 -0.33560104829E+03  0.44418992649E+03 -0.35293746456E+02  0.55785346906E+03  0.46999998093E+01 0.  1.
       -5    1    3    3    0  502  0.33560104829E+03 -0.44418992649E+03 -0.11457537729E+04  0.12738549966E+04  0.46999998093E+01 0. -1.
</event>
<event>
 5   0  0.2316714E-05  0.1400207E+04  0.7818609E-02  0.8953669E-01
        1   -1    0    0  501    0  0.00000000000E+00  0.00000000000E+00  0.11064600041E+04  0.11064600041E+04  0.50400001928E-02 0.  1.
       -1   -1    0    0    0  501  0.00000000000E+00  0.00000000000E+00 -0.44298446181E+03  0.44298446184E+03  0.50400001928E-02 0. -1.
    10030    2    1    2    0    0  0.00000000000E+00  0.00000000000E+00  0.66347554229E+03  0.15494444659E+04  0.14002065411E+04 0.  0.
        5    1    3    3  502    0  0.55568415254E+03 -0.33882719842E+03  0.46304286494E+02  0.65249898446E+03  0.46999998093E+01 0. -1.
       -5    1    3    3    0  502 -0.55568415254E+03  0.33882719842E+03  0.61717125579E+03  0.89694548148E+03  0.46999998093E+01 0.  1.
</event>
<event>
 5   0  0.2467303E-05  0.1399952E+04  0.7818609E-02  0.8953853E-01
        1   -1    0    0  501    0  0.00000000000E+00  0.00000000000E+00  0.17165504558E+04  0.17165504559E+04  0.50400001928E-02 0.  1.
       -1   -1    0    0    0  501  0.00000000000E+00  0.00000000000E+00 -0.28543675103E+03  0.28543675108E+03  0.50400001928E-02 0. -1.
    10030    2    1    2    0    0  0.00000000000E+00  0.00000000000E+00  0.14311137048E+04  0.20019872069E+04  0.13999522637E+04 0.  0.
        3    1    3    3  502    0  0.35820120385E+03 -0.44036068885E+02 -0.14213234247E+03  0.38787741721E+03  0.10100000352E+00 0. -1.
       -3    1    3    3    0  502 -0.35820120385E+03  0.44036068885E+02  0.15732460473E+04  0.16141097897E+04  0.10100000352E+00 0.  1.
</event>
<event>
 5   0  0.4441253E-05  0.1397740E+04  0.7818609E-02  0.8955456E-01
       -2   -1    0    0    0  501  0.00000000000E+00  0.00000000000E+00  0.12338305706E+04  0.12338305706E+04  0.25500000920E-02 0.  1.
        2   -1    0    0  501    0  0.00000000000E+00  0.00000000000E+00 -0.39585593272E+03  0.39585593273E+03  0.25500000920E-02 0. -1.
    10030    2    1    2    0    0  0.00000000000E+00  0.00000000000E+00  0.83797463790E+03  0.16296865034E+04  0.13977398204E+04 0.  0.
        3    1    3    3  502    0  0.48341678159E+03 -0.18280388627E+03  0.96748948092E+03  0.10968796431E+04  0.10100000352E+00 0.  1.
       -3    1    3    3    0  502 -0.48341678159E+03  0.18280388627E+03 -0.12951484302E+03  0.53280686025E+03  0.10100000352E+00 0. -1.
</event>
<event>
 5   0  0.2427569E-05  0.1400818E+04  0.7818609E-02  0.8953227E-01
       -1   -1    0    0    0  501  0.00000000000E+00  0.00000000000E+00  0.81271844910E+03  0.81271844911E+03  0.50400001928E-02 0. -1.
        1   -1    0    0  501    0  0.00000000000E+00  0.00000000000E+00 -0.60361921233E+03  0.60361921235E+03  0.50400001928E-02 0.  1.
    10030    2    1    2    0    0  0.00000000000E+00  0.00000000000E+00  0.20909923677E+03  0.14163376615E+04  0.14008175757E+04 0.  0.
        1    1    3    3  502    0 -0.68638432544E+03  0.13666890500E+03  0.13261755677E+03  0.71231260566E+03  0.50400001928E-02 0. -1.
       -1    1    3    3    0  502  0.68638432544E+03 -0.13666890500E+03  0.76481680001E+02  0.70402505581E+03  0.50400001928E-02 0.  1.
</event>
<event>
 5   0  0.2428507E-05  0.1399976E+04  0.7818609E-02  0.8953836E-01
        1   -1    0    0  501    0  0.00000000000E+00  0.00000000000E+00  0.14359762082E+04  0.14359762082E+04  0.50400001928E-02 0. -1.
       -1   -1    0    0    0  501  0.00000000000E+00  0.00000000000E+00 -0.34121942283E+03  0.34121942287E+03  0.50400001928E-02 0.  1.
    10030    2    1    2    0    0  0.00000000000E+00  0.00000000000E+00  0.10947567854E+04  0.17771956311E+04  0.13999756755E+04 0.  0.
        4    1    3    3  502    0 -0.45658811348E+03  0.43552018064E+03  0.93206670772E+03  0.11255667433E+04  0.12699999809E+01 0. -1.
       -4    1    3    3    0  502  0.45658811348E+03 -0.43552018064E+03  0.16269007765E+03  0.65162888777E+03  0.12699999809E+01 0.  1.
</event>
<event>
 5   0  0.2316714E-05  0.1399757E+04  0.7818609E-02  0.8953995E-01
       -1   -1    0    0    0  501  0.00000000000E+00  0.00000000000E+00  0.40975890669E+03  0.40975890672E+03  0.50400001928E-02 0. -1.
        1   -1    0    0  501    0  0.00000000000E+00  0.00000000000E+00 -0.11954094362E+04  0.11954094362E+04  0.50400001928E-02 0.  1.
    10030    2    1    2    0    0  0.00000000000E+00  0.00000000000E+00 -0.78565052951E+03  0.16051683429E+04  0.13997566412E+04 0.  0.
        5    1    3    3  502    0 -0.54670879787E+03  0.33530218476E+03 -0.71552541080E+02  0.64533705992E+03  0.46999998093E+01 0.  1.
       -5    1    3    3    0  502  0.54670879787E+03 -0.33530218476E+03 -0.71409798843E+03  0.95983128302E+03  0.46999998093E+01 0. -1.
</event>
<event>
 5   0  0.2428507E-05  0.1399120E+04  0.7818609E-02  0.8954456E-01
       -1   -1    0    0    0  501  0.00000000000E+00  0.00000000000E+00  0.69929582991E+03  0.69929582993E+03  0.50400001928E-02 0.  1.
        1   -1    0    0  501    0  0.00000000000E+00  0.00000000000E+00 -0.69982451905E+03  0.69982451907E+03  0.50400001928E-02 0. -1.
    10030    2    1    2    0    0  0.00000000000E+00  0.00000000000E+00 -0.52868913987E+00  0.13991203490E+04  0.13991202491E+04 0.  0.
        4    1    3    3  502    0 -0.40281928567E+01  0.30072691318E+03 -0.63187332905E+03  0.69979884218E+03  0.12699999809E+01 0. -1.
       -4    1    3    3    0  502  0.40281928567E+01 -0.30072691318E+03  0.63134463991E+03  0.69932150681E+03  0.12699999809E+01 0.  1.
</event>
<event>
 5   0  0.2427569E-05  0.1400183E+04  0.7818609E-02  0.8953686E-01
       -1   -1    0    0    0  501  0.00000000000E+00  0.00000000000E+00  0.45463744235E+03  0.45463744238E+03  0.50400001928E-02 0. -1.
        1   -1    0    0  501    0  0.00000000000E+00  0.00000000000E+00 -0.10780636948E+04  0.10780636948E+04  0.50400001928E-02 0.  1.
    10030    2    1    2    0    0  0.00000000000E+00  0.00000000000E+00 -0.62342625246E+03  0.15327011372E+04  0.14001830179E+04 0.  0.
        1    1    3    3  502    0  0.53048864091E+03 -0.44810650861E+03 -0.21435457917E+03  0.72674997546E+03  0.50400001928E-02 0. -1.
       -1    1    3    3    0  502 -0.53048864091E+03  0.44810650861E+03 -0.40907167329E+03  0.80595116174E+03  0.50400001928E-02 0.  1.
</event>
<event>
 5   0  0.4527503E-05  0.1399117E+04  0.7818609E-02  0.8954458E-01
       -2   -1    0    0    0  501  0.00000000000E+00  0.00000000000E+00  0.33960397762E+03  0.33960397763E+03  0.25500000920E-02 0. -1.
        2   -1    0    0  501    0  0.00000000000E+00  0.00000000000E+00 -0.14410367027E+04  0.14410367027E+04  0.25500000920E-02 0.  1.
    10030    2    1    2    0    0  0.00000000000E+00  0.00000000000E+00 -0.11014327251E+04  0.17806406803E+04  0.13991165729E+04 0.  0.
        4    1    3    3  502    0 -0.16050846336E+03 -0.68003635406E+03 -0.59420759502E+03  0.91722226780E+03  0.12699999809E+01 0. -1.
       -4    1    3    3    0  502  0.16050846336E+03  0.68003635406E+03 -0.50722513007E+03  0.86341841255E+03  0.12699999809E+01 0.  1.
</event>
<event>
 5   0  0.2428507E-05  0.1399650E+04  0.7818609E-02  0.8954072E-01
        1   -1    0    0  501    0  0.00000000000E+00  0.00000000000E+00  0.80621189284E+03  0.80621189286E+03  0.50400001928E-02 0.  1.
       -1   -1    0    0    0  501  0.00000000000E+00  0.00000000000E+00 -0.60747657630E+03  0.60747657632E+03  0.50400001928E-02 0. -1.
    10030    2    1    2    0    0  0.00000000000E+00  0.00000000000E+00  0.19873531654E+03  0.14136884692E+04  0.13996497283E+04 0.  0.
        4    1    3    3  502    0  0.57443078083E+03 -0.26612229841E+03 -0.20188800783E+03  0.66449392795E+03  0.12699999809E+01 0. -1.
       -4    1    3    3    0  502 -0.57443078083E+03  0.26612229841E+03  0.40062332437E+03  0.74919454123E+03  0.12699999809E+01 0.  1.
</event>
<event>
 5   0  0.2427569E-05  0.1399973E+04  0.7818609E-02  0.8953838E-01
       -1   -1    0    0    0  501  0.00000000000E+00  0.00000000000E+00  0.33517519867E+03  0.33517519871E+03  0.50400001928E-02 0. -1.
        1   -1    0    0  501    0  0.00000000000E+00  0.00000000000E+00 -0.14618649515E+04  0.14618649515E+04  0.50400001928E-02 0.  1.
    10030    2    1    2    0    0  0.00000000000E+00  0.00000000000E+00 -0.11266897528E+04  0.17970401502E+04  0.13999726791E+04 0.  0.
        1    1    3    3  502    0 -0.41212010670E+03 -0.14875302957E+03 -0.12640801050E+04  0.13378598425E+04  0.50400001928E-02 0.  1.
       -1    1    3    3    0  502  0.41212010670E+03  0.14875302957E+03  0.13739035216E+03  0.45918030777E+03  0.50400001928E-02 0. -1.
</event>
<event>
 5   0  0.2467303E-05  0.1400309E+04  0.7818609E-02  0.8953595E-01
        1   -1    0    0  501    0  0.00000000000E+00  0.00000000000E+00  0.17101341592E+04  0.17101341592E+04  0.50400001928E-02 0. -1.
       -1   -1    0    0    0  501  0.00000000000E+00  0.00000000000E+00 -0.28665381250E+03  0.28665381254E+03  0.50400001928E-02 0.  1.
    10030    2    1    2    0    0  0.00000000000E+00  0.00000000000E+00  0.14234803467E+04  0.19967879717E+04  0.14003092182E+04 0.  0.
        3    1    3    3  502    0  0.35425123459E+03 -0.52704064996E+03  0.29126098825E+03  0.69864064969E+03  0.10100000352E+00 0.  1.
       -3    1    3    3    0  502 -0.35425123459E+03  0.52704064996E+03  0.11322193584E+04  0.12981473220E+04  0.10100000352E+00 0. -1.
</event>
<event>
 5   0  0.2467303E-05  0.1400051E+04  0.7818609E-02  0.8953782E-01
        1   -1    0    0  501    0  0.00000000000E+00  0.00000000000E+00  0.12824878072E+04  0.12824878072E+04  0.50400001928E-02 0. -1.
       -1   -1    0    0    0  501  0.00000000000E+00  0.00000000000E+00 -0.38209771353E+03  0.38209771356E+03  0.50400001928E-02 0.  1.
    10030    2    1    2    0    0  0.00000000000E+00  0.00000000000E+00  0.90039009364E+03  0.16645855207E+04  0.14000509402E+04 0.  0.
        3    1    3    3  502    0 -0.48821435972E+02 -0.40425476523E+03  0.11271955753E+04  0.11984887663E+04  0.10100000352E+00 0. -1.
       -3    1    3    3    0  502  0.48821435972E+02  0.40425476523E+03 -0.22680548162E+03  0.46609675446E+03  0.10100000352E+00 0.  1.
</event>
<event>
 5   0  0.4527503E-05  0.1400587E+04  0.7818609E-02  0.8953394E-01
       -2   -1    0    0    0  501  0.00000000000E+00  0.00000000000E+00  0.33129203963E+03  0.33129203964E+03  0.25500000920E-02 0. -1.
        2   -1    0    0  501    0  0.00000000000E+00  0.00000000000E+00 -0.14802974729E+04  0.14802974729E+04  0.25500000920E-02 0.  1.
    10030    2    1    2    0    0  0.00000000000E+00  0.00000000000E+00 -0.11490054332E+04  0.18115895125E+04  0.14005866900E+04 0.  0.
        4    1    3    3  502    0  0.59414225826E+03  0.28270593573E+03 -0.88461130938E+03  0.11024819503E+04  0.12699999809E+01 0.  1.
       -4    1    3    3    0  502 -0.59414225826E+03 -0.28270593573E+03 -0.26439412384E+03  0.70910756220E+03  0.12699999809E+01 0. -1.
</event>
<event>
 5   0  0.2363419E-05  0.1398198E+04  0.7818609E-02  0.8955124E-01
       -1   -1    0    0    0  501  0.00000000000E+00  0.00000000000E+00  0.50345603974E+03  0.50345603977E+03  0.50400001928E-02 0. -1.
        1   -1    0    0  501    0  0.00000000000E+00  0.00000000000E+00 -0.97076814677E+03  0.97076814678E+03  0.50400001928E-02 0.  1.
    10030    2    1    2    0    0  0.00000000000E+00  0.00000000000E+00 -0.46731210703E+03  0.14742241866E+04  0.13981975350E+04 0.  0.
        2    1    3    3  502    0 -0.15074775431E+03 -0.51030757247E+02 -0.95141353850E+03  0.96463295863E+03  0.25500000920E-02 0.  1.
       -2    1    3    3    0  502  0.15074775431E+03  0.51030757247E+02  0.48410143148E+03  0.50959122792E+03  0.25500000920E-02 0. -1.
</event>
<event>
 5   0  0.2428507E-05  0.1400139E+04  0.7818609E-02  0.8953718E-01
        1   -1    0    0  501    0  0.00000000000E+00  0.00000000000E+00  0.10436040261E+04  0.10436040261E+04  0.50400001928E-02 0.  1.
       -1   -1    0    0    0  501  0.00000000000E+00  0.00000000000E+00 -0.46962023409E+03  0.46962023412E+03  0.50400001928E-02 0. -1.
    10030    2    1    2    0    0  0.00000000000E+00  0.00000000000E+00  0.57398379202E+03  0.15132242603E+04  0.14001393746E+04 0.  0.
        4    1    3    3  502    0 -0.12595322052E+03 -0.29013162504E+03 -0.38799472223E+03  0.50058175255E+03  0.12699999809E+01 0. -1.
       -4    1    3    3    0  502  0.12595322052E+03  0.29013162504E+03  0.96197851426E+03  0.10126425077E+04  0.12699999809E+01 0.  1.
</event>
<event>
 5   0  0.4527503E-05  0.1399290E+04  0.7818609E-02  0.8954332E-01
        2   -1    0    0  501    0  0.00000000000E+00  0.00000000000E+00  0.50633046559E+03  0.50633046559E+03  0.25500000920E-02 0.  1.
       -2   -1    0    0    0  501  0.00000000000E+00  0.00000000000E+00 -0.96676673655E+03  0.96676673656E+03  0.25500000920E-02 0. -1.
    10030    2    1    2    0    0  0.00000000000E+00  0.00000000000E+00 -0.46043627097E+03  0.14730972022E+04  0.13992904657E+04 0.  0.
        4    1    3    3  502    0 -0.26146173373E+03 -0.28392322658E+03 -0.84454489715E+03  0.92856466280E+03  0.12699999809E+01 0. -1.
       -4    1    3    3    0  502  0.26146173373E+03  0.28392322658E+03  0.38410862619E+03  0.54453253935E+03  0.12699999809E+01 0.  1.
</event>
<event>
 5   0  0.4621450E-05  0.1400369E+04  0.7818609E-02  0.8953552E-01
        2   -1    0    0  501    0  0.00000000000E+00  0.00000000000E+00  0.54704566129E+03  0.54704566129E+03  0.25500000920E-02 0.  1.
       -2   -1    0    0    0  501  0.00000000000E+00  0.00000000000E+00 -0.89619230557E+03  0.89619230558E+03  0.25500000920E-02 0. -1.
    10030    2    1    2    0    0  0.00000000000E+00  0.00000000000E+00 -0.34914664429E+03  0.14432379669E+04  0.14003686835E+04 0.  0.
        5    1    3    3  502    0 -0.26940356856E+03 -0.45245840077E+03  0.30100636648E+03  0.60656723439E+03  0.46999998093E+01 0.  1.
       -5    1    3    3    0  502  0.26940356856E+03  0.45245840077E+03 -0.65015301077E+03  0.83667073248E+03  0.46999998093E+01 0. -1.
</event>
<event>
 5   0  0.2428507E-05  0.1400322E+04  0.7818609E-02  0.8953586E-01
        1   -1    0    0  501    0  0.00000000000E+00  0.00000000000E+00  0.12754304490E+04  0.12754304490E+04  0.50400001928E-02 0.  1.
       -1   -1    0    0    0  501  0.00000000000E+00  0.00000000000E+00 -0.38436053921E+03  0.38436053924E+03  0.50400001928E-02 0. -1.
    10030    2    1    2    0    0  0.00000000000E+00  0.00000000000E+00  0.89106990978E+03  0.16597909882E+04  0.14003215847E+04 0.  0.
        4    1    3    3  502    0  0.66086687739E+03  0.20655589773E+03  0.32228073208E+03  0.76372563901E+03  0.12699999809E+01 0.  1.
       -4    1    3    3    0  502 -0.66086687739E+03 -0.20655589773E+03  0.56878917770E+03  0.89606534923E+03  0.12699999809E+01 0. -1.
</event>
<event>
 5   0  0.4527503E-05  0.1400155E+04  0.7818609E-02  0.8953707E-01
        2   -1    0    0  501    0  0.00000000000E+00  0.00000000000E+00  0.19365677523E+04  0.19365677523E+04  0.25500000920E-02 0.  1.
       -2   -1    0    0    0  501  0.00000000000E+00  0.00000000000E+00 -0.25308092463E+03  0.25308092464E+03  0.25500000920E-02 0. -1.
    10030    2    1    2    0    0  0.00000000000E+00  0.00000000000E+00  0.16834868276E+04  0.21896486769E+04  0.14001547877E+04 0.  0.
        4    1    3    3  502    0 -0.12625488028E+03  0.63700287329E+03  0.43275903378E+03  0.78038128475E+03  0.12699999809E+01 0. -1.
       -4    1    3    3    0  502  0.12625488028E+03 -0.63700287329E+03  0.12507277939E+04  0.14092673922E+04  0.12699999809E+01 0.  1.
</event>
<event>
 5   0  0.4441253E-05  0.1400330E+04  0.7818609E-02  0.8953580E-01
        2   -1    0    0  501    0  0.00000000000E+00  0.00000000000E+00  0.94255145905E+03  0.94255145905E+03  0.25500000920E-02 0.  1.
       -2   -1    0    0    0  501  0.00000000000E+00  0.00000000000E+00 -0.52011043423E+03  0.52011043423E+03  0.25500000920E-02 0. -1.
    10030    2    1    2    0    0  0.00000000000E+00  0.00000000000E+00  0.42244102482E+03  0.14626618933E+04  0.14003297450E+04 0.  0.
        3    1    3    3  502    0 -0.69536984060E+03  0.15193090308E+02  0.29517744332E+03  0.75557910139E+03  0.10100000352E+00 0. -1.
       -3    1    3    3    0  502  0.69536984060E+03 -0.15193090308E+02  0.12726358151E+03  0.70708279189E+03  0.10100000352E+00 0.  1.
</event>
<event>
 5   0  0.2316714E-05  0.1400083E+04  0.7818609E-02  0.8953758E-01
        1   -1    0    0  501    0  0.00000000000E+00  0.00000000000E+00  0.84073978329E+03  0.84073978330E+03  0.50400001928E-02 0.  1.
       -1   -1    0    0    0  501  0.00000000000E+00  0.00000000000E+00 -0.58288913479E+03  0.58288913481E+03  0.50400001928E-02 0. -1.
    10030    2    1    2    0    0  0.00000000000E+00  0.00000000000E+00  0.25785064850E+03  0.14236289181E+04  0.14000829759E+04 0.  0.
        5    1    3    3  502    0  0.27743274944E+03 -0.10957556281E+01 -0.52458534040E+03  0.59344924004E+03  0.46999998093E+01 0. -1.
       -5    1    3    3    0  502 -0.27743274944E+03  0.10957556281E+01  0.78243598890E+03  0.83017967807E+03  0.46999998093E+01 0.  1.
</event>
<event>
 5   0  0.4243281E-05  0.1400513E+04  0.7818609E-02  0.8953448E-01
        2   -1    0    0  501    0  0.00000000000E+00  0.00000000000E+00  0.81766214498E+03  0.81766214498E+03  0.25500000920E-02 0.  1.
       -2   -1    0    0    0  501  0.00000000000E+00  0.00000000000E+00 -0.59970840896E+03  0.59970840896E+03  0.25500000920E-02 0. -1.
    10030    2    1    2    0    0  0.00000000000E+00  0.00000000000E+00  0.21795373602E+03  0.14173705539E+04  0.14005125691E+04 0.  0.
        2    1    3    3  502    0  0.34282694925E+02  0.14747933779E+03  0.80089748044E+03  0.81508418733E+03  0.25500000920E-02 0.  1.
       -2    1    3    3    0  502 -0.34282694925E+02 -0.14747933779E+03 -0.58294374442E+03  0.60228636662E+03  0.25500000920E-02 0. -1.
</event>
<event>
 5   0  0.2316714E-05  0.1402597E+04  0.7818609E-02  0.8951941E-01
        1   -1    0    0  501    0  0.00000000000E+00  0.00000000000E+00  0.10257611336E+04  0.10257611336E+04  0.50400001928E-02 0.  1.
       -1   -1    0    0    0  501  0.00000000000E+00  0.00000000000E+00 -0.47946770614E+03  0.47946770617E+03  0.50400001928E-02 0. -1.
    10030    2    1    2    0    0  0.00000000000E+00  0.00000000000E+00  0.54629342744E+03  0.15052288398E+04  0.14025966459E+04 0.  0.
        5    1    3    3  502    0 -0.38434725776E+03 -0.47006359961E+03 -0.10340497034E+03  0.61595233591E+03  0.46999998093E+01 0. -1.
       -5    1    3    3    0  502  0.38434725776E+03  0.47006359961E+03  0.64969839778E+03  0.88927650385E+03  0.46999998093E+01 0.  1.
</event>
<event>
 5   0  0.4243281E-05  0.1400466E+04  0.7818609E-02  0.8953481E-01
       -2   -1    0    0    0  501  0.00000000000E+00  0.00000000000E+00  0.52687681536E+03  0.52687681537E+03  0.25500000920E-02 0.  1.
        2   -1    0    0  501    0  0.00000000000E+00  0.00000000000E+00 -0.93062818028E+03  0.93062818029E+03  0.25500000920E-02 0. -1.
    10030    2    1    2    0    0  0.00000000000E+00  0.00000000000E+00 -0.40375136492E+03  0.14575049957E+04  0.14004662251E+04 0.  0.
        2    1    3    3  502    0 -0.55060362535E+03 -0.14565769324E+03 -0.62583157006E+03  0.84619481795E+03  0.25500000920E-02 0. -1.
       -2    1    3    3    0  502  0.55060362535E+03  0.14565769324E+03  0.22208020514E+03  0.61131017770E+03  0.25500000920E-02 0.  1.
</event>
<event>
 5   0  0.2467303E-05  0.1400276E+04  0.7818609E-02  0.8953619E-01
        1   -1    0    0  501    0  0.00000000000E+00  0.00000000000E+00  0.54978173181E+03  0.54978173183E+03  0.50400001928E-02 0.  1.
       -1   -1    0    0    0  501  0.00000000000E+00  0.00000000000E+00 -0.89161459043E+03  0.89161459044E+03  0.50400001928E-02 0. -1.
    10030    2    1    2    0    0  0.00000000000E+00  0.00000000000E+00 -0.34183285862E+03  0.14413963223E+04  0.14002762780E+04 0.  0.
        3    1    3    3  502    0 -0.23183558712E+03 -0.35436003339E+03  0.40301805450E+03  0.58458732040E+03  0.10100000352E+00 0.  1.
       -3    1    3    3    0  502  0.23183558712E+03  0.35436003339E+03 -0.74485091312E+03  0.85680900187E+03  0.10100000352E+00 0. -1.
</event>
<event>
 5   0  0.4441253E-05  0.1400348E+04  0.7818609E-02  0.8953566E-01
       -2   -1    0    0    0  501  0.00000000000E+00  0.00000000000E+00  0.32740130043E+03  0.32740130044E+03  0.25500000920E-02 0.  1.
        2   -1    0    0  501    0  0.00000000000E+00  0.00000000000E+00 -0.14973792791E+04  0.14973792791E+04  0.25500000920E-02 0. -1.
    10030    2    1    2    0    0  0.00000000000E+00  0.00000000000E+00 -0.11699779786E+04  0.18247805795E+04  0.14003484184E+04 0.  0.
        3    1    3    3  502    0 -0.29732562721E+03  0.59430562068E+03 -0.29759266430E+03  0.72812300020E+03  0.10100000352E+00 0. -1.
       -3    1    3    3    0  502  0.29732562721E+03 -0.59430562068E+03 -0.87238531434E+03  0.10966575793E+04  0.10100000352E+00 0.  1.
</event>
<event>
 5   0  0.2363419E-05  0.1400228E+04  0.7818609E-02  0.8953654E-01
        1   -1    0    0  501    0  0.00000000000E+00  0.00000000000E+00  0.68086453187E+03  0.68086453189E+03  0.50400001928E-02 0.  1.
       -1   -1    0    0    0  501  0.00000000000E+00  0.00000000000E+00 -0.71990727710E+03  0.71990727711E+03  0.50400001928E-02 0. -1.
    10030    2    1    2    0    0  0.00000000000E+00  0.00000000000E+00 -0.39042745225E+02  0.14007718090E+04  0.14002275976E+04 0.  0.
        2    1    3    3  502    0 -0.34352285011E+03 -0.58019546057E+03 -0.20807436125E+03  0.70564131173E+03  0.25500000920E-02 0. -1.
       -2    1    3    3    0  502  0.34352285011E+03  0.58019546057E+03  0.16903161603E+03  0.69513049727E+03  0.25500000920E-02 0.  1.
</event>
<event>
 5   0  0.2427569E-05  0.1399856E+04  0.7818609E-02  0.8953923E-01
       -1   -1    0    0    0  501  0.00000000000E+00  0.00000000000E+00  0.49131855995E+03  0.49131855998E+03  0.50400001928E-02 0. -1.
        1   -1    0    0  501    0  0.00000000000E+00  0.00000000000E+00 -0.99711105552E+03  0.99711105553E+03  0.50400001928E-02 0.  1.
    10030    2    1    2    0    0  0.00000000000E+00  0.00000000000E+00 -0.50579249557E+03  0.14884296155E+04  0.13998559468E+04 0.  0.
        1    1    3    3  502    0  0.55923329877E+03 -0.37721116750E+03 -0.45144393404E+03  0.81168452797E+03  0.50400001928E-02 0. -1.
       -1    1    3    3    0  502 -0.55923329877E+03  0.37721116750E+03 -0.54348561525E+02  0.67674508754E+03  0.50400001928E-02 0.  1.
</event>
<event>
 5   0  0.4243281E-05  0.1401057E+04  0.7818609E-02  0.8953054E-01
       -2   -1    0    0    0  501  0.00000000000E+00  0.00000000000E+00  0.54131276250E+03  0.54131276251E+03  0.25500000920E-02 0.  1.
        2   -1    0    0  501    0  0.00000000000E+00  0.00000000000E+00 -0.90657440188E+03  0.90657440188E+03  0.25500000920E-02 0. -1.
    10030    2    1    2    0    0  0.00000000000E+00  0.00000000000E+00 -0.36526163937E+03  0.14478871644E+04  0.14010571636E+04 0.  0.
        2    1    3    3  502    0 -0.22995210029E+03  0.50162450190E+03  0.26334337497E+03  0.61143670357E+03  0.25500000920E-02 0.  1.
       -2    1    3    3    0  502  0.22995210029E+03 -0.50162450190E+03 -0.62860501434E+03  0.83645046081E+03  0.25500000920E-02 0. -1.
</event>
<event>
 5   0  0.2467303E-05  0.1399164E+04  0.7818609E-02  0.8954424E-01
       -1   -1    0    0    0  501  0.00000000000E+00  0.00000000000E+00  0.81746376237E+03  0.81746376239E+03  0.50400001928E-02 0.  1.
        1   -1    0    0  501    0  0.00000000000E+00  0.00000000000E+00 -0.59869969985E+03  0.59869969987E+03  0.50400001928E-02 0. -1.
    10030    2    1    2    0    0  0.00000000000E+00  0.00000000000E+00  0.21876406252E+03  0.14161634623E+04  0.13991644781E+04 0.  0.
        3    1    3    3  502    0 -0.15823268645E+03 -0.52976734193E+03  0.54322033231E+03  0.77509958023E+03  0.10100000352E+00 0.  1.
       -3    1    3    3    0  502  0.15823268645E+03  0.52976734193E+03 -0.32445626979E+03  0.64106388203E+03  0.10100000352E+00 0. -1.
</event>
<event>
 5   0  0.4527503E-05  0.1400072E+04  0.7818609E-02  0.8953766E-01
       -2   -1    0    0    0  501  0.00000000000E+00  0.00000000000E+00  0.53425658796E+03  0.53425658797E+03  0.25500000920E-02 0. -1.
        2   -1    0    0  501    0  0.00000000000E+00  0.00000000000E+00 -0.91725703569E+03  0.91725703569E+03  0.25500000920E-02 0.  1.
    10030    2    1    2    0    0  0.00000000000E+00  0.00000000000E+00 -0.38300044772E+03  0.14515136237E+04  0.14000723041E+04 0.  0.
        4    1    3    3  502    0  0.20162422665E+03 -0.65195235117E+03 -0.35329443319E+03  0.76844828479E+03  0.12699999809E+01 0.  1.
       -4    1    3    3    0  502 -0.20162422665E+03  0.65195235117E+03 -0.29706014532E+02  0.68306533887E+03  0.12699999809E+01 0. -1.
</event>
<event>
 5   0  0.4441253E-05  0.1399511E+04  0.7818609E-02  0.8954173E-01
        2   -1    0    0  501    0  0.00000000000E+00  0.00000000000E+00  0.62847855154E+03  0.62847855155E+03  0.25500000920E-02 0. -1.
       -2   -1    0    0    0  501  0.00000000000E+00  0.00000000000E+00 -0.77911558862E+03  0.77911558863E+03  0.25500000920E-02 0.  1.
    10030    2    1    2    0    0  0.00000000000E+00  0.00000000000E+00 -0.15063703708E+03  0.14075941402E+04  0.13995105382E+04 0.  0.
        3    1    3    3  502    0 -0.37305431370E+03  0.25620481033E+02 -0.67020038550E+03  0.76745976894E+03  0.10100000352E+00 0.  1.
       -3    1    3    3    0  502  0.37305431370E+03 -0.25620481033E+02  0.51956334842E+03  0.64013437124E+03  0.10100000352E+00 0. -1.
</event>
<event>
 5   0  0.4621450E-05  0.1400002E+04  0.7818609E-02  0.8953817E-01
       -2   -1    0    0    0  501  0.00000000000E+00  0.00000000000E+00  0.47128481193E+03  0.47128481193E+03  0.25500000920E-02 0.  1.
        2   -1    0    0  501    0  0.00000000000E+00  0.00000000000E+00 -0.10397138291E+04  0.10397138291E+04  0.25500000920E-02 0. -1.
    10030    2    1    2    0    0  0.00000000000E+00  0.00000000000E+00 -0.56842901720E+03  0.15109986411E+04  0.14000019092E+04 0.  0.
        5    1    3    3  502    0  0.15072090975E+03 -0.62064146250E+03 -0.59339974102E+03  0.87181303056E+03  0.46999998093E+01 0. -1.
       -5    1    3    3    0  502 -0.15072090975E+03  0.62064146250E+03  0.24970723827E+02  0.63918561049E+03  0.46999998093E+01 0.  1.
</event>
<event>
 5   0  0.2428507E-05  0.1399670E+04  0.7818609E-02  0.8954058E-01
       -1   -1    0    0    0  501  0.00000000000E+00  0.00000000000E+00  0.41295982720E+03  0.41295982723E+03  0.50400001928E-02 0. -1.
        1   -1    0    0  501    0  0.00000000000E+00  0.00000000000E+00 -0.11859965235E+04  0.11859965235E+04  0.50400001928E-02 0.  1.
    10030    2    1    2    0    0  0.00000000000E+00  0.00000000000E+00 -0.77303669632E+03  0.15989563508E+04  0.13996698460E+04 0.  0.
        4    1    3    3  502    0 -0.48738448812E+03  0.48979544925E+03 -0.51333852296E+03  0.86079107420E+03  0.12699999809E+01 0.  1.
       -4    1    3    3    0  502  0.48738448812E+03 -0.48979544925E+03 -0.25969817336E+03  0.73816527655E+03  0.12699999809E+01 0. -1.
</event>
<event>
 5   0  0.2467303E-05  0.1400065E+04  0.7818609E-02  0.8953772E-01
        1   -1    0    0  501    0  0.00000000000E+00  0.00000000000E+00  0.98416120185E+03  0.98416120186E+03  0.50400001928E-02 0. -1.
       -1   -1    0    0    0  501  0.00000000000E+00  0.00000000000E+00 -0.49793193029E+03  0.49793193031E+03  0.50400001928E-02 0.  1.
    10030    2    1    2    0    0  0.00000000000E+00  0.00000000000E+00  0.48622927156E+03  0.14820931322E+04  0.14000646942E+04 0.  0.
        3    1    3    3  502    0 -0.50354027327E+02  0.54621303938E+03 -0.21729379249E+03  0.59000069060E+03  0.10100000352E+00 0.  1.
       -3    1    3    3    0  502  0.50354027327E+02 -0.54621303938E+03  0.70352306405E+03  0.89209244157E+03  0.10100000352E+00 0. -1.
</event>
<event>
 5   0  0.2316714E-05  0.1399981E+04  0.7818609E-02  0.8953832E-01
       -1   -1    0    0    0  501  0.00000000000E+00  0.00000000000E+00  0.57407568891E+03  0.57407568893E+03  0.50400001928E-02 0. -1.
        1   -1    0    0  501    0  0.00000000000E+00  0.00000000000E+00 -0.85352275972E+03  0.85352275974E+03  0.50400001928E-02 0.  1.
    10030    2    1    2    0    0  0.00000000000E+00  0.00000000000E+00 -0.27944707081E+03  0.14275984487E+04  0.13999809518E+04 0.  0.
        5    1    3    3  502    0 -0.58282069074E+03 -0.35026207496E+02 -0.53341977826E+03  0.79086379523E+03  0.46999998093E+01 0.  1.
       -5    1    3    3    0  502  0.58282069074E+03  0.35026207496E+02  0.25397270745E+03  0.63673465344E+03  0.46999998093E+01 0. -1.
</event>
<event>
 5   0  0.4527503E-05  0.1399559E+04  0.7818609E-02  0.8954138E-01
       -2   -1    0    0    0  501  0.00000000000E+00  0.00000000000E+00  0.62241075638E+03  0.62241075638E+03  0.25500000920E-02 0.  1.
        2   -1    0    0  501    0  0.00000000000E+00  0.00000000000E+00 -0.78676507666E+03  0.78676507666E+03  0.25500000920E-02 0. -1.
    10030    2    1    2    0    0  0.00000000000E+00  0.00000000000E+00 -0.16435432028E+03  0.14091758330E+04  0.13995585682E+04 0.  0.
        4    1    3    3  502    0 -0.42662796800E+03  0.28228444381E+03 -0.56294492972E+03  0.76066059257E+03  0.12699999809E+01 0. -1.
       -4    1    3    3    0  502  0.42662796800E+03 -0.28228444381E+03  0.39859060944E+03  0.64851524047E+03  0.12699999809E+01 0.  1.
</event>
<event>
 5   0  0.4460282E-05  0.1400167E+04  0.7818609E-02  0.8953698E-01
       -2   -1    0    0    0  501  0.00000000000E+00  0.00000000000E+00  0.80695451234E+03  0.80695451235E+03  0.25500000920E-02 0. -1.
        2   -1    0    0  501    0  0.00000000000E+00  0.00000000000E+00 -0.60736632884E+03  0.60736632885E+03  0.25500000920E-02 0.  1.
    10030    2    1    2    0    0  0.00000000000E+00  0.00000000000E+00  0.19958818350E+03  0.14143208412E+04  0.14001671325E+04 0.  0.
        1    1    3    3  502    0 -0.60472126950E+03 -0.22972327009E+02 -0.25576048306E+03  0.65698475348E+03  0.50400001928E-02 0.  1.
       -1    1    3    3    0  502  0.60472126950E+03  0.22972327009E+02  0.45534866656E+03  0.75733608771E+03  0.50400001928E-02 0. -1.
</event>
<event>
 5   0  0.4621450E-05  0.1399993E+04  0.7818609E-02  0.8953824E-01
       -2   -1    0    0    0  501  0.00000000000E+00  0.00000000000E+00  0.69220625260E+03  0.69220625260E+03  0.25500000920E-02 0. -1.
        2   -1    0    0  501    0  0.00000000000E+00  0.00000000000E+00 -0.70787428207E+03  0.70787428207E+03  0.25500000920E-02 0.  1.
    10030    2    1    2    0    0  0.00000000000E+00  0.00000000000E+00 -0.15668029471E+02  0.14000805347E+04  0.13999928630E+04 0.  0.
        5    1    3    3  502    0  0.16882425911E+03  0.47398142762E+03  0.47883070629E+03  0.69459409692E+03  0.46999998093E+01 0. -1.
       -5    1    3    3    0  502 -0.16882425911E+03 -0.47398142762E+03 -0.49449873576E+03  0.70548643775E+03  0.46999998093E+01 0.  1.
</event>
<event>
 5   0  0.4527503E-05  0.1399851E+04  0.7818609E-02  0.8953926E-01
       -2   -1    0    0    0  501  0.00000000000E+00  0.00000000000E+00  0.42587464837E+03  0.42587464838E+03  0.25500000920E-02 0. -1.
        2   -1    0    0  501    0  0.00000000000E+00  0.00000000000E+00 -0.11503288485E+04  0.11503288485E+04  0.25500000920E-02 0.  1.
    10030    2    1    2    0    0  0.00000000000E+00  0.00000000000E+00 -0.72445420008E+03  0.15762034968E+04  0.13998512690E+04 0.  0.
        4    1    3    3  502    0 -0.40983013245E+03 -0.15545252307E+03 -0.97665290134E+03  0.10705039593E+04  0.12699999809E+01 0.  1.
       -4    1    3    3    0  502  0.40983013245E+03  0.15545252307E+03  0.25219870126E+03  0.50569953749E+03  0.12699999809E+01 0. -1.
</event>
<event>
 5   0  0.4243281E-05  0.1399830E+04  0.7818609E-02  0.8953941E-01
        2   -1    0    0  501    0  0.00000000000E+00  0.00000000000E+00  0.19603164140E+04  0.19603164140E+04  0.25500000920E-02 0. -1.
       -2   -1    0    0    0  501  0.00000000000E+00  0.00000000000E+00 -0.24989900608E+03  0.24989900610E+03  0.25500000920E-02 0.  1.
    10030    2    1    2    0    0  0.00000000000E+00  0.00000000000E+00  0.17104174079E+04  0.22102154200E+04  0.13998301661E+04 0.  0.
        2    1    3    3  502    0 -0.64831710189E+03  0.12213302602E+03  0.48610136378E+03  0.81946694657E+03  0.25500000920E-02 0.  1.
       -2    1    3    3    0  502  0.64831710189E+03 -0.12213302602E+03  0.12243160441E+04  0.13907484735E+04  0.25500000920E-02 0. -1.
</event>
<event>
 5   0  0.4621450E-05  0.1400127E+04  0.7818609E-02  0.8953726E-01
       -2   -1    0    0    0  501  0.00000000000E+00  0.00000000000E+00  0.37625563519E+03  0.37625563520E+03  0.25500000920E-02 0.  1.
        2   -1    0    0  501    0  0.00000000000E+00  0.00000000000E+00 -0.13025427879E+04  0.13025427879E+04  0.25500000920E-02 0. -1.
    10030    2    1    2    0    0  0.00000000000E+00  0.00000000000E+00 -0.92628715271E+03  0.16787984231E+04  0.14001272286E+04 0.  0.
        5    1    3    3  502    0  0.19562232805E+03  0.48941587606E+03  0.89285288356E+02  0.53459325443E+03  0.46999998093E+01 0.  1.
       -5    1    3    3    0  502 -0.19562232805E+03 -0.48941587606E+03 -0.10155724411E+04  0.11442051687E+04  0.46999998093E+01 0. -1.
</event>
<event>
 5   0  0.4621450E-05  0.1405794E+04  0.7818609E-02  0.8949635E-01
       -2   -1    0    0    0  501  0.00000000000E+00  0.00000000000E+00  0.41948588730E+03  0.41948588731E+03  0.25500000920E-02 0. -1.
        2   -1    0    0  501    0  0.00000000000E+00  0.00000000000E+00 -0.11777856001E+04  0.11777856001E+04  0.25500000920E-02 0.  1.
    10030    2    1    2    0    0  0.00000000000E+00  0.00000000000E+00 -0.75829971280E+03  0.15972714874E+04  0.14057943484E+04 0.  0.
        5    1    3    3  502    0 -0.63147945126E+03  0.20420189622E+03 -0.11615411341E+03  0.67377932578E+03  0.46999998093E+01 0. -1.
       -5    1    3    3    0  502  0.63147945126E+03 -0.20420189622E+03 -0.64214559939E+03  0.92349216164E+03  0.46999998093E+01 0.  1.
</event>
<event>
 5   0  0.2363419E-05  0.1400261E+04  0.7818609E-02  0.8953629E-01
       -1   -1    0    0    0  501  0.00000000000E+00  0.00000000000E+00  0.29555381284E+03  0.29555381289E+03  0.50400001928E-02 0. -1.
        1   -1    0    0  501    0  0.00000000000E+00  0.00000000000E+00 -0.16585234751E+04  0.16585234751E+04  0.50400001928E-02 0.  1.
    10030    2    1    2    0    0  0.00000000000E+00  0.00000000000E+00 -0.13629696622E+04  0.19540772880E+04  0.14002613139E+04 0.  0.
        2    1    3    3  502    0  0.31317885184E+02  0.21918551722E+03  0.24541036191E+03  0.33052888926E+03  0.25500000920E-02 0. -1.
       -2    1    3    3    0  502 -0.31317885184E+02 -0.21918551722E+03 -0.16083800241E+04  0.16235483987E+04  0.25500000920E-02 0.  1.
</event>
<event>
 5   0  0.2363419E-05  0.1399968E+04  0.7818609E-02  0.8953842E-01
        1   -1    0    0  501    0  0.00000000000E+00  0.00000000000E+00  0.87978941142E+03  0.87978941143E+03  0.50400001928E-02 0.  1.
       -1   -1    0    0    0  501  0.00000000000E+00  0.00000000000E+00 -0.55692592910E+03  0.55692592912E+03  0.50400001928E-02 0. -1.
    10030    2    1    2    0    0  0.00000000000E+00  0.00000000000E+00  0.32286348232E+03  0.14367153406E+04  0.13999679073E+04 0.  0.
        2    1    3    3  502    0 -0.66788393341E+03  0.98660185667E+02  0.35114834931E+03  0.76099142175E+03  0.25500000920E-02 0. -1.
       -2    1    3    3    0  502  0.66788393341E+03 -0.98660185667E+02 -0.28284866993E+02  0.67572391881E+03  0.25500000920E-02 0.  1.
</event>
<event>
 5   0  0.1661000E-05  0.1399921E+04  0.7818609E-02  0.8953876E-01
       -4   -1    0    0    0  501  0.00000000000E+00  0.00000000000E+00  0.11392524534E+04  0.11392531613E+04  0.12699999809E+01 0. -1.
        4   -1    0    0  501    0  0.00000000000E+00  0.00000000000E+00 -0.43005611842E+03  0.43005799363E+03  0.12699999809E+01 0.  1.
    10030    2    1    2    0    0  0.00000000000E+00  0.00000000000E+00  0.70919633496E+03  0.15693111549E+04  0.13999207332E+04 0.  0.
        5    1    3    3  502    0  0.50257233003E+02  0.43978396080E+03  0.96241043353E+03  0.10593354777E+04  0.46999998093E+01 0. -1.
       -5    1    3    3    0  502 -0.50257233003E+02 -0.43978396080E+03 -0.25321409857E+03  0.50997567723E+03  0.46999998093E+01 0.  1.
</event>
<event>
 5   0  0.2316714E-05  0.1399930E+04  0.7818609E-02  0.8953869E-01
       -1   -1    0    0    0  501  0.00000000000E+00  0.00000000000E+00  0.54197192343E+03  0.54197192345E+03  0.50400001928E-02 0.  1.
        1   -1    0    0  501    0  0.00000000000E+00  0.00000000000E+00 -0.90401515459E+03  0.90401515461E+03  0.50400001928E-02 0. -1.
    10030    2    1    2    0    0  0.00000000000E+00  0.00000000000E+00 -0.36204323116E+03  0.14459870781E+04  0.13999297585E+04 0.  0.
        5    1    3    3  502    0 -0.17842324819E+03 -0.63290939101E+03 -0.42874445840E+03  0.78501786816E+03  0.46999998093E+01 0. -1.
       -5    1    3    3    0  502  0.17842324819E+03  0.63290939101E+03  0.66701227235E+02  0.66096920990E+03  0.46999998093E+01 0.  1.
</event>
<event>
 5   0  0.4441253E-05  0.1400150E+04  0.7818609E-02  0.8953710E-01
        2   -1    0    0  501    0  0.00000000000E+00  0.00000000000E+00  0.82652394697E+03  0.82652394698E+03  0.25500000920E-02 0.  1.
       -2   -1    0    0    0  501  0.00000000000E+00  0.00000000000E+00 -0.59297119888E+03  0.59297119889E+03  0.25500000920E-02 0. -1.
    10030    2    1    2    0    0  0.00000000000E+00  0.00000000000E+00  0.23355274809E+03  0.14194951459E+04  0.14001498431E+04 0.  0.
        3    1    3    3  502    0 -0.43958527220E+03 -0.45066488481E+03 -0.19367478726E+03  0.65866834094E+03  0.10100000352E+00 0. -1.
       -3    1    3    3    0  502  0.43958527220E+03  0.45066488481E+03  0.42722753535E+03  0.76082680493E+03  0.10100000352E+00 0.  1.
</event>
<event>
 5   0  0.2427569E-05  0.1399749E+04  0.7818609E-02  0.8954000E-01
        1   -1    0    0  501    0  0.00000000000E+00  0.00000000000E+00  0.91322403816E+03  0.91322403817E+03  0.50400001928E-02 0.  1.
       -1   -1    0    0    0  501  0.00000000000E+00  0.00000000000E+00 -0.53636819947E+03  0.53636819949E+03  0.50400001928E-02 0. -1.
    10030    2    1    2    0    0  0.00000000000E+00  0.00000000000E+00  0.37685583869E+03  0.14495922377E+04  0.13997490248E+04 0.  0.
        1    1    3    3  502    0 -0.64440400087E+03 -0.26847507717E+03  0.13676205042E+03  0.71136435239E+03  0.50400001928E-02 0. -1.
       -1    1    3    3    0  502  0.64440400087E+03  0.26847507717E+03  0.24009378828E+03  0.73822788527E+03  0.50400001928E-02 0.  1.
</event>
<event>
 5   0  0.2363419E-05  0.1400729E+04  0.7818609E-02  0.8953291E-01
       -1   -1    0    0    0  501  0.00000000000E+00  0.00000000000E+00  0.10482316257E+04  0.10482316257E+04  0.50400001928E-02 0.  1.
        1   -1    0    0  501    0  0.00000000000E+00  0.00000000000E+00 -0.46794121710E+03  0.46794121712E+03  0.50400001928E-02 0. -1.
    10030    2    1    2    0    0  0.00000000000E+00  0.00000000000E+00  0.58029040859E+03  0.15161728428E+04  0.14007294996E+04 0.  0.
        2    1    3    3  502    0  0.16943381641E+03  0.51088495627E+03 -0.19489281315E+03  0.57244603703E+03  0.25500000920E-02 0. -1.
       -2    1    3    3    0  502 -0.16943381641E+03 -0.51088495627E+03  0.77518322174E+03  0.94372680578E+03  0.25500000920E-02 0.  1.
</event>
<event>
 5   0  0.2316714E-05  0.1399987E+04  0.7818609E-02  0.8953828E-01
        1   -1    0    0  501    0  0.00000000000E+00  0.00000000000E+00  0.24232857406E+04  0.24232857406E+04  0.50400001928E-02 0. -1.
       -1   -1    0    0    0  501  0.00000000000E+00  0.00000000000E+00 -0.20220100895E+03  0.20220100901E+03  0.50400001928E-02 0.  1.
    10030    2    1    2    0    0  0.00000000000E+00  0.00000000000E+00  0.22210847317E+04  0.26254867496E+04  0.13999868882E+04 0.  0.
        5    1    3    3  502    0 -0.40651697373E+03  0.49077273945E+03  0.56747985085E+03  0.85332842613E+03  0.46999998093E+01 0.  1.
       -5    1    3    3    0  502  0.40651697373E+03 -0.49077273945E+03  0.16536048808E+04  0.17721583235E+04  0.46999998093E+01 0. -1.
</event>
<event>
 5   0  0.4243281E-05  0.1400249E+04  0.7818609E-02  0.8953638E-01
       -2   -1    0    0    0  501  0.00000000000E+00  0.00000000000E+00  0.37366294434E+03  0.37366294435E+03  0.25500000920E-02 0.  1.
        2   -1    0    0  501    0  0.00000000000E+00  0.00000000000E+00 -0.13118085610E+04  0.13118085610E+04  0.25500000920E-02 0. -1.
    10030    2    1    2    0    0  0.00000000000E+00  0.00000000000E+00 -0.93814561667E+03  0.16854715054E+04  0.14002489055E+04 0.  0.
        2    1    3    3  502    0 -0.27642494737E+02 -0.41494414864E+03  0.20888758348E+03  0.46537810063E+03  0.25500000920E-02 0.  1.
       -2    1    3    3    0  502  0.27642494737E+02  0.41494414864E+03 -0.11470332002E+04  0.12200934047E+04  0.25500000920E-02 0. -1.
</event>
<event>
 5   0  0.4527503E-05  0.1401249E+04  0.7818609E-02  0.8952915E-01
       -2   -1    0    0    0  501  0.00000000000E+00  0.00000000000E+00  0.20238602076E+03  0.20238602077E+03  0.25500000920E-02 0. -1.
        2   -1    0    0  501    0  0.00000000000E+00  0.00000000000E+00 -0.24254379419E+04  0.24254379419E+04  0.25500000920E-02 0.  1.
    10030    2    1    2    0    0  0.00000000000E+00  0.00000000000E+00 -0.22230519212E+04  0.26278239627E+04  0.14012490623E+04 0.  0.
        4    1    3    3  502    0  0.37717075401E+03  0.44080451495E+03 -0.37485532753E+03  0.69071305732E+03  0.12699999809E+01 0. -1.
       -4    1    3    3    0  502 -0.37717075401E+03 -0.44080451495E+03 -0.18481965937E+04  0.19371109054E+04  0.12699999809E+01 0.  1.
</event>
<event>
 5   0  0.2467303E-05  0.1399784E+04  0.7818609E-02  0.8953975E-01
        1   -1    0    0  501    0  0.00000000000E+00  0.00000000000E+00  0.10966145922E+04  0.10966145922E+04  0.50400001928E-02 0. -1.
       -1   -1    0    0    0  501  0.00000000000E+00  0.00000000000E+00 -0.44669205681E+03  0.44669205684E+03  0.50400001928E-02 0.  1.
    10030    2    1    2    0    0  0.00000000000E+00  0.00000000000E+00  0.64992253535E+03  0.15433066490E+04  0.13997843087E+04 0.  0.
        3    1    3    3  502    0 -0.19921798208E+03  0.31450796813E+03  0.97838780721E+03  0.10468265271E+04  0.10100000352E+00 0. -1.
       -3    1    3    3    0  502  0.19921798208E+03 -0.31450796813E+03 -0.32846527187E+03  0.49648012188E+03  0.10100000352E+00 0.  1.
</event>
<event>
 5   0  0.4243281E-05  0.1399019E+04  0.7818609E-02  0.8954529E-01
        2   -1    0    0  501    0  0.00000000000E+00  0.00000000000E+00  0.18015340331E+04  0.18015340331E+04  0.25500000920E-02 0. -1.
       -2   -1    0    0    0  501  0.00000000000E+00  0.00000000000E+00 -0.27160943338E+03  0.27160943339E+03  0.25500000920E-02 0.  1.
    10030    2    1    2    0    0  0.00000000000E+00  0.00000000000E+00  0.15299245998E+04  0.20731434665E+04  0.13990191392E+04 0.  0.
        2    1    3    3  502    0 -0.20240992257E+03  0.15979849960E+02 -0.22698272428E+03  0.30454275478E+03  0.25500000920E-02 0.  1.
       -2    1    3    3    0  502  0.20240992257E+03 -0.15979849960E+02  0.17569073240E+04  0.17686007118E+04  0.25500000920E-02 0. -1.
</event>
<event>
 5   0  0.2316714E-05  0.1400063E+04  0.7818609E-02  0.8953773E-01
        1   -1    0    0  501    0  0.00000000000E+00  0.00000000000E+00  0.67604658831E+03  0.67604658833E+03  0.50400001928E-02 0. -1.
       -1   -1    0    0    0  501  0.00000000000E+00  0.00000000000E+00 -0.72486772052E+03  0.72486772054E+03  0.50400001928E-02 0.  1.
    10030    2    1    2    0    0  0.00000000000E+00  0.00000000000E+00 -0.48821132208E+02  0.14009143089E+04  0.14000633549E+04 0.  0.
        5    1    3    3  502    0 -0.55435971585E+03 -0.38013248879E+03 -0.21999511045E+03  0.70727317368E+03  0.46999998093E+01 0. -1.
       -5    1    3    3    0  502  0.55435971585E+03  0.38013248879E+03  0.17117397824E+03  0.69364113518E+03  0.46999998093E+01 0.  1.
</event>
<event>
 5   0  0.1661000E-05  0.1399722E+04  0.7818609E-02  0.8954020E-01
       -3   -1    0    0    0  501  0.00000000000E+00  0.00000000000E+00  0.11669596251E+04  0.11669596295E+04  0.10100000352E+00 0.  1.
        3   -1    0    0  501    0  0.00000000000E+00  0.00000000000E+00 -0.41972799362E+03  0.41972800577E+03  0.10100000352E+00 0. -1.
    10030    2    1    2    0    0  0.00000000000E+00  0.00000000000E+00  0.74723163149E+03  0.15866876352E+04  0.13997223084E+04 0.  0.
        3    1    3    3  502    0 -0.28984133871E+03 -0.12772887522E+03 -0.33383097820E+03  0.46018018145E+03  0.10100000352E+00 0. -1.
       -3    1    3    3    0  502  0.28984133871E+03  0.12772887522E+03  0.10810626097E+04  0.11265074538E+04  0.10100000352E+00 0.  1.
</event>
<event>
 5   0  0.2428507E-05  0.1404020E+04  0.7818609E-02  0.8950913E-01
       -1   -1    0    0    0  501  0.00000000000E+00  0.00000000000E+00  0.58269553859E+03  0.58269553861E+03  0.50400001928E-02 0.  1.
        1   -1    0    0  501    0  0.00000000000E+00  0.00000000000E+00 -0.84575621036E+03  0.84575621038E+03  0.50400001928E-02 0. -1.
    10030    2    1    2    0    0  0.00000000000E+00  0.00000000000E+00 -0.26306067177E+03  0.14284517490E+04  0.14040204707E+04 0.  0.
        4    1    3    3  502    0 -0.63555929712E+03  0.29809749320E+03 -0.12709301730E+03  0.71340870723E+03  0.12699999809E+01 0.  1.
       -4    1    3    3    0  502  0.63555929712E+03 -0.29809749320E+03 -0.13596765447E+03  0.71504304176E+03  0.12699999809E+01 0. -1.
</event>
<event>
 5   0  0.2363419E-05  0.1400222E+04  0.7818609E-02  0.8953658E-01
        1   -1    0    0  501    0  0.00000000000E+00  0.00000000000E+00  0.71179592611E+03  0.71179592613E+03  0.50400001928E-02 0. -1.
       -1   -1    0    0    0  501  0.00000000000E+00  0.00000000000E+00 -0.68861770927E+03  0.68861770929E+03  0.50400001928E-02 0.  1.
    10030    2    1    2    0    0  0.00000000000E+00  0.00000000000E+00  0.23178216835E+02  0.14004136354E+04  0.14002218112E+04 0.  0.
        2    1    3    3  502    0 -0.47054961417E+03 -0.31074961039E+02  0.52912757067E+03  0.70877258599E+03  0.25500000920E-02 0. -1.
       -2    1    3    3    0  502  0.47054961417E+03  0.31074961039E+02 -0.50594935384E+03  0.69164104943E+03  0.25500000920E-02 0.  1.
</event>
<event>
 5   0  0.2316714E-05  0.1400159E+04  0.7818609E-02  0.8953703E-01
        1   -1    0    0  501    0  0.00000000000E+00  0.00000000000E+00  0.64084262151E+03  0.64084262153E+03  0.50400001928E-02 0.  1.
       -1   -1    0    0    0  501  0.00000000000E+00  0.00000000000E+00 -0.76479198124E+03  0.76479198126E+03  0.50400001928E-02 0. -1.
    10030    2    1    2    0    0  0.00000000000E+00  0.00000000000E+00 -0.12394935973E+03  0.14056346028E+04  0.14001589884E+04 0.  0.
        5    1    3    3  502    0 -0.14952622912E+03 -0.25471180712E+03  0.57521450179E+03  0.64662973249E+03  0.46999998093E+01 0.  1.
       -5    1    3    3    0  502  0.14952622912E+03  0.25471180712E+03 -0.69916386152E+03  0.75900487030E+03  0.46999998093E+01 0. -1.
</event>
<event>
 5   0  0.2427569E-05  0.1402249E+04  0.7818609E-02  0.8952193E-01
       -1   -1    0    0    0  501  0.00000000000E+00  0.00000000000E+00  0.55191647659E+03  0.55191647661E+03  0.50400001928E-02 0. -1.
        1   -1    0    0  501    0  0.00000000000E+00  0.00000000000E+00 -0.89066958695E+03  0.89066958697E+03  0.50400001928E-02 0.  1.
    10030    2    1    2    0    0  0.00000000000E+00  0.00000000000E+00 -0.33875311036E+03  0.14425860636E+04  0.14022485090E+04 0.  0.
        1    1    3    3  502    0 -0.60393801885E+03 -0.18565800090E+03  0.14328243739E+03  0.64787335244E+03  0.50400001928E-02 0. -1.
       -1    1    3    3    0  502  0.60393801885E+03  0.18565800090E+03 -0.48203554775E+03  0.79471271114E+03  0.50400001928E-02 0.  1.
</event>
<event>
 5   0  0.4441253E-05  0.1400268E+04  0.7818609E-02  0.8953625E-01
        2   -1    0    0  501    0  0.00000000000E+00  0.00000000000E+00  0.14443534446E+04  0.14443534447E+04  0.25500000920E-02 0.  1.
       -2   -1    0    0    0  501  0.00000000000E+00  0.00000000000E+00 -0.33938189018E+03  0.33938189019E+03  0.25500000920E-02 0. -1.
    10030    2    1    2    0    0  0.00000000000E+00  0.00000000000E+00  0.11049715545E+04  0.17837353348E+04  0.14002676918E+04 0.  0.
        3    1    3    3  502    0 -0.26158873341E+03  0.57284342624E+03  0.16274265111E+03  0.65043326877E+03  0.10100000352E+00 0. -1.
       -3    1    3    3    0  502  0.26158873341E+03 -0.57284342624E+03  0.94222890336E+03  0.11333020661E+04  0.10100000352E+00 0.  1.
</event>
<event>
 5   0  0.4441253E-05  0.1399562E+04  0.7818609E-02  0.8954136E-01
       -2   -1    0    0    0  501  0.00000000000E+00  0.00000000000E+00  0.67525383161E+03  0.67525383161E+03  0.25500000920E-02 0. -1.
        2   -1    0    0  501    0  0.00000000000E+00  0.00000000000E+00 -0.72519919035E+03  0.72519919036E+03  0.25500000920E-02 0.  1.
    10030    2    1    2    0    0  0.00000000000E+00  0.00000000000E+00 -0.49945358745E+02  0.14004530220E+04  0.13995621201E+04 0.  0.
        3    1    3    3  502    0 -0.37656769454E+03  0.34941141883E+03 -0.50046139322E+03  0.71718420540E+03  0.10100000352E+00 0.  1.
       -3    1    3    3    0  502  0.37656769454E+03 -0.34941141883E+03  0.45051603447E+03  0.68326881657E+03  0.10100000352E+00 0. -1.
</event>
<event>
 5   0  0.2316714E-05  0.1400751E+04  0.7818609E-02  0.8953275E-01
       -1   -1    0    0    0  501  0.00000000000E+00  0.00000000000E+00  0.12736941117E+04  0.12736941117E+04  0.50400001928E-02 0. -1.
        1   -1    0    0  501    0  0.00000000000E+00  0.00000000000E+00 -0.38512074647E+03  0.38512074651E+03  0.50400001928E-02 0.  1.
    10030    2    1    2    0    0  0.00000000000E+00  0.00000000000E+00  0.88857336523E+03  0.16588148582E+04  0.14007512657E+04 0.  0.
        5    1    3    3  502    0  0.63166098115E+03 -0.15944403275E+03  0.13985388616E+03  0.66633264527E+03  0.46999998093E+01 0.  1.
       -5    1    3    3    0  502 -0.63166098115E+03  0.15944403275E+03  0.74871947907E+03  0.99248221295E+03  0.46999998093E+01 0. -1.
</event>
<event>
 5   0  0.2467303E-05  0.1400364E+04  0.7818609E-02  0.8953555E-01
       -1   -1    0    0    0  501  0.00000000000E+00  0.00000000000E+00  0.53850425293E+03  0.53850425295E+03  0.50400001928E-02 0. -1.
        1   -1    0    0  501    0  0.00000000000E+00  0.00000000000E+00 -0.91040133827E+03  0.91040133828E+03  0.50400001928E-02 0.  1.
    10030    2    1    2    0    0  0.00000000000E+00  0.00000000000E+00 -0.37189708534E+03  0.14489055912E+04  0.14003642277E+04 0.  0.
        3    1    3    3  502    0 -0.20078838650E+03 -0.28408831297E+03  0.44275982211E+03  0.56307940469E+03  0.10100000352E+00 0. -1.
       -3    1    3    3    0  502  0.20078838650E+03  0.28408831297E+03 -0.81465690744E+03  0.88582618654E+03  0.10100000352E+00 0.  1.
</event>
<event>
 5   0  0.2467303E-05  0.1399857E+04  0.7818609E-02  0.8953922E-01
        1   -1    0    0  501    0  0.00000000000E+00  0.00000000000E+00  0.49653701485E+03  0.49653701488E+03  0.50400001928E-02 0.  1.
       -1   -1    0    0    0  501  0.00000000000E+00  0.00000000000E+00 -0.98663334117E+03  0.98663334118E+03  0.50400001928E-02 0. -1.
    10030    2    1    2    0    0  0.00000000000E+00  0.00000000000E+00 -0.49009632631E+03  0.14831703561E+04  0.13998570984E+04 0.  0.
        3    1    3    3  502    0  0.48961600939E+03 -0.29777179083E+03 -0.67084699965E+03  0.88228543182E+03  0.10100000352E+00 0. -1.
       -3    1    3    3    0  502 -0.48961600939E+03  0.29777179083E+03  0.18075067334E+03  0.60088492424E+03  0.10100000352E+00 0.  1.
</event>
<event>
 5   0  0.4243281E-05  0.1399512E+04  0.7818609E-02  0.8954172E-01
       -2   -1    0    0    0  501  0.00000000000E+00  0.00000000000E+00  0.21158961556E+03  0.21158961557E+03  0.25500000920E-02 0. -1.
        2   -1    0    0  501    0  0.00000000000E+00  0.00000000000E+00 -0.23141882945E+04  0.23141882945E+04  0.25500000920E-02 0.  1.
    10030    2    1    2    0    0  0.00000000000E+00  0.00000000000E+00 -0.21025986789E+04  0.25257779101E+04  0.13995116457E+04 0.  0.
        2    1    3    3  502    0 -0.38924225379E+03 -0.56430154895E+03 -0.13046889771E+04  0.14738246494E+04  0.25500000920E-02 0. -1.
       -2    1    3    3    0  502  0.38924225379E+03  0.56430154895E+03 -0.79790970186E+03  0.10519532607E+04  0.25500000920E-02 0.  1.
</event>
<event>
 5   0  0.4243281E-05  0.1400352E+04  0.7818609E-02  0.8953564E-01
        2   -1    0    0  501    0  0.00000000000E+00  0.00000000000E+00  0.42933859023E+03  0.42933859024E+03  0.25500000920E-02 0.  1.
       -2   -1    0    0    0  501  0.00000000000E+00  0.00000000000E+00 -0.11418641124E+04  0.11418641124E+04  0.25500000920E-02 0. -1.
    10030    2    1    2    0    0  0.00000000000E+00  0.00000000000E+00 -0.71252552220E+03  0.15712027027E+04  0.14003518533E+04 0.  0.
        2    1    3    3  502    0 -0.61119537953E+03 -0.21773395172E+03 -0.60941871751E+02  0.65167612924E+03  0.25500000920E-02 0.  1.
       -2    1    3    3    0  502  0.61119537953E+03  0.21773395172E+03 -0.65158365045E+03  0.91952657342E+03  0.25500000920E-02 0. -1.
</event>
<event>
 5   0  0.2428507E-05  0.1397408E+04  0.7818609E-02  0.8955697E-01
        1   -1    0    0  501    0  0.00000000000E+00  0.00000000000E+00  0.52396157193E+03  0.52396157195E+03  0.50400001928E-02 0. -1.
       -1   -1    0    0    0  501  0.00000000000E+00  0.00000000000E+00 -0.93172286576E+03  0.93172286578E+03  0.50400001928E-02 0.  1.
    10030    2    1    2    0    0  0.00000000000E+00  0.00000000000E+00 -0.40776129383E+03  0.14556844377E+04  0.13974075674E+04 0.  0.
        4    1    3    3  502    0  0.51620449072E+03 -0.89415760710E+02 -0.68546225317E+03  0.86274119406E+03  0.12699999809E+01 0.  1.
       -4    1    3    3    0  502 -0.51620449072E+03  0.89415760710E+02  0.27770095934E+03  0.59294324367E+03  0.12699999809E+01 0. -1.
</event>
<event>
 5   0  0.4460282E-05  0.1408522E+04  0.7818609E-02  0.8947673E-01
       -2   -1    0    0    0  501  0.00000000000E+00  0.00000000000E+00  0.98837553133E+03  0.98837553134E+03  0.25500000920E-02 0. -1.
        2   -1    0    0  501    0  0.00000000000E+00  0.00000000000E+00 -0.50181669840E+03  0.50181669841E+03  0.25500000920E-02 0.  1.
    10030    2    1    2    0    0  0.00000000000E+00  0.00000000000E+00  0.48655883293E+03  0.14901922297E+04  0.14085217015E+04 0.  0.
        1    1    3    3  502    0  0.63774920967E+03  0.89286262529E+02 -0.58361311556E+02  0.64660817643E+03  0.50400001928E-02 0.  1.
       -1    1    3    3    0  502 -0.63774920967E+03 -0.89286262529E+02  0.54492014449E+03  0.84358405332E+03  0.50400001928E-02 0. -1.
</event>
<event>
 5   0  0.1661000E-05  0.1400238E+04  0.7818609E-02  0.8953646E-01
       -3   -1    0    0    0  501  0.00000000000E+00  0.00000000000E+00  0.35597823533E+03  0.35597824966E+03  0.10100000352E+00 0.  1.
        3   -1    0    0  501    0  0.00000000000E+00  0.00000000000E+00 -0.13769561757E+04  0.13769561794E+04  0.10100000352E+00 0. -1.
    10030    2    1    2    0    0  0.00000000000E+00  0.00000000000E+00 -0.10209779404E+04  0.17329344291E+04  0.14002377586E+04 0.  0.
        1    1    3    3  502    0 -0.25626093090E+03  0.18596150736E+03  0.26230793045E+03  0.41116517038E+03  0.50400001928E-02 0.  1.
       -1    1    3    3    0  502  0.25626093090E+03 -0.18596150736E+03 -0.12832858708E+04  0.13217692587E+04  0.50400001928E-02 0. -1.
</event>
<event>
 5   0  0.4621450E-05  0.1400421E+04  0.7818609E-02  0.8953514E-01
        2   -1    0    0  501    0  0.00000000000E+00  0.00000000000E+00  0.17206307089E+04  0.17206307089E+04  0.25500000920E-02 0. -1.
       -2   -1    0    0    0  501  0.00000000000E+00  0.00000000000E+00 -0.28495041410E+03  0.28495041411E+03  0.25500000920E-02 0.  1.
    10030    2    1    2    0    0  0.00000000000E+00  0.00000000000E+00  0.14356802948E+04  0.20055811230E+04  0.14004205554E+04 0.  0.
        5    1    3    3  502    0  0.34264693681E+03  0.13724615750E+03 -0.13428056493E+03  0.39280630236E+03  0.46999998093E+01 0.  1.
       -5    1    3    3    0  502 -0.34264693681E+03 -0.13724615750E+03  0.15699608597E+04  0.16127748206E+04  0.46999998093E+01 0. -1.
</event>
<event>
 5   0  0.4621450E-05  0.1401246E+04  0.7818609E-02  0.8952917E-01
        2   -1    0    0  501    0  0.00000000000E+00  0.00000000000E+00  0.75493045843E+03  0.75493045843E+03  0.25500000920E-02 0.  1.
       -2   -1    0    0    0  501  0.00000000000E+00  0.00000000000E+00 -0.65022203012E+03  0.65022203013E+03  0.25500000920E-02 0. -1.
    10030    2    1    2    0    0  0.00000000000E+00  0.00000000000E+00  0.10470842830E+03  0.14051524886E+04  0.14012457533E+04 0.  0.
        5    1    3    3  502    0 -0.16983711054E+03  0.64842553238E+03 -0.15205229173E+03  0.68734438572E+03  0.46999998093E+01 0. -1.
       -5    1    3    3    0  502  0.16983711054E+03 -0.64842553238E+03  0.25676072003E+03  0.71780810284E+03  0.46999998093E+01 0.  1.
</event>
<event>
 5   0  0.4243281E-05  0.1399797E+04  0.7818609E-02  0.8953966E-01
       -2   -1    0    0    0  501  0.00000000000E+00  0.00000000000E+00  0.70209056506E+03  0.70209056506E+03  0.25500000920E-02 0. -1.
        2   -1    0    0  501    0  0.00000000000E+00  0.00000000000E+00 -0.69771327553E+03  0.69771327553E+03  0.25500000920E-02 0.  1.
    10030    2    1    2    0    0  0.00000000000E+00  0.00000000000E+00  0.43772895341E+01  0.13998038406E+04  0.13997969965E+04 0.  0.
        2    1    3    3  502    0  0.64307329505E+03 -0.22575926887E+03 -0.15702079416E+03  0.69940406067E+03  0.25500000920E-02 0.  1.
       -2    1    3    3    0  502 -0.64307329505E+03  0.22575926887E+03  0.16139808369E+03  0.70039977992E+03  0.25500000920E-02 0. -1.
</event>
<event>
 5   0  0.2316714E-05  0.1400123E+04  0.7818609E-02  0.8953729E-01
       -1   -1    0    0    0  501  0.00000000000E+00  0.00000000000E+00  0.29347020593E+03  0.29347020597E+03  0.50400001928E-02 0.  1.
        1   -1    0    0  501    0  0.00000000000E+00  0.00000000000E+00 -0.16699693837E+04  0.16699693837E+04  0.50400001928E-02 0. -1.
    10030    2    1    2    0    0  0.00000000000E+00  0.00000000000E+00 -0.13764991778E+04  0.19634395897E+04  0.14001232217E+04 0.  0.
        5    1    3    3  502    0  0.74586554736E+02  0.38721815104E+03 -0.14993793132E+04  0.15503746210E+04  0.46999998093E+01 0. -1.
       -5    1    3    3    0  502 -0.74586554736E+02 -0.38721815104E+03  0.12288013544E+03  0.41306496865E+03  0.46999998093E+01 0.  1.
</event>
<event>
 5   0  0.4441253E-05  0.1399973E+04  0.7818609E-02  0.8953838E-01
        2   -1    0    0  501    0  0.00000000000E+00  0.00000000000E+00  0.79364190350E+03  0.79364190350E+03  0.25500000920E-02 0. -1.
       -2   -1    0    0    0  501  0.00000000000E+00  0.00000000000E+00 -0.61738301427E+03  0.61738301427E+03  0.25500000920E-02 0.  1.
    10030    2    1    2    0    0  0.00000000000E+00  0.00000000000E+00  0.17625888923E+03  0.14110249178E+04  0.13999729006E+04 0.  0.
        3    1    3    3  502    0  0.29640576895E+03 -0.53071360432E+03 -0.26169518490E+03  0.66181393886E+03  0.10100000352E+00 0.  1.
       -3    1    3    3    0  502 -0.29640576895E+03  0.53071360432E+03  0.43795407413E+03  0.74921097891E+03  0.10100000352E+00 0. -1.
</event>
<event>
 5   0  0.2467303E-05  0.1399729E+04  0.7818609E-02  0.8954015E-01
        1   -1    0    0  501    0  0.00000000000E+00  0.00000000000E+00  0.53906979459E+03  0.53906979461E+03  0.50400001928E-02 0. -1.
       -1   -1    0    0    0  501  0.00000000000E+00  0.00000000000E+00 -0.90862169460E+03  0.90862169461E+03  0.50400001928E-02 0.  1.
    10030    2    1    2    0    0  0.00000000000E+00  0.00000000000E+00 -0.36955190001E+03  0.14476914892E+04  0.13997292742E+04 0.  0.
        3    1    3    3  502    0 -0.27474170636E+03  0.61822663751E+03 -0.37014711724E+03  0.77116540323E+03  0.10100000352E+00 0.  1.
       -3    1    3    3    0  502  0.27474170636E+03 -0.61822663751E+03  0.59521722980E+00  0.67652608599E+03  0.10100000352E+00 0. -1.
</event>
<event>
 5   0  0.4527503E-05  0.1400585E+04  0.7818609E-02  0.8953395E-01
        2   -1    0    0  501    0  0.00000000000E+00  0.00000000000E+00  0.11477104957E+04  0.11477104957E+04  0.25500000920E-02 0. -1.
       -2   -1    0    0    0  501  0.00000000000E+00  0.00000000000E+00 -0.42729393825E+03  0.42729393826E+03  0.25500000920E-02 0.  1.
    10030    2    1    2    0    0  0.00000000000E+00  0.00000000000E+00  0.72041655745E+03  0.15750044340E+04  0.14005852172E+04 0.  0.
        4    1    3    3  502    0 -0.20264496500E+03 -0.43756260920E+03 -0.21085317513E+03  0.52629525285E+03  0.12699999809E+01 0.  1.
       -4    1    3    3    0  502  0.20264496500E+03  0.43756260920E+03  0.93126973259E+03  0.10487091811E+04  0.12699999809E+01 0. -1.
</event>
<event>
 5   0  0.2363419E-05  0.1400393E+04  0.7818609E-02  0.8953534E-01
       -1   -1    0    0    0  501  0.00000000000E+00  0.00000000000E+00  0.37426397251E+03  0.37426397254E+03  0.50400001928E-02 0. -1.
        1   -1    0    0  501    0  0.00000000000E+00  0.00000000000E+00 -0.13099707560E+04  0.13099707560E+04  0.50400001928E-02 0.  1.
    10030    2    1    2    0    0  0.00000000000E+00  0.00000000000E+00 -0.93570678352E+03  0.16842347286E+04  0.14003926008E+04 0.  0.
        2    1    3    3  502    0 -0.10866264887E+03  0.69076866879E+03 -0.42439101953E+03  0.81797106459E+03  0.25500000920E-02 0. -1.
       -2    1    3    3    0  502  0.10866264887E+03 -0.69076866879E+03 -0.51131576399E+03  0.86626366399E+03  0.25500000920E-02 0.  1.
</event>
<event>
 5   0  0.2427569E-05  0.1400044E+04  0.7818609E-02  0.8953786E-01
        1   -1    0    0  501    0  0.00000000000E+00  0.00000000000E+00  0.65467517908E+03  0.65467517910E+03  0.50400001928E-02 0. -1.
       -1   -1    0    0    0  501  0.00000000000E+00  0.00000000000E+00 -0.74851013727E+03  0.74851013729E+03  0.50400001928E-02 0.  1.
    10030    2    1    2    0    0  0.00000000000E+00  0.00000000000E+00 -0.93834958192E+02  0.14031853164E+04  0.14000442967E+04 0.  0.
        1    1    3    3  502    0  0.20533442038E+03 -0.59827465637E+03  0.25364901707E+03  0.68149292919E+03  0.50400001928E-02 0. -1.
       -1    1    3    3    0  502 -0.20533442038E+03  0.59827465637E+03 -0.34748397526E+03  0.72169238719E+03  0.50400001928E-02 0.  1.
</event>
<event>
 5   0  0.4621450E-05  0.1399589E+04  0.7818609E-02  0.8954116E-01
       -2   -1    0    0    0  501  0.00000000000E+00  0.00000000000E+00  0.98894583058E+03  0.98894583059E+03  0.25500000920E-02 0. -1.
        2   -1    0    0  501    0  0.00000000000E+00  0.00000000000E+00 -0.49518613385E+03  0.49518613385E+03  0.25500000920E-02 0.  1.
    10030    2    1    2    0    0  0.00000000000E+00  0.00000000000E+00  0.49375969674E+03  0.14841319644E+04  0.13995888860E+04 0.  0.
        5    1    3    3  502    0  0.62668396720E+02 -0.51549077919E+02 -0.49016351710E+03  0.49685712119E+03  0.46999998093E+01 0.  1.
       -5    1    3    3    0  502 -0.62668396720E+02  0.51549077919E+02  0.98392321384E+03  0.98727484325E+03  0.46999998093E+01 0. -1.
</event>
<event>
 5   0  0.2316714E-05  0.1402246E+04  0.7818609E-02  0.8952194E-01
       -1   -1    0    0    0  501  0.00000000000E+00  0.00000000000E+00  0.40023916225E+03  0.40023916229E+03  0.50400001928E-02 0.  1.
        1   -1    0    0  501    0  0.00000000000E+00  0.00000000000E+00 -0.12281995556E+04  0.12281995556E+04  0.50400001928E-02 0. -1.
    10030    2    1    2    0    0  0.00000000000E+00  0.00000000000E+00 -0.82796039335E+03  0.16284387179E+04  0.14022461428E+04 0.  0.
        5    1    3    3  502    0 -0.35364774333E+03 -0.36726091676E+03 -0.97286248585E+03  0.10983764444E+04  0.46999998093E+01 0. -1.
       -5    1    3    3    0  502  0.35364774333E+03  0.36726091676E+03  0.14490209249E+03  0.53006227346E+03  0.46999998093E+01 0.  1.
</event>
<event>
 5   0  0.4441253E-05  0.1399912E+04  0.7818609E-02  0.8953882E-01
       -2   -1    0    0    0  501  0.00000000000E+00  0.00000000000E+00  0.34322123471E+03  0.34322123471E+03  0.25500000920E-02 0.  1.
        2   -1    0    0  501    0  0.00000000000E+00  0.00000000000E+00 -0.14274704434E+04  0.14274704434E+04  0.25500000920E-02 0. -1.
    10030    2    1    2    0    0  0.00000000000E+00  0.00000000000E+00 -0.10842492087E+04  0.17706916782E+04  0.13999116659E+04 0.  0.
        3    1    3    3  502    0  0.30045898538E+03  0.15135360450E+03  0.23425053418E+03  0.40994736060E+03  0.10100000352E+00 0.  1.
       -3    1    3    3    0  502 -0.30045898538E+03 -0.15135360450E+03 -0.13184997429E+04  0.13607443176E+04  0.10100000352E+00 0. -1.
</event>
<event>
 5   0  0.4460282E-05  0.1399879E+04  0.7818609E-02  0.8953906E-01
        2   -1    0    0  501    0  0.00000000000E+00  0.00000000000E+00  0.43218384059E+03  0.43218384060E+03  0.25500000920E-02 0. -1.
       -2   -1    0    0    0  501  0.00000000000E+00  0.00000000000E+00 -0.11335805413E+04  0.11335805413E+04  0.25500000920E-02 0.  1.
    10030    2    1    2    0    0  0.00000000000E+00  0.00000000000E+00 -0.70139670068E+03  0.15657643819E+04  0.13998788404E+04 0.  0.
        1    1    3    3  502    0 -0.34410795416E+03 -0.60054770380E+03 -0.46719087372E+03  0.83506595019E+03  0.50400001928E-02 0.  1.
       -1    1    3    3    0  502  0.34410795416E+03  0.60054770380E+03 -0.23420582696E+03  0.73069843168E+03  0.50400001928E-02 0. -1.
</event>
<event>
 5   0  0.2363419E-05  0.1399634E+04  0.7818609E-02  0.8954083E-01
        1   -1    0    0  501    0  0.00000000000E+00  0.00000000000E+00  0.68191245523E+03  0.68191245524E+03  0.50400001928E-02 0. -1.
       -1   -1    0    0    0  501  0.00000000000E+00  0.00000000000E+00 -0.71819200837E+03  0.71819200838E+03  0.50400001928E-02 0.  1.
    10030    2    1    2    0    0  0.00000000000E+00  0.00000000000E+00 -0.36279553141E+02  0.14001044636E+04  0.13996343462E+04 0.  0.
        2    1    3    3  502    0  0.18939475911E+03  0.55481005460E+03 -0.40044546504E+03  0.70995854945E+03  0.25500000920E-02 0.  1.
       -2    1    3    3    0  502 -0.18939475911E+03 -0.55481005460E+03  0.36416591190E+03  0.69014591418E+03  0.25500000920E-02 0. -1.
</event>
<event>
 5   0  0.2363419E-05  0.1400156E+04  0.7818609E-02  0.8953705E-01
        1   -1    0    0  501    0  0.00000000000E+00  0.00000000000E+00  0.13481677303E+04  0.13481677303E+04  0.50400001928E-02 0. -1.
       -1   -1    0    0    0  501  0.00000000000E+00  0.00000000000E+00 -0.36353743395E+03  0.36353743398E+03  0.50400001928E-02 0.  1.
    10030    2    1    2    0    0  0.00000000000E+00  0.00000000000E+00  0.98463029632E+03  0.17117051643E+04  0.14001563302E+04 0.  0.
        2    1    3    3  502    0  0.24135000793E+03 -0.77986457270E+02 -0.30539276548E+03  0.39698420001E+03  0.25500000920E-02 0.  1.
       -2    1    3    3    0  502 -0.24135000793E+03  0.77986457270E+02  0.12900230618E+04  0.13147209643E+04  0.25500000920E-02 0. -1.
</event>
<event>
 5   0  0.4441253E-05  0.1400318E+04  0.7818609E-02  0.8953588E-01
       -2   -1    0    0    0  501  0.00000000000E+00  0.00000000000E+00  0.11220183987E+04  0.11220183987E+04  0.25500000920E-02 0.  1.
        2   -1    0    0  501    0  0.00000000000E+00  0.00000000000E+00 -0.43691136314E+03  0.43691136315E+03  0.25500000920E-02 0. -1.
    10030    2    1    2    0    0  0.00000000000E+00  0.00000000000E+00  0.68510703557E+03  0.15589297619E+04  0.14003179468E+04 0.  0.
        3    1    3    3  502    0  0.28558425034E+03  0.60463171718E+03  0.11147401090E+03  0.67791175146E+03  0.10100000352E+00 0.  1.
       -3    1    3    3    0  502 -0.28558425034E+03 -0.60463171718E+03  0.57363302467E+03  0.88101801040E+03  0.10100000352E+00 0. -1.
</event>
<event>
 5   0  0.4441253E-05  0.1399613E+04  0.7818609E-02  0.8954099E-01
       -2   -1    0    0    0  501  0.00000000000E+00  0.00000000000E+00  0.48907714545E+03  0.48907714546E+03  0.25500000920E-02 0.  1.
        2   -1    0    0  501    0  0.00000000000E+00  0.00000000000E+00 -0.10013334839E+04  0.10013334839E+04  0.25500000920E-02 0. -1.
    10030    2    1    2    0    0  0.00000000000E+00  0.00000000000E+00 -0.51225633847E+03  0.14904106294E+04  0.13996132637E+04 0.  0.
        3    1    3    3  502    0 -0.11101002040E+03 -0.86280233605E+02 -0.98613878034E+03  0.99611104182E+03  0.10100000352E+00 0. -1.
       -3    1    3    3    0  502  0.11101002040E+03  0.86280233605E+02  0.47388244187E+03  0.49429958756E+03  0.10100000352E+00 0.  1.
</event>
<event>
 5   0  0.2428507E-05  0.1399901E+04  0.7818609E-02  0.8953890E-01
       -1   -1    0    0    0  501  0.00000000000E+00  0.00000000000E+00  0.53784687166E+03  0.53784687169E+03  0.50400001928E-02 0. -1.
        1   -1    0    0  501    0  0.00000000000E+00  0.00000000000E+00 -0.91091090450E+03  0.91091090451E+03  0.50400001928E-02 0.  1.
    10030    2    1    2    0    0  0.00000000000E+00  0.00000000000E+00 -0.37306403284E+03  0.14487577762E+04  0.13999008256E+04 0.  0.
        4    1    3    3  502    0  0.56474037364E+03 -0.21380687341E+03 -0.55283979437E+03  0.81870539260E+03  0.12699999809E+01 0.  1.
       -4    1    3    3    0  502 -0.56474037364E+03  0.21380687341E+03  0.17977576154E+03  0.63005238359E+03  0.12699999809E+01 0. -1.
</event>
<event>
 5   0  0.2428507E-05  0.1399617E+04  0.7818609E-02  0.8954096E-01
       -1   -1    0    0    0  501  0.00000000000E+00  0.00000000000E+00  0.56413891826E+03  0.56413891828E+03  0.50400001928E-02 0.  1.
        1   -1    0    0  501    0  0.00000000000E+00  0.00000000000E+00 -0.86810473952E+03  0.86810473954E+03  0.50400001928E-02 0. -1.
    10030    2    1    2    0    0  0.00000000000E+00  0.00000000000E+00 -0.30396582126E+03  0.14322436578E+04  0.13996166171E+04 0.  0.
        4    1    3    3  502    0  0.27951287042E+03 -0.60597671648E+03 -0.36759545136E+03  0.76188139130E+03  0.12699999809E+01 0.  1.
       -4    1    3    3    0  502 -0.27951287042E+03  0.60597671648E+03  0.63629630094E+02  0.67036226652E+03  0.12699999809E+01 0. -1.
</event>
<event>
 5   0  0.2427569E-05  0.1399303E+04  0.7818609E-02  0.8954323E-01
       -1   -1    0    0    0  501  0.00000000000E+00  0.00000000000E+00  0.93699951440E+03  0.93699951442E+03  0.50400001928E-02 0.  1.
        1   -1    0    0  501    0  0.00000000000E+00  0.00000000000E+00 -0.52242532666E+03  0.52242532668E+03  0.50400001928E-02 0. -1.
    10030    2    1    2    0    0  0.00000000000E+00  0.00000000000E+00  0.41457418774E+03  0.14594248411E+04  0.13993030800E+04 0.  0.
        1    1    3    3  502    0  0.48778547322E+02  0.43552683344E+03  0.77610914707E+03  0.89129589785E+03  0.50400001928E-02 0.  1.
       -1    1    3    3    0  502 -0.48778547322E+02 -0.43552683344E+03 -0.36153495933E+03  0.56812894326E+03  0.50400001928E-02 0. -1.
</event>
<event>
 5   0  0.2427569E-05  0.1400139E+04  0.7818609E-02  0.8953718E-01
       -1   -1    0    0    0  501  0.00000000000E+00  0.00000000000E+00  0.78150624332E+03  0.78150624333E+03  0.50400001928E-02 0.  1.
        1   -1    0    0  501    0  0.00000000000E+00  0.00000000000E+00 -0.62711910445E+03  0.62711910447E+03  0.50400001928E-02 0. -1.
    10030    2    1    2    0    0  0.00000000000E+00  0.00000000000E+00  0.15438713887E+03  0.14086253478E+04  0.14001392723E+04 0.  0.
        1    1    3    3  502    0 -0.51150862790E+02  0.21481980426E+03 -0.59116223943E+03  0.63106002284E+03  0.50400001928E-02 0. -1.
       -1    1    3    3    0  502  0.51150862790E+02 -0.21481980426E+03  0.74554937831E+03  0.77756532496E+03  0.50400001928E-02 0.  1.
</event>
<event>
 5   0  0.2363419E-05  0.1400329E+04  0.7818609E-02  0.8953580E-01
       -1   -1    0    0    0  501  0.00000000000E+00  0.00000000000E+00  0.94655436578E+03  0.94655436579E+03  0.50400001928E-02 0. -1.
        1   -1    0    0  501    0  0.00000000000E+00  0.00000000000E+00 -0.51791033681E+03  0.51791033683E+03  0.50400001928E-02 0.  1.
    10030    2    1    2    0    0  0.00000000000E+00  0.00000000000E+00  0.42864402897E+03  0.14644647026E+04  0.14003289477E+04 0.  0.
        2    1    3    3  502    0  0.28830592642E+03  0.60322475084E+03  0.43176273216E+03  0.79587653824E+03  0.25500000920E-02 0. -1.
       -2    1    3    3    0  502 -0.28830592642E+03 -0.60322475084E+03 -0.31187031871E+01  0.66858816438E+03  0.25500000920E-02 0.  1.
</event>
<event>
 5   0  0.2316714E-05  0.1398133E+04  0.7818609E-02  0.8955171E-01
       -1   -1    0    0    0  501  0.00000000000E+00  0.00000000000E+00  0.38164374386E+03  0.38164374389E+03  0.50400001928E-02 0.  1.
        1   -1    0    0  501    0  0.00000000000E+00  0.00000000000E+00 -0.12804975343E+04  0.12804975343E+04  0.50400001928E-02 0. -1.
    10030    2    1    2    0    0  0.00000000000E+00  0.00000000000E+00 -0.89885379042E+03  0.16621412782E+04  0.13981328592E+04 0.  0.
        5    1    3    3  502    0  0.43880159271E+03  0.52613546517E+03 -0.61461179325E+03  0.92039943062E+03  0.46999998093E+01 0. -1.
       -5    1    3    3    0  502 -0.43880159271E+03 -0.52613546517E+03 -0.28424199716E+03  0.74174184756E+03  0.46999998093E+01 0.  1.
</event>
<event>
 5   0  0.2363419E-05  0.1400088E+04  0.7818609E-02  0.8953755E-01
       -1   -1    0    0    0  501  0.00000000000E+00  0.00000000000E+00  0.66536441096E+03  0.66536441098E+03  0.50400001928E-02 0.  1.
        1   -1    0    0  501    0  0.00000000000E+00  0.00000000000E+00 -0.73653072624E+03  0.73653072626E+03  0.50400001928E-02 0. -1.
    10030    2    1    2    0    0  0.00000000000E+00  0.00000000000E+00 -0.71166315283E+02  0.14018951372E+04  0.14000876156E+04 0.  0.
        2    1    3    3  502    0  0.15540119205E+03 -0.27449341311E+03 -0.66134210762E+03  0.73271382384E+03  0.25500000920E-02 0. -1.
       -2    1    3    3    0  502 -0.15540119205E+03  0.27449341311E+03  0.59017579234E+03  0.66918131340E+03  0.25500000920E-02 0.  1.
</event>
<event>
 5   0  0.4460282E-05  0.1400171E+04  0.7818609E-02  0.8953695E-01
        2   -1    0    0  501    0  0.00000000000E+00  0.00000000000E+00  0.25441950417E+04  0.25441950417E+04  0.25500000920E-02 0. -1.
       -2   -1    0    0    0  501  0.00000000000E+00  0.00000000000E+00 -0.19264243032E+03  0.19264243034E+03  0.25500000920E-02 0.  1.
    10030    2    1    2    0    0  0.00000000000E+00  0.00000000000E+00  0.23515526114E+04  0.27368374721E+04  0.14001712982E+04 0.  0.
        1    1    3    3  502    0  0.68270108639E+03  0.32386485411E+02  0.87940253781E+03  0.11137676963E+04  0.50400001928E-02 0.  1.
       -1    1    3    3    0  502 -0.68270108639E+03 -0.32386485411E+02  0.14721500736E+04  0.16230697758E+04  0.50400001928E-02 0. -1.
</event>
<event>
 5   0  0.4460282E-05  0.1400668E+04  0.7818609E-02  0.8953335E-01
        2   -1    0    0  501    0  0.00000000000E+00  0.00000000000E+00  0.15859985364E+04  0.15859985364E+04  0.25500000920E-02 0.  1.
       -2   -1    0    0    0  501  0.00000000000E+00  0.00000000000E+00 -0.30924871692E+03  0.30924871693E+03  0.25500000920E-02 0. -1.
    10030    2    1    2    0    0  0.00000000000E+00  0.00000000000E+00  0.12767498195E+04  0.18952472533E+04  0.14006684296E+04 0.  0.
        1    1    3    3  502    0  0.68189780155E+03  0.14427710580E+03  0.54593202100E+03  0.88534866950E+03  0.50400001928E-02 0.  1.
       -1    1    3    3    0  502 -0.68189780155E+03 -0.14427710580E+03  0.73081779850E+03  0.10098985838E+04  0.50400001928E-02 0. -1.
</event>
<event>
 5   0  0.4243281E-05  0.1400136E+04  0.7818609E-02  0.8953720E-01
        2   -1    0    0  501    0  0.00000000000E+00  0.00000000000E+00  0.11849800436E+04  0.11849800436E+04  0.25500000920E-02 0.  1.
       -2   -1    0    0    0  501  0.00000000000E+00  0.00000000000E+00 -0.41358931603E+03  0.41358931604E+03  0.25500000920E-02 0. -1.
    10030    2    1    2    0    0  0.00000000000E+00  0.00000000000E+00  0.77139072761E+03  0.15985693597E+04  0.14001358302E+04 0.  0.
        2    1    3    3  502    0  0.42171760147E+03  0.52534804773E+03  0.16829117716E+03  0.69437614227E+03  0.25500000920E-02 0. -1.
       -2    1    3    3    0  502 -0.42171760147E+03 -0.52534804773E+03  0.60309955045E+03  0.90419321740E+03  0.25500000920E-02 0.  1.
</event>
<event>
 5   0  0.2428507E-05  0.1399834E+04  0.7818609E-02  0.8953938E-01
        1   -1    0    0  501    0  0.00000000000E+00  0.00000000000E+00  0.99737951122E+03  0.99737951123E+03  0.50400001928E-02 0.  1.
       -1   -1    0    0    0  501  0.00000000000E+00  0.00000000000E+00 -0.49117124203E+03  0.49117124206E+03  0.50400001928E-02 0. -1.
    10030    2    1    2    0    0  0.00000000000E+00  0.00000000000E+00  0.50620826919E+03  0.14885507533E+04  0.13998344664E+04 0.  0.
        4    1    3    3  502    0  0.68785108802E+03  0.92353825441E+02  0.15672814234E+03  0.71150099920E+03  0.12699999809E+01 0. -1.
       -4    1    3    3    0  502 -0.68785108802E+03 -0.92353825441E+02  0.34948012685E+03  0.77704975409E+03  0.12699999809E+01 0.  1.
</event>
<event>
 5   0  0.2428507E-05  0.1403433E+04  0.7818609E-02  0.8951337E-01
       -1   -1    0    0    0  501  0.00000000000E+00  0.00000000000E+00  0.39844417645E+03  0.39844417648E+03  0.50400001928E-02 0. -1.
        1   -1    0    0  501    0  0.00000000000E+00  0.00000000000E+00 -0.12358222519E+04  0.12358222519E+04  0.50400001928E-02 0.  1.
    10030    2    1    2    0    0  0.00000000000E+00  0.00000000000E+00 -0.83737807541E+03  0.16342664284E+04  0.14034331896E+04 0.  0.
        4    1    3    3  502    0 -0.58527113178E+03  0.26386195094E+03 -0.88833143996E+02  0.64811909956E+03  0.12699999809E+01 0. -1.
       -4    1    3    3    0  502  0.58527113178E+03 -0.26386195094E+03 -0.74854493142E+03  0.98614732880E+03  0.12699999809E+01 0.  1.
</event>
<event>
 5   0  0.2427569E-05  0.1400143E+04  0.7818609E-02  0.8953715E-01
        1   -1    0    0  501    0  0.00000000000E+00  0.00000000000E+00  0.58962718115E+03  0.58962718117E+03  0.50400001928E-02 0.  1.
       -1   -1    0    0    0  501  0.00000000000E+00  0.00000000000E+00 -0.83120364579E+03  0.83120364581E+03  0.50400001928E-02 0. -1.
    10030    2    1    2    0    0  0.00000000000E+00  0.00000000000E+00 -0.24157646465E+03  0.14208308270E+04  0.14001432250E+04 0.  0.
        1    1    3    3  502    0  0.31534925985E+03  0.76950045106E+02 -0.75022205709E+03  0.81743476810E+03  0.50400001928E-02 0. -1.
       -1    1    3    3    0  502 -0.31534925985E+03 -0.76950045106E+02  0.50864559244E+03  0.60339605888E+03  0.50400001928E-02 0.  1.
</event>
<event>
 5   0  0.2363419E-05  0.1399968E+04  0.7818609E-02  0.8953842E-01
        1   -1    0    0  501    0  0.00000000000E+00  0.00000000000E+00  0.26461987441E+04  0.26461987441E+04  0.50400001928E-02 0.  1.
       -1   -1    0    0    0  501  0.00000000000E+00  0.00000000000E+00 -0.18516277354E+03  0.18516277361E+03  0.50400001928E-02 0. -1.
    10030    2    1    2    0    0  0.00000000000E+00  0.00000000000E+00  0.24610359706E+04  0.28313615177E+04  0.13999678552E+04 0.  0.
        2    1    3    3  502    0  0.56076383954E+03  0.30912851435E+01  0.20778048904E+04  0.21521474862E+04  0.25500000920E-02 0.  1.
       -2    1    3    3    0  502 -0.56076383954E+03 -0.30912851435E+01  0.38323108013E+03  0.67921403148E+03  0.25500000920E-02 0. -1.
</event>
<event>
 5   0  0.2363419E-05  0.1400399E+04  0.7818609E-02  0.8953530E-01
        1   -1    0    0  501    0  0.00000000000E+00  0.00000000000E+00  0.65779645162E+03  0.65779645164E+03  0.50400001928E-02 0. -1.
       -1   -1    0    0    0  501  0.00000000000E+00  0.00000000000E+00 -0.74533598475E+03  0.74533598476E+03  0.50400001928E-02 0.  1.
    10030    2    1    2    0    0  0.00000000000E+00  0.00000000000E+00 -0.87539533123E+02  0.14031324364E+04  0.14003990375E+04 0.  0.
        2    1    3    3  502    0  0.17737691833E+03  0.33182601191E+03 -0.63543765377E+03  0.73847957667E+03  0.25500000920E-02 0.  1.
       -2    1    3    3    0  502 -0.17737691833E+03 -0.33182601191E+03  0.54789812064E+03  0.66465285973E+03  0.25500000920E-02 0. -1.
</event>
<event>
 5   0  0.4441253E-05  0.1400405E+04  0.7818609E-02  0.8953526E-01
       -2   -1    0    0    0  501  0.00000000000E+00  0.00000000000E+00  0.74872905246E+03  0.74872905247E+03  0.25500000920E-02 0. -1.
        2   -1    0    0  501    0  0.00000000000E+00  0.00000000000E+00 -0.65482085448E+03  0.65482085448E+03  0.25500000920E-02 0.  1.
    10030    2    1    2    0    0  0.00000000000E+00  0.00000000000E+00  0.93908197983E+02  0.14035499070E+04  0.14004047956E+04 0.  0.
        3    1    3    3  502    0  0.64649379390E+03  0.10607595458E+03 -0.20073866020E+03  0.68520241797E+03  0.10100000352E+00 0.  1.
       -3    1    3    3    0  502 -0.64649379390E+03 -0.10607595458E+03  0.29464685818E+03  0.71834748898E+03  0.10100000352E+00 0. -1.
</event>
<event>
 5   0  0.4460282E-05  0.1400288E+04  0.7818609E-02  0.8953610E-01
        2   -1    0    0  501    0  0.00000000000E+00  0.00000000000E+00  0.10726834581E+04  0.10726834581E+04  0.25500000920E-02 0.  1.
       -2   -1    0    0    0  501  0.00000000000E+00  0.00000000000E+00 -0.45698640297E+03  0.45698640298E+03  0.25500000920E-02 0. -1.
    10030    2    1    2    0    0  0.00000000000E+00  0.00000000000E+00  0.61569705517E+03  0.15296698611E+04  0.14002881919E+04 0.  0.
        1    1    3    3  502    0 -0.27307874465E+03 -0.58097610775E+03  0.61312695414E+03  0.88771048235E+03  0.50400001928E-02 0. -1.
       -1    1    3    3    0  502  0.27307874465E+03  0.58097610775E+03  0.25701010315E+01  0.64195937878E+03  0.50400001928E-02 0.  1.
</event>
<event>
 5   0  0.4441253E-05  0.1399668E+04  0.7818609E-02  0.8954059E-01
        2   -1    0    0  501    0  0.00000000000E+00  0.00000000000E+00  0.72141539703E+03  0.72141539704E+03  0.25500000920E-02 0. -1.
       -2   -1    0    0    0  501  0.00000000000E+00  0.00000000000E+00 -0.67889860446E+03  0.67889860447E+03  0.25500000920E-02 0.  1.
    10030    2    1    2    0    0  0.00000000000E+00  0.00000000000E+00  0.42516792570E+02  0.14003140015E+04  0.13996683983E+04 0.  0.
        3    1    3    3  502    0  0.65543028395E+03  0.14557282535E+03 -0.17628543729E+03  0.69415911015E+03  0.10100000352E+00 0.  1.
       -3    1    3    3    0  502 -0.65543028395E+03 -0.14557282535E+03  0.21880222986E+03  0.70615489136E+03  0.10100000352E+00 0. -1.
</event>
<event>
 5   0  0.2427569E-05  0.1399289E+04  0.7818609E-02  0.8954333E-01
        1   -1    0    0  501    0  0.00000000000E+00  0.00000000000E+00  0.81246149039E+03  0.81246149041E+03  0.50400001928E-02 0. -1.
       -1   -1    0    0    0  501  0.00000000000E+00  0.00000000000E+00 -0.60249299644E+03  0.60249299646E+03  0.50400001928E-02 0.  1.
    10030    2    1    2    0    0  0.00000000000E+00  0.00000000000E+00  0.20996849396E+03  0.14149544869E+04  0.13992889021E+04 0.  0.
        1    1    3    3  502    0 -0.56775176045E+03  0.39189972297E+03  0.22280002513E+03  0.72496020966E+03  0.50400001928E-02 0.  1.
       -1    1    3    3    0  502  0.56775176045E+03 -0.39189972297E+03 -0.12831531174E+02  0.68999427721E+03  0.50400001928E-02 0. -1.
</event>
<event>
 5   0  0.4243281E-05  0.1399727E+04  0.7818609E-02  0.8954016E-01
       -2   -1    0    0    0  501  0.00000000000E+00  0.00000000000E+00  0.34697781793E+03  0.34697781794E+03  0.25500000920E-02 0. -1.
        2   -1    0    0  501    0  0.00000000000E+00  0.00000000000E+00 -0.14116432349E+04  0.14116432349E+04  0.25500000920E-02 0.  1.
    10030    2    1    2    0    0  0.00000000000E+00  0.00000000000E+00 -0.10646654170E+04  0.17586210529E+04  0.13997269582E+04 0.  0.
        2    1    3    3  502    0  0.59087869379E+03  0.14839757036E+03 -0.99558121992E+02  0.61730971913E+03  0.25500000920E-02 0. -1.
       -2    1    3    3    0  502 -0.59087869379E+03 -0.14839757036E+03 -0.96510729502E+03  0.11413113338E+04  0.25500000920E-02 0.  1.
</event>
<event>
 5   0  0.4243281E-05  0.1399253E+04  0.7818609E-02  0.8954360E-01
        2   -1    0    0  501    0  0.00000000000E+00  0.00000000000E+00  0.12619507223E+04  0.12619507223E+04  0.25500000920E-02 0.  1.
       -2   -1    0    0    0  501  0.00000000000E+00  0.00000000000E+00 -0.38787326094E+03  0.38787326095E+03  0.25500000920E-02 0. -1.
    10030    2    1    2    0    0  0.00000000000E+00  0.00000000000E+00  0.87407746140E+03  0.16498239833E+04  0.13992525745E+04 0.  0.
        2    1    3    3  502    0  0.68589492329E+03  0.75590091133E+01  0.59942592597E+03  0.91094479808E+03  0.25500000920E-02 0.  1.
       -2    1    3    3    0  502 -0.68589492329E+03 -0.75590091133E+01  0.27465153543E+03  0.73887918521E+03  0.25500000920E-02 0. -1.
</event>
<event>
 5   0  0.2427569E-05  0.1401826E+04  0.7818609E-02  0.8952498E-01
        1   -1    0    0  501    0  0.00000000000E+00  0.00000000000E+00  0.10239006174E+04  0.10239006174E+04  0.50400001928E-02 0. -1.
       -1   -1    0    0    0  501  0.00000000000E+00  0.00000000000E+00 -0.47981107085E+03  0.47981107087E+03  0.50400001928E-02 0.  1.
    10030    2    1    2    0    0  0.00000000000E+00  0.00000000000E+00  0.54408954659E+03  0.15037116883E+04  0.14018257406E+04 0.  0.
        1    1    3    3  502    0 -0.38119287840E+03 -0.47453635848E+03 -0.10075788353E+03  0.61696427545E+03  0.50400001928E-02 0.  1.
       -1    1    3    3    0  502  0.38119287840E+03  0.47453635848E+03  0.64484743012E+03  0.88674741286E+03  0.50400001928E-02 0. -1.
</event>
<event>
 5   0  0.2428507E-05  0.1400101E+04  0.7818609E-02  0.8953745E-01
       -1   -1    0    0    0  501  0.00000000000E+00  0.00000000000E+00  0.49751191405E+03  0.49751191407E+03  0.50400001928E-02 0. -1.
        1   -1    0    0  501    0  0.00000000000E+00  0.00000000000E+00 -0.98504307502E+03  0.98504307503E+03  0.50400001928E-02 0.  1.
    10030    2    1    2    0    0  0.00000000000E+00  0.00000000000E+00 -0.48753116097E+03  0.14825549891E+04  0.14001009474E+04 0.  0.
        4    1    3    3  502    0  0.78892186087E+02  0.68517436136E+03 -0.11678170541E+03  0.69951945084E+03  0.12699999809E+01 0. -1.
       -4    1    3    3    0  502 -0.78892186087E+02 -0.68517436136E+03 -0.37074945556E+03  0.78303553827E+03  0.12699999809E+01 0.  1.
</event>
<event>
 5   0  0.2316714E-05  0.1404508E+04  0.7818609E-02  0.8950562E-01
       -1   -1    0    0    0  501  0.00000000000E+00  0.00000000000E+00  0.34100313331E+03  0.34100313335E+03  0.50400001928E-02 0.  1.
        1   -1    0    0  501    0  0.00000000000E+00  0.00000000000E+00 -0.14462049017E+04  0.14462049017E+04  0.50400001928E-02 0. -1.
    10030    2    1    2    0    0  0.00000000000E+00  0.00000000000E+00 -0.11052017684E+04  0.17872080351E+04  0.14045076047E+04 0.  0.
        5    1    3    3  502    0 -0.27623477313E+02  0.69596228470E+03 -0.66649855303E+03  0.96403784646E+03  0.46999998093E+01 0. -1.
       -5    1    3    3    0  502  0.27623477313E+02 -0.69596228470E+03 -0.43870321538E+03  0.82317018860E+03  0.46999998093E+01 0.  1.
</event>
<event>
 5   0  0.4527503E-05  0.1398925E+04  0.7818609E-02  0.8954597E-01
        2   -1    0    0  501    0  0.00000000000E+00  0.00000000000E+00  0.86340477453E+03  0.86340477453E+03  0.25500000920E-02 0. -1.
       -2   -1    0    0    0  501  0.00000000000E+00  0.00000000000E+00 -0.56664954779E+03  0.56664954780E+03  0.25500000920E-02 0.  1.
    10030    2    1    2    0    0  0.00000000000E+00  0.00000000000E+00  0.29675522674E+03  0.14300543223E+04  0.13989251946E+04 0.  0.
        4    1    3    3  502    0 -0.26080949233E+03  0.21680244872E+03  0.77372647521E+03  0.84479533877E+03  0.12699999809E+01 0. -1.
       -4    1    3    3    0  502  0.26080949233E+03 -0.21680244872E+03 -0.47697124847E+03  0.58525898356E+03  0.12699999809E+01 0.  1.
</event>
<event>
 5   0  0.2316714E-05  0.1400810E+04  0.7818609E-02  0.8953232E-01
       -1   -1    0    0    0  501  0.00000000000E+00  0.00000000000E+00  0.40899902354E+03  0.40899902357E+03  0.50400001928E-02 0. -1.
        1   -1    0    0  501    0  0.00000000000E+00  0.00000000000E+00 -0.11994342104E+04  0.11994342104E+04  0.50400001928E-02 0.  1.
    10030    2    1    2    0    0  0.00000000000E+00  0.00000000000E+00 -0.79043518682E+03  0.16084332339E+04  0.14008103667E+04 0.  0.
        5    1    3    3  502    0 -0.66876979577E+03 -0.20564016625E+03 -0.43160741173E+03  0.82209972970E+03  0.46999998093E+01 0. -1.
       -5    1    3    3    0  502  0.66876979577E+03  0.20564016625E+03 -0.35882777509E+03  0.78633350424E+03  0.46999998093E+01 0.  1.
</event>
<event>
 5   0  0.4460282E-05  0.1399953E+04  0.7818609E-02  0.8953852E-01
        2   -1    0    0  501    0  0.00000000000E+00  0.00000000000E+00  0.11276093110E+04  0.11276093110E+04  0.25500000920E-02 0. -1.
       -2   -1    0    0    0  501  0.00000000000E+00  0.00000000000E+00 -0.43451863023E+03  0.43451863024E+03  0.25500000920E-02 0.  1.
    10030    2    1    2    0    0  0.00000000000E+00  0.00000000000E+00  0.69309068080E+03  0.15621279413E+04  0.13999532182E+04 0.  0.
        1    1    3    3  502    0 -0.30739573809E+03 -0.23579921706E+03 -0.30397659917E+03  0.49243799958E+03  0.50400001928E-02 0.  1.
       -1    1    3    3    0  502  0.30739573809E+03  0.23579921706E+03  0.99706727996E+03  0.10696899417E+04  0.50400001928E-02 0. -1.
</event>
<event>
 5   0  0.2316714E-05  0.1398688E+04  0.7818609E-02  0.8954769E-01
        1   -1    0    0  501    0  0.00000000000E+00  0.00000000000E+00  0.13572177624E+04  0.13572177624E+04  0.50400001928E-02 0. -1.
       -1   -1    0    0    0  501  0.00000000000E+00  0.00000000000E+00 -0.36035632302E+03  0.36035632306E+03  0.50400001928E-02 0.  1.
    10030    2    1    2    0    0  0.00000000000E+00  0.00000000000E+00  0.99686143940E+03  0.17175740855E+04  0.13986879601E+04 0.  0.
        5    1    3    3  502    0  0.23334688551E+02  0.47101709797E+03  0.11325518046E+04  0.12268240682E+04  0.46999998093E+01 0. -1.
       -5    1    3    3    0  502 -0.23334688551E+02 -0.47101709797E+03 -0.13569036518E+03  0.49075001729E+03  0.46999998093E+01 0.  1.
</event>
<event>
 5   0  0.2467303E-05  0.1399801E+04  0.7818609E-02  0.8953962E-01
       -1   -1    0    0    0  501  0.00000000000E+00  0.00000000000E+00  0.52135125602E+03  0.52135125605E+03  0.50400001928E-02 0. -1.
        1   -1    0    0  501    0  0.00000000000E+00  0.00000000000E+00 -0.93959852185E+03  0.93959852187E+03  0.50400001928E-02 0.  1.
    10030    2    1    2    0    0  0.00000000000E+00  0.00000000000E+00 -0.41824726583E+03  0.14609497779E+04  0.13998012281E+04 0.  0.
        3    1    3    3  502    0 -0.60940650395E+03  0.21525821116E+03 -0.48946197070E+03  0.81073140773E+03  0.10100000352E+00 0.  1.
       -3    1    3    3    0  502  0.60940650395E+03 -0.21525821116E+03  0.71214704867E+02  0.65021837018E+03  0.10100000352E+00 0. -1.
</event>
<event>
 5   0  0.2467303E-05  0.1399094E+04  0.7818609E-02  0.8954474E-01
       -1   -1    0    0    0  501  0.00000000000E+00  0.00000000000E+00  0.49893086166E+03  0.49893086168E+03  0.50400001928E-02 0. -1.
        1   -1    0    0  501    0  0.00000000000E+00  0.00000000000E+00 -0.98082953132E+03  0.98082953133E+03  0.50400001928E-02 0.  1.
    10030    2    1    2    0    0  0.00000000000E+00  0.00000000000E+00 -0.48189866966E+03  0.14797603930E+04  0.13990941687E+04 0.  0.
        3    1    3    3  502    0 -0.15238613654E+02  0.29553756850E+03  0.42946731920E+03  0.52155235423E+03  0.10100000352E+00 0. -1.
       -3    1    3    3    0  502  0.15238613654E+02 -0.29553756850E+03 -0.91136598886E+03  0.95820803879E+03  0.10100000352E+00 0.  1.
</event>
<event>
 5   0  0.2316714E-05  0.1400388E+04  0.7818609E-02  0.8953538E-01
       -1   -1    0    0    0  501  0.00000000000E+00  0.00000000000E+00  0.55936757831E+03  0.55936757833E+03  0.50400001928E-02 0. -1.
        1   -1    0    0  501    0  0.00000000000E+00  0.00000000000E+00 -0.87647507201E+03  0.87647507202E+03  0.50400001928E-02 0.  1.
    10030    2    1    2    0    0  0.00000000000E+00  0.00000000000E+00 -0.31710749370E+03  0.14358426504E+04  0.14003881441E+04 0.  0.
        5    1    3    3  502    0  0.32611329662E+03  0.60688672802E+03 -0.28656770412E+03  0.74619335424E+03  0.46999998093E+01 0.  1.
       -5    1    3    3    0  502 -0.32611329662E+03 -0.60688672802E+03 -0.30539789578E+02  0.68964929611E+03  0.46999998093E+01 0. -1.
</event>
<event>
 5   0  0.4527503E-05  0.1402067E+04  0.7818609E-02  0.8952324E-01
       -2   -1    0    0    0  501  0.00000000000E+00  0.00000000000E+00  0.46592184239E+03  0.46592184239E+03  0.25500000920E-02 0.  1.
        2   -1    0    0  501    0  0.00000000000E+00  0.00000000000E+00 -0.10547857808E+04  0.10547857808E+04  0.25500000920E-02 0. -1.
    10030    2    1    2    0    0  0.00000000000E+00  0.00000000000E+00 -0.58886393844E+03  0.15207076232E+04  0.14020666665E+04 0.  0.
        4    1    3    3  502    0 -0.11912291536E+02 -0.35639839685E+03 -0.94906414340E+03  0.10138471685E+04  0.12699999809E+01 0. -1.
       -4    1    3    3    0  502  0.11912291536E+02  0.35639839685E+03  0.36020020496E+03  0.50686045468E+03  0.12699999809E+01 0.  1.
</event>
<event>
 5   0  0.4441253E-05  0.1400136E+04  0.7818609E-02  0.8953720E-01
        2   -1    0    0  501    0  0.00000000000E+00  0.00000000000E+00  0.13828580761E+04  0.13828580761E+04  0.25500000920E-02 0. -1.
       -2   -1    0    0    0  501  0.00000000000E+00  0.00000000000E+00 -0.35440748937E+03  0.35440748938E+03  0.25500000920E-02 0.  1.
    10030    2    1    2    0    0  0.00000000000E+00  0.00000000000E+00  0.10284505867E+04  0.17372655655E+04  0.14001360775E+04 0.  0.
        3    1    3    3  502    0 -0.30349185442E+03  0.45300525912E+03 -0.30553753459E+02  0.54612691981E+03  0.10100000352E+00 0.  1.
       -3    1    3    3    0  502  0.30349185442E+03 -0.45300525912E+03  0.10590043402E+04  0.11911386457E+04  0.10100000352E+00 0. -1.
</event>
<event>
 5   0  0.4243281E-05  0.1392799E+04  0.7818609E-02  0.8959048E-01
        2   -1    0    0  501    0  0.00000000000E+00  0.00000000000E+00  0.64390506153E+03  0.64390506154E+03  0.25500000920E-02 0.  1.
       -2   -1    0    0    0  501  0.00000000000E+00  0.00000000000E+00 -0.75317347275E+03  0.75317347275E+03  0.25500000920E-02 0. -1.
    10030    2    1    2    0    0  0.00000000000E+00  0.00000000000E+00 -0.10926841122E+03  0.13970785343E+04  0.13927989249E+04 0.  0.
        2    1    3    3  502    0 -0.12615228294E+03 -0.31821012608E+03 -0.66296294627E+03  0.74611792028E+03  0.25500000920E-02 0.  1.
       -2    1    3    3    0  502  0.12615228294E+03  0.31821012608E+03  0.55369453506E+03  0.65096061401E+03  0.25500000920E-02 0. -1.
</event>
<event>
 5   0  0.4460282E-05  0.1399625E+04  0.7818609E-02  0.8954090E-01
        2   -1    0    0  501    0  0.00000000000E+00  0.00000000000E+00  0.90603322778E+03  0.90603322778E+03  0.25500000920E-02 0. -1.
       -2   -1    0    0    0  501  0.00000000000E+00  0.00000000000E+00 -0.54052937112E+03  0.54052937112E+03  0.25500000920E-02 0.  1.
    10030    2    1    2    0    0  0.00000000000E+00  0.00000000000E+00  0.36550385666E+03  0.14465625989E+04  0.13996250510E+04 0.  0.
        1    1    3    3  502    0  0.68564088814E+03  0.58860481419E+02  0.51327835069E+02  0.69007429342E+03  0.50400001928E-02 0.  1.
       -1    1    3    3    0  502 -0.68564088814E+03 -0.58860481419E+02  0.31417602160E+03  0.75648830548E+03  0.50400001928E-02 0. -1.
</event>
<event>
 5   0  0.4621450E-05  0.1399761E+04  0.7818609E-02  0.8953992E-01
       -2   -1    0    0    0  501  0.00000000000E+00  0.00000000000E+00  0.78184113426E+03  0.78184113427E+03  0.25500000920E-02 0. -1.
        2   -1    0    0  501    0  0.00000000000E+00  0.00000000000E+00 -0.62651150757E+03  0.62651150758E+03  0.25500000920E-02 0.  1.
    10030    2    1    2    0    0  0.00000000000E+00  0.00000000000E+00  0.15532962669E+03  0.14083526418E+04  0.13997606477E+04 0.  0.
        5    1    3    3  502    0 -0.53420800754E+02 -0.67088259201E+03  0.27086730135E+03  0.72548495446E+03  0.46999998093E+01 0. -1.
       -5    1    3    3    0  502  0.53420800754E+02  0.67088259201E+03 -0.11553767466E+03  0.68286768739E+03  0.46999998093E+01 0.  1.
</event>
<event>
 5   0  0.4441253E-05  0.1400042E+04  0.7818609E-02  0.8953788E-01
        2   -1    0    0  501    0  0.00000000000E+00  0.00000000000E+00  0.14354493107E+04  0.14354493107E+04  0.25500000920E-02 0. -1.
       -2   -1    0    0    0  501  0.00000000000E+00  0.00000000000E+00 -0.34137703324E+03  0.34137703325E+03  0.25500000920E-02 0.  1.
    10030    2    1    2    0    0  0.00000000000E+00  0.00000000000E+00  0.10940722774E+04  0.17768263439E+04  0.14000420380E+04 0.  0.
        3    1    3    3  502    0  0.22000962251E+03 -0.33147711798E+02 -0.29530863271E+03  0.36974342935E+03  0.10100000352E+00 0.  1.
       -3    1    3    3    0  502 -0.22000962251E+03  0.33147711798E+02  0.13893809101E+04  0.14070829146E+04  0.10100000352E+00 0. -1.
</event>
<event>
 5   0  0.2427569E-05  0.1399294E+04  0.7818609E-02  0.8954329E-01
       -1   -1    0    0    0  501  0.00000000000E+00  0.00000000000E+00  0.37210349259E+03  0.37210349262E+03  0.50400001928E-02 0.  1.
        1   -1    0    0  501    0  0.00000000000E+00  0.00000000000E+00 -0.13155109971E+04  0.13155109971E+04  0.50400001928E-02 0. -1.
    10030    2    1    2    0    0  0.00000000000E+00  0.00000000000E+00 -0.94340750455E+03  0.16876144898E+04  0.13992944459E+04 0.  0.
        1    1    3    3  502    0 -0.43750166148E+03  0.49056164694E+03 -0.18263519911E+03  0.68221261291E+03  0.50400001928E-02 0.  1.
       -1    1    3    3    0  502  0.43750166148E+03 -0.49056164694E+03 -0.76077230544E+03  0.10054018769E+04  0.50400001928E-02 0. -1.
</event>
<event>
 5   0  0.2467303E-05  0.1399967E+04  0.7818609E-02  0.8953843E-01
       -1   -1    0    0    0  501  0.00000000000E+00  0.00000000000E+00  0.12209181380E+04  0.12209181380E+04  0.50400001928E-02 0.  1.
        1   -1    0    0  501    0  0.00000000000E+00  0.00000000000E+00 -0.40131816914E+03  0.40131816917E+03  0.50400001928E-02 0. -1.
    10030    2    1    2    0    0  0.00000000000E+00  0.00000000000E+00  0.81959996882E+03  0.16222363071E+04  0.13999666165E+04 0.  0.
        3    1    3    3  502    0  0.67034607809E+03 -0.19693223494E+03  0.45937645620E+03  0.83616559860E+03  0.10100000352E+00 0.  1.
       -3    1    3    3    0  502 -0.67034607809E+03  0.19693223494E+03  0.36022351263E+03  0.78607070854E+03  0.10100000352E+00 0. -1.
</event>
<event>
 5   0  0.2316714E-05  0.1399969E+04  0.7818609E-02  0.8953841E-01
        1   -1    0    0  501    0  0.00000000000E+00  0.00000000000E+00  0.12151513838E+04  0.12151513838E+04  0.50400001928E-02 0. -1.
       -1   -1    0    0    0  501  0.00000000000E+00  0.00000000000E+00 -0.40322405545E+03  0.40322405548E+03  0.50400001928E-02 0.  1.
    10030    2    1    2    0    0  0.00000000000E+00  0.00000000000E+00  0.81192732834E+03  0.16183754393E+04  0.13999689554E+04 0.  0.
        5    1    3    3  502    0 -0.22410028245E+03  0.62893903059E+03  0.16300679323E+03  0.68729800337E+03  0.46999998093E+01 0.  1.
       -5    1    3    3    0  502  0.22410028245E+03 -0.62893903059E+03  0.64892053512E+03  0.93107743593E+03  0.46999998093E+01 0. -1.
</event>
<event>
 5   0  0.2467303E-05  0.1400066E+04  0.7818609E-02  0.8953771E-01
        1   -1    0    0  501    0  0.00000000000E+00  0.00000000000E+00  0.51105732107E+03  0.51105732110E+03  0.50400001928E-02 0. -1.
       -1   -1    0    0    0  501  0.00000000000E+00  0.00000000000E+00 -0.95888690423E+03  0.95888690425E+03  0.50400001928E-02 0.  1.
    10030    2    1    2    0    0  0.00000000000E+00  0.00000000000E+00 -0.44782958316E+03  0.14699442253E+04  0.14000659592E+04 0.  0.
        3    1    3    3  502    0  0.48011073595E+03  0.40291998636E+03  0.10340710218E+03  0.63525103161E+03  0.10100000352E+00 0. -1.
       -3    1    3    3    0  502 -0.48011073595E+03 -0.40291998636E+03 -0.55123668535E+03  0.83469319373E+03  0.10100000352E+00 0.  1.
</event>
<event>
 5   0  0.4243281E-05  0.1399643E+04  0.7818609E-02  0.8954077E-01
        2   -1    0    0  501    0  0.00000000000E+00  0.00000000000E+00  0.14986032215E+04  0.14986032215E+04  0.25500000920E-02 0.  1.
       -2   -1    0    0    0  501  0.00000000000E+00  0.00000000000E+00 -0.32680441735E+03  0.32680441736E+03  0.25500000920E-02 0. -1.
    10030    2    1    2    0    0  0.00000000000E+00  0.00000000000E+00  0.11717988042E+04  0.18254076389E+04  0.13996430297E+04 0.  0.
        2    1    3    3  502    0  0.12392710872E+03 -0.64095735267E+03  0.91471670735E+03  0.11237841923E+04  0.25500000920E-02 0.  1.
       -2    1    3    3    0  502 -0.12392710872E+03  0.64095735267E+03  0.25708209680E+03  0.70162344653E+03  0.25500000920E-02 0. -1.
</event>
<event>
 5   0  0.4441253E-05  0.1400553E+04  0.7818609E-02  0.8953419E-01
       -2   -1    0    0    0  501  0.00000000000E+00  0.00000000000E+00  0.97188197316E+03  0.97188197316E+03  0.25500000920E-02 0.  1.
        2   -1    0    0  501    0  0.00000000000E+00  0.00000000000E+00 -0.50457455338E+03  0.50457455338E+03  0.25500000920E-02 0. -1.
    10030    2    1    2    0    0  0.00000000000E+00  0.00000000000E+00  0.46730741978E+03  0.14764565265E+04  0.14005526231E+04 0.  0.
        3    1    3    3  502    0 -0.28791954216E+03 -0.33942726370E+03  0.80358115702E+03  0.91861374702E+03  0.10100000352E+00 0.  1.
       -3    1    3    3    0  502  0.28791954216E+03  0.33942726370E+03 -0.33627373724E+03  0.55784277952E+03  0.10100000352E+00 0. -1.
</event>
<event>
 5   0  0.2467303E-05  0.1399088E+04  0.7818609E-02  0.8954479E-01
       -1   -1    0    0    0  501  0.00000000000E+00  0.00000000000E+00  0.33639076102E+03  0.33639076105E+03  0.50400001928E-02 0. -1.
        1   -1    0    0  501    0  0.00000000000E+00  0.00000000000E+00 -0.14547424145E+04  0.14547424145E+04  0.50400001928E-02 0.  1.
    10030    2    1    2    0    0  0.00000000000E+00  0.00000000000E+00 -0.11183516535E+04  0.17911331756E+04  0.13990881430E+04 0.  0.
        3    1    3    3  502    0 -0.64918399111E+03  0.26055622470E+03 -0.56647385843E+03  0.90012334878E+03  0.10100000352E+00 0. -1.
       -3    1    3    3    0  502  0.64918399111E+03 -0.26055622470E+03 -0.55187779506E+03  0.89100982679E+03  0.10100000352E+00 0.  1.
</event>
<event>
 5   0  0.2363419E-05  0.1402610E+04  0.7818609E-02  0.8951932E-01
       -1   -1    0    0    0  501  0.00000000000E+00  0.00000000000E+00  0.79594121410E+03  0.79594121411E+03  0.50400001928E-02 0. -1.
        1   -1    0    0  501    0  0.00000000000E+00  0.00000000000E+00 -0.61792080777E+03  0.61792080779E+03  0.50400001928E-02 0.  1.
    10030    2    1    2    0    0  0.00000000000E+00  0.00000000000E+00  0.17802040633E+03  0.14138620219E+04  0.14026099072E+04 0.  0.
        2    1    3    3  502    0  0.68739136830E+03 -0.10689485721E+03 -0.55774733305E+00  0.69565344447E+03  0.25500000920E-02 0.  1.
       -2    1    3    3    0  502 -0.68739136830E+03  0.10689485721E+03  0.17857815366E+03  0.71820857743E+03  0.25500000920E-02 0. -1.
</event>
<event>
 5   0  0.4243281E-05  0.1400496E+04  0.7818609E-02  0.8953459E-01
       -2   -1    0    0    0  501  0.00000000000E+00  0.00000000000E+00  0.34026595627E+03  0.34026595628E+03  0.25500000920E-02 0.  1.
        2   -1    0    0  501    0  0.00000000000E+00  0.00000000000E+00 -0.14410715504E+04  0.14410715504E+04  0.25500000920E-02 0. -1.
    10030    2    1    2    0    0  0.00000000000E+00  0.00000000000E+00 -0.11008055941E+04  0.17813375066E+04  0.14004964679E+04 0.  0.
        2    1    3    3  502    0  0.26628589440E+03 -0.60060020159E+03 -0.24218847538E+03  0.70020285440E+03  0.25500000920E-02 0.  1.
       -2    1    3    3    0  502 -0.26628589440E+03  0.60060020159E+03 -0.85861711871E+03  0.10811346522E+04  0.25500000920E-02 0. -1.
</event>
<event>
 5   0  0.2428507E-05  0.1399999E+04  0.7818609E-02  0.8953819E-01
        1   -1    0    0  501    0  0.00000000000E+00  0.00000000000E+00  0.57058193617E+03  0.57058193620E+03  0.50400001928E-02 0. -1.
       -1   -1    0    0    0  501  0.00000000000E+00  0.00000000000E+00 -0.85877085480E+03  0.85877085482E+03  0.50400001928E-02 0.  1.
    10030    2    1    2    0    0  0.00000000000E+00  0.00000000000E+00 -0.28818891863E+03  0.14293527910E+04  0.13999987673E+04 0.  0.
        4    1    3    3  502    0  0.55555260181E+03  0.15365209276E+03 -0.54959952057E+03  0.79643512284E+03  0.12699999809E+01 0.  1.
       -4    1    3    3    0  502 -0.55555260181E+03 -0.15365209276E+03  0.26141060194E+03  0.63291766818E+03  0.12699999809E+01 0. -1.
</event>
<event>
 5   0  0.1661000E-05  0.1399816E+04  0.7818609E-02  0.8953952E-01
       -3   -1    0    0    0  501  0.00000000000E+00  0.00000000000E+00  0.11602203834E+04  0.11602203878E+04  0.10100000352E+00 0.  1.
        3   -1    0    0  501    0  0.00000000000E+00  0.00000000000E+00 -0.42222268237E+03  0.42222269445E+03  0.10100000352E+00 0. -1.
    10030    2    1    2    0    0  0.00000000000E+00  0.00000000000E+00  0.73799770106E+03  0.15824430823E+04  0.13998162386E+04 0.  0.
        3    1    3    3  502    0  0.48012654355E+03 -0.31339938604E+03 -0.84782044515E+02  0.57959354574E+03  0.10100000352E+00 0. -1.
       -3    1    3    3    0  502 -0.48012654355E+03  0.31339938604E+03  0.82277974558E+03  0.10028495365E+04  0.10100000352E+00 0.  1.
</event>
<event>
 5   0  0.4460282E-05  0.1400233E+04  0.7818609E-02  0.8953650E-01
       -2   -1    0    0    0  501  0.00000000000E+00  0.00000000000E+00  0.18655356253E+03  0.18655356254E+03  0.25500000920E-02 0. -1.
        2   -1    0    0  501    0  0.00000000000E+00  0.00000000000E+00 -0.26274645301E+04  0.26274645301E+04  0.25500000920E-02 0.  1.
    10030    2    1    2    0    0  0.00000000000E+00  0.00000000000E+00 -0.24409109675E+04  0.28140180926E+04  0.14002326500E+04 0.  0.
        1    1    3    3  502    0 -0.46121875264E+03  0.28310628906E+03 -0.21131035697E+04  0.21813020435E+04  0.50400001928E-02 0.  1.
       -1    1    3    3    0  502  0.46121875264E+03 -0.28310628906E+03 -0.32780739782E+03  0.63271604909E+03  0.50400001928E-02 0. -1.
</event>
<event>
 5   0  0.2428507E-05  0.1399528E+04  0.7818609E-02  0.8954160E-01
        1   -1    0    0  501    0  0.00000000000E+00  0.00000000000E+00  0.18536485813E+04  0.18536485813E+04  0.50400001928E-02 0.  1.
       -1   -1    0    0    0  501  0.00000000000E+00  0.00000000000E+00 -0.26416542539E+03  0.26416542544E+03  0.50400001928E-02 0. -1.
    10030    2    1    2    0    0  0.00000000000E+00  0.00000000000E+00  0.15894831559E+04  0.21178140068E+04  0.13995283006E+04 0.  0.
        4    1    3    3  502    0  0.37009013862E+03 -0.38277407645E+01 -0.10392955197E+03  0.38442727137E+03  0.12699999809E+01 0. -1.
       -4    1    3    3    0  502 -0.37009013862E+03  0.38277407645E+01  0.16934127079E+04  0.17333867354E+04  0.12699999809E+01 0.  1.
</event>
<event>
 5   0  0.2467303E-05  0.1400432E+04  0.7818609E-02  0.8953506E-01
        1   -1    0    0  501    0  0.00000000000E+00  0.00000000000E+00  0.17360579816E+04  0.17360579816E+04  0.50400001928E-02 0.  1.
       -1   -1    0    0    0  501  0.00000000000E+00  0.00000000000E+00 -0.28242293861E+03  0.28242293866E+03  0.50400001928E-02 0. -1.
    10030    2    1    2    0    0  0.00000000000E+00  0.00000000000E+00  0.14536350430E+04  0.20184809203E+04  0.14004322145E+04 0.  0.
        3    1    3    3  502    0  0.20786767294E+03  0.66597275236E+03  0.64065182981E+03  0.94718712702E+03  0.10100000352E+00 0.  1.
       -3    1    3    3    0  502 -0.20786767294E+03 -0.66597275236E+03  0.81298321320E+03  0.10712937933E+04  0.10100000352E+00 0. -1.
</event>
<event>
 5   0  0.2363419E-05  0.1399750E+04  0.7818609E-02  0.8953999E-01
       -1   -1    0    0    0  501  0.00000000000E+00  0.00000000000E+00  0.87895914043E+03  0.87895914044E+03  0.50400001928E-02 0. -1.
        1   -1    0    0  501    0  0.00000000000E+00  0.00000000000E+00 -0.55727866345E+03  0.55727866347E+03  0.50400001928E-02 0.  1.
    10030    2    1    2    0    0  0.00000000000E+00  0.00000000000E+00  0.32168047698E+03  0.14362378039E+04  0.13997502278E+04 0.  0.
        2    1    3    3  502    0 -0.65640552128E+02  0.29707152453E+03 -0.48587926795E+03  0.57327029907E+03  0.25500000920E-02 0.  1.
       -2    1    3    3    0  502  0.65640552128E+02 -0.29707152453E+03  0.80755974493E+03  0.86296750484E+03  0.25500000920E-02 0. -1.
</event>
<event>
 5   0  0.4460282E-05  0.1400134E+04  0.7818609E-02  0.8953721E-01
       -2   -1    0    0    0  501  0.00000000000E+00  0.00000000000E+00  0.52405314854E+03  0.52405314855E+03  0.25500000920E-02 0. -1.
        2   -1    0    0  501    0  0.00000000000E+00  0.00000000000E+00 -0.93519899809E+03  0.93519899809E+03  0.25500000920E-02 0.  1.
    10030    2    1    2    0    0  0.00000000000E+00  0.00000000000E+00 -0.41114584954E+03  0.14592521466E+04  0.14001342499E+04 0.  0.
        1    1    3    3  502    0  0.31957323039E+03  0.16186533770E+03  0.42129328563E+03  0.55300584959E+03  0.50400001928E-02 0. -1.
       -1    1    3    3    0  502 -0.31957323039E+03 -0.16186533770E+03 -0.83243913518E+03  0.90624629706E+03  0.50400001928E-02 0.  1.
</event>
<event>
 5   0  0.4621450E-05  0.1400262E+04  0.7818609E-02  0.8953629E-01
       -2   -1    0    0    0  501  0.00000000000E+00  0.00000000000E+00  0.20629206421E+03  0.20629206422E+03  0.25500000920E-02 0.  1.
        2   -1    0    0  501    0  0.00000000000E+00  0.00000000000E+00 -0.23761620481E+04  0.23761620481E+04  0.25500000920E-02 0. -1.
    10030    2    1    2    0    0  0.00000000000E+00  0.00000000000E+00 -0.21698699839E+04  0.25824541123E+04  0.14002619381E+04 0.  0.
        5    1    3    3  502    0  0.42846842905E+03 -0.52701443958E+03 -0.13980902671E+04  0.15543512792E+04  0.46999998093E+01 0. -1.
       -5    1    3    3    0  502 -0.42846842905E+03  0.52701443958E+03 -0.77177971682E+03  0.10281028331E+04  0.46999998093E+01 0.  1.
</event>
<event>
 5   0  0.2316714E-05  0.1399155E+04  0.7818609E-02  0.8954431E-01
        1   -1    0    0  501    0  0.00000000000E+00  0.00000000000E+00  0.51794693500E+03  0.51794693502E+03  0.50400001928E-02 0. -1.
       -1   -1    0    0    0  501  0.00000000000E+00  0.00000000000E+00 -0.94490095055E+03  0.94490095056E+03  0.50400001928E-02 0.  1.
    10030    2    1    2    0    0  0.00000000000E+00  0.00000000000E+00 -0.42695401555E+03  0.14628478856E+04  0.13991548181E+04 0.  0.
        5    1    3    3  502    0  0.53479868627E+03 -0.24091569593E+03  0.18510773972E+03  0.61509102796E+03  0.46999998093E+01 0. -1.
       -5    1    3    3    0  502 -0.53479868627E+03  0.24091569593E+03 -0.61206175527E+03  0.84775685762E+03  0.46999998093E+01 0.  1.
</event>
<event>
 5   0  0.4527503E-05  0.1399557E+04  0.7818609E-02  0.8954139E-01
        2   -1    0    0  501    0  0.00000000000E+00  0.00000000000E+00  0.12497649980E+04  0.12497649980E+04  0.25500000920E-02 0. -1.
       -2   -1    0    0    0  501  0.00000000000E+00  0.00000000000E+00 -0.39182580493E+03  0.39182580494E+03  0.25500000920E-02 0.  1.
    10030    2    1    2    0    0  0.00000000000E+00  0.00000000000E+00  0.85793919305E+03  0.16415908029E+04  0.13995573247E+04 0.  0.
        4    1    3    3  502    0  0.25566858945E+03 -0.25364052793E+03  0.11327199140E+04  0.11885941114E+04  0.12699999809E+01 0. -1.
       -4    1    3    3    0  502 -0.25566858945E+03  0.25364052793E+03 -0.27478072097E+03  0.45299669156E+03  0.12699999809E+01 0.  1.
</event>
<event>
 5   0  0.2427569E-05  0.1396351E+04  0.7818609E-02  0.8956464E-01
        1   -1    0    0  501    0  0.00000000000E+00  0.00000000000E+00  0.92315984656E+03  0.92315984658E+03  0.50400001928E-02 0.  1.
       -1   -1    0    0    0  501  0.00000000000E+00  0.00000000000E+00 -0.52802263200E+03  0.52802263203E+03  0.50400001928E-02 0. -1.
    10030    2    1    2    0    0  0.00000000000E+00  0.00000000000E+00  0.39513721456E+03  0.14511824786E+04  0.13963513769E+04 0.  0.
        1    1    3    3  502    0  0.13833795899E+03  0.26901684981E+03 -0.45637907452E+03  0.54753019649E+03  0.50400001928E-02 0. -1.
       -1    1    3    3    0  502 -0.13833795899E+03 -0.26901684981E+03  0.85151628908E+03  0.90365228212E+03  0.50400001928E-02 0.  1.
</event>
<event>
 5   0  0.2316714E-05  0.1399491E+04  0.7818609E-02  0.8954187E-01
        1   -1    0    0  501    0  0.00000000000E+00  0.00000000000E+00  0.12063639352E+04  0.12063639352E+04  0.50400001928E-02 0. -1.
       -1   -1    0    0    0  501  0.00000000000E+00  0.00000000000E+00 -0.40588413164E+03  0.40588413167E+03  0.50400001928E-02 0.  1.
    10030    2    1    2    0    0  0.00000000000E+00  0.00000000000E+00  0.80047980351E+03  0.16122480668E+04  0.13994913051E+04 0.  0.
        5    1    3    3  502    0  0.37752479122E+02  0.60297309400E+03 -0.64427854026E+01  0.60420642272E+03  0.46999998093E+01 0.  1.
       -5    1    3    3    0  502 -0.37752479122E+02 -0.60297309400E+03  0.80692258892E+03  0.10080416441E+04  0.46999998093E+01 0. -1.
</event>
<event>
 5   0  0.2363419E-05  0.1400455E+04  0.7818609E-02  0.8953489E-01
       -1   -1    0    0    0  501  0.00000000000E+00  0.00000000000E+00  0.23165934389E+03  0.23165934394E+03  0.50400001928E-02 0. -1.
        1   -1    0    0  501    0  0.00000000000E+00  0.00000000000E+00 -0.21165503029E+04  0.21165503029E+04  0.50400001928E-02 0.  1.
    10030    2    1    2    0    0  0.00000000000E+00  0.00000000000E+00 -0.18848909590E+04  0.23482096468E+04  0.14004551468E+04 0.  0.
        2    1    3    3  502    0  0.16482657352E+03  0.15164470065E+03  0.16997853446E+03  0.28117008511E+03  0.25500000920E-02 0. -1.
       -2    1    3    3    0  502 -0.16482657352E+03 -0.15164470065E+03 -0.20548694934E+04  0.20670395617E+04  0.25500000920E-02 0.  1.
</event>
<event>
 5   0  0.2363419E-05  0.1400251E+04  0.7818609E-02  0.8953637E-01
       -1   -1    0    0    0  501  0.00000000000E+00  0.00000000000E+00  0.10279832208E+04  0.10279832208E+04  0.50400001928E-02 0. -1.
        1   -1    0    0  501    0  0.00000000000E+00  0.00000000000E+00 -0.47683248580E+03  0.47683248582E+03  0.50400001928E-02 0.  1.
    10030    2    1    2    0    0  0.00000000000E+00  0.00000000000E+00  0.55115073496E+03  0.15048157066E+04  0.14002511125E+04 0.  0.
        2    1    3    3  502    0  0.61044189292E+03  0.34153142255E+03  0.24346472748E+03  0.74064707571E+03  0.25500000920E-02 0.  1.
       -2    1    3    3    0  502 -0.61044189292E+03 -0.34153142255E+03  0.30768600748E+03  0.76416863088E+03  0.25500000920E-02 0. -1.
</event>
<event>
 5   0  0.2316714E-05  0.1399191E+04  0.7818609E-02  0.8954405E-01
       -1   -1    0    0    0  501  0.00000000000E+00  0.00000000000E+00  0.31859855005E+03  0.31859855009E+03  0.50400001928E-02 0.  1.
        1   -1    0    0  501    0  0.00000000000E+00  0.00000000000E+00 -0.15362080608E+04  0.15362080608E+04  0.50400001928E-02 0. -1.
    10030    2    1    2    0    0  0.00000000000E+00  0.00000000000E+00 -0.12176095107E+04  0.18548066109E+04  0.13991907100E+04 0.  0.
        5    1    3    3  502    0  0.39728866987E+03 -0.73611496465E+02 -0.13658703275E+04  0.14243878619E+04  0.46999998093E+01 0. -1.
       -5    1    3    3    0  502 -0.39728866987E+03  0.73611496465E+02  0.14826081682E+03  0.43041874891E+03  0.46999998093E+01 0.  1.
</event>
<event>
 5   0  0.2316714E-05  0.1394407E+04  0.7818609E-02  0.8957877E-01
       -1   -1    0    0    0  501  0.00000000000E+00  0.00000000000E+00  0.52418017102E+03  0.52418017105E+03  0.50400001928E-02 0. -1.
        1   -1    0    0  501    0  0.00000000000E+00  0.00000000000E+00 -0.92733942459E+03  0.92733942461E+03  0.50400001928E-02 0.  1.
    10030    2    1    2    0    0  0.00000000000E+00  0.00000000000E+00 -0.40315925357E+03  0.14515195957E+04  0.13944073124E+04 0.  0.
        5    1    3    3  502    0  0.22297935614E+03  0.59379987292E+03  0.99674379188E+02  0.64208656286E+03  0.46999998093E+01 0. -1.
       -5    1    3    3    0  502 -0.22297935614E+03 -0.59379987292E+03 -0.50283363276E+03  0.80943303279E+03  0.46999998093E+01 0.  1.
</event>
<event>
 5   0  0.2363419E-05  0.1399185E+04  0.7818609E-02  0.8954409E-01
        1   -1    0    0  501    0  0.00000000000E+00  0.00000000000E+00  0.30553561669E+03  0.30553561673E+03  0.50400001928E-02 0. -1.
       -1   -1    0    0    0  501  0.00000000000E+00  0.00000000000E+00 -0.16018741271E+04  0.16018741271E+04  0.50400001928E-02 0.  1.
    10030    2    1    2    0    0  0.00000000000E+00  0.00000000000E+00 -0.12963385104E+04  0.19074097438E+04  0.13991849046E+04 0.  0.
        2    1    3    3  502    0 -0.50635756596E+03 -0.44308389031E+03 -0.38698264509E+03  0.77619384567E+03  0.25500000920E-02 0. -1.
       -2    1    3    3    0  502  0.50635756596E+03  0.44308389031E+03 -0.90935586530E+03  0.11312158981E+04  0.25500000920E-02 0.  1.
</event>
<event>
 5   0  0.2363419E-05  0.1397748E+04  0.7818609E-02  0.8955450E-01
        1   -1    0    0  501    0  0.00000000000E+00  0.00000000000E+00  0.16459212247E+04  0.16459212247E+04  0.50400001928E-02 0.  1.
       -1   -1    0    0    0  501  0.00000000000E+00  0.00000000000E+00 -0.29674866303E+03  0.29674866308E+03  0.50400001928E-02 0. -1.
    10030    2    1    2    0    0  0.00000000000E+00  0.00000000000E+00  0.13491725616E+04  0.19426698878E+04  0.13977480788E+04 0.  0.
        2    1    3    3  502    0 -0.38631408071E+03 -0.24601920926E+03  0.14082687200E+04  0.14808729884E+04  0.25500000920E-02 0.  1.
       -2    1    3    3    0  502  0.38631408071E+03  0.24601920926E+03 -0.59096158319E+02  0.46179689931E+03  0.25500000920E-02 0. -1.
</event>
<event>
 5   0  0.1661000E-05  0.1397047E+04  0.7818609E-02  0.8955959E-01
       -4   -1    0    0    0  501  0.00000000000E+00  0.00000000000E+00  0.73502237964E+03  0.73502347682E+03  0.12699999809E+01 0.  1.
        4   -1    0    0  501    0  0.00000000000E+00  0.00000000000E+00 -0.66383438022E+03  0.66383559505E+03  0.12699999809E+01 0. -1.
    10030    2    1    2    0    0  0.00000000000E+00  0.00000000000E+00  0.71187999424E+02  0.13988590719E+04  0.13970465174E+04 0.  0.
        5    1    3    3  502    0 -0.35623758759E+03 -0.49775401961E+03 -0.30136656453E+03  0.68228159807E+03  0.46999998093E+01 0. -1.
       -5    1    3    3    0  502  0.35623758759E+03  0.49775401961E+03  0.37255456395E+03  0.71657747381E+03  0.46999998093E+01 0.  1.
</event>
<event>
 5   0  0.4460282E-05  0.1399867E+04  0.7818609E-02  0.8953915E-01
       -2   -1    0    0    0  501  0.00000000000E+00  0.00000000000E+00  0.38096457553E+03  0.38096457554E+03  0.25500000920E-02 0.  1.
        2   -1    0    0  501    0  0.00000000000E+00  0.00000000000E+00 -0.12859648592E+04  0.12859648592E+04  0.25500000920E-02 0. -1.
    10030    2    1    2    0    0  0.00000000000E+00  0.00000000000E+00 -0.90500028369E+03  0.16669294348E+04  0.13998672176E+04 0.  0.
        1    1    3    3  502    0 -0.18789599935E+03  0.42678614033E+03  0.16905312526E+03  0.49601439025E+03  0.50400001928E-02 0.  1.
       -1    1    3    3    0  502  0.18789599935E+03 -0.42678614033E+03 -0.10740534090E+04  0.11709150445E+04  0.50400001928E-02 0. -1.
</event>
<event>
 5   0  0.2316714E-05  0.1401893E+04  0.7818609E-02  0.8952450E-01
        1   -1    0    0  501    0  0.00000000000E+00  0.00000000000E+00  0.47922749202E+03  0.47922749205E+03  0.50400001928E-02 0. -1.
       -1   -1    0    0    0  501  0.00000000000E+00  0.00000000000E+00 -0.10252455365E+04  0.10252455365E+04  0.50400001928E-02 0.  1.
    10030    2    1    2    0    0  0.00000000000E+00  0.00000000000E+00 -0.54601804444E+03  0.15044730285E+04  0.14018927879E+04 0.  0.
        5    1    3    3  502    0 -0.33276132086E+03 -0.57862146238E+03 -0.50260493846E+03  0.83556370645E+03  0.46999998093E+01 0.  1.
       -5    1    3    3    0  502  0.33276132086E+03  0.57862146238E+03 -0.43413105985E+02  0.66890932207E+03  0.46999998093E+01 0. -1.
</event>
<event>
 5   0  0.2363419E-05  0.1400673E+04  0.7818609E-02  0.8953332E-01
        1   -1    0    0  501    0  0.00000000000E+00  0.00000000000E+00  0.78200195751E+03  0.78200195753E+03  0.50400001928E-02 0.  1.
       -1   -1    0    0    0  501  0.00000000000E+00  0.00000000000E+00 -0.62719921925E+03  0.62719921927E+03  0.50400001928E-02 0. -1.
    10030    2    1    2    0    0  0.00000000000E+00  0.00000000000E+00  0.15480273827E+03  0.14092011768E+04  0.14006727201E+04 0.  0.
        2    1    3    3  502    0 -0.23238200652E+03 -0.61384828528E+03  0.32314235603E+03  0.73159558266E+03  0.25500000920E-02 0.  1.
       -2    1    3    3    0  502  0.23238200652E+03  0.61384828528E+03 -0.16833961777E+03  0.67760559414E+03  0.25500000920E-02 0. -1.
</event>
<event>
 5   0  0.2427569E-05  0.1400474E+04  0.7818609E-02  0.8953475E-01
        1   -1    0    0  501    0  0.00000000000E+00  0.00000000000E+00  0.48464943758E+03  0.48464943761E+03  0.50400001928E-02 0. -1.
       -1   -1    0    0    0  501  0.00000000000E+00  0.00000000000E+00 -0.10117249279E+04  0.10117249280E+04  0.50400001928E-02 0.  1.
    10030    2    1    2    0    0  0.00000000000E+00  0.00000000000E+00 -0.52707549037E+03  0.14963743656E+04  0.14004740874E+04 0.  0.
        1    1    3    3  502    0  0.62134507404E+03 -0.31397110048E+03 -0.34409527403E+03  0.77656236750E+03  0.50400001928E-02 0. -1.
       -1    1    3    3    0  502 -0.62134507404E+03  0.31397110048E+03 -0.18298021633E+03  0.71981199807E+03  0.50400001928E-02 0.  1.
</event>
<event>
 5   0  0.4621450E-05  0.1400027E+04  0.7818609E-02  0.8953799E-01
        2   -1    0    0  501    0  0.00000000000E+00  0.00000000000E+00  0.11890588254E+04  0.11890588254E+04  0.25500000920E-02 0. -1.
       -2   -1    0    0    0  501  0.00000000000E+00  0.00000000000E+00 -0.41210645992E+03  0.41210645992E+03  0.25500000920E-02 0.  1.
    10030    2    1    2    0    0  0.00000000000E+00  0.00000000000E+00  0.77695236547E+03  0.16011652853E+04  0.14000268900E+04 0.  0.
        5    1    3    3  502    0 -0.16597883710E+03 -0.38846270196E+03 -0.24987523086E+03  0.49082783761E+03  0.46999998093E+01 0.  1.
       -5    1    3    3    0  502  0.16597883710E+03  0.38846270196E+03  0.10268275963E+04  0.11103374477E+04  0.46999998093E+01 0. -1.
</event>
<event>
 5   0  0.4621450E-05  0.1399457E+04  0.7818609E-02  0.8954212E-01
        2   -1    0    0  501    0  0.00000000000E+00  0.00000000000E+00  0.14839362320E+04  0.14839362320E+04  0.25500000920E-02 0. -1.
       -2   -1    0    0    0  501  0.00000000000E+00  0.00000000000E+00 -0.32994654313E+03  0.32994654314E+03  0.25500000920E-02 0.  1.
    10030    2    1    2    0    0  0.00000000000E+00  0.00000000000E+00  0.11539896888E+04  0.18138827751E+04  0.13994565088E+04 0.  0.
        5    1    3    3  502    0 -0.19226179893E+03 -0.36470714978E+03 -0.15577551724E+03  0.44075390662E+03  0.46999998093E+01 0.  1.
       -5    1    3    3    0  502  0.19226179893E+03  0.36470714978E+03  0.13097652061E+04  0.13731288685E+04  0.46999998093E+01 0. -1.
</event>
<event>
 5   0  0.4527503E-05  0.1400190E+04  0.7818609E-02  0.8953681E-01
       -2   -1    0    0    0  501  0.00000000000E+00  0.00000000000E+00  0.52098162325E+03  0.52098162326E+03  0.25500000920E-02 0.  1.
        2   -1    0    0  501    0  0.00000000000E+00  0.00000000000E+00 -0.94078816770E+03  0.94078816770E+03  0.25500000920E-02 0. -1.
    10030    2    1    2    0    0  0.00000000000E+00  0.00000000000E+00 -0.41980654445E+03  0.14617697910E+04  0.14001904824E+04 0.  0.
        4    1    3    3  502    0 -0.45071706503E+03 -0.32412277799E+03 -0.65519472826E+03  0.85876841625E+03  0.12699999809E+01 0. -1.
       -4    1    3    3    0  502  0.45071706503E+03  0.32412277799E+03  0.23538818381E+03  0.60300137470E+03  0.12699999809E+01 0.  1.
</event>
<event>
 5   0  0.2316714E-05  0.1400159E+04  0.7818609E-02  0.8953704E-01
       -1   -1    0    0    0  501  0.00000000000E+00  0.00000000000E+00  0.10164111751E+04  0.10164111752E+04  0.50400001928E-02 0.  1.
        1   -1    0    0  501    0  0.00000000000E+00  0.00000000000E+00 -0.48219754018E+03  0.48219754021E+03  0.50400001928E-02 0. -1.
    10030    2    1    2    0    0  0.00000000000E+00  0.00000000000E+00  0.53421363496E+03  0.14986087154E+04  0.14001585175E+04 0.  0.
        5    1    3    3  502    0 -0.39865585287E+03 -0.42959017385E+03  0.67693305966E+03  0.89539637242E+03  0.46999998093E+01 0.  1.
       -5    1    3    3    0  502  0.39865585287E+03  0.42959017385E+03 -0.14271942470E+03  0.60321234294E+03  0.46999998093E+01 0. -1.
</event>
<event>
 5   0  0.4243281E-05  0.1399926E+04  0.7818609E-02  0.8953872E-01
       -2   -1    0    0    0  501  0.00000000000E+00  0.00000000000E+00  0.20480518698E+03  0.20480518700E+03  0.25500000920E-02 0.  1.
        2   -1    0    0  501    0  0.00000000000E+00  0.00000000000E+00 -0.23922630155E+04  0.23922630155E+04  0.25500000920E-02 0. -1.
    10030    2    1    2    0    0  0.00000000000E+00  0.00000000000E+00 -0.21874578285E+04  0.25970682025E+04  0.13999255326E+04 0.  0.
        2    1    3    3  502    0  0.69779139004E+03 -0.51703043952E+01 -0.99197753541E+03  0.12128309803E+04  0.25500000920E-02 0.  1.
       -2    1    3    3    0  502 -0.69779139004E+03  0.51703043952E+01 -0.11954802931E+04  0.13842372222E+04  0.25500000920E-02 0. -1.
</event>
<event>
 5   0  0.2363419E-05  0.1398415E+04  0.7818609E-02  0.8954966E-01
       -1   -1    0    0    0  501  0.00000000000E+00  0.00000000000E+00  0.51054275780E+03  0.51054275782E+03  0.50400001928E-02 0. -1.
        1   -1    0    0  501    0  0.00000000000E+00  0.00000000000E+00 -0.95759134548E+03  0.95759134549E+03  0.50400001928E-02 0.  1.
    10030    2    1    2    0    0  0.00000000000E+00  0.00000000000E+00 -0.44704858768E+03  0.14681341033E+04  0.13984152837E+04 0.  0.
        2    1    3    3  502    0 -0.23633550399E+03 -0.11002025291E+03  0.45761469908E+03  0.52665941491E+03  0.25500000920E-02 0. -1.
       -2    1    3    3    0  502  0.23633550399E+03  0.11002025291E+03 -0.90466328676E+03  0.94147468841E+03  0.25500000920E-02 0.  1.
</event>
<event>
 5   0  0.4243281E-05  0.1400443E+04  0.7818609E-02  0.8953498E-01
        2   -1    0    0  501    0  0.00000000000E+00  0.00000000000E+00  0.17849151009E+04  0.17849151009E+04  0.25500000920E-02 0. -1.
       -2   -1    0    0    0  501  0.00000000000E+00  0.00000000000E+00 -0.27469667785E+03  0.27469667786E+03  0.25500000920E-02 0.  1.
    10030    2    1    2    0    0  0.00000000000E+00  0.00000000000E+00  0.15102184231E+04  0.20596117788E+04  0.14004431420E+04 0.  0.
        2    1    3    3  502    0 -0.55469682567E+02  0.69749766397E+03  0.79485506366E+03  0.10589496915E+04  0.25500000920E-02 0.  1.
       -2    1    3    3    0  502  0.55469682567E+02 -0.69749766397E+03  0.71536335943E+03  0.10006620873E+04  0.25500000920E-02 0. -1.
</event>
<event>
 5   0  0.2316714E-05  0.1400105E+04  0.7818609E-02  0.8953743E-01
       -1   -1    0    0    0  501  0.00000000000E+00  0.00000000000E+00  0.30223581472E+03  0.30223581476E+03  0.50400001928E-02 0.  1.
        1   -1    0    0  501    0  0.00000000000E+00  0.00000000000E+00 -0.16214933038E+04  0.16214933038E+04  0.50400001928E-02 0. -1.
    10030    2    1    2    0    0  0.00000000000E+00  0.00000000000E+00 -0.13192574890E+04  0.19237291185E+04  0.14001047815E+04 0.  0.
        5    1    3    3  502    0  0.65515596272E+03  0.23328019868E+03 -0.76956741507E+03  0.10372584456E+04  0.46999998093E+01 0. -1.
       -5    1    3    3    0  502 -0.65515596272E+03 -0.23328019868E+03 -0.54969007397E+03  0.88647067295E+03  0.46999998093E+01 0.  1.
</event>
<event>
 5   0  0.4527503E-05  0.1399761E+04  0.7818609E-02  0.8953991E-01
       -2   -1    0    0    0  501  0.00000000000E+00  0.00000000000E+00  0.58277273238E+03  0.58277273238E+03  0.25500000920E-02 0.  1.
        2   -1    0    0  501    0  0.00000000000E+00  0.00000000000E+00 -0.84052110598E+03  0.84052110599E+03  0.25500000920E-02 0. -1.
    10030    2    1    2    0    0  0.00000000000E+00  0.00000000000E+00 -0.25774837360E+03  0.14232938384E+04  0.13997610961E+04 0.  0.
        4    1    3    3  502    0 -0.38642246368E+03 -0.57996057533E+03 -0.19441384556E+03  0.72351568444E+03  0.12699999809E+01 0. -1.
       -4    1    3    3    0  502  0.38642246368E+03  0.57996057533E+03 -0.63334528043E+02  0.69977815393E+03  0.12699999809E+01 0.  1.
</event>
<event>
 5   0  0.2427569E-05  0.1400180E+04  0.7818609E-02  0.8953688E-01
        1   -1    0    0  501    0  0.00000000000E+00  0.00000000000E+00  0.12212543468E+04  0.12212543468E+04  0.50400001928E-02 0.  1.
       -1   -1    0    0    0  501  0.00000000000E+00  0.00000000000E+00 -0.40133002776E+03  0.40133002780E+03  0.50400001928E-02 0. -1.
    10030    2    1    2    0    0  0.00000000000E+00  0.00000000000E+00  0.81992431899E+03  0.16225843746E+04  0.14001800469E+04 0.  0.
        1    1    3    3  502    0  0.46921303955E+03 -0.15788867598E+03  0.98360112630E+03  0.11011634239E+04  0.50400001928E-02 0.  1.
       -1    1    3    3    0  502 -0.46921303955E+03  0.15788867598E+03 -0.16367680731E+03  0.52142095064E+03  0.50400001928E-02 0. -1.
</event>
<event>
 5   0  0.2316714E-05  0.1400473E+04  0.7818609E-02  0.8953477E-01
        1   -1    0    0  501    0  0.00000000000E+00  0.00000000000E+00  0.53120974766E+03  0.53120974768E+03  0.50400001928E-02 0.  1.
       -1   -1    0    0    0  501  0.00000000000E+00  0.00000000000E+00 -0.92304559196E+03  0.92304559197E+03  0.50400001928E-02 0. -1.
    10030    2    1    2    0    0  0.00000000000E+00  0.00000000000E+00 -0.39183584430E+03  0.14542553397E+04  0.14004725146E+04 0.  0.
        5    1    3    3  502    0 -0.62552644393E+03  0.25908050455E+03 -0.38139049765E+03  0.77710156453E+03  0.46999998093E+01 0. -1.
       -5    1    3    3    0  502  0.62552644393E+03 -0.25908050455E+03 -0.10445346646E+02  0.67715377512E+03  0.46999998093E+01 0.  1.
</event>
<event>
 5   0  0.2427569E-05  0.1401536E+04  0.7818609E-02  0.8952707E-01
       -1   -1    0    0    0  501  0.00000000000E+00  0.00000000000E+00  0.48246365775E+03  0.48246365778E+03  0.50400001928E-02 0. -1.
        1   -1    0    0  501    0  0.00000000000E+00  0.00000000000E+00 -0.10178506074E+04  0.10178506074E+04  0.50400001928E-02 0.  1.
    10030    2    1    2    0    0  0.00000000000E+00  0.00000000000E+00 -0.53538694966E+03  0.15003142652E+04  0.14015361959E+04 0.  0.
        1    1    3    3  502    0  0.63525729802E+03  0.27494111721E+03 -0.38462321338E+03  0.79188349454E+03  0.50400001928E-02 0. -1.
       -1    1    3    3    0  502 -0.63525729802E+03 -0.27494111721E+03 -0.15076373628E+03  0.70843077067E+03  0.50400001928E-02 0.  1.
</event>
<event>
 5   0  0.4243281E-05  0.1399978E+04  0.7818609E-02  0.8953834E-01
        2   -1    0    0  501    0  0.00000000000E+00  0.00000000000E+00  0.11924001297E+04  0.11924001297E+04  0.25500000920E-02 0.  1.
       -2   -1    0    0    0  501  0.00000000000E+00  0.00000000000E+00 -0.41092294983E+03  0.41092294984E+03  0.25500000920E-02 0. -1.
    10030    2    1    2    0    0  0.00000000000E+00  0.00000000000E+00  0.78147717985E+03  0.16033230795E+04  0.13999779694E+04 0.  0.
        2    1    3    3  502    0 -0.61621780201E+03 -0.51626223493E+02  0.15077900839E+02  0.61856041707E+03  0.25500000920E-02 0. -1.
       -2    1    3    3    0  502  0.61621780201E+03  0.51626223493E+02  0.76639927901E+03  0.98476266244E+03  0.25500000920E-02 0.  1.
</event>
<event>
 5   0  0.4441253E-05  0.1399394E+04  0.7818609E-02  0.8954257E-01
       -2   -1    0    0    0  501  0.00000000000E+00  0.00000000000E+00  0.49182147394E+03  0.49182147395E+03  0.25500000920E-02 0.  1.
        2   -1    0    0  501    0  0.00000000000E+00  0.00000000000E+00 -0.99543396935E+03  0.99543396935E+03  0.25500000920E-02 0. -1.
    10030    2    1    2    0    0  0.00000000000E+00  0.00000000000E+00 -0.50361249541E+03  0.14872554433E+04  0.13993938717E+04 0.  0.
        3    1    3    3  502    0 -0.20615862785E+03  0.38669606249E+03  0.32791429851E+03  0.54732350758E+03  0.10100000352E+00 0.  1.
       -3    1    3    3    0  502  0.20615862785E+03 -0.38669606249E+03 -0.83152679392E+03  0.93993193572E+03  0.10100000352E+00 0. -1.
</event>
<event>
 5   0  0.2316714E-05  0.1399862E+04  0.7818609E-02  0.8953919E-01
        1   -1    0    0  501    0  0.00000000000E+00  0.00000000000E+00  0.24254486208E+04  0.24254486208E+04  0.50400001928E-02 0.  1.
       -1   -1    0    0    0  501  0.00000000000E+00  0.00000000000E+00 -0.20198457465E+03  0.20198457472E+03  0.50400001928E-02 0. -1.
    10030    2    1    2    0    0  0.00000000000E+00  0.00000000000E+00  0.22234640461E+04  0.26274331955E+04  0.13998617190E+04 0.  0.
        5    1    3    3  502    0 -0.33961893041E+03  0.59036173785E+03  0.14144531674E+04  0.15698942169E+04  0.46999998093E+01 0.  1.
       -5    1    3    3    0  502  0.33961893041E+03 -0.59036173785E+03  0.80901087872E+03  0.10575389786E+04  0.46999998093E+01 0. -1.
</event>
<event>
 5   0  0.4621450E-05  0.1400057E+04  0.7818609E-02  0.8953777E-01
        2   -1    0    0  501    0  0.00000000000E+00  0.00000000000E+00  0.83674522032E+03  0.83674522032E+03  0.25500000920E-02 0. -1.
       -2   -1    0    0    0  501  0.00000000000E+00  0.00000000000E+00 -0.58565010076E+03  0.58565010077E+03  0.25500000920E-02 0.  1.
    10030    2    1    2    0    0  0.00000000000E+00  0.00000000000E+00  0.25109511956E+03  0.14223953211E+04  0.14000570311E+04 0.  0.
        5    1    3    3  502    0  0.50549768521E+03  0.14326261682E+03 -0.34439709438E+03  0.62823843861E+03  0.46999998093E+01 0.  1.
       -5    1    3    3    0  502 -0.50549768521E+03 -0.14326261682E+03  0.59549221394E+03  0.79415688248E+03  0.46999998093E+01 0. -1.
</event>
<event>
 5   0  0.4621450E-05  0.1399337E+04  0.7818609E-02  0.8954298E-01
        2   -1    0    0  501    0  0.00000000000E+00  0.00000000000E+00  0.46671005082E+03  0.46671005083E+03  0.25500000920E-02 0. -1.
       -2   -1    0    0    0  501  0.00000000000E+00  0.00000000000E+00 -0.10489086328E+04  0.10489086328E+04  0.25500000920E-02 0.  1.
    10030    2    1    2    0    0  0.00000000000E+00  0.00000000000E+00 -0.58219858201E+03  0.15156186837E+04  0.13993372736E+04 0.  0.
        5    1    3    3  502    0  0.22894931557E+03 -0.48875144414E+03  0.19111433058E+03  0.57257535802E+03  0.46999998093E+01 0. -1.
       -5    1    3    3    0  502 -0.22894931557E+03  0.48875144414E+03 -0.77331291259E+03  0.94304332564E+03  0.46999998093E+01 0.  1.
</event>
<event>
 5   0  0.4621450E-05  0.1400715E+04  0.7818609E-02  0.8953301E-01
       -2   -1    0    0    0  501  0.00000000000E+00  0.00000000000E+00  0.45324592459E+03  0.45324592459E+03  0.25500000920E-02 0.  1.
        2   -1    0    0  501    0  0.00000000000E+00  0.00000000000E+00 -0.10821958683E+04  0.10821958683E+04  0.25500000920E-02 0. -1.
    10030    2    1    2    0    0  0.00000000000E+00  0.00000000000E+00 -0.62894994376E+03  0.15354417929E+04  0.14007153414E+04 0.  0.
        5    1    3    3  502    0  0.79325030008E+02  0.40642568883E+03  0.30465504549E+03  0.51411194080E+03  0.46999998093E+01 0.  1.
       -5    1    3    3    0  502 -0.79325030008E+02 -0.40642568883E+03 -0.93360498925E+03  0.10213298521E+04  0.46999998093E+01 0. -1.
</event>
<event>
 5   0  0.2427569E-05  0.1400193E+04  0.7818609E-02  0.8953679E-01
        1   -1    0    0  501    0  0.00000000000E+00  0.00000000000E+00  0.60388533761E+03  0.60388533763E+03  0.50400001928E-02 0. -1.
       -1   -1    0    0    0  501  0.00000000000E+00  0.00000000000E+00 -0.81163584788E+03  0.81163584790E+03  0.50400001928E-02 0.  1.
    10030    2    1    2    0    0  0.00000000000E+00  0.00000000000E+00 -0.20775051027E+03  0.14155211855E+04  0.14001928268E+04 0.  0.
        1    1    3    3  502    0  0.11792976447E+03 -0.41052203775E+01  0.59375949069E+03  0.60537146860E+03  0.50400001928E-02 0. -1.
       -1    1    3    3    0  502 -0.11792976447E+03  0.41052203775E+01 -0.80151000096E+03  0.81014971694E+03  0.50400001928E-02 0.  1.
</event>
<event>
 5   0  0.4527503E-05  0.1402594E+04  0.7818609E-02  0.8951943E-01
       -2   -1    0    0    0  501  0.00000000000E+00  0.00000000000E+00  0.68354895627E+03  0.68354895628E+03  0.25500000920E-02 0.  1.
        2   -1    0    0  501    0  0.00000000000E+00  0.00000000000E+00 -0.71950634937E+03  0.71950634937E+03  0.25500000920E-02 0. -1.
    10030    2    1    2    0    0  0.00000000000E+00  0.00000000000E+00 -0.35957393092E+02  0.14030553056E+04  0.14025944733E+04 0.  0.
        4    1    3    3  502    0  0.59930424756E+03 -0.47130295863E+02  0.34329000728E+03  0.69226908636E+03  0.12699999809E+01 0.  1.
       -4    1    3    3    0  502 -0.59930424756E+03  0.47130295863E+02 -0.37924740037E+03  0.71078621928E+03  0.12699999809E+01 0. -1.
</event>
<event>
 5   0  0.2427569E-05  0.1400142E+04  0.7818609E-02  0.8953716E-01
        1   -1    0    0  501    0  0.00000000000E+00  0.00000000000E+00  0.10907785605E+04  0.10907785605E+04  0.50400001928E-02 0.  1.
       -1   -1    0    0    0  501  0.00000000000E+00  0.00000000000E+00 -0.44931136259E+03  0.44931136262E+03  0.50400001928E-02 0. -1.
    10030    2    1    2    0    0  0.00000000000E+00  0.00000000000E+00  0.64146719792E+03  0.15400899231E+04  0.14001417090E+04 0.  0.
        1    1    3    3  502    0 -0.43458899468E+03 -0.43521934627E+03 -0.47078095491E+02  0.61684667525E+03  0.50400001928E-02 0. -1.
       -1    1    3    3    0  502  0.43458899468E+03  0.43521934627E+03  0.68854529341E+03  0.92324324789E+03  0.50400001928E-02 0.  1.
</event>
<event>
 5   0  0.2427569E-05  0.1400212E+04  0.7818609E-02  0.8953665E-01
       -1   -1    0    0    0  501  0.00000000000E+00  0.00000000000E+00  0.93052718097E+03  0.93052718098E+03  0.50400001928E-02 0. -1.
        1   -1    0    0  501    0  0.00000000000E+00  0.00000000000E+00 -0.52674263370E+03  0.52674263373E+03  0.50400001928E-02 0.  1.
    10030    2    1    2    0    0  0.00000000000E+00  0.00000000000E+00  0.40378454726E+03  0.14572698147E+04  0.14002118955E+04 0.  0.
        1    1    3    3  502    0  0.39777243337E+03  0.52117666195E+03 -0.53675448142E+02  0.65782146170E+03  0.50400001928E-02 0.  1.
       -1    1    3    3    0  502 -0.39777243337E+03 -0.52117666195E+03  0.45745999541E+03  0.79944835301E+03  0.50400001928E-02 0. -1.
</event>
<event>
 5   0  0.2363419E-05  0.1399531E+04  0.7818609E-02  0.8954158E-01
        1   -1    0    0  501    0  0.00000000000E+00  0.00000000000E+00  0.45035785576E+03  0.45035785579E+03  0.50400001928E-02 0.  1.
       -1   -1    0    0    0  501  0.00000000000E+00  0.00000000000E+00 -0.10872953612E+04  0.10872953612E+04  0.50400001928E-02 0. -1.
    10030    2    1    2    0    0  0.00000000000E+00  0.00000000000E+00 -0.63693750542E+03  0.15376532170E+04  0.13995313608E+04 0.  0.
        2    1    3    3  502    0  0.26786643860E+03  0.12073246433E+02 -0.10286126753E+04  0.10629874073E+04  0.25500000920E-02 0. -1.
       -2    1    3    3    0  502 -0.26786643860E+03 -0.12073246433E+02  0.39167516988E+03  0.47466580972E+03  0.25500000920E-02 0.  1.
</event>
<event>
 5   0  0.4527503E-05  0.1399433E+04  0.7818609E-02  0.8954229E-01
       -2   -1    0    0    0  501  0.00000000000E+00  0.00000000000E+00  0.33357806778E+03  0.33357806779E+03  0.25500000920E-02 0. -1.
        2   -1    0    0  501    0  0.00000000000E+00  0.00000000000E+00 -0.14677328247E+04  0.14677328247E+04  0.25500000920E-02 0.  1.
    10030    2    1    2    0    0  0.00000000000E+00  0.00000000000E+00 -0.11341547569E+04  0.18013108925E+04  0.13994334278E+04 0.  0.
        4    1    3    3  502    0 -0.59133684871E+01 -0.37466948716E+02  0.33225228336E+03  0.33441281804E+03  0.12699999809E+01 0. -1.
       -4    1    3    3    0  502  0.59133684871E+01  0.37466948716E+02 -0.14664070403E+04  0.14668980745E+04  0.12699999809E+01 0.  1.
</event>
<event>
 5   0  0.2428507E-05  0.1396422E+04  0.7818609E-02  0.8956412E-01
       -1   -1    0    0    0  501  0.00000000000E+00  0.00000000000E+00  0.85705383348E+03  0.85705383350E+03  0.50400001928E-02 0. -1.
        1   -1    0    0  501    0  0.00000000000E+00  0.00000000000E+00 -0.56880766578E+03  0.56880766580E+03  0.50400001928E-02 0.  1.
    10030    2    1    2    0    0  0.00000000000E+00  0.00000000000E+00  0.28824616770E+03  0.14258614993E+04  0.13964222721E+04 0.  0.
        4    1    3    3  502    0  0.20899583926E+03 -0.32414099518E+03 -0.45016985273E+03  0.59279098744E+03  0.12699999809E+01 0.  1.
       -4    1    3    3    0  502 -0.20899583926E+03  0.32414099518E+03  0.73841602044E+03  0.83307051185E+03  0.12699999809E+01 0. -1.
</event>
<event>
 5   0  0.2467303E-05  0.1399617E+04  0.7818609E-02  0.8954096E-01
       -1   -1    0    0    0  501  0.00000000000E+00  0.00000000000E+00  0.56791496426E+03  0.56791496429E+03  0.50400001928E-02 0.  1.
        1   -1    0    0  501    0  0.00000000000E+00  0.00000000000E+00 -0.86233261999E+03  0.86233262000E+03  0.50400001928E-02 0. -1.
    10030    2    1    2    0    0  0.00000000000E+00  0.00000000000E+00 -0.29441765572E+03  0.14302475843E+04  0.13996165176E+04 0.  0.
        3    1    3    3  502    0  0.46497094235E+02 -0.41393651210E+03 -0.72185573009E+03  0.83341533529E+03  0.10100000352E+00 0. -1.
       -3    1    3    3    0  502 -0.46497094235E+02  0.41393651210E+03  0.42743807437E+03  0.59683224900E+03  0.10100000352E+00 0.  1.
</event>
<event>
 5   0  0.4460282E-05  0.1399348E+04  0.7818609E-02  0.8954291E-01
       -2   -1    0    0    0  501  0.00000000000E+00  0.00000000000E+00  0.10504635246E+04  0.10504635246E+04  0.25500000920E-02 0.  1.
        2   -1    0    0  501    0  0.00000000000E+00  0.00000000000E+00 -0.46602606248E+03  0.46602606248E+03  0.25500000920E-02 0. -1.
    10030    2    1    2    0    0  0.00000000000E+00  0.00000000000E+00  0.58443746215E+03  0.15164895871E+04  0.13993475339E+04 0.  0.
        1    1    3    3  502    0  0.69484380491E+03 -0.78290359631E+02  0.31889844402E+03  0.76852684485E+03  0.50400001928E-02 0.  1.
       -1    1    3    3    0  502 -0.69484380491E+03  0.78290359631E+02  0.26553901813E+03  0.74796274226E+03  0.50400001928E-02 0. -1.
</event>
<event>
 5   0  0.4621450E-05  0.1400298E+04  0.7818609E-02  0.8953603E-01
        2   -1    0    0  501    0  0.00000000000E+00  0.00000000000E+00  0.43376968439E+03  0.43376968440E+03  0.25500000920E-02 0.  1.
       -2   -1    0    0    0  501  0.00000000000E+00  0.00000000000E+00 -0.11301122215E+04  0.11301122215E+04  0.25500000920E-02 0. -1.
    10030    2    1    2    0    0  0.00000000000E+00  0.00000000000E+00 -0.69634253706E+03  0.15638819059E+04  0.14002977135E+04 0.  0.
        5    1    3    3  502    0 -0.40451208813E+03 -0.40810165971E+03 -0.79491270753E+03  0.98085946837E+03  0.46999998093E+01 0. -1.
       -5    1    3    3    0  502  0.40451208813E+03  0.40810165971E+03  0.98570170470E+02  0.58302243748E+03  0.46999998093E+01 0.  1.
</event>
<event>
 5   0  0.2428507E-05  0.1399940E+04  0.7818609E-02  0.8953862E-01
        1   -1    0    0  501    0  0.00000000000E+00  0.00000000000E+00  0.91084767418E+03  0.91084767420E+03  0.50400001928E-02 0.  1.
       -1   -1    0    0    0  501  0.00000000000E+00  0.00000000000E+00 -0.53791411650E+03  0.53791411652E+03  0.50400001928E-02 0. -1.
    10030    2    1    2    0    0  0.00000000000E+00  0.00000000000E+00  0.37293355769E+03  0.14487617907E+04  0.13999397443E+04 0.  0.
        4    1    3    3  502    0  0.47993463377E+03 -0.69931553187E+01  0.71371476828E+03  0.86010263356E+03  0.12699999809E+01 0.  1.
       -4    1    3    3    0  502 -0.47993463377E+03  0.69931553187E+01 -0.34078121059E+03  0.58865915715E+03  0.12699999809E+01 0. -1.
</event>
<event>
 5   0  0.4527503E-05  0.1400140E+04  0.7818609E-02  0.8953717E-01
        2   -1    0    0  501    0  0.00000000000E+00  0.00000000000E+00  0.11148766823E+04  0.11148766823E+04  0.25500000920E-02 0.  1.
       -2   -1    0    0    0  501  0.00000000000E+00  0.00000000000E+00 -0.43959856877E+03  0.43959856878E+03  0.25500000920E-02 0. -1.
    10030    2    1    2    0    0  0.00000000000E+00  0.00000000000E+00  0.67527811353E+03  0.15544752511E+04  0.14001402700E+04 0.  0.
        4    1    3    3  502    0  0.68302166083E+03 -0.95414390326E+02  0.47120872250E+03  0.83526149684E+03  0.12699999809E+01 0. -1.
       -4    1    3    3    0  502 -0.68302166083E+03  0.95414390326E+02  0.20406939103E+03  0.71921375425E+03  0.12699999809E+01 0.  1.
</event>
<event>
 5   0  0.4243281E-05  0.1399668E+04  0.7818609E-02  0.8954059E-01
       -2   -1    0    0    0  501  0.00000000000E+00  0.00000000000E+00  0.46593020884E+03  0.46593020885E+03  0.25500000920E-02 0. -1.
        2   -1    0    0  501    0  0.00000000000E+00  0.00000000000E+00 -0.10511602528E+04  0.10511602528E+04  0.25500000920E-02 0.  1.
    10030    2    1    2    0    0  0.00000000000E+00  0.00000000000E+00 -0.58523004393E+03  0.15170904616E+04  0.13996675550E+04 0.  0.
        2    1    3    3  502    0  0.62971697032E+02 -0.52635364139E+03  0.20261127706E+03  0.56750763874E+03  0.25500000920E-02 0. -1.
       -2    1    3    3    0  502 -0.62971697032E+02  0.52635364139E+03 -0.78784132099E+03  0.94958282287E+03  0.25500000920E-02 0.  1.
</event>
<event>
 5   0  0.2427569E-05  0.1399698E+04  0.7818609E-02  0.8954038E-01
       -1   -1    0    0    0  501  0.00000000000E+00  0.00000000000E+00  0.14627307281E+04  0.14627307282E+04  0.50400001928E-02 0.  1.
        1   -1    0    0  501    0  0.00000000000E+00  0.00000000000E+00 -0.33484515214E+03  0.33484515218E+03  0.50400001928E-02 0. -1.
    10030    2    1    2    0    0  0.00000000000E+00  0.00000000000E+00  0.11278855760E+04  0.17975758803E+04  0.13996975291E+04 0.  0.
        1    1    3    3  502    0  0.40777372438E+03 -0.56877766317E+03  0.56275679807E+03  0.89804379304E+03  0.50400001928E-02 0.  1.
       -1    1    3    3    0  502 -0.40777372438E+03  0.56877766317E+03  0.56512877793E+03  0.89953208730E+03  0.50400001928E-02 0. -1.
</event>
<event>
 5   0  0.4243281E-05  0.1398959E+04  0.7818609E-02  0.8954572E-01
       -2   -1    0    0    0  501  0.00000000000E+00  0.00000000000E+00  0.18286623975E+03  0.18286623977E+03  0.25500000920E-02 0.  1.
        2   -1    0    0  501    0  0.00000000000E+00  0.00000000000E+00 -0.26755708005E+04  0.26755708005E+04  0.25500000920E-02 0. -1.
    10030    2    1    2    0    0  0.00000000000E+00  0.00000000000E+00 -0.24927045607E+04  0.28584370403E+04  0.13989590008E+04 0.  0.
        2    1    3    3  502    0 -0.20092534248E+03  0.42074282872E+03 -0.23117435169E+04  0.23582946400E+04  0.25500000920E-02 0. -1.
       -2    1    3    3    0  502  0.20092534248E+03 -0.42074282872E+03 -0.18096104390E+03  0.50014240030E+03  0.25500000920E-02 0.  1.
</event>
<event>
 5   0  0.2363419E-05  0.1397633E+04  0.7818609E-02  0.8955534E-01
       -1   -1    0    0    0  501  0.00000000000E+00  0.00000000000E+00  0.49846565515E+03  0.49846565517E+03  0.50400001928E-02 0. -1.
        1   -1    0    0  501    0  0.00000000000E+00  0.00000000000E+00 -0.97969552555E+03  0.97969552556E+03  0.50400001928E-02 0.  1.
    10030    2    1    2    0    0  0.00000000000E+00  0.00000000000E+00 -0.48122987040E+03  0.14781611807E+04  0.13976331021E+04 0.  0.
        2    1    3    3  502    0 -0.19778161321E+03  0.26075572276E+02  0.46771015677E+03  0.50847840932E+03  0.25500000920E-02 0. -1.
       -2    1    3    3    0  502  0.19778161321E+03 -0.26075572276E+02 -0.94894002718E+03  0.96968277141E+03  0.25500000920E-02 0.  1.
</event>
<event>
 5   0  0.2428507E-05  0.1400569E+04  0.7818609E-02  0.8953407E-01
       -1   -1    0    0    0  501  0.00000000000E+00  0.00000000000E+00  0.53310599228E+03  0.53310599231E+03  0.50400001928E-02 0.  1.
        1   -1    0    0  501    0  0.00000000000E+00  0.00000000000E+00 -0.91988899906E+03  0.91988899907E+03  0.50400001928E-02 0. -1.
    10030    2    1    2    0    0  0.00000000000E+00  0.00000000000E+00 -0.38678300677E+03  0.14529949914E+04  0.14005689382E+04 0.  0.
        4    1    3    3  502    0 -0.64894172291E+03 -0.14998900195E+03  0.30978588927E+02  0.66677083493E+03  0.12699999809E+01 0.  1.
       -4    1    3    3    0  502  0.64894172291E+03  0.14998900195E+03 -0.41776159570E+03  0.78622415645E+03  0.12699999809E+01 0. -1.
</event>
<event>
 5   0  0.4460282E-05  0.1399726E+04  0.7818609E-02  0.8954017E-01
       -2   -1    0    0    0  501  0.00000000000E+00  0.00000000000E+00  0.51746023646E+03  0.51746023647E+03  0.25500000920E-02 0.  1.
        2   -1    0    0  501    0  0.00000000000E+00  0.00000000000E+00 -0.94656194549E+03  0.94656194550E+03  0.25500000920E-02 0. -1.
    10030    2    1    2    0    0  0.00000000000E+00  0.00000000000E+00 -0.42910170903E+03  0.14640221820E+04  0.13997259277E+04 0.  0.
        1    1    3    3  502    0 -0.20222625847E+03  0.29973328331E+03 -0.84130299176E+03  0.91571077569E+03  0.50400001928E-02 0. -1.
       -1    1    3    3    0  502  0.20222625847E+03 -0.29973328331E+03  0.41220128274E+03  0.54831140628E+03  0.50400001928E-02 0.  1.
</event>
<event>
 5   0  0.4243281E-05  0.1401057E+04  0.7818609E-02  0.8953054E-01
        2   -1    0    0  501    0  0.00000000000E+00  0.00000000000E+00  0.49360796234E+03  0.49360796234E+03  0.25500000920E-02 0.  1.
       -2   -1    0    0    0  501  0.00000000000E+00  0.00000000000E+00 -0.99419026420E+03  0.99419026420E+03  0.25500000920E-02 0. -1.
    10030    2    1    2    0    0  0.00000000000E+00  0.00000000000E+00 -0.50058230186E+03  0.14877982265E+04  0.14010570731E+04 0.  0.
        2    1    3    3  502    0 -0.74623589688E+02 -0.58399806052E+03 -0.65342293941E+03  0.87953621448E+03  0.25500000920E-02 0. -1.
       -2    1    3    3    0  502  0.74623589688E+02  0.58399806052E+03  0.15284063755E+03  0.60826201206E+03  0.25500000920E-02 0.  1.
</event>
<event>
 5   0  0.2427569E-05  0.1399613E+04  0.7818609E-02  0.8954099E-01
        1   -1    0    0  501    0  0.00000000000E+00  0.00000000000E+00  0.16074220775E+04  0.16074220775E+04  0.50400001928E-02 0.  1.
       -1   -1    0    0    0  501  0.00000000000E+00  0.00000000000E+00 -0.30466720709E+03  0.30466720714E+03  0.50400001928E-02 0. -1.
    10030    2    1    2    0    0  0.00000000000E+00  0.00000000000E+00  0.13027548704E+04  0.19120892846E+04  0.13996125107E+04 0.  0.
        1    1    3    3  502    0  0.44032075536E+03  0.10791706160E+02  0.13943076457E+04  0.14622218161E+04  0.50400001928E-02 0.  1.
       -1    1    3    3    0  502 -0.44032075536E+03 -0.10791706160E+02 -0.91552775357E+02  0.44986746851E+03  0.50400001928E-02 0. -1.
</event>
<event>
 5   0  0.2363419E-05  0.1399579E+04  0.7818609E-02  0.8954123E-01
        1   -1    0    0  501    0  0.00000000000E+00  0.00000000000E+00  0.98463655487E+03  0.98463655488E+03  0.50400001928E-02 0. -1.
       -1   -1    0    0    0  501  0.00000000000E+00  0.00000000000E+00 -0.49734617092E+03  0.49734617094E+03  0.50400001928E-02 0.  1.
    10030    2    1    2    0    0  0.00000000000E+00  0.00000000000E+00  0.48729038395E+03  0.14819827258E+04  0.13995788228E+04 0.  0.
        2    1    3    3  502    0 -0.63285335640E+03  0.49284639459E+02 -0.68270892026E+02  0.63843031029E+03  0.25500000920E-02 0.  1.
       -2    1    3    3    0  502  0.63285335640E+03 -0.49284639459E+02  0.55556127597E+03  0.84355241554E+03  0.25500000920E-02 0. -1.
</event>
<event>
 5   0  0.4460282E-05  0.1398853E+04  0.7818609E-02  0.8954649E-01
       -2   -1    0    0    0  501  0.00000000000E+00  0.00000000000E+00  0.42964617820E+03  0.42964617821E+03  0.25500000920E-02 0.  1.
        2   -1    0    0  501    0  0.00000000000E+00  0.00000000000E+00 -0.11386048664E+04  0.11386048664E+04  0.25500000920E-02 0. -1.
    10030    2    1    2    0    0  0.00000000000E+00  0.00000000000E+00 -0.70895868822E+03  0.15682510446E+04  0.13988527147E+04 0.  0.
        1    1    3    3  502    0  0.47622478000E+03  0.50181442070E+03 -0.46984613671E+03  0.83627934694E+03  0.50400001928E-02 0. -1.
       -1    1    3    3    0  502 -0.47622478000E+03 -0.50181442070E+03 -0.23911255152E+03  0.73197169770E+03  0.50400001928E-02 0.  1.
</event>
<event>
 5   0  0.2363419E-05  0.1400390E+04  0.7818609E-02  0.8953536E-01
        1   -1    0    0  501    0  0.00000000000E+00  0.00000000000E+00  0.11403525623E+04  0.11403525623E+04  0.50400001928E-02 0.  1.
       -1   -1    0    0    0  501  0.00000000000E+00  0.00000000000E+00 -0.42993109363E+03  0.42993109366E+03  0.50400001928E-02 0. -1.
    10030    2    1    2    0    0  0.00000000000E+00  0.00000000000E+00  0.71042146864E+03  0.15702836559E+04  0.14003899803E+04 0.  0.
        2    1    3    3  502    0 -0.45460552610E+03 -0.11825566755E+03 -0.22703609272E+03  0.52172404073E+03  0.25500000920E-02 0. -1.
       -2    1    3    3    0  502  0.45460552610E+03  0.11825566755E+03  0.93745756137E+03  0.10485596152E+04  0.25500000920E-02 0.  1.
</event>
<event>
 5   0  0.2467303E-05  0.1399764E+04  0.7818609E-02  0.8953990E-01
       -1   -1    0    0    0  501  0.00000000000E+00  0.00000000000E+00  0.68487943101E+03  0.68487943102E+03  0.50400001928E-02 0.  1.
        1   -1    0    0  501    0  0.00000000000E+00  0.00000000000E+00 -0.71521305277E+03  0.71521305279E+03  0.50400001928E-02 0. -1.
    10030    2    1    2    0    0  0.00000000000E+00  0.00000000000E+00 -0.30333621768E+02  0.14000924838E+04  0.13997638496E+04 0.  0.
        3    1    3    3  502    0 -0.27747929996E+03  0.24657925178E+03  0.57830090570E+03  0.68718850183E+03  0.10100000352E+00 0.  1.
       -3    1    3    3    0  502  0.27747929996E+03 -0.24657925178E+03 -0.60863452747E+03  0.71290398199E+03  0.10100000352E+00 0. -1.
</event>
<event>
 5   0  0.4527503E-05  0.1400141E+04  0.7818609E-02  0.8953716E-01
        2   -1    0    0  501    0  0.00000000000E+00  0.00000000000E+00  0.14640066825E+04  0.14640066825E+04  0.25500000920E-02 0. -1.
       -2   -1    0    0    0  501  0.00000000000E+00  0.00000000000E+00 -0.33476556628E+03  0.33476556629E+03  0.25500000920E-02 0.  1.
    10030    2    1    2    0    0  0.00000000000E+00  0.00000000000E+00  0.11292411162E+04  0.17987722487E+04  0.14001414587E+04 0.  0.
        4    1    3    3  502    0  0.36073180585E+03 -0.78551439519E+02 -0.19953708632E+03  0.41965989339E+03  0.12699999809E+01 0.  1.
       -4    1    3    3    0  502 -0.36073180585E+03  0.78551439519E+02  0.13287782025E+04  0.13791123554E+04  0.12699999809E+01 0. -1.
</event>
<event>
 5   0  0.4527503E-05  0.1400071E+04  0.7818609E-02  0.8953767E-01
       -2   -1    0    0    0  501  0.00000000000E+00  0.00000000000E+00  0.32954502641E+03  0.32954502642E+03  0.25500000920E-02 0. -1.
        2   -1    0    0  501    0  0.00000000000E+00  0.00000000000E+00 -0.14870502667E+04  0.14870502667E+04  0.25500000920E-02 0.  1.
    10030    2    1    2    0    0  0.00000000000E+00  0.00000000000E+00 -0.11575052403E+04  0.18165952932E+04  0.14000714545E+04 0.  0.
        4    1    3    3  502    0  0.69710764590E+00  0.12134041687E+03  0.31579414333E+03  0.33830686748E+03  0.12699999809E+01 0. -1.
       -4    1    3    3    0  502 -0.69710764590E+00 -0.12134041687E+03 -0.14732993836E+04  0.14782884257E+04  0.12699999809E+01 0.  1.
</event>
<event>
 5   0  0.4527503E-05  0.1400109E+04  0.7818609E-02  0.8953740E-01
        2   -1    0    0  501    0  0.00000000000E+00  0.00000000000E+00  0.14667674023E+04  0.14667674023E+04  0.25500000920E-02 0. -1.
       -2   -1    0    0    0  501  0.00000000000E+00  0.00000000000E+00 -0.33411986834E+03  0.33411986835E+03  0.25500000920E-02 0.  1.
    10030    2    1    2    0    0  0.00000000000E+00  0.00000000000E+00  0.11326475339E+04  0.18008872706E+04  0.14001087548E+04 0.  0.
        4    1    3    3  502    0  0.14834346813E+03 -0.27231107380E+03  0.13736075793E+04  0.14081755929E+04  0.12699999809E+01 0. -1.
       -4    1    3    3    0  502 -0.14834346813E+03  0.27231107380E+03 -0.24096004541E+03  0.39271167774E+03  0.12699999809E+01 0.  1.
</event>
<event>
 5   0  0.4441253E-05  0.1399659E+04  0.7818609E-02  0.8954066E-01
        2   -1    0    0  501    0  0.00000000000E+00  0.00000000000E+00  0.25978825190E+03  0.25978825191E+03  0.25500000920E-02 0.  1.
       -2   -1    0    0    0  501  0.00000000000E+00  0.00000000000E+00 -0.18852320790E+04  0.18852320790E+04  0.25500000920E-02 0. -1.
    10030    2    1    2    0    0  0.00000000000E+00  0.00000000000E+00 -0.16254438271E+04  0.21450203309E+04  0.13996587388E+04 0.  0.
        3    1    3    3  502    0  0.60275108379E+03 -0.91316195740E+02 -0.28602685734E+03  0.67339356244E+03  0.10100000352E+00 0.  1.
       -3    1    3    3    0  502 -0.60275108379E+03  0.91316195740E+02 -0.13394169698E+04  0.14716267685E+04  0.10100000352E+00 0. -1.
</event>
<event>
 5   0  0.2427569E-05  0.1399708E+04  0.7818609E-02  0.8954030E-01
        1   -1    0    0  501    0  0.00000000000E+00  0.00000000000E+00  0.77171079718E+03  0.77171079719E+03  0.50400001928E-02 0. -1.
       -1   -1    0    0    0  501  0.00000000000E+00  0.00000000000E+00 -0.63468768533E+03  0.63468768535E+03  0.50400001928E-02 0.  1.
    10030    2    1    2    0    0  0.00000000000E+00  0.00000000000E+00  0.13702311185E+03  0.14063984825E+04  0.13997075975E+04 0.  0.
        1    1    3    3  502    0  0.69462300762E+03  0.25652252173E+02  0.15036370940E+03  0.71117396317E+03  0.50400001928E-02 0.  1.
       -1    1    3    3    0  502 -0.69462300762E+03 -0.25652252173E+02 -0.13340597553E+02  0.69522451937E+03  0.50400001928E-02 0. -1.
</event>
<event>
 5   0  0.4243281E-05  0.1398662E+04  0.7818609E-02  0.8954788E-01
       -2   -1    0    0    0  501  0.00000000000E+00  0.00000000000E+00  0.34674816355E+03  0.34674816356E+03  0.25500000920E-02 0. -1.
        2   -1    0    0  501    0  0.00000000000E+00  0.00000000000E+00 -0.14104293372E+04  0.14104293372E+04  0.25500000920E-02 0.  1.
    10030    2    1    2    0    0  0.00000000000E+00  0.00000000000E+00 -0.10636811736E+04  0.17571775007E+04  0.13986619070E+04 0.  0.
        2    1    3    3  502    0  0.30098036888E+03  0.21391372092E+02 -0.13244399206E+04  0.13583769273E+04  0.25500000920E-02 0.  1.
       -2    1    3    3    0  502 -0.30098036888E+03 -0.21391372092E+02  0.26075874699E+03  0.39880057345E+03  0.25500000920E-02 0. -1.
</event>
<event>
 5   0  0.4460282E-05  0.1399266E+04  0.7818609E-02  0.8954350E-01
       -2   -1    0    0    0  501  0.00000000000E+00  0.00000000000E+00  0.90810535375E+03  0.90810535376E+03  0.25500000920E-02 0.  1.
        2   -1    0    0  501    0  0.00000000000E+00  0.00000000000E+00 -0.53901903776E+03  0.53901903776E+03  0.25500000920E-02 0. -1.
    10030    2    1    2    0    0  0.00000000000E+00  0.00000000000E+00  0.36908631600E+03  0.14471243915E+04  0.13992656273E+04 0.  0.
        1    1    3    3  502    0 -0.29126372360E+03  0.59198320441E+03  0.42533124604E+03  0.78497473837E+03  0.50400001928E-02 0.  1.
       -1    1    3    3    0  502  0.29126372360E+03 -0.59198320441E+03 -0.56244930043E+02  0.66214965315E+03  0.50400001928E-02 0. -1.
</event>
<event>
 5   0  0.2363419E-05  0.1400340E+04  0.7818609E-02  0.8953572E-01
       -1   -1    0    0    0  501  0.00000000000E+00  0.00000000000E+00  0.75996553510E+03  0.75996553512E+03  0.50400001928E-02 0. -1.
        1   -1    0    0  501    0  0.00000000000E+00  0.00000000000E+00 -0.64507949729E+03  0.64507949731E+03  0.50400001928E-02 0.  1.
    10030    2    1    2    0    0  0.00000000000E+00  0.00000000000E+00  0.11488603781E+03  0.14050450324E+04  0.14003402235E+04 0.  0.
        2    1    3    3  502    0  0.68963688493E+03 -0.11479166711E+03  0.19078111986E+02  0.69938554050E+03  0.25500000920E-02 0.  1.
       -2    1    3    3    0  502 -0.68963688493E+03  0.11479166711E+03  0.95807925822E+02  0.70565949193E+03  0.25500000920E-02 0. -1.
</event>
<event>
 5   0  0.2363419E-05  0.1399815E+04  0.7818609E-02  0.8953953E-01
       -1   -1    0    0    0  501  0.00000000000E+00  0.00000000000E+00  0.23815927650E+03  0.23815927655E+03  0.50400001928E-02 0.  1.
        1   -1    0    0  501    0  0.00000000000E+00  0.00000000000E+00 -0.20569026310E+04  0.20569026310E+04  0.50400001928E-02 0. -1.
    10030    2    1    2    0    0  0.00000000000E+00  0.00000000000E+00 -0.18187433545E+04  0.22950619075E+04  0.13998149056E+04 0.  0.
        2    1    3    3  502    0  0.59254158612E+03 -0.22352360322E+03 -0.13979513943E+04  0.15347105373E+04  0.25500000920E-02 0. -1.
       -2    1    3    3    0  502 -0.59254158612E+03  0.22352360322E+03 -0.42079196023E+03  0.76035137028E+03  0.25500000920E-02 0.  1.
</event>
<event>
 5   0  0.4460282E-05  0.1399163E+04  0.7818609E-02  0.8954425E-01
       -2   -1    0    0    0  501  0.00000000000E+00  0.00000000000E+00  0.30837332978E+03  0.30837332979E+03  0.25500000920E-02 0.  1.
        2   -1    0    0  501    0  0.00000000000E+00  0.00000000000E+00 -0.15870829840E+04  0.15870829840E+04  0.25500000920E-02 0. -1.
    10030    2    1    2    0    0  0.00000000000E+00  0.00000000000E+00 -0.12787096543E+04  0.18954563138E+04  0.13991626988E+04 0.  0.
        1    1    3    3  502    0 -0.10836596830E+03 -0.68247704774E+03 -0.78711089331E+03  0.10474071139E+04  0.50400001928E-02 0. -1.
       -1    1    3    3    0  502  0.10836596830E+03  0.68247704774E+03 -0.49159876094E+03  0.84804919996E+03  0.50400001928E-02 0.  1.
</event>
<event>
 5   0  0.4527503E-05  0.1399584E+04  0.7818609E-02  0.8954120E-01
        2   -1    0    0  501    0  0.00000000000E+00  0.00000000000E+00  0.85127500538E+03  0.85127500538E+03  0.25500000920E-02 0. -1.
       -2   -1    0    0    0  501  0.00000000000E+00  0.00000000000E+00 -0.57526496183E+03  0.57526496184E+03  0.25500000920E-02 0.  1.
    10030    2    1    2    0    0  0.00000000000E+00  0.00000000000E+00  0.27601004355E+03  0.14265399672E+04  0.13995837717E+04 0.  0.
        4    1    3    3  502    0  0.26643375133E+03 -0.41400910460E+03  0.64489262363E+03  0.81134369502E+03  0.12699999809E+01 0. -1.
       -4    1    3    3    0  502 -0.26643375133E+03  0.41400910460E+03 -0.36888258008E+03  0.61519627220E+03  0.12699999809E+01 0.  1.
</event>
<event>
 5   0  0.4527503E-05  0.1399977E+04  0.7818609E-02  0.8953835E-01
       -2   -1    0    0    0  501  0.00000000000E+00  0.00000000000E+00  0.56468985117E+03  0.56468985118E+03  0.25500000920E-02 0. -1.
        2   -1    0    0  501    0  0.00000000000E+00  0.00000000000E+00 -0.86770506824E+03  0.86770506825E+03  0.25500000920E-02 0.  1.
    10030    2    1    2    0    0  0.00000000000E+00  0.00000000000E+00 -0.30301521707E+03  0.14323949194E+04  0.13999774939E+04 0.  0.
        4    1    3    3  502    0  0.24113613371E+03  0.82189688312E+02  0.51557173038E+03  0.57508051777E+03  0.12699999809E+01 0. -1.
       -4    1    3    3    0  502 -0.24113613371E+03 -0.82189688312E+02 -0.81858694745E+03  0.85731440166E+03  0.12699999809E+01 0.  1.
</event>
<event>
 5   0  0.2467303E-05  0.1399872E+04  0.7818609E-02  0.8953911E-01
       -1   -1    0    0    0  501  0.00000000000E+00  0.00000000000E+00  0.30183735319E+03  0.30183735323E+03  0.50400001928E-02 0.  1.
        1   -1    0    0  501    0  0.00000000000E+00  0.00000000000E+00 -0.16230935838E+04  0.16230935838E+04  0.50400001928E-02 0. -1.
    10030    2    1    2    0    0  0.00000000000E+00  0.00000000000E+00 -0.13212562306E+04  0.19249309371E+04  0.13998718104E+04 0.  0.
        3    1    3    3  502    0  0.51174187209E+03  0.47749733737E+03 -0.66774808033E+03  0.96735255199E+03  0.10100000352E+00 0. -1.
       -3    1    3    3    0  502 -0.51174187209E+03 -0.47749733737E+03 -0.65350815032E+03  0.95757838509E+03  0.10100000352E+00 0.  1.
</event>
<event>
 5   0  0.2316714E-05  0.1398737E+04  0.7818609E-02  0.8954734E-01
        1   -1    0    0  501    0  0.00000000000E+00  0.00000000000E+00  0.11131216419E+04  0.11131216419E+04  0.50400001928E-02 0. -1.
       -1   -1    0    0    0  501  0.00000000000E+00  0.00000000000E+00 -0.43940935960E+03  0.43940935963E+03  0.50400001928E-02 0.  1.
    10030    2    1    2    0    0  0.00000000000E+00  0.00000000000E+00  0.67371228228E+03  0.15525310015E+04  0.13987366698E+04 0.  0.
        5    1    3    3  502    0  0.22341393539E+02 -0.45195003339E+03  0.92871785962E+03  0.10331006356E+04  0.46999998093E+01 0. -1.
       -5    1    3    3    0  502 -0.22341393539E+02  0.45195003339E+03 -0.25500557734E+03  0.51943036590E+03  0.46999998093E+01 0.  1.
</event>
<event>
 5   0  0.4243281E-05  0.1400289E+04  0.7818609E-02  0.8953610E-01
        2   -1    0    0  501    0  0.00000000000E+00  0.00000000000E+00  0.26609823170E+04  0.26609823170E+04  0.25500000920E-02 0.  1.
       -2   -1    0    0    0  501  0.00000000000E+00  0.00000000000E+00 -0.18421845494E+03  0.18421845496E+03  0.25500000920E-02 0. -1.
    10030    2    1    2    0    0  0.00000000000E+00  0.00000000000E+00  0.24767638621E+04  0.28452007720E+04  0.14002886147E+04 0.  0.
        2    1    3    3  502    0 -0.25989378878E+03  0.45425040340E+03  0.29336951550E+03  0.59996156799E+03  0.25500000920E-02 0. -1.
       -2    1    3    3    0  502  0.25989378878E+03 -0.45425040340E+03  0.21833943466E+04  0.22452392040E+04  0.25500000920E-02 0.  1.
</event>
<event>
 5   0  0.2363419E-05  0.1401083E+04  0.7818609E-02  0.8953035E-01
       -1   -1    0    0    0  501  0.00000000000E+00  0.00000000000E+00  0.61900771829E+03  0.61900771831E+03  0.50400001928E-02 0.  1.
        1   -1    0    0  501    0  0.00000000000E+00  0.00000000000E+00 -0.79281458055E+03  0.79281458056E+03  0.50400001928E-02 0. -1.
    10030    2    1    2    0    0  0.00000000000E+00  0.00000000000E+00 -0.17380686226E+03  0.14118222989E+04  0.14010829305E+04 0.  0.
        2    1    3    3  502    0  0.58055174611E+03 -0.24201674492E+03 -0.39772507759E+03  0.74417583412E+03  0.25500000920E-02 0. -1.
       -2    1    3    3    0  502 -0.58055174611E+03  0.24201674492E+03  0.22391821533E+03  0.66764646476E+03  0.25500000920E-02 0.  1.
</event>
<event>
 5   0  0.2363419E-05  0.1399471E+04  0.7818609E-02  0.8954201E-01
       -1   -1    0    0    0  501  0.00000000000E+00  0.00000000000E+00  0.51488573339E+03  0.51488573341E+03  0.50400001928E-02 0. -1.
        1   -1    0    0  501    0  0.00000000000E+00  0.00000000000E+00 -0.95094889490E+03  0.95094889492E+03  0.50400001928E-02 0.  1.
    10030    2    1    2    0    0  0.00000000000E+00  0.00000000000E+00 -0.43606316151E+03  0.14658346283E+04  0.13994713562E+04 0.  0.
        2    1    3    3  502    0  0.66605881626E+03 -0.15460609486E+02 -0.44208317356E+03  0.79956920246E+03  0.25500000920E-02 0.  1.
       -2    1    3    3    0  502 -0.66605881626E+03  0.15460609486E+02  0.60200120452E+01  0.66626542587E+03  0.25500000920E-02 0. -1.
</event>
<event>
 5   0  0.2427569E-05  0.1400041E+04  0.7818609E-02  0.8953789E-01
        1   -1    0    0  501    0  0.00000000000E+00  0.00000000000E+00  0.75126531577E+03  0.75126531579E+03  0.50400001928E-02 0. -1.
       -1   -1    0    0    0  501  0.00000000000E+00  0.00000000000E+00 -0.65227123108E+03  0.65227123110E+03  0.50400001928E-02 0.  1.
    10030    2    1    2    0    0  0.00000000000E+00  0.00000000000E+00  0.98994084692E+02  0.14035365469E+04  0.14000410743E+04 0.  0.
        1    1    3    3  502    0 -0.14014215903E+03 -0.58975613388E+03 -0.30148652805E+03  0.67701273903E+03  0.50400001928E-02 0.  1.
       -1    1    3    3    0  502  0.14014215903E+03  0.58975613388E+03  0.40048061274E+03  0.72652380786E+03  0.50400001928E-02 0. -1.
</event>
<event>
 5   0  0.4243281E-05  0.1399997E+04  0.7818609E-02  0.8953820E-01
       -2   -1    0    0    0  501  0.00000000000E+00  0.00000000000E+00  0.90496898555E+03  0.90496898555E+03  0.25500000920E-02 0. -1.
        2   -1    0    0  501    0  0.00000000000E+00  0.00000000000E+00 -0.54145304927E+03  0.54145304927E+03  0.25500000920E-02 0.  1.
    10030    2    1    2    0    0  0.00000000000E+00  0.00000000000E+00  0.36351593628E+03  0.14464220348E+04  0.13999974525E+04 0.  0.
        2    1    3    3  502    0  0.58025809538E+03  0.35978125898E+03  0.22181641292E+02  0.68310616802E+03  0.25500000920E-02 0.  1.
       -2    1    3    3    0  502 -0.58025809538E+03 -0.35978125898E+03  0.34133429499E+03  0.76331586680E+03  0.25500000920E-02 0. -1.
</event>
<event>
 5   0  0.4527503E-05  0.1399201E+04  0.7818609E-02  0.8954397E-01
        2   -1    0    0  501    0  0.00000000000E+00  0.00000000000E+00  0.78547146221E+03  0.78547146222E+03  0.25500000920E-02 0. -1.
       -2   -1    0    0    0  501  0.00000000000E+00  0.00000000000E+00 -0.62311695878E+03  0.62311695878E+03  0.25500000920E-02 0.  1.
    10030    2    1    2    0    0  0.00000000000E+00  0.00000000000E+00  0.16235450344E+03  0.14085884210E+04  0.13992006128E+04 0.  0.
        4    1    3    3  502    0 -0.46950877513E+02  0.29069117621E+03 -0.55769328592E+03  0.63065771928E+03  0.12699999809E+01 0.  1.
       -4    1    3    3    0  502  0.46950877513E+02 -0.29069117621E+03  0.72004778936E+03  0.77793070172E+03  0.12699999809E+01 0. -1.
</event>
<event>
 5   0  0.2427569E-05  0.1400247E+04  0.7818609E-02  0.8953639E-01
       -1   -1    0    0    0  501  0.00000000000E+00  0.00000000000E+00  0.89378938025E+03  0.89378938027E+03  0.50400001928E-02 0.  1.
        1   -1    0    0  501    0  0.00000000000E+00  0.00000000000E+00 -0.54842137634E+03  0.54842137637E+03  0.50400001928E-02 0. -1.
    10030    2    1    2    0    0  0.00000000000E+00  0.00000000000E+00  0.34536800391E+03  0.14422107566E+04  0.14002474097E+04 0.  0.
        1    1    3    3  502    0  0.36225694888E+03 -0.42336031976E+03 -0.26394144286E+03  0.61654613991E+03  0.50400001928E-02 0. -1.
       -1    1    3    3    0  502 -0.36225694888E+03  0.42336031976E+03  0.60930944677E+03  0.82566461672E+03  0.50400001928E-02 0.  1.
</event>
<event>
 5   0  0.4460282E-05  0.1398556E+04  0.7818609E-02  0.8954864E-01
       -2   -1    0    0    0  501  0.00000000000E+00  0.00000000000E+00  0.50767791230E+03  0.50767791231E+03  0.25500000920E-02 0. -1.
        2   -1    0    0  501    0  0.00000000000E+00  0.00000000000E+00 -0.96318936760E+03  0.96318936760E+03  0.25500000920E-02 0.  1.
    10030    2    1    2    0    0  0.00000000000E+00  0.00000000000E+00 -0.45551145530E+03  0.14708672799E+04  0.13985563518E+04 0.  0.
        1    1    3    3  502    0  0.46509291420E+03 -0.51062344521E+03 -0.11282490456E+03  0.69984082530E+03  0.50400001928E-02 0.  1.
       -1    1    3    3    0  502 -0.46509291420E+03  0.51062344521E+03 -0.34268655073E+03  0.77102645462E+03  0.50400001928E-02 0. -1.
</event>
<event>
 5   0  0.2363419E-05  0.1399941E+04  0.7818609E-02  0.8953861E-01
       -1   -1    0    0    0  501  0.00000000000E+00  0.00000000000E+00  0.61995881087E+03  0.61995881089E+03  0.50400001928E-02 0. -1.
        1   -1    0    0  501    0  0.00000000000E+00  0.00000000000E+00 -0.79030857933E+03  0.79030857934E+03  0.50400001928E-02 0.  1.
    10030    2    1    2    0    0  0.00000000000E+00  0.00000000000E+00 -0.17034976846E+03  0.14102673902E+04  0.13999410946E+04 0.  0.
        2    1    3    3  502    0 -0.62397619203E+03 -0.31144241995E+03 -0.14575244649E+03  0.71245101223E+03  0.25500000920E-02 0.  1.
       -2    1    3    3    0  502  0.62397619203E+03  0.31144241995E+03 -0.24597321962E+02  0.69781637801E+03  0.25500000920E-02 0. -1.
</event>
<event>
 5   0  0.2427569E-05  0.1399019E+04  0.7818609E-02  0.8954529E-01
       -1   -1    0    0    0  501  0.00000000000E+00  0.00000000000E+00  0.44824485844E+03  0.44824485847E+03  0.50400001928E-02 0.  1.
        1   -1    0    0  501    0  0.00000000000E+00  0.00000000000E+00 -0.10916206835E+04  0.10916206835E+04  0.50400001928E-02 0. -1.
    10030    2    1    2    0    0  0.00000000000E+00  0.00000000000E+00 -0.64337582505E+03  0.15398655420E+04  0.13990187401E+04 0.  0.
        1    1    3    3  502    0 -0.23917653883E+03  0.96327811241E+02 -0.10374053491E+04  0.10689688126E+04  0.50400001928E-02 0. -1.
       -1    1    3    3    0  502  0.23917653883E+03 -0.96327811241E+02  0.39402952401E+03  0.47089672940E+03  0.50400001928E-02 0.  1.
</event>
<event>
 5   0  0.2427569E-05  0.1400172E+04  0.7818609E-02  0.8953694E-01
       -1   -1    0    0    0  501  0.00000000000E+00  0.00000000000E+00  0.46503775650E+03  0.46503775653E+03  0.50400001928E-02 0.  1.
        1   -1    0    0  501    0  0.00000000000E+00  0.00000000000E+00 -0.10539374614E+04  0.10539374614E+04  0.50400001928E-02 0. -1.
    10030    2    1    2    0    0  0.00000000000E+00  0.00000000000E+00 -0.58889970492E+03  0.15189752180E+04  0.14001724359E+04 0.  0.
        1    1    3    3  502    0 -0.99853233139E+02  0.30370457931E+03 -0.97012298880E+03  0.10214429759E+04  0.50400001928E-02 0. -1.
       -1    1    3    3    0  502  0.99853233139E+02 -0.30370457931E+03  0.38122328388E+03  0.49753224203E+03  0.50400001928E-02 0.  1.
</event>
<event>
 5   0  0.2427569E-05  0.1403732E+04  0.7818609E-02  0.8951122E-01
       -1   -1    0    0    0  501  0.00000000000E+00  0.00000000000E+00  0.47441813747E+03  0.47441813750E+03  0.50400001928E-02 0.  1.
        1   -1    0    0  501    0  0.00000000000E+00  0.00000000000E+00 -0.10383574338E+04  0.10383574338E+04  0.50400001928E-02 0. -1.
    10030    2    1    2    0    0  0.00000000000E+00  0.00000000000E+00 -0.56393929634E+03  0.15127755713E+04  0.14037315980E+04 0.  0.
        1    1    3    3  502    0 -0.56682410422E+03  0.22232539937E+03  0.94290081976E+02  0.61612398746E+03  0.50400001928E-02 0.  1.
       -1    1    3    3    0  502  0.56682410422E+03 -0.22232539937E+03 -0.65822937831E+03  0.89665158386E+03  0.50400001928E-02 0. -1.
</event>
<event>
 5   0  0.2427569E-05  0.1398705E+04  0.7818609E-02  0.8954756E-01
       -1   -1    0    0    0  501  0.00000000000E+00  0.00000000000E+00  0.33842717361E+03  0.33842717365E+03  0.50400001928E-02 0.  1.
        1   -1    0    0  501    0  0.00000000000E+00  0.00000000000E+00 -0.14451978608E+04  0.14451978608E+04  0.50400001928E-02 0. -1.
    10030    2    1    2    0    0  0.00000000000E+00  0.00000000000E+00 -0.11067706872E+04  0.17836250345E+04  0.13987054406E+04 0.  0.
        1    1    3    3  502    0  0.16096644807E+03 -0.20450983437E+03 -0.13811441750E+04  0.14054514228E+04  0.50400001928E-02 0. -1.
       -1    1    3    3    0  502 -0.16096644807E+03  0.20450983437E+03  0.27437348777E+03  0.37817361168E+03  0.50400001928E-02 0.  1.
</event>
<event>
 5   0  0.2363419E-05  0.1399251E+04  0.7818609E-02  0.8954361E-01
        1   -1    0    0  501    0  0.00000000000E+00  0.00000000000E+00  0.72953882228E+03  0.72953882229E+03  0.50400001928E-02 0. -1.
       -1   -1    0    0    0  501  0.00000000000E+00  0.00000000000E+00 -0.67093887588E+03  0.67093887590E+03  0.50400001928E-02 0.  1.
    10030    2    1    2    0    0  0.00000000000E+00  0.00000000000E+00  0.58599946394E+02  0.14004776982E+04  0.13992511674E+04 0.  0.
        2    1    3    3  502    0 -0.25195813427E+03 -0.64863857443E+03 -0.43296741744E+02  0.69720119730E+03  0.25500000920E-02 0. -1.
       -2    1    3    3    0  502  0.25195813427E+03  0.64863857443E+03  0.10189668814E+03  0.70327650090E+03  0.25500000920E-02 0.  1.
</event>
<event>
 5   0  0.2427569E-05  0.1399443E+04  0.7818609E-02  0.8954222E-01
       -1   -1    0    0    0  501  0.00000000000E+00  0.00000000000E+00  0.97662840135E+03  0.97662840137E+03  0.50400001928E-02 0.  1.
        1   -1    0    0  501    0  0.00000000000E+00  0.00000000000E+00 -0.50132687503E+03  0.50132687505E+03  0.50400001928E-02 0. -1.
    10030    2    1    2    0    0  0.00000000000E+00  0.00000000000E+00  0.47530152632E+03  0.14779552764E+04  0.13994428385E+04 0.  0.
        1    1    3    3  502    0 -0.21154629492E+03  0.40259014301E+03 -0.32395301073E+03  0.55836924283E+03  0.50400001928E-02 0. -1.
       -1    1    3    3    0  502  0.21154629492E+03 -0.40259014301E+03  0.79925453706E+03  0.91958603359E+03  0.50400001928E-02 0.  1.
</event>
<event>
 5   0  0.4243281E-05  0.1399781E+04  0.7818609E-02  0.8953977E-01
       -2   -1    0    0    0  501  0.00000000000E+00  0.00000000000E+00  0.38957378519E+03  0.38957378520E+03  0.25500000920E-02 0.  1.
        2   -1    0    0  501    0  0.00000000000E+00  0.00000000000E+00 -0.12573913636E+04  0.12573913636E+04  0.25500000920E-02 0. -1.
    10030    2    1    2    0    0  0.00000000000E+00  0.00000000000E+00 -0.86781757841E+03  0.16469651488E+04  0.13997810014E+04 0.  0.
        2    1    3    3  502    0 -0.80501771499E+02  0.28800390678E+03  0.31062113183E+03  0.43117545510E+03  0.25500000920E-02 0.  1.
       -2    1    3    3    0  502  0.80501771499E+02 -0.28800390678E+03 -0.11784387102E+04  0.12157896937E+04  0.25500000920E-02 0. -1.
</event>
<event>
 5   0  0.2363419E-05  0.1400103E+04  0.7818609E-02  0.8953744E-01
       -1   -1    0    0    0  501  0.00000000000E+00  0.00000000000E+00  0.39902906604E+03  0.39902906607E+03  0.50400001928E-02 0.  1.
        1   -1    0    0  501    0  0.00000000000E+00  0.00000000000E+00 -0.12281622554E+04  0.12281622554E+04  0.50400001928E-02 0. -1.
    10030    2    1    2    0    0  0.00000000000E+00  0.00000000000E+00 -0.82913318940E+03  0.16271913215E+04  0.14001034787E+04 0.  0.
        2    1    3    3  502    0 -0.36373073764E+03 -0.58872233166E+03 -0.29169021868E+03  0.75098416560E+03  0.25500000920E-02 0.  1.
       -2    1    3    3    0  502  0.36373073764E+03  0.58872233166E+03 -0.53744297072E+03  0.87620715592E+03  0.25500000920E-02 0. -1.
</event>
<event>
 5   0  0.2316714E-05  0.1399655E+04  0.7818609E-02  0.8954068E-01
       -1   -1    0    0    0  501  0.00000000000E+00  0.00000000000E+00  0.29297634606E+03  0.29297634610E+03  0.50400001928E-02 0. -1.
        1   -1    0    0  501    0  0.00000000000E+00  0.00000000000E+00 -0.16716668469E+04  0.16716668469E+04  0.50400001928E-02 0.  1.
    10030    2    1    2    0    0  0.00000000000E+00  0.00000000000E+00 -0.13786905009E+04  0.19646431930E+04  0.13996554500E+04 0.  0.
        5    1    3    3  502    0 -0.53442336474E+03 -0.38096022232E+03 -0.34840348730E+03  0.74306534284E+03  0.46999998093E+01 0. -1.
       -5    1    3    3    0  502  0.53442336474E+03  0.38096022232E+03 -0.10302870136E+04  0.12215778502E+04  0.46999998093E+01 0.  1.
</event>
<event>
 5   0  0.4460282E-05  0.1400085E+04  0.7818609E-02  0.8953757E-01
       -2   -1    0    0    0  501  0.00000000000E+00  0.00000000000E+00  0.40698092136E+03  0.40698092137E+03  0.25500000920E-02 0.  1.
        2   -1    0    0  501    0  0.00000000000E+00  0.00000000000E+00 -0.12041335839E+04  0.12041335839E+04  0.25500000920E-02 0. -1.
    10030    2    1    2    0    0  0.00000000000E+00  0.00000000000E+00 -0.79715266255E+03  0.16111145053E+04  0.14000848480E+04 0.  0.
        1    1    3    3  502    0 -0.21199195558E+02  0.12069192386E+03  0.39454333502E+03  0.41313483224E+03  0.50400001928E-02 0.  1.
       -1    1    3    3    0  502  0.21199195558E+02 -0.12069192386E+03 -0.11916959976E+04  0.11979796730E+04  0.50400001928E-02 0. -1.
</event>
<event>
 5   0  0.4460282E-05  0.1400191E+04  0.7818609E-02  0.8953680E-01
       -2   -1    0    0    0  501  0.00000000000E+00  0.00000000000E+00  0.51335615054E+03  0.51335615055E+03  0.25500000920E-02 0. -1.
        2   -1    0    0  501    0  0.00000000000E+00  0.00000000000E+00 -0.95476406084E+03  0.95476406084E+03  0.25500000920E-02 0.  1.
    10030    2    1    2    0    0  0.00000000000E+00  0.00000000000E+00 -0.44140791030E+03  0.14681202114E+04  0.14001914197E+04 0.  0.
        1    1    3    3  502    0 -0.46241434954E+03 -0.35833636584E+03  0.18253386661E+03  0.61282182910E+03  0.50400001928E-02 0. -1.
       -1    1    3    3    0  502  0.46241434954E+03  0.35833636584E+03 -0.62394177691E+03  0.85529838228E+03  0.50400001928E-02 0.  1.
</event>
<event>
 5   0  0.4243281E-05  0.1400177E+04  0.7818609E-02  0.8953690E-01
       -2   -1    0    0    0  501  0.00000000000E+00  0.00000000000E+00  0.35118750245E+03  0.35118750246E+03  0.25500000920E-02 0.  1.
        2   -1    0    0  501    0  0.00000000000E+00  0.00000000000E+00 -0.13956188746E+04  0.13956188746E+04  0.25500000920E-02 0. -1.
    10030    2    1    2    0    0  0.00000000000E+00  0.00000000000E+00 -0.10444313721E+04  0.17468063770E+04  0.14001769987E+04 0.  0.
        2    1    3    3  502    0  0.47541718412E+02  0.27099111537E+03  0.28091480906E+03  0.39320418304E+03  0.25500000920E-02 0.  1.
       -2    1    3    3    0  502 -0.47541718412E+02 -0.27099111537E+03 -0.13253461812E+04  0.13536021940E+04  0.25500000920E-02 0. -1.
</event>
<event>
 5   0  0.4621450E-05  0.1402564E+04  0.7818609E-02  0.8951965E-01
        2   -1    0    0  501    0  0.00000000000E+00  0.00000000000E+00  0.11517780117E+04  0.11517780117E+04  0.25500000920E-02 0. -1.
       -2   -1    0    0    0  501  0.00000000000E+00  0.00000000000E+00 -0.42698896038E+03  0.42698896039E+03  0.25500000920E-02 0.  1.
    10030    2    1    2    0    0  0.00000000000E+00  0.00000000000E+00  0.72478905133E+03  0.15787669721E+04  0.14025640746E+04 0.  0.
        5    1    3    3  502    0  0.13620710184E+03  0.18700544896E+03 -0.38277790061E+03  0.44728561761E+03  0.46999998093E+01 0.  1.
       -5    1    3    3    0  502 -0.13620710184E+03 -0.18700544896E+03  0.11075669519E+04  0.11314813545E+04  0.46999998093E+01 0. -1.
</event>
<event>
 5   0  0.2428507E-05  0.1400049E+04  0.7818609E-02  0.8953783E-01
        1   -1    0    0  501    0  0.00000000000E+00  0.00000000000E+00  0.13834168588E+04  0.13834168588E+04  0.50400001928E-02 0.  1.
       -1   -1    0    0    0  501  0.00000000000E+00  0.00000000000E+00 -0.35422026367E+03  0.35422026371E+03  0.50400001928E-02 0. -1.
    10030    2    1    2    0    0  0.00000000000E+00  0.00000000000E+00  0.10291965951E+04  0.17376371225E+04  0.14000489770E+04 0.  0.
        4    1    3    3  502    0 -0.62206347292E+03 -0.20888665394E+03  0.21201781467E+03  0.68960116384E+03  0.12699999809E+01 0.  1.
       -4    1    3    3    0  502  0.62206347292E+03  0.20888665394E+03  0.81717878041E+03  0.10480359586E+04  0.12699999809E+01 0. -1.
</event>
<event>
 5   0  0.4460282E-05  0.1400234E+04  0.7818609E-02  0.8953650E-01
       -2   -1    0    0    0  501  0.00000000000E+00  0.00000000000E+00  0.72562906573E+03  0.72562906573E+03  0.25500000920E-02 0.  1.
        2   -1    0    0  501    0  0.00000000000E+00  0.00000000000E+00 -0.67550147014E+03  0.67550147015E+03  0.25500000920E-02 0. -1.
    10030    2    1    2    0    0  0.00000000000E+00  0.00000000000E+00  0.50127595588E+02  0.14011305359E+04  0.14002335529E+04 0.  0.
        1    1    3    3  502    0 -0.35862045969E+03  0.54136944971E+03 -0.23677917383E+03  0.69119743371E+03  0.50400001928E-02 0. -1.
       -1    1    3    3    0  502  0.35862045969E+03 -0.54136944971E+03  0.28690676942E+03  0.70993310217E+03  0.50400001928E-02 0.  1.
</event>
<event>
 5   0  0.2427569E-05  0.1400593E+04  0.7818609E-02  0.8953389E-01
       -1   -1    0    0    0  501  0.00000000000E+00  0.00000000000E+00  0.59163124480E+03  0.59163124482E+03  0.50400001928E-02 0.  1.
        1   -1    0    0  501    0  0.00000000000E+00  0.00000000000E+00 -0.82892088809E+03  0.82892088810E+03  0.50400001928E-02 0. -1.
    10030    2    1    2    0    0  0.00000000000E+00  0.00000000000E+00 -0.23728964329E+03  0.14205521329E+04  0.14005934412E+04 0.  0.
        1    1    3    3  502    0  0.62924137610E+03  0.22743451146E+02 -0.42953114932E+03  0.76220665323E+03  0.50400001928E-02 0. -1.
       -1    1    3    3    0  502 -0.62924137610E+03 -0.22743451146E+02  0.19224150603E+03  0.65834547969E+03  0.50400001928E-02 0.  1.
</event>
<event>
 5   0  0.2363419E-05  0.1398779E+04  0.7818609E-02  0.8954703E-01
       -1   -1    0    0    0  501  0.00000000000E+00  0.00000000000E+00  0.10885985054E+04  0.10885985054E+04  0.50400001928E-02 0. -1.
        1   -1    0    0  501    0  0.00000000000E+00  0.00000000000E+00 -0.44933518944E+03  0.44933518947E+03  0.50400001928E-02 0.  1.
    10030    2    1    2    0    0  0.00000000000E+00  0.00000000000E+00  0.63926331597E+03  0.15379336949E+04  0.13987789185E+04 0.  0.
        2    1    3    3  502    0  0.44091177069E+03  0.47981871434E+02 -0.27494389001E+03  0.52182333426E+03  0.25500000920E-02 0.  1.
       -2    1    3    3    0  502 -0.44091177069E+03 -0.47981871434E+02  0.91420720598E+03  0.10161103606E+04  0.25500000920E-02 0. -1.
</event>
<event>
 5   0  0.2427569E-05  0.1400567E+04  0.7818609E-02  0.8953408E-01
        1   -1    0    0  501    0  0.00000000000E+00  0.00000000000E+00  0.26495340774E+04  0.26495340774E+04  0.50400001928E-02 0.  1.
       -1   -1    0    0    0  501  0.00000000000E+00  0.00000000000E+00 -0.18508809379E+03  0.18508809386E+03  0.50400001928E-02 0. -1.
    10030    2    1    2    0    0  0.00000000000E+00  0.00000000000E+00  0.24644459836E+04  0.28346221713E+04  0.14005673307E+04 0.  0.
        1    1    3    3  502    0  0.26352084235E+03  0.26499711936E+03  0.24308331600E+04  0.24593935349E+04  0.50400001928E-02 0.  1.
       -1    1    3    3    0  502 -0.26352084235E+03 -0.26499711936E+03  0.33612823610E+02  0.37522863638E+03  0.50400001928E-02 0. -1.
</event>
<event>
 5   0  0.2316714E-05  0.1398927E+04  0.7818609E-02  0.8954596E-01
       -1   -1    0    0    0  501  0.00000000000E+00  0.00000000000E+00  0.83149837244E+03  0.83149837246E+03  0.50400001928E-02 0. -1.
        1   -1    0    0  501    0  0.00000000000E+00  0.00000000000E+00 -0.58839462703E+03  0.58839462705E+03  0.50400001928E-02 0.  1.
    10030    2    1    2    0    0  0.00000000000E+00  0.00000000000E+00  0.24310374541E+03  0.14198929995E+04  0.13989269813E+04 0.  0.
        5    1    3    3  502    0 -0.29384550689E+03 -0.24968362432E+03  0.71385582595E+03  0.81135647185E+03  0.46999998093E+01 0. -1.
       -5    1    3    3    0  502  0.29384550689E+03  0.24968362432E+03 -0.47075208054E+03  0.60853652766E+03  0.46999998093E+01 0.  1.
</event>
<event>
 5   0  0.2363419E-05  0.1400546E+04  0.7818609E-02  0.8953423E-01
        1   -1    0    0  501    0  0.00000000000E+00  0.00000000000E+00  0.42311770429E+03  0.42311770432E+03  0.50400001928E-02 0.  1.
       -1   -1    0    0    0  501  0.00000000000E+00  0.00000000000E+00 -0.11589744720E+04  0.11589744720E+04  0.50400001928E-02 0. -1.
    10030    2    1    2    0    0  0.00000000000E+00  0.00000000000E+00 -0.73585676774E+03  0.15820921764E+04  0.14005464904E+04 0.  0.
        2    1    3    3  502    0 -0.59517982784E+03  0.26575673751E+02  0.47794025441E+02  0.59768684340E+03  0.25500000920E-02 0.  1.
       -2    1    3    3    0  502  0.59517982784E+03 -0.26575673751E+02 -0.78365079318E+03  0.98440533296E+03  0.25500000920E-02 0. -1.
</event>
<event>
 5   0  0.4460282E-05  0.1400428E+04  0.7818609E-02  0.8953509E-01
       -2   -1    0    0    0  501  0.00000000000E+00  0.00000000000E+00  0.87142163545E+03  0.87142163545E+03  0.25500000920E-02 0. -1.
        2   -1    0    0  501    0  0.00000000000E+00  0.00000000000E+00 -0.56264338724E+03  0.56264338724E+03  0.25500000920E-02 0.  1.
    10030    2    1    2    0    0  0.00000000000E+00  0.00000000000E+00  0.30877824821E+03  0.14340650227E+04  0.14004279641E+04 0.  0.
        1    1    3    3  502    0 -0.34017748552E+03  0.33585405542E+03 -0.36954548934E+03  0.60422060285E+03  0.50400001928E-02 0.  1.
       -1    1    3    3    0  502  0.34017748552E+03 -0.33585405542E+03  0.67832373755E+03  0.82984441984E+03  0.50400001928E-02 0. -1.
</event>
<event>
 5   0  0.4441253E-05  0.1400414E+04  0.7818609E-02  0.8953519E-01
       -2   -1    0    0    0  501  0.00000000000E+00  0.00000000000E+00  0.28221876225E+03  0.28221876226E+03  0.25500000920E-02 0. -1.
        2   -1    0    0  501    0  0.00000000000E+00  0.00000000000E+00 -0.17372698587E+04  0.17372698587E+04  0.25500000920E-02 0.  1.
    10030    2    1    2    0    0  0.00000000000E+00  0.00000000000E+00 -0.14550510964E+04  0.20194886209E+04  0.14004144375E+04 0.  0.
        3    1    3    3  502    0  0.63386462233E+03  0.27136391923E+03 -0.90335935826E+03  0.11364334017E+04  0.10100000352E+00 0.  1.
       -3    1    3    3    0  502 -0.63386462233E+03 -0.27136391923E+03 -0.55169173817E+03  0.88305521926E+03  0.10100000352E+00 0. -1.
</event>
<event>
 5   0  0.2427569E-05  0.1398667E+04  0.7818609E-02  0.8954784E-01
        1   -1    0    0  501    0  0.00000000000E+00  0.00000000000E+00  0.23605112264E+04  0.23605112264E+04  0.50400001928E-02 0.  1.
       -1   -1    0    0    0  501  0.00000000000E+00  0.00000000000E+00 -0.20718703678E+03  0.20718703685E+03  0.50400001928E-02 0. -1.
    10030    2    1    2    0    0  0.00000000000E+00  0.00000000000E+00  0.21533241897E+04  0.25676982633E+04  0.13986669745E+04 0.  0.
        1    1    3    3  502    0 -0.58919450905E+03  0.36246419504E+03  0.88821677408E+03  0.11258150381E+04  0.50400001928E-02 0. -1.
       -1    1    3    3    0  502  0.58919450905E+03 -0.36246419504E+03  0.12651074156E+04  0.14418832252E+04  0.50400001928E-02 0.  1.
</event>
<event>
 5   0  0.2363419E-05  0.1399915E+04  0.7818609E-02  0.8953880E-01
       -1   -1    0    0    0  501  0.00000000000E+00  0.00000000000E+00  0.33045202348E+03  0.33045202352E+03  0.50400001928E-02 0.  1.
        1   -1    0    0  501    0  0.00000000000E+00  0.00000000000E+00 -0.14826379242E+04  0.14826379242E+04  0.50400001928E-02 0. -1.
    10030    2    1    2    0    0  0.00000000000E+00  0.00000000000E+00 -0.11521859007E+04  0.18130899477E+04  0.13999152863E+04 0.  0.
        2    1    3    3  502    0 -0.60845981799E+03 -0.30157829866E+03 -0.79576334862E+03  0.10461415427E+04  0.25500000920E-02 0.  1.
       -2    1    3    3    0  502  0.60845981799E+03  0.30157829866E+03 -0.35642255210E+03  0.76694840503E+03  0.25500000920E-02 0. -1.
</event>
<event>
 5   0  0.1661000E-05  0.1400147E+04  0.7818609E-02  0.8953712E-01
       -3   -1    0    0    0  501  0.00000000000E+00  0.00000000000E+00  0.12914421334E+04  0.12914421373E+04  0.10100000352E+00 0. -1.
        3   -1    0    0  501    0  0.00000000000E+00  0.00000000000E+00 -0.37950020359E+03  0.37950021703E+03  0.10100000352E+00 0.  1.
    10030    2    1    2    0    0  0.00000000000E+00  0.00000000000E+00  0.91194192980E+03  0.16709423544E+04  0.14001465167E+04 0.  0.
        3    1    3    3  502    0 -0.40651968781E+03  0.56450537395E+03  0.54977280128E+03  0.88666494067E+03  0.10100000352E+00 0.  1.
       -3    1    3    3    0  502  0.40651968781E+03 -0.56450537395E+03  0.36216912852E+03  0.78427741370E+03  0.10100000352E+00 0. -1.
</event>
<event>
 5   0  0.2427569E-05  0.1405948E+04  0.7818609E-02  0.8949524E-01
        1   -1    0    0  501    0  0.00000000000E+00  0.00000000000E+00  0.68479754170E+03  0.68479754172E+03  0.50400001928E-02 0. -1.
       -1   -1    0    0    0  501  0.00000000000E+00  0.00000000000E+00 -0.72163306488E+03  0.72163306489E+03  0.50400001928E-02 0.  1.
    10030    2    1    2    0    0  0.00000000000E+00  0.00000000000E+00 -0.36835523173E+02  0.14064306066E+04  0.14059481482E+04 0.  0.
        1    1    3    3  502    0  0.45316352369E+03  0.51656721693E+03  0.12986832469E+03  0.69933157414E+03  0.50400001928E-02 0. -1.
       -1    1    3    3    0  502 -0.45316352369E+03 -0.51656721693E+03 -0.16670384787E+03  0.70709903248E+03  0.50400001928E-02 0.  1.
</event>
<event>
 5   0  0.2363419E-05  0.1399707E+04  0.7818609E-02  0.8954030E-01
        1   -1    0    0  501    0  0.00000000000E+00  0.00000000000E+00  0.61494459140E+03  0.61494459142E+03  0.50400001928E-02 0.  1.
       -1   -1    0    0    0  501  0.00000000000E+00  0.00000000000E+00 -0.79648675033E+03  0.79648675034E+03  0.50400001928E-02 0. -1.
    10030    2    1    2    0    0  0.00000000000E+00  0.00000000000E+00 -0.18154215893E+03  0.14114313418E+04  0.13997074255E+04 0.  0.
        2    1    3    3  502    0  0.56885169551E+03 -0.23500677903E+03 -0.42669013447E+03  0.74892249835E+03  0.25500000920E-02 0. -1.
       -2    1    3    3    0  502 -0.56885169551E+03  0.23500677903E+03  0.24514797554E+03  0.66250884341E+03  0.25500000920E-02 0.  1.
</event>
<event>
 5   0  0.2467303E-05  0.1400441E+04  0.7818609E-02  0.8953500E-01
       -1   -1    0    0    0  501  0.00000000000E+00  0.00000000000E+00  0.31924478876E+03  0.31924478880E+03  0.50400001928E-02 0.  1.
        1   -1    0    0  501    0  0.00000000000E+00  0.00000000000E+00 -0.15358384346E+04  0.15358384346E+04  0.50400001928E-02 0. -1.
    10030    2    1    2    0    0  0.00000000000E+00  0.00000000000E+00 -0.12165936458E+04  0.18550832234E+04  0.14004405259E+04 0.  0.
        3    1    3    3  502    0 -0.31257034412E+02  0.69868215927E+03 -0.56289722921E+03  0.89776782229E+03  0.10100000352E+00 0. -1.
       -3    1    3    3    0  502  0.31257034412E+02 -0.69868215927E+03 -0.65369641658E+03  0.95731540107E+03  0.10100000352E+00 0.  1.
</event>
<event>
 5   0  0.4460282E-05  0.1399768E+04  0.7818609E-02  0.8953987E-01
        2   -1    0    0  501    0  0.00000000000E+00  0.00000000000E+00  0.19584575594E+04  0.19584575594E+04  0.25500000920E-02 0. -1.
       -2   -1    0    0    0  501  0.00000000000E+00  0.00000000000E+00 -0.25011386325E+03  0.25011386327E+03  0.25500000920E-02 0.  1.
    10030    2    1    2    0    0  0.00000000000E+00  0.00000000000E+00  0.17083436962E+04  0.22085714227E+04  0.13997676753E+04 0.  0.
        1    1    3    3  502    0  0.18226088797E+03  0.64210720207E+03  0.11863256098E+04  0.13612087065E+04  0.50400001928E-02 0. -1.
       -1    1    3    3    0  502 -0.18226088797E+03 -0.64210720207E+03  0.52201808640E+03  0.84736271619E+03  0.50400001928E-02 0.  1.
</event>
<event>
 5   0  0.2316714E-05  0.1400076E+04  0.7818609E-02  0.8953764E-01
        1   -1    0    0  501    0  0.00000000000E+00  0.00000000000E+00  0.98364723186E+03  0.98364723188E+03  0.50400001928E-02 0.  1.
       -1   -1    0    0    0  501  0.00000000000E+00  0.00000000000E+00 -0.49819981312E+03  0.49819981315E+03  0.50400001928E-02 0. -1.
    10030    2    1    2    0    0  0.00000000000E+00  0.00000000000E+00  0.48544741874E+03  0.14818470450E+04  0.14000755224E+04 0.  0.
        5    1    3    3  502    0 -0.41133055574E+03  0.56631306586E+03  0.25467302673E+03  0.74483807313E+03  0.46999998093E+01 0.  1.
       -5    1    3    3    0  502  0.41133055574E+03 -0.56631306586E+03  0.23077439201E+03  0.73700897189E+03  0.46999998093E+01 0. -1.
</event>
<event>
 5   0  0.4243281E-05  0.1399771E+04  0.7818609E-02  0.8953984E-01
        2   -1    0    0  501    0  0.00000000000E+00  0.00000000000E+00  0.14119234569E+04  0.14119234569E+04  0.25500000920E-02 0.  1.
       -2   -1    0    0    0  501  0.00000000000E+00  0.00000000000E+00 -0.34693083647E+03  0.34693083648E+03  0.25500000920E-02 0. -1.
    10030    2    1    2    0    0  0.00000000000E+00  0.00000000000E+00  0.10649926205E+04  0.17588542934E+04  0.13997711041E+04 0.  0.
        2    1    3    3  502    0  0.18661668315E+03 -0.29880058665E+03  0.12923928094E+04  0.13395472186E+04  0.25500000920E-02 0.  1.
       -2    1    3    3    0  502 -0.18661668315E+03  0.29880058665E+03 -0.22740018897E+03  0.41930707479E+03  0.25500000920E-02 0. -1.
</event>
<event>
 5   0  0.2363419E-05  0.1399323E+04  0.7818609E-02  0.8954309E-01
        1   -1    0    0  501    0  0.00000000000E+00  0.00000000000E+00  0.97585489404E+03  0.97585489405E+03  0.50400001928E-02 0.  1.
       -1   -1    0    0    0  501  0.00000000000E+00  0.00000000000E+00 -0.50163818028E+03  0.50163818030E+03  0.50400001928E-02 0. -1.
    10030    2    1    2    0    0  0.00000000000E+00  0.00000000000E+00  0.47421671376E+03  0.14774930744E+04  0.13993227981E+04 0.  0.
        2    1    3    3  502    0 -0.37772163085E+03  0.33880949725E+03 -0.27152895922E+03  0.57549411947E+03  0.25500000920E-02 0. -1.
       -2    1    3    3    0  502  0.37772163085E+03 -0.33880949725E+03  0.74574567299E+03  0.90199895489E+03  0.25500000920E-02 0.  1.
</event>
<event>
 5   0  0.4441253E-05  0.1400599E+04  0.7818609E-02  0.8953385E-01
        2   -1    0    0  501    0  0.00000000000E+00  0.00000000000E+00  0.13348109468E+04  0.13348109468E+04  0.25500000920E-02 0.  1.
       -2   -1    0    0    0  501  0.00000000000E+00  0.00000000000E+00 -0.36740761140E+03  0.36740761141E+03  0.25500000920E-02 0. -1.
    10030    2    1    2    0    0  0.00000000000E+00  0.00000000000E+00  0.96740333537E+03  0.17022185582E+04  0.14005994454E+04 0.  0.
        3    1    3    3  502    0 -0.44975630748E+03  0.42899345397E+03  0.91567950587E+02  0.62825219414E+03  0.10100000352E+00 0. -1.
       -3    1    3    3    0  502  0.44975630748E+03 -0.42899345397E+03  0.87583538479E+03  0.10739663641E+04  0.10100000352E+00 0.  1.
</event>
<event>
 5   0  0.2427569E-05  0.1400090E+04  0.7818609E-02  0.8953754E-01
        1   -1    0    0  501    0  0.00000000000E+00  0.00000000000E+00  0.14709168495E+04  0.14709168495E+04  0.50400001928E-02 0. -1.
       -1   -1    0    0    0  501  0.00000000000E+00  0.00000000000E+00 -0.33316823194E+03  0.33316823198E+03  0.50400001928E-02 0.  1.
    10030    2    1    2    0    0  0.00000000000E+00  0.00000000000E+00  0.11377486176E+04  0.18040850815E+04  0.14000896630E+04 0.  0.
        1    1    3    3  502    0  0.40295708014E+02  0.69881555127E+03  0.55625919615E+03  0.89408680346E+03  0.50400001928E-02 0. -1.
       -1    1    3    3    0  502 -0.40295708014E+02 -0.69881555127E+03  0.58148942140E+03  0.90999827803E+03  0.50400001928E-02 0.  1.
</event>
<event>
 5   0  0.4441253E-05  0.1399930E+04  0.7818609E-02  0.8953869E-01
       -2   -1    0    0    0  501  0.00000000000E+00  0.00000000000E+00  0.65228180037E+03  0.65228180037E+03  0.25500000920E-02 0.  1.
        2   -1    0    0  501    0  0.00000000000E+00  0.00000000000E+00 -0.75113387846E+03  0.75113387846E+03  0.25500000920E-02 0. -1.
    10030    2    1    2    0    0  0.00000000000E+00  0.00000000000E+00 -0.98852078090E+02  0.14034156788E+04  0.13999299391E+04 0.  0.
        3    1    3    3  502    0  0.10279257541E+03  0.49650651230E+03 -0.53318941664E+03  0.73578257287E+03  0.10100000352E+00 0. -1.
       -3    1    3    3    0  502 -0.10279257541E+03 -0.49650651230E+03  0.43433733855E+03  0.66763310596E+03  0.10100000352E+00 0.  1.
</event>
<event>
 5   0  0.2467303E-05  0.1401589E+04  0.7818609E-02  0.8952669E-01
        1   -1    0    0  501    0  0.00000000000E+00  0.00000000000E+00  0.82018873514E+03  0.82018873516E+03  0.50400001928E-02 0.  1.
       -1   -1    0    0    0  501  0.00000000000E+00  0.00000000000E+00 -0.59878079953E+03  0.59878079955E+03  0.50400001928E-02 0. -1.
    10030    2    1    2    0    0  0.00000000000E+00  0.00000000000E+00  0.22140793561E+03  0.14189695347E+04  0.14015894786E+04 0.  0.
        3    1    3    3  502    0  0.46538847210E+03 -0.55407081752E+02 -0.41677199141E+03  0.62718041877E+03  0.10100000352E+00 0. -1.
       -3    1    3    3    0  502 -0.46538847210E+03  0.55407081752E+02  0.63817992702E+03  0.79178911594E+03  0.10100000352E+00 0.  1.
</event>
<event>
 5   0  0.2316714E-05  0.1400634E+04  0.7818609E-02  0.8953360E-01
        1   -1    0    0  501    0  0.00000000000E+00  0.00000000000E+00  0.11150480123E+04  0.11150480123E+04  0.50400001928E-02 0.  1.
       -1   -1    0    0    0  501  0.00000000000E+00  0.00000000000E+00 -0.43984109408E+03  0.43984109411E+03  0.50400001928E-02 0. -1.
    10030    2    1    2    0    0  0.00000000000E+00  0.00000000000E+00  0.67520691822E+03  0.15548891064E+04  0.14006340532E+04 0.  0.
        5    1    3    3  502    0  0.88150859914E+02  0.84923453375E+02 -0.42785613360E+03  0.44504553486E+03  0.46999998093E+01 0. -1.
       -5    1    3    3    0  502 -0.88150859914E+02 -0.84923453375E+02  0.11030630518E+04  0.11098435716E+04  0.46999998093E+01 0.  1.
</event>
<event>
 5   0  0.2467303E-05  0.1400436E+04  0.7818609E-02  0.8953503E-01
        1   -1    0    0  501    0  0.00000000000E+00  0.00000000000E+00  0.65174119897E+03  0.65174119899E+03  0.50400001928E-02 0. -1.
       -1   -1    0    0    0  501  0.00000000000E+00  0.00000000000E+00 -0.75230051404E+03  0.75230051406E+03  0.50400001928E-02 0.  1.
    10030    2    1    2    0    0  0.00000000000E+00  0.00000000000E+00 -0.10055931507E+03  0.14040417131E+04  0.14004359879E+04 0.  0.
        3    1    3    3  502    0  0.65554380758E+03 -0.24017575616E+02 -0.29584027526E+03  0.71960823110E+03  0.10100000352E+00 0. -1.
       -3    1    3    3    0  502 -0.65554380758E+03  0.24017575616E+02  0.19528096019E+03  0.68443348195E+03  0.10100000352E+00 0.  1.
</event>
<event>
 5   0  0.4621450E-05  0.1399710E+04  0.7818609E-02  0.8954029E-01
       -2   -1    0    0    0  501  0.00000000000E+00  0.00000000000E+00  0.80303071960E+03  0.80303071960E+03  0.25500000920E-02 0.  1.
        2   -1    0    0  501    0  0.00000000000E+00  0.00000000000E+00 -0.60993516284E+03  0.60993516284E+03  0.25500000920E-02 0. -1.
    10030    2    1    2    0    0  0.00000000000E+00  0.00000000000E+00  0.19309555676E+03  0.14129658824E+04  0.13997095023E+04 0.  0.
        5    1    3    3  502    0 -0.32487921355E+03 -0.52078742841E+03 -0.24280341797E+03  0.66010729337E+03  0.46999998093E+01 0. -1.
       -5    1    3    3    0  502  0.32487921355E+03  0.52078742841E+03  0.43589897473E+03  0.75285858908E+03  0.46999998093E+01 0.  1.
</event>
<event>
 5   0  0.4460282E-05  0.1399663E+04  0.7818609E-02  0.8954063E-01
       -2   -1    0    0    0  501  0.00000000000E+00  0.00000000000E+00  0.26110223156E+03  0.26110223157E+03  0.25500000920E-02 0.  1.
        2   -1    0    0  501    0  0.00000000000E+00  0.00000000000E+00 -0.18757555367E+04  0.18757555367E+04  0.25500000920E-02 0. -1.
    10030    2    1    2    0    0  0.00000000000E+00  0.00000000000E+00 -0.16146533051E+04  0.21368577683E+04  0.13996627544E+04 0.  0.
        1    1    3    3  502    0  0.27770090695E+03 -0.44076907312E+03 -0.93903021200E+02  0.52935143993E+03  0.50400001928E-02 0.  1.
       -1    1    3    3    0  502 -0.27770090695E+03  0.44076907312E+03 -0.15207502839E+04  0.16075063283E+04  0.50400001928E-02 0. -1.
</event>
<event>
 5   0  0.4460282E-05  0.1400168E+04  0.7818609E-02  0.8953697E-01
        2   -1    0    0  501    0  0.00000000000E+00  0.00000000000E+00  0.86514690188E+03  0.86514690188E+03  0.25500000920E-02 0.  1.
       -2   -1    0    0    0  501  0.00000000000E+00  0.00000000000E+00 -0.56651357004E+03  0.56651357005E+03  0.25500000920E-02 0. -1.
    10030    2    1    2    0    0  0.00000000000E+00  0.00000000000E+00  0.29863333183E+03  0.14316604719E+04  0.14001677899E+04 0.  0.
        1    1    3    3  502    0 -0.19315697661E+03  0.43828466877E+03 -0.37276982274E+03  0.60692702136E+03  0.50400001928E-02 0. -1.
       -1    1    3    3    0  502  0.19315697661E+03 -0.43828466877E+03  0.67140315457E+03  0.82473345057E+03  0.50400001928E-02 0.  1.
</event>
<event>
 5   0  0.2363419E-05  0.1399311E+04  0.7818609E-02  0.8954318E-01
        1   -1    0    0  501    0  0.00000000000E+00  0.00000000000E+00  0.19936237287E+04  0.19936237287E+04  0.50400001928E-02 0. -1.
       -1   -1    0    0    0  501  0.00000000000E+00  0.00000000000E+00 -0.24554157786E+03  0.24554157791E+03  0.50400001928E-02 0.  1.
    10030    2    1    2    0    0  0.00000000000E+00  0.00000000000E+00  0.17480821508E+04  0.22391653066E+04  0.13993105675E+04 0.  0.
        2    1    3    3  502    0  0.54200522172E+03 -0.12118540225E+03  0.19313745382E+03  0.58801159696E+03  0.25500000920E-02 0.  1.
       -2    1    3    3    0  502 -0.54200522172E+03  0.12118540225E+03  0.15549446970E+04  0.16511537096E+04  0.25500000920E-02 0. -1.
</event>
<event>
 5   0  0.1661000E-05  0.1400377E+04  0.7818609E-02  0.8953546E-01
       -4   -1    0    0    0  501  0.00000000000E+00  0.00000000000E+00  0.52764380076E+03  0.52764532915E+03  0.12699999809E+01 0.  1.
        4   -1    0    0  501    0  0.00000000000E+00  0.00000000000E+00 -0.92915335138E+03  0.92915421932E+03  0.12699999809E+01 0. -1.
    10030    2    1    2    0    0  0.00000000000E+00  0.00000000000E+00 -0.40150955062E+03  0.14567995485E+04  0.14003767369E+04 0.  0.
        3    1    3    3  502    0 -0.11262374534E+03  0.37849735373E+02 -0.91859113227E+03  0.92624315867E+03  0.10100000352E+00 0. -1.
       -3    1    3    3    0  502  0.11262374534E+03 -0.37849735373E+02  0.51708158165E+03  0.53055638981E+03  0.10100000352E+00 0.  1.
</event>
<event>
 5   0  0.4243281E-05  0.1399802E+04  0.7818609E-02  0.8953962E-01
       -2   -1    0    0    0  501  0.00000000000E+00  0.00000000000E+00  0.41145124962E+03  0.41145124963E+03  0.25500000920E-02 0.  1.
        2   -1    0    0  501    0  0.00000000000E+00  0.00000000000E+00 -0.11905702634E+04  0.11905702634E+04  0.25500000920E-02 0. -1.
    10030    2    1    2    0    0  0.00000000000E+00  0.00000000000E+00 -0.77911901381E+03  0.16020215131E+04  0.13998023041E+04 0.  0.
        2    1    3    3  502    0 -0.22063784411E+03  0.23903903344E+03 -0.10987948702E+04  0.11459366844E+04  0.25500000920E-02 0. -1.
       -2    1    3    3    0  502  0.22063784411E+03 -0.23903903344E+03  0.31967585642E+03  0.45608482867E+03  0.25500000920E-02 0.  1.
</event>
<event>
 5   0  0.2316714E-05  0.1400056E+04  0.7818609E-02  0.8953778E-01
       -1   -1    0    0    0  501  0.00000000000E+00  0.00000000000E+00  0.89952947239E+03  0.89952947240E+03  0.50400001928E-02 0. -1.
        1   -1    0    0  501    0  0.00000000000E+00  0.00000000000E+00 -0.54477244013E+03  0.54477244016E+03  0.50400001928E-02 0.  1.
    10030    2    1    2    0    0  0.00000000000E+00  0.00000000000E+00  0.35475703226E+03  0.14443019126E+04  0.14000555213E+04 0.  0.
        5    1    3    3  502    0  0.38794514596E+03  0.24150583793E+03 -0.36965365974E+03  0.58778603606E+03  0.46999998093E+01 0.  1.
       -5    1    3    3    0  502 -0.38794514596E+03 -0.24150583793E+03  0.72441069199E+03  0.85651587650E+03  0.46999998093E+01 0. -1.
</event>
<event>
 5   0  0.2428507E-05  0.1400365E+04  0.7818609E-02  0.8953554E-01
       -1   -1    0    0    0  501  0.00000000000E+00  0.00000000000E+00  0.82875457349E+03  0.82875457351E+03  0.50400001928E-02 0.  1.
        1   -1    0    0  501    0  0.00000000000E+00  0.00000000000E+00 -0.59155728444E+03  0.59155728446E+03  0.50400001928E-02 0. -1.
    10030    2    1    2    0    0  0.00000000000E+00  0.00000000000E+00  0.23719728905E+03  0.14203118580E+04  0.14003653880E+04 0.  0.
        4    1    3    3  502    0 -0.56234918393E+03  0.24268839686E+03  0.46272473632E+03  0.76762624834E+03  0.12699999809E+01 0.  1.
       -4    1    3    3    0  502  0.56234918393E+03 -0.24268839686E+03 -0.22552744728E+03  0.65268560963E+03  0.12699999809E+01 0. -1.
</event>
<event>
 5   0  0.2467303E-05  0.1399921E+04  0.7818609E-02  0.8953876E-01
        1   -1    0    0  501    0  0.00000000000E+00  0.00000000000E+00  0.13911627114E+04  0.13911627114E+04  0.50400001928E-02 0.  1.
       -1   -1    0    0    0  501  0.00000000000E+00  0.00000000000E+00 -0.35218343942E+03  0.35218343946E+03  0.50400001928E-02 0. -1.
    10030    2    1    2    0    0  0.00000000000E+00  0.00000000000E+00  0.10389792720E+04  0.17433461509E+04  0.13999206671E+04 0.  0.
        3    1    3    3  502    0  0.21095738024E+03  0.37313471973E+03  0.12086039176E+04  0.12823634333E+04  0.10100000352E+00 0.  1.
       -3    1    3    3    0  502 -0.21095738024E+03 -0.37313471973E+03 -0.16962464555E+03  0.46098271760E+03  0.10100000352E+00 0. -1.
</event>
<event>
 5   0  0.2316714E-05  0.1399430E+04  0.7818609E-02  0.8954231E-01
        1   -1    0    0  501    0  0.00000000000E+00  0.00000000000E+00  0.52324501987E+03  0.52324501990E+03  0.50400001928E-02 0.  1.
       -1   -1    0    0    0  501  0.00000000000E+00  0.00000000000E+00 -0.93570199684E+03  0.93570199686E+03  0.50400001928E-02 0. -1.
    10030    2    1    2    0    0  0.00000000000E+00  0.00000000000E+00 -0.41245697697E+03  0.14589470168E+04  0.13994304698E+04 0.  0.
        5    1    3    3  502    0  0.44911908206E+03  0.11891438401E+03 -0.75167225134E+03  0.88367519148E+03  0.46999998093E+01 0. -1.
       -5    1    3    3    0  502 -0.44911908206E+03 -0.11891438401E+03  0.33921527437E+03  0.57527182528E+03  0.46999998093E+01 0.  1.
</event>
<event>
 5   0  0.4243281E-05  0.1399750E+04  0.7818609E-02  0.8954000E-01
       -2   -1    0    0    0  501  0.00000000000E+00  0.00000000000E+00  0.37317260518E+03  0.37317260519E+03  0.25500000920E-02 0. -1.
        2   -1    0    0  501    0  0.00000000000E+00  0.00000000000E+00 -0.13125963810E+04  0.13125963810E+04  0.25500000920E-02 0.  1.
    10030    2    1    2    0    0  0.00000000000E+00  0.00000000000E+00 -0.93942377585E+03  0.16857689862E+04  0.13997499935E+04 0.  0.
        2    1    3    3  502    0 -0.54511410746E+01 -0.42642668916E+03  0.19861913484E+03  0.47044553021E+03  0.25500000920E-02 0. -1.
       -2    1    3    3    0  502  0.54511410746E+01  0.42642668916E+03 -0.11380429107E+04  0.12153234560E+04  0.25500000920E-02 0.  1.
</event>
<event>
 5   0  0.4243281E-05  0.1397494E+04  0.7818609E-02  0.8955634E-01
        2   -1    0    0  501    0  0.00000000000E+00  0.00000000000E+00  0.63039455487E+03  0.63039455487E+03  0.25500000920E-02 0. -1.
       -2   -1    0    0    0  501  0.00000000000E+00  0.00000000000E+00 -0.77451126888E+03  0.77451126888E+03  0.25500000920E-02 0.  1.
    10030    2    1    2    0    0  0.00000000000E+00  0.00000000000E+00 -0.14411671401E+03  0.14049058238E+04  0.13974944531E+04 0.  0.
        2    1    3    3  502    0  0.65099552586E+03  0.20228237348E+03 -0.22628104001E+03  0.71827323657E+03  0.25500000920E-02 0.  1.
       -2    1    3    3    0  502 -0.65099552586E+03 -0.20228237348E+03  0.82164325995E+02  0.68663258718E+03  0.25500000920E-02 0. -1.
</event>
<event>
 5   0  0.2428507E-05  0.1399946E+04  0.7818609E-02  0.8953857E-01
        1   -1    0    0  501    0  0.00000000000E+00  0.00000000000E+00  0.10719087850E+04  0.10719087850E+04  0.50400001928E-02 0. -1.
       -1   -1    0    0    0  501  0.00000000000E+00  0.00000000000E+00 -0.45709343355E+03  0.45709343358E+03  0.50400001928E-02 0.  1.
    10030    2    1    2    0    0  0.00000000000E+00  0.00000000000E+00  0.61481535144E+03  0.15290022186E+04  0.13999463804E+04 0.  0.
        4    1    3    3  502    0 -0.50598777583E+03 -0.44403903468E+03  0.51683011578E+03  0.84871035995E+03  0.12699999809E+01 0.  1.
       -4    1    3    3    0  502  0.50598777583E+03  0.44403903468E+03  0.97985235658E+02  0.68029185863E+03  0.12699999809E+01 0. -1.
</event>
<event>
 5   0  0.2427569E-05  0.1399296E+04  0.7818609E-02  0.8954329E-01
       -1   -1    0    0    0  501  0.00000000000E+00  0.00000000000E+00  0.82037787419E+03  0.82037787421E+03  0.50400001928E-02 0.  1.
        1   -1    0    0  501    0  0.00000000000E+00  0.00000000000E+00 -0.59668478617E+03  0.59668478619E+03  0.50400001928E-02 0. -1.
    10030    2    1    2    0    0  0.00000000000E+00  0.00000000000E+00  0.22369308802E+03  0.14170626604E+04  0.13992955320E+04 0.  0.
        1    1    3    3  502    0  0.40152449185E+03 -0.50580978473E+03  0.38441365179E+03  0.75155792298E+03  0.50400001928E-02 0.  1.
       -1    1    3    3    0  502 -0.40152449185E+03  0.50580978473E+03 -0.16072056376E+03  0.66550473742E+03  0.50400001928E-02 0. -1.
</event>
<event>
 5   0  0.2427569E-05  0.1399811E+04  0.7818609E-02  0.8953955E-01
        1   -1    0    0  501    0  0.00000000000E+00  0.00000000000E+00  0.16358348543E+04  0.16358348543E+04  0.50400001928E-02 0. -1.
       -1   -1    0    0    0  501  0.00000000000E+00  0.00000000000E+00 -0.29946048221E+03  0.29946048225E+03  0.50400001928E-02 0.  1.
    10030    2    1    2    0    0  0.00000000000E+00  0.00000000000E+00  0.13363743721E+04  0.19352953365E+04  0.13998112649E+04 0.  0.
        1    1    3    3  502    0  0.39173457819E+03  0.31571275920E+03 -0.44969311162E+01  0.50314088334E+03  0.50400001928E-02 0.  1.
       -1    1    3    3    0  502 -0.39173457819E+03 -0.31571275920E+03  0.13408713032E+04  0.14321544532E+04  0.50400001928E-02 0. -1.
</event>
<event>
 5   0  0.1661000E-05  0.1401541E+04  0.7818609E-02  0.8952704E-01
       -3   -1    0    0    0  501  0.00000000000E+00  0.00000000000E+00  0.92879869075E+03  0.92879869624E+03  0.10100000352E+00 0.  1.
        3   -1    0    0  501    0  0.00000000000E+00  0.00000000000E+00 -0.52872512057E+03  0.52872513022E+03  0.10100000352E+00 0. -1.
    10030    2    1    2    0    0  0.00000000000E+00  0.00000000000E+00  0.40007357017E+03  0.14575238265E+04  0.14015408817E+04 0.  0.
        5    1    3    3  502    0  0.13697579184E+03 -0.28757394253E+03  0.84914503172E+03  0.90693468059E+03  0.46999998093E+01 0.  1.
       -5    1    3    3    0  502 -0.13697579184E+03  0.28757394253E+03 -0.44907146154E+03  0.55058914586E+03  0.46999998093E+01 0. -1.
</event>
<event>
 5   0  0.2316714E-05  0.1399925E+04  0.7818609E-02  0.8953873E-01
        1   -1    0    0  501    0  0.00000000000E+00  0.00000000000E+00  0.67093788096E+03  0.67093788098E+03  0.50400001928E-02 0. -1.
       -1   -1    0    0    0  501  0.00000000000E+00  0.00000000000E+00 -0.73024280258E+03  0.73024280260E+03  0.50400001928E-02 0.  1.
    10030    2    1    2    0    0  0.00000000000E+00  0.00000000000E+00 -0.59304921617E+02  0.14011806836E+04  0.13999250817E+04 0.  0.
        5    1    3    3  502    0 -0.27751692462E+02  0.64685620648E+03 -0.29584655880E+03  0.71185699733E+03  0.46999998093E+01 0.  1.
       -5    1    3    3    0  502  0.27751692462E+02 -0.64685620648E+03  0.23654163718E+03  0.68932368624E+03  0.46999998093E+01 0. -1.
</event>
<event>
 5   0  0.4527503E-05  0.1395637E+04  0.7818609E-02  0.8956983E-01
       -2   -1    0    0    0  501  0.00000000000E+00  0.00000000000E+00  0.92355854187E+03  0.92355854188E+03  0.25500000920E-02 0.  1.
        2   -1    0    0  501    0  0.00000000000E+00  0.00000000000E+00 -0.52725495435E+03  0.52725495436E+03  0.25500000920E-02 0. -1.
    10030    2    1    2    0    0  0.00000000000E+00  0.00000000000E+00  0.39630358752E+03  0.14508134962E+04  0.13956372263E+04 0.  0.
        4    1    3    3  502    0 -0.56314248303E+03  0.16095114844E+03 -0.19620677491E+03  0.61768393196E+03  0.12699999809E+01 0. -1.
       -4    1    3    3    0  502  0.56314248303E+03 -0.16095114844E+03  0.59251036243E+03  0.83312956428E+03  0.12699999809E+01 0.  1.
</event>
<event>
 5   0  0.4441253E-05  0.1399317E+04  0.7818609E-02  0.8954313E-01
        2   -1    0    0  501    0  0.00000000000E+00  0.00000000000E+00  0.10634049579E+04  0.10634049579E+04  0.25500000920E-02 0.  1.
       -2   -1    0    0    0  501  0.00000000000E+00  0.00000000000E+00 -0.46033478262E+03  0.46033478263E+03  0.25500000920E-02 0. -1.
    10030    2    1    2    0    0  0.00000000000E+00  0.00000000000E+00  0.60307017527E+03  0.15237397405E+04  0.13993173909E+04 0.  0.
        3    1    3    3  502    0  0.62315933132E+03  0.24514851692E+03  0.80785822874E+02  0.67450108001E+03  0.10100000352E+00 0. -1.
       -3    1    3    3    0  502 -0.62315933132E+03 -0.24514851692E+03  0.52228435240E+03  0.84923866052E+03  0.10100000352E+00 0.  1.
</event>
<event>
 5   0  0.4460282E-05  0.1400295E+04  0.7818609E-02  0.8953605E-01
       -2   -1    0    0    0  501  0.00000000000E+00  0.00000000000E+00  0.19283515695E+03  0.19283515697E+03  0.25500000920E-02 0. -1.
        2   -1    0    0  501    0  0.00000000000E+00  0.00000000000E+00 -0.25421020110E+04  0.25421020110E+04  0.25500000920E-02 0.  1.
    10030    2    1    2    0    0  0.00000000000E+00  0.00000000000E+00 -0.23492668540E+04  0.27349371680E+04  0.14002951693E+04 0.  0.
        1    1    3    3  502    0  0.60884436369E+03  0.16309118017E+03 -0.17699857636E+04  0.18788666253E+04  0.50400001928E-02 0.  1.
       -1    1    3    3    0  502 -0.60884436369E+03 -0.16309118017E+03 -0.57928109039E+03  0.85607054263E+03  0.50400001928E-02 0. -1.
</event>
<event>
 5   0  0.4441253E-05  0.1399631E+04  0.7818609E-02  0.8954086E-01
        2   -1    0    0  501    0  0.00000000000E+00  0.00000000000E+00  0.81253405624E+03  0.81253405625E+03  0.25500000920E-02 0.  1.
       -2   -1    0    0    0  501  0.00000000000E+00  0.00000000000E+00 -0.60273373848E+03  0.60273373849E+03  0.25500000920E-02 0. -1.
    10030    2    1    2    0    0  0.00000000000E+00  0.00000000000E+00  0.20980031776E+03  0.14152677947E+04  0.13996309362E+04 0.  0.
        3    1    3    3  502    0 -0.58226361389E+03  0.18030068808E+03 -0.24274667955E+03  0.65609847952E+03  0.10100000352E+00 0. -1.
       -3    1    3    3    0  502  0.58226361389E+03 -0.18030068808E+03  0.45254699731E+03  0.75916931522E+03  0.10100000352E+00 0.  1.
</event>
<event>
 5   0  0.4621450E-05  0.1400233E+04  0.7818609E-02  0.8953650E-01
       -2   -1    0    0    0  501  0.00000000000E+00  0.00000000000E+00  0.22191654779E+03  0.22191654781E+03  0.25500000920E-02 0.  1.
        2   -1    0    0  501    0  0.00000000000E+00  0.00000000000E+00 -0.22087731643E+04  0.22087731643E+04  0.25500000920E-02 0. -1.
    10030    2    1    2    0    0  0.00000000000E+00  0.00000000000E+00 -0.19868566165E+04  0.24306897121E+04  0.14002332884E+04 0.  0.
        5    1    3    3  502    0 -0.20829659981E+03 -0.53107845763E+03 -0.28891638312E+03  0.63947366489E+03  0.46999998093E+01 0.  1.
       -5    1    3    3    0  502  0.20829659981E+03  0.53107845763E+03 -0.16979402334E+04  0.17912160472E+04  0.46999998093E+01 0. -1.
</event>
<event>
 5   0  0.1661000E-05  0.1400359E+04  0.7818609E-02  0.8953559E-01
        4   -1    0    0  501    0  0.00000000000E+00  0.00000000000E+00  0.43253980496E+03  0.43254166941E+03  0.12699999809E+01 0. -1.
       -4   -1    0    0    0  501  0.00000000000E+00  0.00000000000E+00 -0.11334198084E+04  0.11334205199E+04  0.12699999809E+01 0.  1.
    10030    2    1    2    0    0  0.00000000000E+00  0.00000000000E+00 -0.70088000340E+03  0.15659621893E+04  0.14003588108E+04 0.  0.
        1    1    3    3  502    0 -0.25639373818E+03  0.45861691059E+03  0.16708988608E+03  0.55134948056E+03  0.50400001928E-02 0. -1.
       -1    1    3    3    0  502  0.25639373818E+03 -0.45861691059E+03 -0.86796988947E+03  0.10146127087E+04  0.50400001928E-02 0.  1.
</event>
<event>
 5   0  0.2467303E-05  0.1400248E+04  0.7818609E-02  0.8953639E-01
        1   -1    0    0  501    0  0.00000000000E+00  0.00000000000E+00  0.61700995768E+03  0.61700995770E+03  0.50400001928E-02 0. -1.
       -1   -1    0    0    0  501  0.00000000000E+00  0.00000000000E+00 -0.79443431145E+03  0.79443431146E+03  0.50400001928E-02 0.  1.
    10030    2    1    2    0    0  0.00000000000E+00  0.00000000000E+00 -0.17742435377E+03  0.14114442692E+04  0.14002483793E+04 0.  0.
        3    1    3    3  502    0 -0.27927472101E+03 -0.62783929823E+03 -0.22393890284E+03  0.72272069059E+03  0.10100000352E+00 0.  1.
       -3    1    3    3    0  502  0.27927472101E+03  0.62783929823E+03  0.46514549075E+02  0.68872357857E+03  0.10100000352E+00 0. -1.
</event>
<event>
 5   0  0.4460282E-05  0.1400273E+04  0.7818609E-02  0.8953621E-01
       -2   -1    0    0    0  501  0.00000000000E+00  0.00000000000E+00  0.28829247413E+03  0.28829247414E+03  0.25500000920E-02 0.  1.
        2   -1    0    0  501    0  0.00000000000E+00  0.00000000000E+00 -0.17003255478E+04  0.17003255478E+04  0.25500000920E-02 0. -1.
    10030    2    1    2    0    0  0.00000000000E+00  0.00000000000E+00 -0.14120330737E+04  0.19886180219E+04  0.14002729148E+04 0.  0.
        1    1    3    3  502    0  0.49487785012E+03  0.48084906146E+03 -0.87447914412E+03  0.11139271430E+04  0.50400001928E-02 0.  1.
       -1    1    3    3    0  502 -0.49487785012E+03 -0.48084906146E+03 -0.53755392954E+03  0.87469087890E+03  0.50400001928E-02 0. -1.
</event>
<event>
 5   0  0.2467303E-05  0.1400649E+04  0.7818609E-02  0.8953349E-01
        1   -1    0    0  501    0  0.00000000000E+00  0.00000000000E+00  0.91868501048E+03  0.91868501049E+03  0.50400001928E-02 0. -1.
       -1   -1    0    0    0  501  0.00000000000E+00  0.00000000000E+00 -0.53386534888E+03  0.53386534890E+03  0.50400001928E-02 0.  1.
    10030    2    1    2    0    0  0.00000000000E+00  0.00000000000E+00  0.38481966160E+03  0.14525503594E+04  0.14006485550E+04 0.  0.
        3    1    3    3  502    0 -0.22189667097E+03  0.15409764791E+03  0.86247120971E+03  0.90379246260E+03  0.10100000352E+00 0. -1.
       -3    1    3    3    0  502  0.22189667097E+03 -0.15409764791E+03 -0.47765154811E+03  0.54875789679E+03  0.10100000352E+00 0.  1.
</event>
<event>
 5   0  0.2363419E-05  0.1400124E+04  0.7818609E-02  0.8953729E-01
        1   -1    0    0  501    0  0.00000000000E+00  0.00000000000E+00  0.70466712798E+03  0.70466712799E+03  0.50400001928E-02 0.  1.
       -1   -1    0    0    0  501  0.00000000000E+00  0.00000000000E+00 -0.69548664935E+03  0.69548664937E+03  0.50400001928E-02 0. -1.
    10030    2    1    2    0    0  0.00000000000E+00  0.00000000000E+00  0.91804786284E+01  0.14001537774E+04  0.14001236799E+04 0.  0.
        2    1    3    3  502    0  0.45003157618E+03  0.46064305573E+03 -0.26994459568E+03  0.69827682841E+03  0.25500000920E-02 0. -1.
       -2    1    3    3    0  502 -0.45003157618E+03 -0.46064305573E+03  0.27912507431E+03  0.70187694895E+03  0.25500000920E-02 0.  1.
</event>
<event>
 5   0  0.2428507E-05  0.1399954E+04  0.7818609E-02  0.8953852E-01
       -1   -1    0    0    0  501  0.00000000000E+00  0.00000000000E+00  0.19650813686E+03  0.19650813692E+03  0.50400001928E-02 0. -1.
        1   -1    0    0  501    0  0.00000000000E+00  0.00000000000E+00 -0.24933730484E+04  0.24933730484E+04  0.50400001928E-02 0.  1.
    10030    2    1    2    0    0  0.00000000000E+00  0.00000000000E+00 -0.22968649115E+04  0.26898811853E+04  0.13999544168E+04 0.  0.
        4    1    3    3  502    0  0.66498409041E+03  0.28444262750E+02 -0.73208733618E+03  0.98942730773E+03  0.12699999809E+01 0. -1.
       -4    1    3    3    0  502 -0.66498409041E+03 -0.28444262750E+02 -0.15647775753E+04  0.17004538776E+04  0.12699999809E+01 0.  1.
</event>
<event>
 5   0  0.4527503E-05  0.1400752E+04  0.7818609E-02  0.8953274E-01
        2   -1    0    0  501    0  0.00000000000E+00  0.00000000000E+00  0.13638239898E+04  0.13638239898E+04  0.25500000920E-02 0. -1.
       -2   -1    0    0    0  501  0.00000000000E+00  0.00000000000E+00 -0.35967009067E+03  0.35967009067E+03  0.25500000920E-02 0.  1.
    10030    2    1    2    0    0  0.00000000000E+00  0.00000000000E+00  0.10041538991E+04  0.17234940804E+04  0.14007522237E+04 0.  0.
        4    1    3    3  502    0  0.41693044212E+03  0.53537275937E+03  0.71543837909E+03  0.98605713436E+03  0.12699999809E+01 0. -1.
       -4    1    3    3    0  502 -0.41693044212E+03 -0.53537275937E+03  0.28871552000E+03  0.73743694607E+03  0.12699999809E+01 0.  1.
</event>
<event>
 5   0  0.2316714E-05  0.1400395E+04  0.7818609E-02  0.8953533E-01
       -1   -1    0    0    0  501  0.00000000000E+00  0.00000000000E+00  0.25367164493E+03  0.25367164498E+03  0.50400001928E-02 0. -1.
        1   -1    0    0  501    0  0.00000000000E+00  0.00000000000E+00 -0.19327199723E+04  0.19327199723E+04  0.50400001928E-02 0.  1.
    10030    2    1    2    0    0  0.00000000000E+00  0.00000000000E+00 -0.16790483274E+04  0.21863916173E+04  0.14003945938E+04 0.  0.
        5    1    3    3  502    0  0.30872808191E+03  0.29851714534E+03 -0.17029332443E+04  0.17562543208E+04  0.46999998093E+01 0.  1.
       -5    1    3    3    0  502 -0.30872808191E+03 -0.29851714534E+03  0.23884916910E+02  0.43013729654E+03  0.46999998093E+01 0. -1.
</event>
<event>
 5   0  0.2316714E-05  0.1400058E+04  0.7818609E-02  0.8953777E-01
       -1   -1    0    0    0  501  0.00000000000E+00  0.00000000000E+00  0.70643143514E+03  0.70643143516E+03  0.50400001928E-02 0. -1.
        1   -1    0    0  501    0  0.00000000000E+00  0.00000000000E+00 -0.69368450490E+03  0.69368450492E+03  0.50400001928E-02 0.  1.
    10030    2    1    2    0    0  0.00000000000E+00  0.00000000000E+00  0.12746930238E+02  0.14001159401E+04  0.14000579136E+04 0.  0.
        5    1    3    3  502    0  0.35602249716E+02 -0.69817245747E+03 -0.29768727437E+02  0.69972892443E+03  0.46999998093E+01 0.  1.
       -5    1    3    3    0  502 -0.35602249716E+02  0.69817245747E+03  0.42515657676E+02  0.70038701565E+03  0.46999998093E+01 0. -1.
</event>
<event>
 5   0  0.2316714E-05  0.1400206E+04  0.7818609E-02  0.8953669E-01
        1   -1    0    0  501    0  0.00000000000E+00  0.00000000000E+00  0.50482858587E+03  0.50482858590E+03  0.50400001928E-02 0. -1.
       -1   -1    0    0    0  501  0.00000000000E+00  0.00000000000E+00 -0.97091209126E+03  0.97091209127E+03  0.50400001928E-02 0.  1.
    10030    2    1    2    0    0  0.00000000000E+00  0.00000000000E+00 -0.46608350539E+03  0.14757406772E+04  0.14002059535E+04 0.  0.
        5    1    3    3  502    0 -0.58520727110E+02  0.42930914535E+03 -0.81260736521E+03  0.92091467453E+03  0.46999998093E+01 0.  1.
       -5    1    3    3    0  502  0.58520727110E+02 -0.42930914535E+03  0.34652385982E+03  0.55482600264E+03  0.46999998093E+01 0. -1.
</event>
<event>
 5   0  0.4621450E-05  0.1399202E+04  0.7818609E-02  0.8954396E-01
        2   -1    0    0  501    0  0.00000000000E+00  0.00000000000E+00  0.95749487242E+03  0.95749487243E+03  0.25500000920E-02 0.  1.
       -2   -1    0    0    0  501  0.00000000000E+00  0.00000000000E+00 -0.51116917588E+03  0.51116917589E+03  0.25500000920E-02 0. -1.
    10030    2    1    2    0    0  0.00000000000E+00  0.00000000000E+00  0.44632569655E+03  0.14686640483E+04  0.13992024369E+04 0.  0.
        5    1    3    3  502    0  0.23166496972E+03 -0.22230814260E+03 -0.42924810540E+03  0.53606491626E+03  0.46999998093E+01 0. -1.
       -5    1    3    3    0  502 -0.23166496972E+03  0.22230814260E+03  0.87557380194E+03  0.93259913205E+03  0.46999998093E+01 0.  1.
</event>
<event>
 5   0  0.4460282E-05  0.1400267E+04  0.7818609E-02  0.8953625E-01
        2   -1    0    0  501    0  0.00000000000E+00  0.00000000000E+00  0.55413019528E+03  0.55413019528E+03  0.25500000920E-02 0. -1.
       -2   -1    0    0    0  501  0.00000000000E+00  0.00000000000E+00 -0.88460646800E+03  0.88460646801E+03  0.25500000920E-02 0.  1.
    10030    2    1    2    0    0  0.00000000000E+00  0.00000000000E+00 -0.33047627273E+03  0.14387366633E+04  0.14002673386E+04 0.  0.
        1    1    3    3  502    0 -0.14155106248E+03 -0.16367620438E+03  0.51890799630E+03  0.56222069672E+03  0.50400001928E-02 0. -1.
       -1    1    3    3    0  502  0.14155106248E+03  0.16367620438E+03 -0.84938426902E+03  0.87651596657E+03  0.50400001928E-02 0.  1.
</event>
<event>
 5   0  0.2363419E-05  0.1397123E+04  0.7818609E-02  0.8955904E-01
       -1   -1    0    0    0  501  0.00000000000E+00  0.00000000000E+00  0.55507852341E+03  0.55507852344E+03  0.50400001928E-02 0.  1.
        1   -1    0    0  501    0  0.00000000000E+00  0.00000000000E+00 -0.87913336932E+03  0.87913336933E+03  0.50400001928E-02 0. -1.
    10030    2    1    2    0    0  0.00000000000E+00  0.00000000000E+00 -0.32405484590E+03  0.14342118928E+04  0.13971228329E+04 0.  0.
        2    1    3    3  502    0  0.40982317181E+00  0.69810063451E+03 -0.18806589152E+03  0.72298924157E+03  0.25500000920E-02 0.  1.
       -2    1    3    3    0  502 -0.40982317181E+00 -0.69810063451E+03 -0.13598895438E+03  0.71122265120E+03  0.25500000920E-02 0. -1.
</event>
<event>
 5   0  0.1661000E-05  0.1399798E+04  0.7818609E-02  0.8953965E-01
       -4   -1    0    0    0  501  0.00000000000E+00  0.00000000000E+00  0.85369804283E+03  0.85369898748E+03  0.12699999809E+01 0.  1.
        4   -1    0    0  501    0  0.00000000000E+00  0.00000000000E+00 -0.57380593960E+03  0.57380734503E+03  0.12699999809E+01 0. -1.
    10030    2    1    2    0    0  0.00000000000E+00  0.00000000000E+00  0.27989210323E+03  0.14275063325E+04  0.13997981068E+04 0.  0.
        4    1    3    3  502    0 -0.10882745952E+03 -0.18974318708E+03 -0.53805328412E+03  0.58081739165E+03  0.12699999809E+01 0. -1.
       -4    1    3    3    0  502  0.10882745952E+03  0.18974318708E+03  0.81794538735E+03  0.84668894086E+03  0.12699999809E+01 0.  1.
</event>
<event>
 5   0  0.4460282E-05  0.1400196E+04  0.7818609E-02  0.8953676E-01
       -2   -1    0    0    0  501  0.00000000000E+00  0.00000000000E+00  0.26815526128E+03  0.26815526129E+03  0.25500000920E-02 0. -1.
        2   -1    0    0  501    0  0.00000000000E+00  0.00000000000E+00 -0.18278125676E+04  0.18278125676E+04  0.25500000920E-02 0.  1.
    10030    2    1    2    0    0  0.00000000000E+00  0.00000000000E+00 -0.15596573063E+04  0.20959678289E+04  0.14001964957E+04 0.  0.
        1    1    3    3  502    0  0.59559301769E+02 -0.25354430509E+03  0.19293875392E+03  0.32412557422E+03  0.50400001928E-02 0. -1.
       -1    1    3    3    0  502 -0.59559301769E+02  0.25354430509E+03 -0.17525960602E+04  0.17718422547E+04  0.50400001928E-02 0.  1.
</event>
<event>
 5   0  0.1661000E-05  0.1402778E+04  0.7818609E-02  0.8951810E-01
        3   -1    0    0  501    0  0.00000000000E+00  0.00000000000E+00  0.58463564205E+03  0.58463565077E+03  0.10100000352E+00 0.  1.
       -3   -1    0    0    0  501  0.00000000000E+00  0.00000000000E+00 -0.84145798768E+03  0.84145799375E+03  0.10100000352E+00 0. -1.
    10030    2    1    2    0    0  0.00000000000E+00  0.00000000000E+00 -0.25682234564E+03  0.14260936445E+04  0.14027777321E+04 0.  0.
        1    1    3    3  502    0 -0.37118355655E+03 -0.43810024011E+03  0.28107054890E+03  0.63930407986E+03  0.50400001928E-02 0.  1.
       -1    1    3    3    0  502  0.37118355655E+03  0.43810024011E+03 -0.53789289454E+03  0.78678956466E+03  0.50400001928E-02 0. -1.
</event>
<event>
 5   0  0.4460282E-05  0.1399077E+04  0.7818609E-02  0.8954487E-01
        2   -1    0    0  501    0  0.00000000000E+00  0.00000000000E+00  0.14796259410E+04  0.14796259410E+04  0.25500000920E-02 0.  1.
       -2   -1    0    0    0  501  0.00000000000E+00  0.00000000000E+00 -0.33072806974E+03  0.33072806975E+03  0.25500000920E-02 0. -1.
    10030    2    1    2    0    0  0.00000000000E+00  0.00000000000E+00  0.11488978712E+04  0.18103540107E+04  0.13990765975E+04 0.  0.
        1    1    3    3  502    0  0.12721046012E+03 -0.27321275913E+03  0.13913141663E+04  0.14235809855E+04  0.50400001928E-02 0.  1.
       -1    1    3    3    0  502 -0.12721046012E+03  0.27321275913E+03 -0.24241629505E+03  0.38677302523E+03  0.50400001928E-02 0. -1.
</event>
<event>
 5   0  0.4441253E-05  0.1399959E+04  0.7818609E-02  0.8953849E-01
        2   -1    0    0  501    0  0.00000000000E+00  0.00000000000E+00  0.10998979471E+04  0.10998979471E+04  0.25500000920E-02 0. -1.
       -2   -1    0    0    0  501  0.00000000000E+00  0.00000000000E+00 -0.44546950581E+03  0.44546950581E+03  0.25500000920E-02 0.  1.
    10030    2    1    2    0    0  0.00000000000E+00  0.00000000000E+00  0.65442844128E+03  0.15453674529E+04  0.13999585636E+04 0.  0.
        3    1    3    3  502    0  0.50600398192E+03  0.85779547910E+02 -0.19822258259E+03  0.55017303006E+03  0.10100000352E+00 0.  1.
       -3    1    3    3    0  502 -0.50600398192E+03 -0.85779547910E+02  0.85265102387E+03  0.99519442285E+03  0.10100000352E+00 0. -1.
</event>
<event>
 5   0  0.2428507E-05  0.1400177E+04  0.7818609E-02  0.8953690E-01
        1   -1    0    0  501    0  0.00000000000E+00  0.00000000000E+00  0.63314399162E+03  0.63314399164E+03  0.50400001928E-02 0.  1.
       -1   -1    0    0    0  501  0.00000000000E+00  0.00000000000E+00 -0.77411173263E+03  0.77411173265E+03  0.50400001928E-02 0. -1.
    10030    2    1    2    0    0  0.00000000000E+00  0.00000000000E+00 -0.14096774101E+03  0.14072557243E+04  0.14001774064E+04 0.  0.
        4    1    3    3  502    0 -0.66581208753E+03  0.12527909950E+03 -0.24778995672E+03  0.72138898261E+03  0.12699999809E+01 0. -1.
       -4    1    3    3    0  502  0.66581208753E+03 -0.12527909950E+03  0.10682221571E+03  0.68586674168E+03  0.12699999809E+01 0.  1.
</event>
<event>
 5   0  0.2428507E-05  0.1399946E+04  0.7818609E-02  0.8953858E-01
       -1   -1    0    0    0  501  0.00000000000E+00  0.00000000000E+00  0.63164278517E+03  0.63164278519E+03  0.50400001928E-02 0.  1.
        1   -1    0    0  501    0  0.00000000000E+00  0.00000000000E+00 -0.77569525372E+03  0.77569525373E+03  0.50400001928E-02 0. -1.
    10030    2    1    2    0    0  0.00000000000E+00  0.00000000000E+00 -0.14405246855E+03  0.14073380389E+04  0.13999461569E+04 0.  0.
        4    1    3    3  502    0  0.18856178180E+02 -0.68836249139E+03 -0.19823683161E+03  0.71658769827E+03  0.12699999809E+01 0.  1.
       -4    1    3    3    0  502 -0.18856178180E+02  0.68836249139E+03  0.54184363058E+02  0.69075034065E+03  0.12699999809E+01 0. -1.
</event>
<event>
 5   0  0.2427569E-05  0.1400859E+04  0.7818609E-02  0.8953197E-01
       -1   -1    0    0    0  501  0.00000000000E+00  0.00000000000E+00  0.42572650002E+03  0.42572650005E+03  0.50400001928E-02 0. -1.
        1   -1    0    0  501    0  0.00000000000E+00  0.00000000000E+00 -0.11523861425E+04  0.11523861425E+04  0.50400001928E-02 0.  1.
    10030    2    1    2    0    0  0.00000000000E+00  0.00000000000E+00 -0.72665964244E+03  0.15781126425E+04  0.14008587639E+04 0.  0.
        1    1    3    3  502    0  0.15053295473E+03 -0.37356538599E+03  0.28223319668E+03  0.49179959882E+03  0.50400001928E-02 0. -1.
       -1    1    3    3    0  502 -0.15053295473E+03  0.37356538599E+03 -0.10088928391E+04  0.10863130437E+04  0.50400001928E-02 0.  1.
</event>
<event>
 5   0  0.4621450E-05  0.1400242E+04  0.7818609E-02  0.8953644E-01
        2   -1    0    0  501    0  0.00000000000E+00  0.00000000000E+00  0.19509867417E+04  0.19509867417E+04  0.25500000920E-02 0.  1.
       -2   -1    0    0    0  501  0.00000000000E+00  0.00000000000E+00 -0.25124166355E+03  0.25124166356E+03  0.25500000920E-02 0. -1.
    10030    2    1    2    0    0  0.00000000000E+00  0.00000000000E+00  0.16997450782E+04  0.22022284053E+04  0.14002416285E+04 0.  0.
        5    1    3    3  502    0 -0.86657582747E+02 -0.21937248622E+03 -0.18684604196E+03  0.30094411068E+03  0.46999998093E+01 0. -1.
       -5    1    3    3    0  502  0.86657582747E+02  0.21937248622E+03  0.18865911201E+04  0.19012842946E+04  0.46999998093E+01 0.  1.
</event>
<event>
 5   0  0.2427569E-05  0.1407793E+04  0.7818609E-02  0.8948197E-01
        1   -1    0    0  501    0  0.00000000000E+00  0.00000000000E+00  0.89653756502E+03  0.89653756503E+03  0.50400001928E-02 0. -1.
       -1   -1    0    0    0  501  0.00000000000E+00  0.00000000000E+00 -0.55264831551E+03  0.55264831554E+03  0.50400001928E-02 0.  1.
    10030    2    1    2    0    0  0.00000000000E+00  0.00000000000E+00  0.34388924950E+03  0.14491858806E+04  0.14077925630E+04 0.  0.
        1    1    3    3  502    0 -0.18530553143E+03  0.12440677029E+03  0.85914710318E+03  0.88766487449E+03  0.50400001928E-02 0. -1.
       -1    1    3    3    0  502  0.18530553143E+03 -0.12440677029E+03 -0.51525785367E+03  0.56152100608E+03  0.50400001928E-02 0.  1.
</event>
<event>
 5   0  0.1661000E-05  0.1399973E+04  0.7818609E-02  0.8953838E-01
        3   -1    0    0  501    0  0.00000000000E+00  0.00000000000E+00  0.83090685937E+03  0.83090686551E+03  0.10100000352E+00 0.  1.
       -3   -1    0    0    0  501  0.00000000000E+00  0.00000000000E+00 -0.58969450194E+03  0.58969451059E+03  0.10100000352E+00 0. -1.
    10030    2    1    2    0    0  0.00000000000E+00  0.00000000000E+00  0.24121235743E+03  0.14206013761E+04  0.13999731670E+04 0.  0.
        3    1    3    3  502    0  0.39694505987E+03 -0.48736550570E+03 -0.19197607784E+03  0.65722548746E+03  0.10100000352E+00 0. -1.
       -3    1    3    3    0  502 -0.39694505987E+03  0.48736550570E+03  0.43318843528E+03  0.76337588864E+03  0.10100000352E+00 0.  1.
</event>
<event>
 5   0  0.4621450E-05  0.1399870E+04  0.7818609E-02  0.8953913E-01
        2   -1    0    0  501    0  0.00000000000E+00  0.00000000000E+00  0.10869948676E+04  0.10869948676E+04  0.25500000920E-02 0.  1.
       -2   -1    0    0    0  501  0.00000000000E+00  0.00000000000E+00 -0.45070051798E+03  0.45070051799E+03  0.25500000920E-02 0. -1.
    10030    2    1    2    0    0  0.00000000000E+00  0.00000000000E+00  0.63629434962E+03  0.15376953856E+04  0.13998702081E+04 0.  0.
        5    1    3    3  502    0  0.30062096141E+03  0.41432349131E+03  0.84248017488E+03  0.98581532396E+03  0.46999998093E+01 0.  1.
       -5    1    3    3    0  502 -0.30062096141E+03 -0.41432349131E+03 -0.20618582526E+03  0.55188006163E+03  0.46999998093E+01 0. -1.
</event>
<event>
 5   0  0.4460282E-05  0.1400237E+04  0.7818609E-02  0.8953647E-01
        2   -1    0    0  501    0  0.00000000000E+00  0.00000000000E+00  0.33065070296E+03  0.33065070297E+03  0.25500000920E-02 0.  1.
       -2   -1    0    0    0  501  0.00000000000E+00  0.00000000000E+00 -0.14824276840E+04  0.14824276840E+04  0.25500000920E-02 0. -1.
    10030    2    1    2    0    0  0.00000000000E+00  0.00000000000E+00 -0.11517769810E+04  0.18130783869E+04  0.14002367740E+04 0.  0.
        1    1    3    3  502    0  0.17300067060E+03 -0.57784929266E+03 -0.11567143495E+03  0.61418150244E+03  0.50400001928E-02 0.  1.
       -1    1    3    3    0  502 -0.17300067060E+03  0.57784929266E+03 -0.10361055460E+04  0.11988968845E+04  0.50400001928E-02 0. -1.
</event>
<event>
 5   0  0.4527503E-05  0.1398962E+04  0.7818609E-02  0.8954571E-01
        2   -1    0    0  501    0  0.00000000000E+00  0.00000000000E+00  0.64914891202E+03  0.64914891202E+03  0.25500000920E-02 0.  1.
       -2   -1    0    0    0  501  0.00000000000E+00  0.00000000000E+00 -0.75371511676E+03  0.75371511677E+03  0.25500000920E-02 0. -1.
    10030    2    1    2    0    0  0.00000000000E+00  0.00000000000E+00 -0.10456620474E+03  0.14028640288E+04  0.13989615406E+04 0.  0.
        4    1    3    3  502    0 -0.11604086976E+03  0.51151129632E+03  0.41178472698E+03  0.66684148341E+03  0.12699999809E+01 0.  1.
       -4    1    3    3    0  502  0.11604086976E+03 -0.51151129632E+03 -0.51635093173E+03  0.73602254538E+03  0.12699999809E+01 0. -1.
</event>
<event>
 5   0  0.4621450E-05  0.1399937E+04  0.7818609E-02  0.8953864E-01
       -2   -1    0    0    0  501  0.00000000000E+00  0.00000000000E+00  0.98915345296E+03  0.98915345296E+03  0.25500000920E-02 0.  1.
        2   -1    0    0  501    0  0.00000000000E+00  0.00000000000E+00 -0.49532819916E+03  0.49532819917E+03  0.25500000920E-02 0. -1.
    10030    2    1    2    0    0  0.00000000000E+00  0.00000000000E+00  0.49382525379E+03  0.14844816521E+04  0.13999365679E+04 0.  0.
        5    1    3    3  502    0 -0.63212353297E+03  0.26581819370E+03  0.98102038259E+02  0.69273773750E+03  0.46999998093E+01 0. -1.
       -5    1    3    3    0  502  0.63212353297E+03 -0.26581819370E+03  0.39572321554E+03  0.79174391463E+03  0.46999998093E+01 0.  1.
</event>
<event>
 5   0  0.2428507E-05  0.1402281E+04  0.7818609E-02  0.8952169E-01
        1   -1    0    0  501    0  0.00000000000E+00  0.00000000000E+00  0.62713477458E+03  0.62713477460E+03  0.50400001928E-02 0.  1.
       -1   -1    0    0    0  501  0.00000000000E+00  0.00000000000E+00 -0.78387884571E+03  0.78387884573E+03  0.50400001928E-02 0. -1.
    10030    2    1    2    0    0  0.00000000000E+00  0.00000000000E+00 -0.15674407113E+03  0.14110136203E+04  0.14022805471E+04 0.  0.
        4    1    3    3  502    0  0.53737399190E+02 -0.40607689383E+03 -0.65095888613E+03  0.76911327912E+03  0.12699999809E+01 0. -1.
       -4    1    3    3    0  502 -0.53737399190E+02  0.40607689383E+03  0.49421481500E+03  0.64190034121E+03  0.12699999809E+01 0.  1.
</event>
<event>
 5   0  0.4460282E-05  0.1399942E+04  0.7818609E-02  0.8953860E-01
        2   -1    0    0  501    0  0.00000000000E+00  0.00000000000E+00  0.81766342326E+03  0.81766342326E+03  0.25500000920E-02 0.  1.
       -2   -1    0    0    0  501  0.00000000000E+00  0.00000000000E+00 -0.59921917631E+03  0.59921917631E+03  0.25500000920E-02 0. -1.
    10030    2    1    2    0    0  0.00000000000E+00  0.00000000000E+00  0.21844424695E+03  0.14168825996E+04  0.13999422888E+04 0.  0.
        1    1    3    3  502    0 -0.12530771974E+03 -0.57341346002E+03 -0.27677799482E+03  0.64893071988E+03  0.50400001928E-02 0. -1.
       -1    1    3    3    0  502  0.12530771974E+03  0.57341346002E+03  0.49522224177E+03  0.76795187970E+03  0.50400001928E-02 0.  1.
</event>
<event>
 5   0  0.2428507E-05  0.1399539E+04  0.7818609E-02  0.8954152E-01
        1   -1    0    0  501    0  0.00000000000E+00  0.00000000000E+00  0.11367743238E+04  0.11367743239E+04  0.50400001928E-02 0.  1.
       -1   -1    0    0    0  501  0.00000000000E+00  0.00000000000E+00 -0.43076044867E+03  0.43076044870E+03  0.50400001928E-02 0. -1.
    10030    2    1    2    0    0  0.00000000000E+00  0.00000000000E+00  0.70601387517E+03  0.15675347726E+04  0.13995390924E+04 0.  0.
        4    1    3    3  502    0  0.41666791185E+03 -0.17048262073E+03 -0.24702254876E+03  0.51351555500E+03  0.12699999809E+01 0. -1.
       -4    1    3    3    0  502 -0.41666791185E+03  0.17048262073E+03  0.95303642393E+03  0.10540192176E+04  0.12699999809E+01 0.  1.
</event>
<event>
 5   0  0.2363419E-05  0.1399881E+04  0.7818609E-02  0.8953905E-01
       -1   -1    0    0    0  501  0.00000000000E+00  0.00000000000E+00  0.70063261917E+03  0.70063261919E+03  0.50400001928E-02 0. -1.
        1   -1    0    0  501    0  0.00000000000E+00  0.00000000000E+00 -0.69924920230E+03  0.69924920232E+03  0.50400001928E-02 0.  1.
    10030    2    1    2    0    0  0.00000000000E+00  0.00000000000E+00  0.13834168683E+01  0.13998818215E+04  0.13998811379E+04 0.  0.
        2    1    3    3  502    0 -0.23349615706E+03 -0.45055719902E+03 -0.48138171138E+03  0.69946450733E+03  0.25500000920E-02 0.  1.
       -2    1    3    3    0  502  0.23349615706E+03  0.45055719902E+03  0.48276512825E+03  0.70041731419E+03  0.25500000920E-02 0. -1.
</event>
<event>
 5   0  0.2363419E-05  0.1399756E+04  0.7818609E-02  0.8953995E-01
        1   -1    0    0  501    0  0.00000000000E+00  0.00000000000E+00  0.45014011270E+03  0.45014011273E+03  0.50400001928E-02 0. -1.
       -1   -1    0    0    0  501  0.00000000000E+00  0.00000000000E+00 -0.10881705934E+04  0.10881705934E+04  0.50400001928E-02 0.  1.
    10030    2    1    2    0    0  0.00000000000E+00  0.00000000000E+00 -0.63803048069E+03  0.15383107061E+04  0.13997560267E+04 0.  0.
        2    1    3    3  502    0 -0.58506497265E+03 -0.10399317735E+03 -0.72536277070E+03  0.93769224817E+03  0.25500000920E-02 0.  1.
       -2    1    3    3    0  502  0.58506497265E+03  0.10399317735E+03  0.87332290012E+02  0.60061845796E+03  0.25500000920E-02 0. -1.
</event>
<event>
 5   0  0.2427569E-05  0.1399831E+04  0.7818609E-02  0.8953941E-01
       -1   -1    0    0    0  501  0.00000000000E+00  0.00000000000E+00  0.27352034063E+03  0.27352034068E+03  0.50400001928E-02 0.  1.
        1   -1    0    0  501    0  0.00000000000E+00  0.00000000000E+00 -0.17910236736E+04  0.17910236737E+04  0.50400001928E-02 0. -1.
    10030    2    1    2    0    0  0.00000000000E+00  0.00000000000E+00 -0.15175033330E+04  0.20645440143E+04  0.13998305688E+04 0.  0.
        1    1    3    3  502    0 -0.57125094431E+03  0.12959060689E+03 -0.19374628873E+03  0.61697568120E+03  0.50400001928E-02 0.  1.
       -1    1    3    3    0  502  0.57125094431E+03 -0.12959060689E+03 -0.13237570443E+04  0.14475683331E+04  0.50400001928E-02 0. -1.
</event>
<event>
 5   0  0.2428507E-05  0.1399711E+04  0.7818609E-02  0.8954028E-01
        1   -1    0    0  501    0  0.00000000000E+00  0.00000000000E+00  0.12121915271E+04  0.12121915271E+04  0.50400001928E-02 0.  1.
       -1   -1    0    0    0  501  0.00000000000E+00  0.00000000000E+00 -0.40405960552E+03  0.40405960555E+03  0.50400001928E-02 0. -1.
    10030    2    1    2    0    0  0.00000000000E+00  0.00000000000E+00  0.80813192156E+03  0.16162511326E+04  0.13997108705E+04 0.  0.
        4    1    3    3  502    0 -0.24752365626E+02  0.56832518333E+03  0.87479687483E+03  0.10434928743E+04  0.12699999809E+01 0.  1.
       -4    1    3    3    0  502  0.24752365626E+02 -0.56832518333E+03 -0.66664953270E+02  0.57275825834E+03  0.12699999809E+01 0. -1.
</event>
<event>
 5   0  0.4527503E-05  0.1400539E+04  0.7818609E-02  0.8953428E-01
        2   -1    0    0  501    0  0.00000000000E+00  0.00000000000E+00  0.61832243048E+03  0.61832243049E+03  0.25500000920E-02 0.  1.
       -2   -1    0    0    0  501  0.00000000000E+00  0.00000000000E+00 -0.79307765661E+03  0.79307765661E+03  0.25500000920E-02 0. -1.
    10030    2    1    2    0    0  0.00000000000E+00  0.00000000000E+00 -0.17475522612E+03  0.14114000871E+04  0.14005394735E+04 0.  0.
        4    1    3    3  502    0 -0.45900795781E+03 -0.48401737624E+03 -0.30213805070E+03  0.73229102167E+03  0.12699999809E+01 0.  1.
       -4    1    3    3    0  502  0.45900795781E+03  0.48401737624E+03  0.12738282458E+03  0.67910906542E+03  0.12699999809E+01 0. -1.
</event>
<event>
 5   0  0.4243281E-05  0.1400314E+04  0.7818609E-02  0.8953591E-01
       -2   -1    0    0    0  501  0.00000000000E+00  0.00000000000E+00  0.68490275466E+03  0.68490275467E+03  0.25500000920E-02 0. -1.
        2   -1    0    0  501    0  0.00000000000E+00  0.00000000000E+00 -0.71575119345E+03  0.71575119345E+03  0.25500000920E-02 0.  1.
    10030    2    1    2    0    0  0.00000000000E+00  0.00000000000E+00 -0.30848438786E+02  0.14006539481E+04  0.14003141991E+04 0.  0.
        2    1    3    3  502    0 -0.19269030514E+03 -0.62290125677E+03  0.23975418979E+03  0.69470684530E+03  0.25500000920E-02 0. -1.
       -2    1    3    3    0  502  0.19269030514E+03  0.62290125677E+03 -0.27060262858E+03  0.70594710282E+03  0.25500000920E-02 0.  1.
</event>
<event>
 5   0  0.2316714E-05  0.1400365E+04  0.7818609E-02  0.8953555E-01
       -1   -1    0    0    0  501  0.00000000000E+00  0.00000000000E+00  0.96888277638E+03  0.96888277639E+03  0.50400001928E-02 0.  1.
        1   -1    0    0  501    0  0.00000000000E+00  0.00000000000E+00 -0.50600060594E+03  0.50600060596E+03  0.50400001928E-02 0. -1.
    10030    2    1    2    0    0  0.00000000000E+00  0.00000000000E+00  0.46288217044E+03  0.14748833824E+04  0.14003646267E+04 0.  0.
        5    1    3    3  502    0  0.17631439186E+03 -0.43054618751E+03  0.78252096223E+03  0.91039438195E+03  0.46999998093E+01 0.  1.
       -5    1    3    3    0  502 -0.17631439186E+03  0.43054618751E+03 -0.31963879179E+03  0.56448900040E+03  0.46999998093E+01 0. -1.
</event>
<event>
 5   0  0.4243281E-05  0.1399870E+04  0.7818609E-02  0.8953912E-01
       -2   -1    0    0    0  501  0.00000000000E+00  0.00000000000E+00  0.48040188374E+03  0.48040188374E+03  0.25500000920E-02 0.  1.
        2   -1    0    0  501    0  0.00000000000E+00  0.00000000000E+00 -0.10197906341E+04  0.10197906341E+04  0.25500000920E-02 0. -1.
    10030    2    1    2    0    0  0.00000000000E+00  0.00000000000E+00 -0.53938875034E+03  0.15001925178E+04  0.13998704821E+04 0.  0.
        2    1    3    3  502    0  0.24823236850E+03  0.35365057617E+03 -0.85981255444E+03  0.96227109880E+03  0.25500000920E-02 0. -1.
       -2    1    3    3    0  502 -0.24823236850E+03 -0.35365057617E+03  0.32042380410E+03  0.53792141902E+03  0.25500000920E-02 0.  1.
</event>
<event>
 5   0  0.2316714E-05  0.1400088E+04  0.7818609E-02  0.8953755E-01
        1   -1    0    0  501    0  0.00000000000E+00  0.00000000000E+00  0.18275505620E+04  0.18275505620E+04  0.50400001928E-02 0. -1.
       -1   -1    0    0    0  501  0.00000000000E+00  0.00000000000E+00 -0.26815231441E+03  0.26815231446E+03  0.50400001928E-02 0.  1.
    10030    2    1    2    0    0  0.00000000000E+00  0.00000000000E+00  0.15593982475E+04  0.20957028764E+04  0.14000884443E+04 0.  0.
        5    1    3    3  502    0  0.50530303551E+03  0.16800064746E+03  0.99528436576E+02  0.54174105893E+03  0.46999998093E+01 0.  1.
       -5    1    3    3    0  502 -0.50530303551E+03 -0.16800064746E+03  0.14598698110E+04  0.15539618175E+04  0.46999998093E+01 0. -1.
</event>
<event>
 5   0  0.4460282E-05  0.1400492E+04  0.7818609E-02  0.8953462E-01
       -2   -1    0    0    0  501  0.00000000000E+00  0.00000000000E+00  0.31995105821E+03  0.31995105822E+03  0.25500000920E-02 0. -1.
        2   -1    0    0  501    0  0.00000000000E+00  0.00000000000E+00 -0.15325610681E+04  0.15325610681E+04  0.25500000920E-02 0.  1.
    10030    2    1    2    0    0  0.00000000000E+00  0.00000000000E+00 -0.12126100099E+04  0.18525121263E+04  0.14004921071E+04 0.  0.
        1    1    3    3  502    0  0.69505320485E+02 -0.38109682451E+03 -0.13779149425E+04  0.14313334231E+04  0.50400001928E-02 0.  1.
       -1    1    3    3    0  502 -0.69505320485E+02  0.38109682451E+03  0.16530493267E+03  0.42117870318E+03  0.50400001928E-02 0. -1.
</event>
<event>
 5   0  0.4527503E-05  0.1400870E+04  0.7818609E-02  0.8953189E-01
       -2   -1    0    0    0  501  0.00000000000E+00  0.00000000000E+00  0.18631962292E+03  0.18631962294E+03  0.25500000920E-02 0.  1.
        2   -1    0    0  501    0  0.00000000000E+00  0.00000000000E+00 -0.26331571123E+04  0.26331571123E+04  0.25500000920E-02 0. -1.
    10030    2    1    2    0    0  0.00000000000E+00  0.00000000000E+00 -0.24468374893E+04  0.28194767352E+04  0.14008695018E+04 0.  0.
        4    1    3    3  502    0  0.61342494173E+03  0.21097164289E+03 -0.69164910444E+03  0.94825064715E+03  0.12699999809E+01 0.  1.
       -4    1    3    3    0  502 -0.61342494173E+03 -0.21097164289E+03 -0.17551883849E+04  0.18712260881E+04  0.12699999809E+01 0. -1.
</event>
<event>
 5   0  0.2316714E-05  0.1396983E+04  0.7818609E-02  0.8956005E-01
       -1   -1    0    0    0  501  0.00000000000E+00  0.00000000000E+00  0.21520009574E+03  0.21520009580E+03  0.50400001928E-02 0. -1.
        1   -1    0    0  501    0  0.00000000000E+00  0.00000000000E+00 -0.22671483622E+04  0.22671483622E+04  0.50400001928E-02 0.  1.
    10030    2    1    2    0    0  0.00000000000E+00  0.00000000000E+00 -0.20519482664E+04  0.24823484580E+04  0.13969832421E+04 0.  0.
        5    1    3    3  502    0 -0.68684940021E+03 -0.11343859154E+03 -0.92485978393E+03  0.11575915180E+04  0.46999998093E+01 0. -1.
       -5    1    3    3    0  502  0.68684940021E+03  0.11343859154E+03 -0.11270884825E+04  0.13247569400E+04  0.46999998093E+01 0.  1.
</event>
<event>
 5   0  0.4527503E-05  0.1400286E+04  0.7818609E-02  0.8953611E-01
        2   -1    0    0  501    0  0.00000000000E+00  0.00000000000E+00  0.19193772189E+04  0.19193772189E+04  0.25500000920E-02 0. -1.
       -2   -1    0    0    0  501  0.00000000000E+00  0.00000000000E+00 -0.25539561839E+03  0.25539561840E+03  0.25500000920E-02 0.  1.
    10030    2    1    2    0    0  0.00000000000E+00  0.00000000000E+00  0.16639816005E+04  0.21747728373E+04  0.14002864447E+04 0.  0.
        4    1    3    3  502    0 -0.40395270333E+03 -0.11427684197E+03  0.17022237328E+04  0.17532268058E+04  0.12699999809E+01 0. -1.
       -4    1    3    3    0  502  0.40395270333E+03  0.11427684197E+03 -0.38242132253E+02  0.42154603155E+03  0.12699999809E+01 0.  1.
</event>
<event>
 5   0  0.4621450E-05  0.1399891E+04  0.7818609E-02  0.8953897E-01
       -2   -1    0    0    0  501  0.00000000000E+00  0.00000000000E+00  0.82311348437E+03  0.82311348437E+03  0.25500000920E-02 0.  1.
        2   -1    0    0  501    0  0.00000000000E+00  0.00000000000E+00 -0.59520816624E+03  0.59520816625E+03  0.25500000920E-02 0. -1.
    10030    2    1    2    0    0  0.00000000000E+00  0.00000000000E+00  0.22790531812E+03  0.14183216506E+04  0.13998912353E+04 0.  0.
        5    1    3    3  502    0  0.41921037784E+03 -0.16627405165E+03  0.65627303375E+03  0.79630445558E+03  0.46999998093E+01 0.  1.
       -5    1    3    3    0  502 -0.41921037784E+03  0.16627405165E+03 -0.42836771563E+03  0.62201719504E+03  0.46999998093E+01 0. -1.
</event>
<event>
 5   0  0.4460282E-05  0.1399637E+04  0.7818609E-02  0.8954081E-01
       -2   -1    0    0    0  501  0.00000000000E+00  0.00000000000E+00  0.71227116441E+03  0.71227116441E+03  0.25500000920E-02 0.  1.
        2   -1    0    0  501    0  0.00000000000E+00  0.00000000000E+00 -0.68758356357E+03  0.68758356357E+03  0.25500000920E-02 0. -1.
    10030    2    1    2    0    0  0.00000000000E+00  0.00000000000E+00  0.24687600838E+02  0.13998547280E+04  0.13996370179E+04 0.  0.
        1    1    3    3  502    0  0.25230271555E+03 -0.36845888008E+03  0.55124793409E+03  0.70943138600E+03  0.50400001928E-02 0.  1.
       -1    1    3    3    0  502 -0.25230271555E+03  0.36845888008E+03 -0.52656033325E+03  0.69042334198E+03  0.50400001928E-02 0. -1.
</event>
<event>
 5   0  0.2428507E-05  0.1400304E+04  0.7818609E-02  0.8953598E-01
       -1   -1    0    0    0  501  0.00000000000E+00  0.00000000000E+00  0.19729275918E+03  0.19729275924E+03  0.50400001928E-02 0.  1.
        1   -1    0    0  501    0  0.00000000000E+00  0.00000000000E+00 -0.24846983420E+04  0.24846983420E+04  0.50400001928E-02 0. -1.
    10030    2    1    2    0    0  0.00000000000E+00  0.00000000000E+00 -0.22874055829E+04  0.26819911013E+04  0.14003042408E+04 0.  0.
        4    1    3    3  502    0 -0.12948852397E+03 -0.41520281290E+03 -0.92818821790E+02  0.44472193588E+03  0.12699999809E+01 0.  1.
       -4    1    3    3    0  502  0.12948852397E+03  0.41520281290E+03 -0.21945867611E+04  0.22372691654E+04  0.12699999809E+01 0. -1.
</event>
<event>
 5   0  0.4460282E-05  0.1400319E+04  0.7818609E-02  0.8953587E-01
       -2   -1    0    0    0  501  0.00000000000E+00  0.00000000000E+00  0.10512764005E+04  0.10512764005E+04  0.25500000920E-02 0. -1.
        2   -1    0    0  501    0  0.00000000000E+00  0.00000000000E+00 -0.46631281597E+03  0.46631281597E+03  0.25500000920E-02 0.  1.
    10030    2    1    2    0    0  0.00000000000E+00  0.00000000000E+00  0.58496358451E+03  0.15175892165E+04  0.14003194759E+04 0.  0.
        1    1    3    3  502    0  0.49045815411E+03 -0.31748639845E+03 -0.12567646820E+03  0.59761307618E+03  0.50400001928E-02 0.  1.
       -1    1    3    3    0  502 -0.49045815411E+03  0.31748639845E+03  0.71064005271E+03  0.91997614027E+03  0.50400001928E-02 0. -1.
</event>
<event>
 5   0  0.2363419E-05  0.1389986E+04  0.7818609E-02  0.8961099E-01
        1   -1    0    0  501    0  0.00000000000E+00  0.00000000000E+00  0.13796892819E+04  0.13796892819E+04  0.50400001928E-02 0.  1.
       -1   -1    0    0    0  501  0.00000000000E+00  0.00000000000E+00 -0.35008980904E+03  0.35008980908E+03  0.50400001928E-02 0. -1.
    10030    2    1    2    0    0  0.00000000000E+00  0.00000000000E+00  0.10295994729E+04  0.17297790910E+04  0.13899858377E+04 0.  0.
        2    1    3    3  502    0 -0.53524841801E+03  0.31259714542E+03  0.90597808808E+03  0.10977268059E+04  0.25500000920E-02 0.  1.
       -2    1    3    3    0  502  0.53524841801E+03 -0.31259714542E+03  0.12362138479E+03  0.63205228509E+03  0.25500000920E-02 0. -1.
</event>
<event>
 5   0  0.4441253E-05  0.1399864E+04  0.7818609E-02  0.8953917E-01
        2   -1    0    0  501    0  0.00000000000E+00  0.00000000000E+00  0.14760020242E+04  0.14760020242E+04  0.25500000920E-02 0. -1.
       -2   -1    0    0    0  501  0.00000000000E+00  0.00000000000E+00 -0.33191318331E+03  0.33191318332E+03  0.25500000920E-02 0.  1.
    10030    2    1    2    0    0  0.00000000000E+00  0.00000000000E+00  0.11440888409E+04  0.18079152076E+04  0.13998636083E+04 0.  0.
        3    1    3    3  502    0 -0.85247848130E+02  0.27194196917E+03 -0.25358778475E+03  0.38147923270E+03  0.10100000352E+00 0.  1.
       -3    1    3    3    0  502  0.85247848130E+02 -0.27194196917E+03  0.13976766257E+04  0.14264359749E+04  0.10100000352E+00 0. -1.
</event>
<event>
 5   0  0.2428507E-05  0.1400422E+04  0.7818609E-02  0.8953513E-01
       -1   -1    0    0    0  501  0.00000000000E+00  0.00000000000E+00  0.38218865983E+03  0.38218865987E+03  0.50400001928E-02 0.  1.
        1   -1    0    0  501    0  0.00000000000E+00  0.00000000000E+00 -0.12828624120E+04  0.12828624120E+04  0.50400001928E-02 0. -1.
    10030    2    1    2    0    0  0.00000000000E+00  0.00000000000E+00 -0.90067375217E+03  0.16650510719E+04  0.14004220307E+04 0.  0.
        4    1    3    3  502    0 -0.60052252580E+01 -0.42478170039E+03  0.21145610437E+03  0.47454278278E+03  0.12699999809E+01 0.  1.
       -4    1    3    3    0  502  0.60052252580E+01  0.42478170039E+03 -0.11121298565E+04  0.11905082891E+04  0.12699999809E+01 0. -1.
</event>
<event>
 5   0  0.2428507E-05  0.1399653E+04  0.7818609E-02  0.8954070E-01
       -1   -1    0    0    0  501  0.00000000000E+00  0.00000000000E+00  0.50674751986E+03  0.50674751989E+03  0.50400001928E-02 0. -1.
        1   -1    0    0  501    0  0.00000000000E+00  0.00000000000E+00 -0.96647146153E+03  0.96647146154E+03  0.50400001928E-02 0.  1.
    10030    2    1    2    0    0  0.00000000000E+00  0.00000000000E+00 -0.45972394167E+03  0.14732189814E+04  0.13996528372E+04 0.  0.
        4    1    3    3  502    0 -0.54003841983E+03 -0.14475198049E+02 -0.69810861845E+03  0.88272775095E+03  0.12699999809E+01 0.  1.
       -4    1    3    3    0  502  0.54003841983E+03  0.14475198049E+02  0.23838467678E+03  0.59049123048E+03  0.12699999809E+01 0. -1.
</event>
<event>
 5   0  0.4460282E-05  0.1399996E+04  0.7818609E-02  0.8953822E-01
        2   -1    0    0  501    0  0.00000000000E+00  0.00000000000E+00  0.13415164508E+04  0.13415164508E+04  0.25500000920E-02 0. -1.
       -2   -1    0    0    0  501  0.00000000000E+00  0.00000000000E+00 -0.36525598640E+03  0.36525598641E+03  0.25500000920E-02 0.  1.
    10030    2    1    2    0    0  0.00000000000E+00  0.00000000000E+00  0.97626046443E+03  0.17067724373E+04  0.13999955922E+04 0.  0.
        1    1    3    3  502    0  0.44769081149E+03 -0.33953270686E+03  0.99708822510E+03  0.11445062037E+04  0.50400001928E-02 0. -1.
       -1    1    3    3    0  502 -0.44769081149E+03  0.33953270686E+03 -0.20827760664E+02  0.56226623352E+03  0.50400001928E-02 0.  1.
</event>
<event>
 5   0  0.4527503E-05  0.1400679E+04  0.7818609E-02  0.8953327E-01
        2   -1    0    0  501    0  0.00000000000E+00  0.00000000000E+00  0.79404642958E+03  0.79404642958E+03  0.25500000920E-02 0. -1.
       -2   -1    0    0    0  501  0.00000000000E+00  0.00000000000E+00 -0.61769135176E+03  0.61769135177E+03  0.25500000920E-02 0.  1.
    10030    2    1    2    0    0  0.00000000000E+00  0.00000000000E+00  0.17635507782E+03  0.14117377814E+04  0.14006792816E+04 0.  0.
        4    1    3    3  502    0 -0.49240919631E+02  0.16173510356E+03  0.77316894692E+03  0.79143840271E+03  0.12699999809E+01 0. -1.
       -4    1    3    3    0  502  0.49240919631E+02 -0.16173510356E+03 -0.59681386911E+03  0.62029937865E+03  0.12699999809E+01 0.  1.
</event>
<event>
 5   0  0.2316714E-05  0.1402889E+04  0.7818609E-02  0.8951730E-01
        1   -1    0    0  501    0  0.00000000000E+00  0.00000000000E+00  0.60833616888E+03  0.60833616891E+03  0.50400001928E-02 0.  1.
       -1   -1    0    0    0  501  0.00000000000E+00  0.00000000000E+00 -0.80880366663E+03  0.80880366665E+03  0.50400001928E-02 0. -1.
    10030    2    1    2    0    0  0.00000000000E+00  0.00000000000E+00 -0.20046749775E+03  0.14171398356E+04  0.14028891959E+04 0.  0.
        5    1    3    3  502    0  0.85647935708E+02 -0.68261329903E+03  0.37925260075E+02  0.68902605194E+03  0.46999998093E+01 0. -1.
       -5    1    3    3    0  502 -0.85647935708E+02  0.68261329903E+03 -0.23839275782E+03  0.72811378361E+03  0.46999998093E+01 0.  1.
</event>
<event>
 5   0  0.4460282E-05  0.1400134E+04  0.7818609E-02  0.8953721E-01
       -2   -1    0    0    0  501  0.00000000000E+00  0.00000000000E+00  0.31585068848E+03  0.31585068850E+03  0.25500000920E-02 0.  1.
        2   -1    0    0  501    0  0.00000000000E+00  0.00000000000E+00 -0.15516634981E+04  0.15516634981E+04  0.25500000920E-02 0. -1.
    10030    2    1    2    0    0  0.00000000000E+00  0.00000000000E+00 -0.12358128096E+04  0.18675141866E+04  0.14001342567E+04 0.  0.
        1    1    3    3  502    0 -0.48251939129E+03  0.20436980834E+03  0.12778202544E+01  0.52401680734E+03  0.50400001928E-02 0.  1.
       -1    1    3    3    0  502  0.48251939129E+03 -0.20436980834E+03 -0.12370906299E+04  0.13434973793E+04  0.50400001928E-02 0. -1.
</event>
<event>
 5   0  0.4441253E-05  0.1401665E+04  0.7818609E-02  0.8952614E-01
       -2   -1    0    0    0  501  0.00000000000E+00  0.00000000000E+00  0.38185544420E+03  0.38185544421E+03  0.25500000920E-02 0.  1.
        2   -1    0    0  501    0  0.00000000000E+00  0.00000000000E+00 -0.12862614071E+04  0.12862614071E+04  0.25500000920E-02 0. -1.
    10030    2    1    2    0    0  0.00000000000E+00  0.00000000000E+00 -0.90440596286E+03  0.16681168513E+04  0.14016646117E+04 0.  0.
        3    1    3    3  502    0  0.23893110536E+03  0.33548792955E+03 -0.11270264817E+04  0.11999287164E+04  0.10100000352E+00 0. -1.
       -3    1    3    3    0  502 -0.23893110536E+03 -0.33548792955E+03  0.22262051881E+03  0.46818813481E+03  0.10100000352E+00 0.  1.
</event>
<event>
 5   0  0.2427569E-05  0.1399795E+04  0.7818609E-02  0.8953967E-01
       -1   -1    0    0    0  501  0.00000000000E+00  0.00000000000E+00  0.63676891331E+03  0.63676891333E+03  0.50400001928E-02 0. -1.
        1   -1    0    0  501    0  0.00000000000E+00  0.00000000000E+00 -0.76928406168E+03  0.76928406169E+03  0.50400001928E-02 0.  1.
    10030    2    1    2    0    0  0.00000000000E+00  0.00000000000E+00 -0.13251514837E+03  0.14060529750E+04  0.13997945221E+04 0.  0.
        1    1    3    3  502    0 -0.39560170986E+03  0.39313312323E+03  0.35848260908E+03  0.66299633971E+03  0.50400001928E-02 0. -1.
       -1    1    3    3    0  502  0.39560170986E+03 -0.39313312323E+03 -0.49099775745E+03  0.74305663531E+03  0.50400001928E-02 0.  1.
</event>
<event>
 5   0  0.2428507E-05  0.1400014E+04  0.7818609E-02  0.8953809E-01
       -1   -1    0    0    0  501  0.00000000000E+00  0.00000000000E+00  0.44233491210E+03  0.44233491213E+03  0.50400001928E-02 0.  1.
        1   -1    0    0  501    0  0.00000000000E+00  0.00000000000E+00 -0.11077796354E+04  0.11077796354E+04  0.50400001928E-02 0. -1.
    10030    2    1    2    0    0  0.00000000000E+00  0.00000000000E+00 -0.66544472333E+03  0.15501145476E+04  0.14000137252E+04 0.  0.
        4    1    3    3  502    0 -0.24132222031E+03  0.53291566671E+03  0.92903755660E+02  0.59234132268E+03  0.12699999809E+01 0.  1.
       -4    1    3    3    0  502  0.24132222031E+03 -0.53291566671E+03 -0.75834847899E+03  0.95777322490E+03  0.12699999809E+01 0. -1.
</event>
<event>
 5   0  0.2467303E-05  0.1400037E+04  0.7818609E-02  0.8953792E-01
        1   -1    0    0  501    0  0.00000000000E+00  0.00000000000E+00  0.10827357043E+04  0.10827357043E+04  0.50400001928E-02 0.  1.
       -1   -1    0    0    0  501  0.00000000000E+00  0.00000000000E+00 -0.45258128797E+03  0.45258128800E+03  0.50400001928E-02 0. -1.
    10030    2    1    2    0    0  0.00000000000E+00  0.00000000000E+00  0.63015441629E+03  0.15353169923E+04  0.14000370275E+04 0.  0.
        3    1    3    3  502    0  0.20155643723E+03 -0.44723593458E+03  0.86271089534E+03  0.99242887791E+03  0.10100000352E+00 0.  1.
       -3    1    3    3    0  502 -0.20155643723E+03  0.44723593458E+03 -0.23255647905E+03  0.54288811436E+03  0.10100000352E+00 0. -1.
</event>
<event>
 5   0  0.2316714E-05  0.1400530E+04  0.7818609E-02  0.8953435E-01
       -1   -1    0    0    0  501  0.00000000000E+00  0.00000000000E+00  0.75556777489E+03  0.75556777491E+03  0.50400001928E-02 0.  1.
        1   -1    0    0  501    0  0.00000000000E+00  0.00000000000E+00 -0.64900981169E+03  0.64900981171E+03  0.50400001928E-02 0. -1.
    10030    2    1    2    0    0  0.00000000000E+00  0.00000000000E+00  0.10655796320E+03  0.14045775866E+04  0.14005297560E+04 0.  0.
        5    1    3    3  502    0 -0.42029523782E+03  0.43969450118E+03  0.40122475404E+03  0.72868562120E+03  0.46999998093E+01 0.  1.
       -5    1    3    3    0  502  0.42029523782E+03 -0.43969450118E+03 -0.29466679084E+03  0.67589196542E+03  0.46999998093E+01 0. -1.
</event>
<event>
 5   0  0.2467303E-05  0.1399749E+04  0.7818609E-02  0.8954001E-01
       -1   -1    0    0    0  501  0.00000000000E+00  0.00000000000E+00  0.60666992869E+03  0.60666992871E+03  0.50400001928E-02 0. -1.
        1   -1    0    0  501    0  0.00000000000E+00  0.00000000000E+00 -0.80739790487E+03  0.80739790488E+03  0.50400001928E-02 0.  1.
    10030    2    1    2    0    0  0.00000000000E+00  0.00000000000E+00 -0.20072797618E+03  0.14140678336E+04  0.13997485908E+04 0.  0.
        3    1    3    3  502    0  0.14839994865E+03 -0.39452247355E+03 -0.66478646904E+03  0.78715410595E+03  0.10100000352E+00 0.  1.
       -3    1    3    3    0  502 -0.14839994865E+03  0.39452247355E+03  0.46405849286E+03  0.62691372764E+03  0.10100000352E+00 0. -1.
</event>
<event>
 5   0  0.4527503E-05  0.1400292E+04  0.7818609E-02  0.8953607E-01
        2   -1    0    0  501    0  0.00000000000E+00  0.00000000000E+00  0.17098448570E+04  0.17098448570E+04  0.25500000920E-02 0.  1.
       -2   -1    0    0    0  501  0.00000000000E+00  0.00000000000E+00 -0.28669546722E+03  0.28669546723E+03  0.25500000920E-02 0. -1.
    10030    2    1    2    0    0  0.00000000000E+00  0.00000000000E+00  0.14231493898E+04  0.19965403243E+04  0.14002924983E+04 0.  0.
        4    1    3    3  502    0 -0.65011227970E+02  0.25224735147E+02 -0.28173014218E+03  0.29023478933E+03  0.12699999809E+01 0. -1.
       -4    1    3    3    0  502  0.65011227970E+02 -0.25224735147E+02  0.17048795320E+04  0.17063055349E+04  0.12699999809E+01 0.  1.
</event>
<event>
 5   0  0.4460282E-05  0.1397519E+04  0.7818609E-02  0.8955616E-01
       -2   -1    0    0    0  501  0.00000000000E+00  0.00000000000E+00  0.74479358227E+03  0.74479358228E+03  0.25500000920E-02 0.  1.
        2   -1    0    0  501    0  0.00000000000E+00  0.00000000000E+00 -0.65557092714E+03  0.65557092714E+03  0.25500000920E-02 0. -1.
    10030    2    1    2    0    0  0.00000000000E+00  0.00000000000E+00  0.89222655134E+02  0.14003645094E+04  0.13975192582E+04 0.  0.
        1    1    3    3  502    0 -0.52331384044E+03  0.25336800916E+03  0.43297270774E+03  0.72492626476E+03  0.50400001928E-02 0.  1.
       -1    1    3    3    0  502  0.52331384044E+03 -0.25336800916E+03 -0.34375005260E+03  0.67543824466E+03  0.50400001928E-02 0. -1.
</event>
<event>
 5   0  0.2363419E-05  0.1393418E+04  0.7818609E-02  0.8958597E-01
       -1   -1    0    0    0  501  0.00000000000E+00  0.00000000000E+00  0.75484359593E+03  0.75484359594E+03  0.50400001928E-02 0. -1.
        1   -1    0    0  501    0  0.00000000000E+00  0.00000000000E+00 -0.64305187684E+03  0.64305187686E+03  0.50400001928E-02 0.  1.
    10030    2    1    2    0    0  0.00000000000E+00  0.00000000000E+00  0.11179171909E+03  0.13978954728E+04  0.13934182303E+04 0.  0.
        2    1    3    3  502    0 -0.19487887587E+03  0.35143008634E+03 -0.51507495326E+03  0.65328637620E+03  0.25500000920E-02 0.  1.
       -2    1    3    3    0  502  0.19487887587E+03 -0.35143008634E+03  0.62686667234E+03  0.74460909661E+03  0.25500000920E-02 0. -1.
</event>
<event>
 5   0  0.4621450E-05  0.1406293E+04  0.7818609E-02  0.8949276E-01
        2   -1    0    0  501    0  0.00000000000E+00  0.00000000000E+00  0.70384144095E+03  0.70384144095E+03  0.25500000920E-02 0. -1.
       -2   -1    0    0    0  501  0.00000000000E+00  0.00000000000E+00 -0.70245182571E+03  0.70245182571E+03  0.25500000920E-02 0.  1.
    10030    2    1    2    0    0  0.00000000000E+00  0.00000000000E+00  0.13896152359E+01  0.14062932667E+04  0.14062925801E+04 0.  0.
        5    1    3    3  502    0 -0.47790221513E+03 -0.11739885924E+02 -0.51492571434E+03  0.70263712785E+03  0.46999998093E+01 0.  1.
       -5    1    3    3    0  502  0.47790221513E+03  0.11739885924E+02  0.51631532957E+03  0.70365613882E+03  0.46999998093E+01 0. -1.
</event>
<event>
 5   0  0.2363419E-05  0.1399700E+04  0.7818609E-02  0.8954036E-01
        1   -1    0    0  501    0  0.00000000000E+00  0.00000000000E+00  0.66760480337E+03  0.66760480339E+03  0.50400001928E-02 0. -1.
       -1   -1    0    0    0  501  0.00000000000E+00  0.00000000000E+00 -0.73365265872E+03  0.73365265874E+03  0.50400001928E-02 0.  1.
    10030    2    1    2    0    0  0.00000000000E+00  0.00000000000E+00 -0.66047855352E+02  0.14012574621E+04  0.13997000236E+04 0.  0.
        2    1    3    3  502    0 -0.42716220018E+03  0.50159798169E+03  0.20329371980E+03  0.68948996876E+03  0.25500000920E-02 0. -1.
       -2    1    3    3    0  502  0.42716220018E+03 -0.50159798169E+03 -0.26934157515E+03  0.71176749337E+03  0.25500000920E-02 0.  1.
</event>
<event>
 5   0  0.4243281E-05  0.1391785E+04  0.7818609E-02  0.8959786E-01
       -2   -1    0    0    0  501  0.00000000000E+00  0.00000000000E+00  0.31642822753E+03  0.31642822754E+03  0.25500000920E-02 0. -1.
        2   -1    0    0  501    0  0.00000000000E+00  0.00000000000E+00 -0.15304148429E+04  0.15304148429E+04  0.25500000920E-02 0.  1.
    10030    2    1    2    0    0  0.00000000000E+00  0.00000000000E+00 -0.12139866154E+04  0.18468430704E+04  0.13917851215E+04 0.  0.
        2    1    3    3  502    0 -0.72613947046E+02 -0.12970255418E+03  0.29511589232E+03  0.33043747937E+03  0.25500000920E-02 0. -1.
       -2    1    3    3    0  502  0.72613947046E+02  0.12970255418E+03 -0.15091025077E+04  0.15164055911E+04  0.25500000920E-02 0.  1.
</event>
<event>
 5   0  0.4441253E-05  0.1400060E+04  0.7818609E-02  0.8953775E-01
       -2   -1    0    0    0  501  0.00000000000E+00  0.00000000000E+00  0.34617352121E+03  0.34617352122E+03  0.25500000920E-02 0. -1.
        2   -1    0    0  501    0  0.00000000000E+00  0.00000000000E+00 -0.14155961766E+04  0.14155961766E+04  0.25500000920E-02 0.  1.
    10030    2    1    2    0    0  0.00000000000E+00  0.00000000000E+00 -0.10694226554E+04  0.17617696978E+04  0.14000598745E+04 0.  0.
        3    1    3    3  502    0 -0.27061244999E+03  0.11335714095E+03  0.26507177897E+03  0.39540358838E+03  0.10100000352E+00 0. -1.
       -3    1    3    3    0  502  0.27061244999E+03 -0.11335714095E+03 -0.13344944344E+04  0.13663661094E+04  0.10100000352E+00 0.  1.
</event>
<event>
 5   0  0.1661000E-05  0.1397571E+04  0.7818609E-02  0.8955579E-01
        3   -1    0    0  501    0  0.00000000000E+00  0.00000000000E+00  0.59490314518E+03  0.59490315375E+03  0.10100000352E+00 0.  1.
       -3   -1    0    0    0  501  0.00000000000E+00  0.00000000000E+00 -0.82080750336E+03  0.82080750957E+03  0.10100000352E+00 0. -1.
    10030    2    1    2    0    0  0.00000000000E+00  0.00000000000E+00 -0.22590435818E+03  0.14157106633E+04  0.13975707149E+04 0.  0.
        3    1    3    3  502    0 -0.38091014810E+03  0.53702065226E+03  0.12421757809E+03  0.67001025275E+03  0.10100000352E+00 0.  1.
       -3    1    3    3    0  502  0.38091014810E+03 -0.53702065226E+03 -0.35012193627E+03  0.74570041058E+03  0.10100000352E+00 0. -1.
</event>
<event>
 5   0  0.4460282E-05  0.1400080E+04  0.7818609E-02  0.8953761E-01
       -2   -1    0    0    0  501  0.00000000000E+00  0.00000000000E+00  0.90077876331E+03  0.90077876331E+03  0.25500000920E-02 0.  1.
        2   -1    0    0  501    0  0.00000000000E+00  0.00000000000E+00 -0.54403578795E+03  0.54403578796E+03  0.25500000920E-02 0. -1.
    10030    2    1    2    0    0  0.00000000000E+00  0.00000000000E+00  0.35674297536E+03  0.14448145513E+04  0.14000798324E+04 0.  0.
        1    1    3    3  502    0  0.88887964037E+02 -0.13796152663E+03 -0.52390276537E+03  0.54900688572E+03  0.50400001928E-02 0. -1.
       -1    1    3    3    0  502 -0.88887964037E+02  0.13796152663E+03  0.88064574072E+03  0.89580766555E+03  0.50400001928E-02 0.  1.
</event>
<event>
 5   0  0.4527503E-05  0.1400520E+04  0.7818609E-02  0.8953442E-01
       -2   -1    0    0    0  501  0.00000000000E+00  0.00000000000E+00  0.53357534931E+03  0.53357534931E+03  0.25500000920E-02 0.  1.
        2   -1    0    0  501    0  0.00000000000E+00  0.00000000000E+00 -0.91901616147E+03  0.91901616147E+03  0.25500000920E-02 0. -1.
    10030    2    1    2    0    0  0.00000000000E+00  0.00000000000E+00 -0.38544081216E+03  0.14525915108E+04  0.14005204310E+04 0.  0.
        4    1    3    3  502    0  0.17821066861E+03 -0.54235828969E+03  0.22788279728E+03  0.61468995356E+03  0.12699999809E+01 0. -1.
       -4    1    3    3    0  502 -0.17821066861E+03  0.54235828969E+03 -0.61332360944E+03  0.83790155723E+03  0.12699999809E+01 0.  1.
</event>
<event>
 5   0  0.2316714E-05  0.1397529E+04  0.7818609E-02  0.8955609E-01
       -1   -1    0    0    0  501  0.00000000000E+00  0.00000000000E+00  0.37825607982E+03  0.37825607986E+03  0.50400001928E-02 0. -1.
        1   -1    0    0  501    0  0.00000000000E+00  0.00000000000E+00 -0.12908506277E+04  0.12908506278E+04  0.50400001928E-02 0.  1.
    10030    2    1    2    0    0  0.00000000000E+00  0.00000000000E+00 -0.91259454792E+03  0.16691067076E+04  0.13975293888E+04 0.  0.
        5    1    3    3  502    0  0.46279625650E+03 -0.15469283384E+03  0.14103298807E+03  0.50795929127E+03  0.46999998093E+01 0. -1.
       -5    1    3    3    0  502 -0.46279625650E+03  0.15469283384E+03 -0.10536275360E+04  0.11611474163E+04  0.46999998093E+01 0.  1.
</event>
<event>
 5   0  0.2428507E-05  0.1399928E+04  0.7818609E-02  0.8953871E-01
        1   -1    0    0  501    0  0.00000000000E+00  0.00000000000E+00  0.80031983948E+03  0.80031983949E+03  0.50400001928E-02 0. -1.
       -1   -1    0    0    0  501  0.00000000000E+00  0.00000000000E+00 -0.61219185447E+03  0.61219185449E+03  0.50400001928E-02 0.  1.
    10030    2    1    2    0    0  0.00000000000E+00  0.00000000000E+00  0.18812798501E+03  0.14125116940E+04  0.13999275506E+04 0.  0.
        4    1    3    3  502    0  0.40728149731E+03 -0.49842575705E+03  0.37156576104E+03  0.74321543379E+03  0.12699999809E+01 0. -1.
       -4    1    3    3    0  502 -0.40728149731E+03  0.49842575705E+03 -0.18343777603E+03  0.66929626020E+03  0.12699999809E+01 0.  1.
</event>
<event>
 5   0  0.2316714E-05  0.1398401E+04  0.7818609E-02  0.8954977E-01
        1   -1    0    0  501    0  0.00000000000E+00  0.00000000000E+00  0.10754091712E+04  0.10754091712E+04  0.50400001928E-02 0. -1.
       -1   -1    0    0    0  501  0.00000000000E+00  0.00000000000E+00 -0.45460025466E+03  0.45460025469E+03  0.50400001928E-02 0.  1.
    10030    2    1    2    0    0  0.00000000000E+00  0.00000000000E+00  0.62080891650E+03  0.15300094259E+04  0.13984009198E+04 0.  0.
        5    1    3    3  502    0 -0.28694032054E+03  0.59223799053E+03  0.56880667910E+03  0.86985269624E+03  0.46999998093E+01 0. -1.
       -5    1    3    3    0  502  0.28694032054E+03 -0.59223799053E+03  0.52002237397E+02  0.66015672962E+03  0.46999998093E+01 0.  1.
</event>
<event>
 5   0  0.4441253E-05  0.1398546E+04  0.7818609E-02  0.8954872E-01
        2   -1    0    0  501    0  0.00000000000E+00  0.00000000000E+00  0.10375837296E+04  0.10375837296E+04  0.25500000920E-02 0.  1.
       -2   -1    0    0    0  501  0.00000000000E+00  0.00000000000E+00 -0.47127040915E+03  0.47127040916E+03  0.25500000920E-02 0. -1.
    10030    2    1    2    0    0  0.00000000000E+00  0.00000000000E+00  0.56631332045E+03  0.15088541388E+04  0.13985456858E+04 0.  0.
        3    1    3    3  502    0 -0.12060506774E+03 -0.11210358129E+03  0.10163699671E+04  0.10296216371E+04  0.10100000352E+00 0.  1.
       -3    1    3    3    0  502  0.12060506774E+03  0.11210358129E+03 -0.45005664664E+03  0.47923250170E+03  0.10100000352E+00 0. -1.
</event>
<event>
 5   0  0.4243281E-05  0.1399741E+04  0.7818609E-02  0.8954006E-01
       -2   -1    0    0    0  501  0.00000000000E+00  0.00000000000E+00  0.32701068913E+03  0.32701068914E+03  0.25500000920E-02 0. -1.
        2   -1    0    0  501    0  0.00000000000E+00  0.00000000000E+00 -0.14978683419E+04  0.14978683419E+04  0.25500000920E-02 0.  1.
    10030    2    1    2    0    0  0.00000000000E+00  0.00000000000E+00 -0.11708576528E+04  0.18248790311E+04  0.13997413457E+04 0.  0.
        2    1    3    3  502    0  0.43320835603E+03 -0.45877231373E+03 -0.19068300985E+03  0.65916729730E+03  0.25500000920E-02 0. -1.
       -2    1    3    3    0  502 -0.43320835603E+03  0.45877231373E+03 -0.98017464293E+03  0.11657117338E+04  0.25500000920E-02 0.  1.
</event>
<event>
 5   0  0.4621450E-05  0.1398842E+04  0.7818609E-02  0.8954657E-01
       -2   -1    0    0    0  501  0.00000000000E+00  0.00000000000E+00  0.80516262283E+03  0.80516262283E+03  0.25500000920E-02 0.  1.
        2   -1    0    0  501    0  0.00000000000E+00  0.00000000000E+00 -0.60756618650E+03  0.60756618650E+03  0.25500000920E-02 0. -1.
    10030    2    1    2    0    0  0.00000000000E+00  0.00000000000E+00  0.19759643633E+03  0.14127288093E+04  0.13988417842E+04 0.  0.
        5    1    3    3  502    0  0.15377991588E+03 -0.33739427115E+03 -0.50011888985E+03  0.62259469217E+03  0.46999998093E+01 0. -1.
       -5    1    3    3    0  502 -0.15377991588E+03  0.33739427115E+03  0.69771532618E+03  0.79013411717E+03  0.46999998093E+01 0.  1.
</event>
<event>
 5   0  0.2428507E-05  0.1397104E+04  0.7818609E-02  0.8955917E-01
       -1   -1    0    0    0  501  0.00000000000E+00  0.00000000000E+00  0.80818616004E+03  0.80818616006E+03  0.50400001928E-02 0.  1.
        1   -1    0    0  501    0  0.00000000000E+00  0.00000000000E+00 -0.60379026243E+03  0.60379026245E+03  0.50400001928E-02 0. -1.
    10030    2    1    2    0    0  0.00000000000E+00  0.00000000000E+00  0.20439589761E+03  0.14119764225E+04  0.13971040529E+04 0.  0.
        4    1    3    3  502    0  0.54096670854E+03  0.19991432732E+03 -0.29615857735E+03  0.64832263098E+03  0.12699999809E+01 0. -1.
       -4    1    3    3    0  502 -0.54096670854E+03 -0.19991432732E+03  0.50055447496E+03  0.76365379153E+03  0.12699999809E+01 0.  1.
</event>
<event>
 5   0  0.2427569E-05  0.1400077E+04  0.7818609E-02  0.8953763E-01
        1   -1    0    0  501    0  0.00000000000E+00  0.00000000000E+00  0.70585017412E+03  0.70585017413E+03  0.50400001928E-02 0.  1.
       -1   -1    0    0    0  501  0.00000000000E+00  0.00000000000E+00 -0.69427457853E+03  0.69427457855E+03  0.50400001928E-02 0. -1.
    10030    2    1    2    0    0  0.00000000000E+00  0.00000000000E+00  0.11575595581E+02  0.14001247527E+04  0.14000769010E+04 0.  0.
        1    1    3    3  502    0  0.69444347895E+03  0.82168598678E+02  0.38198905065E+02  0.70033033666E+03  0.50400001928E-02 0.  1.
       -1    1    3    3    0  502 -0.69444347895E+03 -0.82168598678E+02 -0.26623309484E+02  0.69979441603E+03  0.50400001928E-02 0. -1.
</event>
<event>
 5   0  0.4243281E-05  0.1399791E+04  0.7818609E-02  0.8953970E-01
        2   -1    0    0  501    0  0.00000000000E+00  0.00000000000E+00  0.11542524256E+04  0.11542524256E+04  0.25500000920E-02 0. -1.
       -2   -1    0    0    0  501  0.00000000000E+00  0.00000000000E+00 -0.42439045110E+03  0.42439045111E+03  0.25500000920E-02 0.  1.
    10030    2    1    2    0    0  0.00000000000E+00  0.00000000000E+00  0.72986197454E+03  0.15786428768E+04  0.13997909953E+04 0.  0.
        2    1    3    3  502    0  0.47975058650E+01  0.18481739572E+03  0.11262163026E+04  0.11412903426E+04  0.25500000920E-02 0. -1.
       -2    1    3    3    0  502 -0.47975058650E+01 -0.18481739572E+03 -0.39635432802E+03  0.43735253420E+03  0.25500000920E-02 0.  1.
</event>
<event>
 5   0  0.1661000E-05  0.1399299E+04  0.7818609E-02  0.8954326E-01
       -3   -1    0    0    0  501  0.00000000000E+00  0.00000000000E+00  0.69738442151E+03  0.69738442882E+03  0.10100000352E+00 0. -1.
        3   -1    0    0  501    0  0.00000000000E+00  0.00000000000E+00 -0.70192154139E+03  0.70192154866E+03  0.10100000352E+00 0.  1.
    10030    2    1    2    0    0  0.00000000000E+00  0.00000000000E+00 -0.45371198859E+01  0.13993059775E+04  0.13992986219E+04 0.  0.
        1    1    3    3  502    0 -0.43100841922E+03  0.16381140811E+03 -0.52849059920E+03  0.70135921491E+03  0.50400001928E-02 0.  1.
       -1    1    3    3    0  502  0.43100841922E+03 -0.16381140811E+03  0.52395347931E+03  0.69794676257E+03  0.50400001928E-02 0. -1.
</event>
<event>
 5   0  0.2428507E-05  0.1400006E+04  0.7818609E-02  0.8953814E-01
        1   -1    0    0  501    0  0.00000000000E+00  0.00000000000E+00  0.13025795661E+04  0.13025795661E+04  0.50400001928E-02 0. -1.
       -1   -1    0    0    0  501  0.00000000000E+00  0.00000000000E+00 -0.37618006186E+03  0.37618006189E+03  0.50400001928E-02 0.  1.
    10030    2    1    2    0    0  0.00000000000E+00  0.00000000000E+00  0.92639950424E+03  0.16787596280E+04  0.14000063740E+04 0.  0.
        4    1    3    3  502    0  0.48368456133E+02  0.11184511937E+02  0.13004645840E+04  0.13014124435E+04  0.12699999809E+01 0. -1.
       -4    1    3    3    0  502 -0.48368456133E+02 -0.11184511937E+02 -0.37406507978E+03  0.37734718452E+03  0.12699999809E+01 0.  1.
</event>
<event>
 5   0  0.4527503E-05  0.1400981E+04  0.7818609E-02  0.8953109E-01
       -2   -1    0    0    0  501  0.00000000000E+00  0.00000000000E+00  0.71157301725E+03  0.71157301725E+03  0.25500000920E-02 0. -1.
        2   -1    0    0  501    0  0.00000000000E+00  0.00000000000E+00 -0.68958021072E+03  0.68958021072E+03  0.25500000920E-02 0.  1.
    10030    2    1    2    0    0  0.00000000000E+00  0.00000000000E+00  0.21992806529E+02  0.14011532280E+04  0.14009806154E+04 0.  0.
        4    1    3    3  502    0  0.47843325072E+03 -0.51066497181E+03 -0.20756043079E+02  0.70007822067E+03  0.12699999809E+01 0.  1.
       -4    1    3    3    0  502 -0.47843325072E+03  0.51066497181E+03  0.42748849608E+02  0.70107500731E+03  0.12699999809E+01 0. -1.
</event>
<event>
 5   0  0.2316714E-05  0.1400642E+04  0.7818609E-02  0.8953354E-01
        1   -1    0    0  501    0  0.00000000000E+00  0.00000000000E+00  0.83218760626E+03  0.83218760628E+03  0.50400001928E-02 0.  1.
       -1   -1    0    0    0  501  0.00000000000E+00  0.00000000000E+00 -0.58934936237E+03  0.58934936239E+03  0.50400001928E-02 0. -1.
    10030    2    1    2    0    0  0.00000000000E+00  0.00000000000E+00  0.24283824389E+03  0.14215369687E+04  0.14006416175E+04 0.  0.
        5    1    3    3  502    0 -0.55547222378E+03  0.26021590998E+02  0.55344621644E+03  0.78457078653E+03  0.46999998093E+01 0.  1.
       -5    1    3    3    0  502  0.55547222378E+03 -0.26021590998E+02 -0.31060797255E+03  0.63696618214E+03  0.46999998093E+01 0. -1.
</event>
<event>
 5   0  0.4621450E-05  0.1400370E+04  0.7818609E-02  0.8953551E-01
       -2   -1    0    0    0  501  0.00000000000E+00  0.00000000000E+00  0.22843527194E+03  0.22843527196E+03  0.25500000920E-02 0.  1.
        2   -1    0    0  501    0  0.00000000000E+00  0.00000000000E+00 -0.21461627678E+04  0.21461627678E+04  0.25500000920E-02 0. -1.
    10030    2    1    2    0    0  0.00000000000E+00  0.00000000000E+00 -0.19177274958E+04  0.23745980397E+04  0.14003703446E+04 0.  0.
        5    1    3    3  502    0 -0.15622212516E+03 -0.60831328298E+03 -0.14836712001E+04  0.16111339865E+04  0.46999998093E+01 0. -1.
       -5    1    3    3    0  502  0.15622212516E+03  0.60831328298E+03 -0.43405629575E+03  0.76346405319E+03  0.46999998093E+01 0.  1.
</event>
<event>
 5   0  0.4460282E-05  0.1399869E+04  0.7818609E-02  0.8953913E-01
       -2   -1    0    0    0  501  0.00000000000E+00  0.00000000000E+00  0.31782214590E+03  0.31782214591E+03  0.25500000920E-02 0.  1.
        2   -1    0    0  501    0  0.00000000000E+00  0.00000000000E+00 -0.15414551459E+04  0.15414551459E+04  0.25500000920E-02 0. -1.
    10030    2    1    2    0    0  0.00000000000E+00  0.00000000000E+00 -0.12236330000E+04  0.18592772918E+04  0.13998693972E+04 0.  0.
        1    1    3    3  502    0 -0.13443147970E+03  0.22624305963E+03  0.24960860521E+03  0.36271504047E+03  0.50400001928E-02 0.  1.
       -1    1    3    3    0  502  0.13443147970E+03 -0.22624305963E+03 -0.14732416052E+04  0.14965622513E+04  0.50400001928E-02 0. -1.
</event>
<event>
 5   0  0.2467303E-05  0.1398605E+04  0.7818609E-02  0.8954829E-01
       -1   -1    0    0    0  501  0.00000000000E+00  0.00000000000E+00  0.74786484538E+03  0.74786484540E+03  0.50400001928E-02 0.  1.
        1   -1    0    0  501    0  0.00000000000E+00  0.00000000000E+00 -0.65389335407E+03  0.65389335409E+03  0.50400001928E-02 0. -1.
    10030    2    1    2    0    0  0.00000000000E+00  0.00000000000E+00  0.93971491316E+02  0.14017581995E+04  0.13986048079E+04 0.  0.
        3    1    3    3  502    0 -0.34043029272E+03 -0.40440597521E+03 -0.41185303718E+03  0.67011932626E+03  0.10100000352E+00 0. -1.
       -3    1    3    3    0  502  0.34043029272E+03  0.40440597521E+03  0.50582452850E+03  0.73163887323E+03  0.10100000352E+00 0.  1.
</event>
<event>
 5   0  0.2428507E-05  0.1399939E+04  0.7818609E-02  0.8953863E-01
       -1   -1    0    0    0  501  0.00000000000E+00  0.00000000000E+00  0.49320458823E+03  0.49320458826E+03  0.50400001928E-02 0.  1.
        1   -1    0    0  501    0  0.00000000000E+00  0.00000000000E+00 -0.99341621208E+03  0.99341621209E+03  0.50400001928E-02 0. -1.
    10030    2    1    2    0    0  0.00000000000E+00  0.00000000000E+00 -0.50021162385E+03  0.14866208004E+04  0.13999391899E+04 0.  0.
        4    1    3    3  502    0 -0.37581047301E+02 -0.45128807669E+03  0.31668651671E+03  0.55259861206E+03  0.12699999809E+01 0.  1.
       -4    1    3    3    0  502  0.37581047301E+02  0.45128807669E+03 -0.81689814056E+03  0.93402218830E+03  0.12699999809E+01 0. -1.
</event>
<event>
 5   0  0.2428507E-05  0.1400101E+04  0.7818609E-02  0.8953745E-01
        1   -1    0    0  501    0  0.00000000000E+00  0.00000000000E+00  0.17525578590E+04  0.17525578590E+04  0.50400001928E-02 0. -1.
       -1   -1    0    0    0  501  0.00000000000E+00  0.00000000000E+00 -0.27963173241E+03  0.27963173246E+03  0.50400001928E-02 0.  1.
    10030    2    1    2    0    0  0.00000000000E+00  0.00000000000E+00  0.14729261266E+04  0.20321895914E+04  0.14001011254E+04 0.  0.
        4    1    3    3  502    0  0.97576677074E+02  0.29382305313E+03  0.16477852258E+04  0.16766189066E+04  0.12699999809E+01 0. -1.
       -4    1    3    3    0  502 -0.97576677074E+02 -0.29382305313E+03 -0.17485909926E+03  0.35557068489E+03  0.12699999809E+01 0.  1.
</event>
<event>
 5   0  0.2428507E-05  0.1399802E+04  0.7818609E-02  0.8953962E-01
        1   -1    0    0  501    0  0.00000000000E+00  0.00000000000E+00  0.51475406656E+03  0.51475406659E+03  0.50400001928E-02 0.  1.
       -1   -1    0    0    0  501  0.00000000000E+00  0.00000000000E+00 -0.95164183495E+03  0.95164183496E+03  0.50400001928E-02 0. -1.
    10030    2    1    2    0    0  0.00000000000E+00  0.00000000000E+00 -0.43688776839E+03  0.14663959015E+04  0.13998021353E+04 0.  0.
        4    1    3    3  502    0 -0.10065099644E+03 -0.62207305985E+03  0.10060100512E+03  0.63814394145E+03  0.12699999809E+01 0.  1.
       -4    1    3    3    0  502  0.10065099644E+03  0.62207305985E+03 -0.53748877350E+03  0.82825196010E+03  0.12699999809E+01 0. -1.
</event>
<event>
 5   0  0.2467303E-05  0.1398938E+04  0.7818609E-02  0.8954588E-01
       -1   -1    0    0    0  501  0.00000000000E+00  0.00000000000E+00  0.50683323249E+03  0.50683323251E+03  0.50400001928E-02 0. -1.
        1   -1    0    0  501    0  0.00000000000E+00  0.00000000000E+00 -0.96532092301E+03  0.96532092303E+03  0.50400001928E-02 0.  1.
    10030    2    1    2    0    0  0.00000000000E+00  0.00000000000E+00 -0.45848769053E+03  0.14721541555E+04  0.13989377739E+04 0.  0.
        3    1    3    3  502    0  0.96676815745E+02 -0.59553755284E+03 -0.60166613245E+03  0.85206427497E+03  0.10100000352E+00 0.  1.
       -3    1    3    3    0  502 -0.96676815745E+02  0.59553755284E+03  0.14317844192E+03  0.62008988057E+03  0.10100000352E+00 0. -1.
</event>
<event>
 5   0  0.4621450E-05  0.1399593E+04  0.7818609E-02  0.8954114E-01
        2   -1    0    0  501    0  0.00000000000E+00  0.00000000000E+00  0.22027212536E+04  0.22027212536E+04  0.25500000920E-02 0. -1.
       -2   -1    0    0    0  501  0.00000000000E+00  0.00000000000E+00 -0.22232264385E+03  0.22232264386E+03  0.25500000920E-02 0.  1.
    10030    2    1    2    0    0  0.00000000000E+00  0.00000000000E+00  0.19803986097E+04  0.24250438974E+04  0.13995925304E+04 0.  0.
        5    1    3    3  502    0 -0.67343374366E+03 -0.17519820602E+03  0.11185263961E+04  0.13173195540E+04  0.46999998093E+01 0. -1.
       -5    1    3    3    0  502  0.67343374366E+03  0.17519820602E+03  0.86187221357E+03  0.11077243434E+04  0.46999998093E+01 0.  1.
</event>
<event>
 5   0  0.4243281E-05  0.1400566E+04  0.7818609E-02  0.8953409E-01
        2   -1    0    0  501    0  0.00000000000E+00  0.00000000000E+00  0.24687444524E+04  0.24687444524E+04  0.25500000920E-02 0. -1.
       -2   -1    0    0    0  501  0.00000000000E+00  0.00000000000E+00 -0.19864204451E+03  0.19864204452E+03  0.25500000920E-02 0.  1.
    10030    2    1    2    0    0  0.00000000000E+00  0.00000000000E+00  0.22701024079E+04  0.26673864970E+04  0.14005662361E+04 0.  0.
        2    1    3    3  502    0  0.35774624825E+03  0.27193727420E+03  0.11216282007E+03  0.46315521961E+03  0.25500000920E-02 0.  1.
       -2    1    3    3    0  502 -0.35774624825E+03 -0.27193727420E+03  0.21579395878E+04  0.22042312773E+04  0.25500000920E-02 0. -1.
</event>
<event>
 5   0  0.2363419E-05  0.1401077E+04  0.7818609E-02  0.8953039E-01
        1   -1    0    0  501    0  0.00000000000E+00  0.00000000000E+00  0.14193162154E+04  0.14193162154E+04  0.50400001928E-02 0.  1.
       -1   -1    0    0    0  501  0.00000000000E+00  0.00000000000E+00 -0.34576821547E+03  0.34576821550E+03  0.50400001928E-02 0. -1.
    10030    2    1    2    0    0  0.00000000000E+00  0.00000000000E+00  0.10735479999E+04  0.17650844309E+04  0.14010773498E+04 0.  0.
        2    1    3    3  502    0  0.24831682093E+03 -0.87409796034E+02 -0.28108380399E+03  0.38511014122E+03  0.25500000920E-02 0. -1.
       -2    1    3    3    0  502 -0.24831682093E+03  0.87409796034E+02  0.13546318039E+04  0.13799742897E+04  0.25500000920E-02 0.  1.
</event>
<event>
 5   0  0.2427569E-05  0.1400094E+04  0.7818609E-02  0.8953751E-01
        1   -1    0    0  501    0  0.00000000000E+00  0.00000000000E+00  0.11271188821E+04  0.11271188821E+04  0.50400001928E-02 0.  1.
       -1   -1    0    0    0  501  0.00000000000E+00  0.00000000000E+00 -0.43479492704E+03  0.43479492707E+03  0.50400001928E-02 0. -1.
    10030    2    1    2    0    0  0.00000000000E+00  0.00000000000E+00  0.69232395506E+03  0.15619138092E+04  0.14000936713E+04 0.  0.
        1    1    3    3  502    0  0.30723947932E+03  0.57468188983E+03  0.60848221935E+02  0.65449054867E+03  0.50400001928E-02 0. -1.
       -1    1    3    3    0  502 -0.30723947932E+03 -0.57468188983E+03  0.63147573313E+03  0.90742326051E+03  0.50400001928E-02 0.  1.
</event>
<event>
 5   0  0.2467303E-05  0.1400194E+04  0.7818609E-02  0.8953678E-01
        1   -1    0    0  501    0  0.00000000000E+00  0.00000000000E+00  0.56050264423E+03  0.56050264426E+03  0.50400001928E-02 0.  1.
       -1   -1    0    0    0  501  0.00000000000E+00  0.00000000000E+00 -0.87445732375E+03  0.87445732376E+03  0.50400001928E-02 0. -1.
    10030    2    1    2    0    0  0.00000000000E+00  0.00000000000E+00 -0.31395467951E+03  0.14349599680E+04  0.14001937612E+04 0.  0.
        3    1    3    3  502    0  0.35942474821E+03  0.44451283348E+02  0.45704317548E+03  0.58313852615E+03  0.10100000352E+00 0.  1.
       -3    1    3    3    0  502 -0.35942474821E+03 -0.44451283348E+02 -0.77099785500E+03  0.85182144187E+03  0.10100000352E+00 0. -1.
</event>
<event>
 5   0  0.2427569E-05  0.1400636E+04  0.7818609E-02  0.8953358E-01
       -1   -1    0    0    0  501  0.00000000000E+00  0.00000000000E+00  0.86410403183E+03  0.86410403185E+03  0.50400001928E-02 0.  1.
        1   -1    0    0  501    0  0.00000000000E+00  0.00000000000E+00 -0.56757690168E+03  0.56757690171E+03  0.50400001928E-02 0. -1.
    10030    2    1    2    0    0  0.00000000000E+00  0.00000000000E+00  0.29652713015E+03  0.14316809336E+04  0.14006362685E+04 0.  0.
        1    1    3    3  502    0 -0.15557603126E+03 -0.84421536719E+02  0.84086186522E+03  0.85929015691E+03  0.50400001928E-02 0.  1.
       -1    1    3    3    0  502  0.15557603126E+03  0.84421536719E+02 -0.54433473507E+03  0.57239077664E+03  0.50400001928E-02 0. -1.
</event>
<event>
 5   0  0.2428507E-05  0.1399899E+04  0.7818609E-02  0.8953892E-01
       -1   -1    0    0    0  501  0.00000000000E+00  0.00000000000E+00  0.30941625035E+03  0.30941625039E+03  0.50400001928E-02 0.  1.
        1   -1    0    0  501    0  0.00000000000E+00  0.00000000000E+00 -0.15833983315E+04  0.15833983315E+04  0.50400001928E-02 0. -1.
    10030    2    1    2    0    0  0.00000000000E+00  0.00000000000E+00 -0.12739820812E+04  0.18928145819E+04  0.13998988172E+04 0.  0.
        4    1    3    3  502    0 -0.63283533403E+02 -0.31907367077E+03  0.20100490593E+03  0.38238383607E+03  0.12699999809E+01 0.  1.
       -4    1    3    3    0  502  0.63283533403E+02  0.31907367077E+03 -0.14749869871E+04  0.15104307459E+04  0.12699999809E+01 0. -1.
</event>
<event>
 5   0  0.2428507E-05  0.1399876E+04  0.7818609E-02  0.8953909E-01
        1   -1    0    0  501    0  0.00000000000E+00  0.00000000000E+00  0.80146700972E+03  0.80146700974E+03  0.50400001928E-02 0.  1.
       -1   -1    0    0    0  501  0.00000000000E+00  0.00000000000E+00 -0.61127016157E+03  0.61127016159E+03  0.50400001928E-02 0. -1.
    10030    2    1    2    0    0  0.00000000000E+00  0.00000000000E+00  0.19019684815E+03  0.14127371713E+04  0.13998755210E+04 0.  0.
        4    1    3    3  502    0  0.31877413376E+03  0.44245615006E+02  0.72236897415E+03  0.79081803881E+03  0.12699999809E+01 0.  1.
       -4    1    3    3    0  502 -0.31877413376E+03 -0.44245615006E+02 -0.53217212600E+03  0.62191913252E+03  0.12699999809E+01 0. -1.
</event>
<event>
 5   0  0.2467303E-05  0.1399971E+04  0.7818609E-02  0.8953840E-01
       -1   -1    0    0    0  501  0.00000000000E+00  0.00000000000E+00  0.62877027979E+03  0.62877027981E+03  0.50400001928E-02 0.  1.
        1   -1    0    0  501    0  0.00000000000E+00  0.00000000000E+00 -0.77926638589E+03  0.77926638590E+03  0.50400001928E-02 0. -1.
    10030    2    1    2    0    0  0.00000000000E+00  0.00000000000E+00 -0.15049610609E+03  0.14080366657E+04  0.13999707761E+04 0.  0.
        3    1    3    3  502    0  0.14081005024E+03 -0.20838672283E+03 -0.73225517008E+03  0.77424165530E+03  0.10100000352E+00 0. -1.
       -3    1    3    3    0  502 -0.14081005024E+03  0.20838672283E+03  0.58175906398E+03  0.63379501041E+03  0.10100000352E+00 0.  1.
</event>
<event>
 5   0  0.4243281E-05  0.1400226E+04  0.7818609E-02  0.8953655E-01
       -2   -1    0    0    0  501  0.00000000000E+00  0.00000000000E+00  0.22782846113E+03  0.22782846114E+03  0.25500000920E-02 0. -1.
        2   -1    0    0  501    0  0.00000000000E+00  0.00000000000E+00 -0.21514355421E+04  0.21514355421E+04  0.25500000920E-02 0.  1.
    10030    2    1    2    0    0  0.00000000000E+00  0.00000000000E+00 -0.19236070810E+04  0.23792640033E+04  0.14002260514E+04 0.  0.
        2    1    3    3  502    0 -0.60324522214E+03  0.23098780498E+02 -0.35931819346E+03  0.70252965478E+03  0.25500000920E-02 0. -1.
       -2    1    3    3    0  502  0.60324522214E+03 -0.23098780498E+02 -0.15642888875E+04  0.16767343485E+04  0.25500000920E-02 0.  1.
</event>
<event>
 5   0  0.2316714E-05  0.1400525E+04  0.7818609E-02  0.8953438E-01
       -1   -1    0    0    0  501  0.00000000000E+00  0.00000000000E+00  0.34534307678E+03  0.34534307682E+03  0.50400001928E-02 0. -1.
        1   -1    0    0  501    0  0.00000000000E+00  0.00000000000E+00 -0.14199438210E+04  0.14199438211E+04  0.50400001928E-02 0.  1.
    10030    2    1    2    0    0  0.00000000000E+00  0.00000000000E+00 -0.10746007443E+04  0.17652868979E+04  0.14005252844E+04 0.  0.
        5    1    3    3  502    0  0.11100646091E+03 -0.19525469607E+02 -0.14084155847E+04  0.14129261225E+04  0.46999998093E+01 0.  1.
       -5    1    3    3    0  502 -0.11100646091E+03  0.19525469607E+02  0.33381484045E+03  0.35236077539E+03  0.46999998093E+01 0. -1.
</event>
<event>
 5   0  0.4460282E-05  0.1400575E+04  0.7818609E-02  0.8953403E-01
       -2   -1    0    0    0  501  0.00000000000E+00  0.00000000000E+00  0.84164335451E+03  0.84164335452E+03  0.25500000920E-02 0.  1.
        2   -1    0    0  501    0  0.00000000000E+00  0.00000000000E+00 -0.58267250053E+03  0.58267250053E+03  0.25500000920E-02 0. -1.
    10030    2    1    2    0    0  0.00000000000E+00  0.00000000000E+00  0.25897085398E+03  0.14243158550E+04  0.14005747933E+04 0.  0.
        1    1    3    3  502    0 -0.35248140885E+03  0.38498513769E+03  0.60424550578E+03  0.79847938677E+03  0.50400001928E-02 0.  1.
       -1    1    3    3    0  502  0.35248140885E+03 -0.38498513769E+03 -0.34527465180E+03  0.62583646827E+03  0.50400001928E-02 0. -1.
</event>
<event>
 5   0  0.2467303E-05  0.1410117E+04  0.7818609E-02  0.8946528E-01
        1   -1    0    0  501    0  0.00000000000E+00  0.00000000000E+00  0.15412938352E+04  0.15412938352E+04  0.50400001928E-02 0. -1.
       -1   -1    0    0    0  501  0.00000000000E+00  0.00000000000E+00 -0.32252588107E+03  0.32252588111E+03  0.50400001928E-02 0.  1.
    10030    2    1    2    0    0  0.00000000000E+00  0.00000000000E+00  0.12187679542E+04  0.18638197163E+04  0.14101165232E+04 0.  0.
        3    1    3    3  502    0 -0.13949907470E+03  0.63110878533E+03  0.23706152855E+03  0.68844496460E+03  0.10100000352E+00 0.  1.
       -3    1    3    3    0  502  0.13949907470E+03 -0.63110878533E+03  0.98170642562E+03  0.11753747518E+04  0.10100000352E+00 0. -1.
</event>
<event>
 5   0  0.4460282E-05  0.1396581E+04  0.7818609E-02  0.8956297E-01
        2   -1    0    0  501    0  0.00000000000E+00  0.00000000000E+00  0.10667547670E+04  0.10667547670E+04  0.25500000920E-02 0.  1.
       -2   -1    0    0    0  501  0.00000000000E+00  0.00000000000E+00 -0.45709624913E+03  0.45709624914E+03  0.25500000920E-02 0. -1.
    10030    2    1    2    0    0  0.00000000000E+00  0.00000000000E+00  0.60965851782E+03  0.15238510161E+04  0.13965809718E+04 0.  0.
        1    1    3    3  502    0 -0.45372541231E+03 -0.32625282236E+03 -0.15201667142E+03  0.57915172648E+03  0.50400001928E-02 0. -1.
       -1    1    3    3    0  502  0.45372541231E+03  0.32625282236E+03  0.76167518924E+03  0.94469928961E+03  0.50400001928E-02 0.  1.
</event>
<event>
 5   0  0.2427569E-05  0.1400136E+04  0.7818609E-02  0.8953720E-01
        1   -1    0    0  501    0  0.00000000000E+00  0.00000000000E+00  0.18000813789E+04  0.18000813789E+04  0.50400001928E-02 0. -1.
       -1   -1    0    0    0  501  0.00000000000E+00  0.00000000000E+00 -0.27226274836E+03  0.27226274841E+03  0.50400001928E-02 0.  1.
    10030    2    1    2    0    0  0.00000000000E+00  0.00000000000E+00  0.15278186306E+04  0.20723441274E+04  0.14001358556E+04 0.  0.
        1    1    3    3  502    0  0.25209713717E+03 -0.25806164331E+03  0.16519044153E+04  0.16908391335E+04  0.50400001928E-02 0. -1.
       -1    1    3    3    0  502 -0.25209713717E+03  0.25806164331E+03 -0.12408578469E+03  0.38150499382E+03  0.50400001928E-02 0.  1.
</event>
<event>
 5   0  0.4621450E-05  0.1399652E+04  0.7818609E-02  0.8954070E-01
        2   -1    0    0  501    0  0.00000000000E+00  0.00000000000E+00  0.14637957341E+04  0.14637957341E+04  0.25500000920E-02 0. -1.
       -2   -1    0    0    0  501  0.00000000000E+00  0.00000000000E+00 -0.33457977730E+03  0.33457977731E+03  0.25500000920E-02 0.  1.
    10030    2    1    2    0    0  0.00000000000E+00  0.00000000000E+00  0.11292159568E+04  0.17983755114E+04  0.13996520292E+04 0.  0.
        5    1    3    3  502    0  0.36757333767E+03 -0.57110138404E+03  0.78139550492E+03  0.10353105691E+04  0.46999998093E+01 0. -1.
       -5    1    3    3    0  502 -0.36757333767E+03  0.57110138404E+03  0.34782045190E+03  0.76306494231E+03  0.46999998093E+01 0.  1.
</event>
<event>
 5   0  0.2363419E-05  0.1399930E+04  0.7818609E-02  0.8953869E-01
       -1   -1    0    0    0  501  0.00000000000E+00  0.00000000000E+00  0.31019737335E+03  0.31019737339E+03  0.50400001928E-02 0. -1.
        1   -1    0    0  501    0  0.00000000000E+00  0.00000000000E+00 -0.15794813102E+04  0.15794813102E+04  0.50400001928E-02 0.  1.
    10030    2    1    2    0    0  0.00000000000E+00  0.00000000000E+00 -0.12692839368E+04  0.18896786836E+04  0.13999299321E+04 0.  0.
        2    1    3    3  502    0  0.24344879985E+03 -0.60634782815E+03 -0.29576554550E+03  0.71721842194E+03  0.25500000920E-02 0.  1.
       -2    1    3    3    0  502 -0.24344879985E+03  0.60634782815E+03 -0.97351839131E+03  0.11724602616E+04  0.25500000920E-02 0. -1.
</event>
<event>
 5   0  0.4441253E-05  0.1398543E+04  0.7818609E-02  0.8954874E-01
        2   -1    0    0  501    0  0.00000000000E+00  0.00000000000E+00  0.14197964722E+04  0.14197964722E+04  0.25500000920E-02 0.  1.
       -2   -1    0    0    0  501  0.00000000000E+00  0.00000000000E+00 -0.34440213450E+03  0.34440213451E+03  0.25500000920E-02 0. -1.
    10030    2    1    2    0    0  0.00000000000E+00  0.00000000000E+00  0.10753943377E+04  0.17641986067E+04  0.13985434360E+04 0.  0.
        3    1    3    3  502    0  0.31993191672E+03 -0.93784510118E+02 -0.23769094050E+03  0.40944958062E+03  0.10100000352E+00 0. -1.
       -3    1    3    3    0  502 -0.31993191672E+03  0.93784510118E+02  0.13130852782E+04  0.13547490261E+04  0.10100000352E+00 0.  1.
</event>
<event>
 5   0  0.4243281E-05  0.1400248E+04  0.7818609E-02  0.8953639E-01
       -2   -1    0    0    0  501  0.00000000000E+00  0.00000000000E+00  0.49096192743E+03  0.49096192744E+03  0.25500000920E-02 0. -1.
        2   -1    0    0  501    0  0.00000000000E+00  0.00000000000E+00 -0.99839383889E+03  0.99839383889E+03  0.25500000920E-02 0.  1.
    10030    2    1    2    0    0  0.00000000000E+00  0.00000000000E+00 -0.50743191146E+03  0.14893557663E+04  0.14002476402E+04 0.  0.
        2    1    3    3  502    0  0.32653613451E+03  0.21483570519E+03 -0.87153561458E+03  0.95517252623E+03  0.25500000920E-02 0.  1.
       -2    1    3    3    0  502 -0.32653613451E+03 -0.21483570519E+03  0.36410370313E+03  0.53418324010E+03  0.25500000920E-02 0. -1.
</event>
<event>
 5   0  0.2363419E-05  0.1399439E+04  0.7818609E-02  0.8954225E-01
       -1   -1    0    0    0  501  0.00000000000E+00  0.00000000000E+00  0.67820204690E+03  0.67820204692E+03  0.50400001928E-02 0.  1.
        1   -1    0    0  501    0  0.00000000000E+00  0.00000000000E+00 -0.72191974521E+03  0.72191974523E+03  0.50400001928E-02 0. -1.
    10030    2    1    2    0    0  0.00000000000E+00  0.00000000000E+00 -0.43717698312E+02  0.14001217921E+04  0.13994391004E+04 0.  0.
        2    1    3    3  502    0 -0.18195457120E+03 -0.54348388254E+03 -0.42345876816E+03  0.71260053670E+03  0.25500000920E-02 0. -1.
       -2    1    3    3    0  502  0.18195457120E+03  0.54348388254E+03  0.37974106985E+03  0.68752125545E+03  0.25500000920E-02 0.  1.
</event>
<event>
 5   0  0.4621450E-05  0.1401197E+04  0.7818609E-02  0.8952952E-01
        2   -1    0    0  501    0  0.00000000000E+00  0.00000000000E+00  0.16483606234E+04  0.16483606234E+04  0.25500000920E-02 0. -1.
       -2   -1    0    0    0  501  0.00000000000E+00  0.00000000000E+00 -0.29777366115E+03  0.29777366116E+03  0.25500000920E-02 0.  1.
    10030    2    1    2    0    0  0.00000000000E+00  0.00000000000E+00  0.13505869622E+04  0.19461342845E+04  0.14011971706E+04 0.  0.
        5    1    3    3  502    0 -0.10580597592E+03  0.65719862009E+03  0.37191523515E+03  0.76252735224E+03  0.46999998093E+01 0.  1.
       -5    1    3    3    0  502  0.10580597592E+03 -0.65719862009E+03  0.97867172708E+03  0.11836069323E+04  0.46999998093E+01 0. -1.
</event>
<event>
 5   0  0.4621450E-05  0.1394950E+04  0.7818609E-02  0.8957482E-01
        2   -1    0    0  501    0  0.00000000000E+00  0.00000000000E+00  0.12159051211E+04  0.12159051211E+04  0.25500000920E-02 0.  1.
       -2   -1    0    0    0  501  0.00000000000E+00  0.00000000000E+00 -0.40009011541E+03  0.40009011542E+03  0.25500000920E-02 0. -1.
    10030    2    1    2    0    0  0.00000000000E+00  0.00000000000E+00  0.81581500570E+03  0.16159952365E+04  0.13949503507E+04 0.  0.
        5    1    3    3  502    0  0.68064716747E+03  0.15160933816E+03  0.42360335226E+03  0.81592147174E+03  0.46999998093E+01 0.  1.
       -5    1    3    3    0  502 -0.68064716747E+03 -0.15160933816E+03  0.39221165344E+03  0.80007376478E+03  0.46999998093E+01 0. -1.
</event>
<event>
 5   0  0.4441253E-05  0.1399024E+04  0.7818609E-02  0.8954525E-01
       -2   -1    0    0    0  501  0.00000000000E+00  0.00000000000E+00  0.54273106207E+03  0.54273106208E+03  0.25500000920E-02 0. -1.
        2   -1    0    0  501    0  0.00000000000E+00  0.00000000000E+00 -0.90158340809E+03  0.90158340809E+03  0.25500000920E-02 0.  1.
    10030    2    1    2    0    0  0.00000000000E+00  0.00000000000E+00 -0.35885234602E+03  0.14443144702E+04  0.13990244038E+04 0.  0.
        3    1    3    3  502    0  0.48459944714E+03 -0.41239142786E+03 -0.47937260707E+03  0.79668150509E+03  0.10100000352E+00 0. -1.
       -3    1    3    3    0  502 -0.48459944714E+03  0.41239142786E+03  0.12052026106E+03  0.64763296509E+03  0.10100000352E+00 0.  1.
</event>
<event>
 5   0  0.4460282E-05  0.1399906E+04  0.7818609E-02  0.8953886E-01
       -2   -1    0    0    0  501  0.00000000000E+00  0.00000000000E+00  0.35296827886E+03  0.35296827887E+03  0.25500000920E-02 0.  1.
        2   -1    0    0  501    0  0.00000000000E+00  0.00000000000E+00 -0.13880405881E+04  0.13880405881E+04  0.25500000920E-02 0. -1.
    10030    2    1    2    0    0  0.00000000000E+00  0.00000000000E+00 -0.10350723092E+04  0.17410088670E+04  0.13999061360E+04 0.  0.
        1    1    3    3  502    0 -0.90237109404E+02  0.67525828039E+03 -0.71736667451E+03  0.98930855999E+03  0.50400001928E-02 0.  1.
       -1    1    3    3    0  502  0.90237109404E+02 -0.67525828039E+03 -0.31770563473E+03  0.75170030698E+03  0.50400001928E-02 0. -1.
</event>
<event>
 5   0  0.2316714E-05  0.1399564E+04  0.7818609E-02  0.8954134E-01
       -1   -1    0    0    0  501  0.00000000000E+00  0.00000000000E+00  0.11732249238E+04  0.11732249238E+04  0.50400001928E-02 0.  1.
        1   -1    0    0  501    0  0.00000000000E+00  0.00000000000E+00 -0.41739213413E+03  0.41739213416E+03  0.50400001928E-02 0. -1.
    10030    2    1    2    0    0  0.00000000000E+00  0.00000000000E+00  0.75583278969E+03  0.15906170580E+04  0.13995640104E+04 0.  0.
        5    1    3    3  502    0 -0.15741691971E+03 -0.61083198141E+03  0.72221853642E+03  0.95891475140E+03  0.46999998093E+01 0.  1.
       -5    1    3    3    0  502  0.15741691971E+03  0.61083198141E+03  0.33614253270E+02  0.63170230658E+03  0.46999998093E+01 0. -1.
</event>
<event>
 5   0  0.2427569E-05  0.1399525E+04  0.7818609E-02  0.8954163E-01
       -1   -1    0    0    0  501  0.00000000000E+00  0.00000000000E+00  0.54373312497E+03  0.54373312499E+03  0.50400001928E-02 0. -1.
        1   -1    0    0  501    0  0.00000000000E+00  0.00000000000E+00 -0.90056561777E+03  0.90056561779E+03  0.50400001928E-02 0.  1.
    10030    2    1    2    0    0  0.00000000000E+00  0.00000000000E+00 -0.35683249280E+03  0.14442987428E+04  0.13995247159E+04 0.  0.
        1    1    3    3  502    0 -0.53365804849E+03  0.36868395488E+03 -0.44939743510E+03  0.78909874287E+03  0.50400001928E-02 0.  1.
       -1    1    3    3    0  502  0.53365804849E+03 -0.36868395488E+03  0.92564942292E+02  0.65519999990E+03  0.50400001928E-02 0. -1.
</event>
<event>
 5   0  0.1661000E-05  0.1396578E+04  0.7818609E-02  0.8956299E-01
        3   -1    0    0  501    0  0.00000000000E+00  0.00000000000E+00  0.60200802601E+03  0.60200803448E+03  0.10100000352E+00 0. -1.
       -3   -1    0    0    0  501  0.00000000000E+00  0.00000000000E+00 -0.80996888261E+03  0.80996888891E+03  0.10100000352E+00 0.  1.
    10030    2    1    2    0    0  0.00000000000E+00  0.00000000000E+00 -0.20796085661E+03  0.14119769234E+04  0.13965783595E+04 0.  0.
        5    1    3    3  502    0  0.32205023681E+03  0.31512503223E+03  0.43534817051E+03  0.62655427581E+03  0.46999998093E+01 0. -1.
       -5    1    3    3    0  502 -0.32205023681E+03 -0.31512503223E+03 -0.64330902711E+03  0.78542264758E+03  0.46999998093E+01 0.  1.
</event>
<event>
 5   0  0.4243281E-05  0.1400150E+04  0.7818609E-02  0.8953710E-01
        2   -1    0    0  501    0  0.00000000000E+00  0.00000000000E+00  0.14540170653E+04  0.14540170653E+04  0.25500000920E-02 0.  1.
       -2   -1    0    0    0  501  0.00000000000E+00  0.00000000000E+00 -0.33706950337E+03  0.33706950338E+03  0.25500000920E-02 0. -1.
    10030    2    1    2    0    0  0.00000000000E+00  0.00000000000E+00  0.11169475619E+04  0.17910865687E+04  0.14001497207E+04 0.  0.
        2    1    3    3  502    0 -0.40734093326E+03  0.41571933034E+03  0.10561436689E+04  0.12058974446E+04  0.25500000920E-02 0.  1.
       -2    1    3    3    0  502  0.40734093326E+03 -0.41571933034E+03  0.60803893028E+02  0.58518912408E+03  0.25500000920E-02 0. -1.
</event>
<event>
 5   0  0.2363419E-05  0.1401303E+04  0.7818609E-02  0.8952876E-01
       -1   -1    0    0    0  501  0.00000000000E+00  0.00000000000E+00  0.32019251337E+03  0.32019251341E+03  0.50400001928E-02 0.  1.
        1   -1    0    0  501    0  0.00000000000E+00  0.00000000000E+00 -0.15331789429E+04  0.15331789429E+04  0.50400001928E-02 0. -1.
    10030    2    1    2    0    0  0.00000000000E+00  0.00000000000E+00 -0.12129864295E+04  0.18533714563E+04  0.14013028498E+04 0.  0.
        2    1    3    3  502    0  0.25709354623E+03 -0.21659640367E+03 -0.14195477424E+04  0.14588100927E+04  0.25500000920E-02 0. -1.
       -2    1    3    3    0  502 -0.25709354623E+03  0.21659640367E+03  0.20656131294E+03  0.39456136355E+03  0.25500000920E-02 0.  1.
</event>
<event>
 5   0  0.4460282E-05  0.1400180E+04  0.7818609E-02  0.8953688E-01
       -2   -1    0    0    0  501  0.00000000000E+00  0.00000000000E+00  0.22767630570E+04  0.22767630570E+04  0.25500000920E-02 0. -1.
        2   -1    0    0  501    0  0.00000000000E+00  0.00000000000E+00 -0.21527329412E+03  0.21527329414E+03  0.25500000920E-02 0.  1.
    10030    2    1    2    0    0  0.00000000000E+00  0.00000000000E+00  0.20614897629E+04  0.24920363512E+04  0.14001803930E+04 0.  0.
        1    1    3    3  502    0  0.46634679726E+03 -0.44750294905E+03  0.15095996819E+04  0.16421417187E+04  0.50400001928E-02 0. -1.
       -1    1    3    3    0  502 -0.46634679726E+03  0.44750294905E+03  0.55189008099E+03  0.84989463244E+03  0.50400001928E-02 0.  1.
</event>
<event>
 5   0  0.4621450E-05  0.1400186E+04  0.7818609E-02  0.8953684E-01
        2   -1    0    0  501    0  0.00000000000E+00  0.00000000000E+00  0.43895207426E+03  0.43895207427E+03  0.25500000920E-02 0.  1.
       -2   -1    0    0    0  501  0.00000000000E+00  0.00000000000E+00 -0.11165917191E+04  0.11165917191E+04  0.25500000920E-02 0. -1.
    10030    2    1    2    0    0  0.00000000000E+00  0.00000000000E+00 -0.67763964486E+03  0.15555437934E+04  0.14001860608E+04 0.  0.
        5    1    3    3  502    0 -0.39149532541E+02  0.45086441693E+03  0.25457657711E+03  0.51927134714E+03  0.46999998093E+01 0.  1.
       -5    1    3    3    0  502  0.39149532541E+02 -0.45086441693E+03 -0.93221622197E+03  0.10362724462E+04  0.46999998093E+01 0. -1.
</event>
<event>
 5   0  0.2467303E-05  0.1399831E+04  0.7818609E-02  0.8953941E-01
       -1   -1    0    0    0  501  0.00000000000E+00  0.00000000000E+00  0.26050725826E+03  0.26050725831E+03  0.50400001928E-02 0.  1.
        1   -1    0    0  501    0  0.00000000000E+00  0.00000000000E+00 -0.18804914441E+04  0.18804914441E+04  0.50400001928E-02 0. -1.
    10030    2    1    2    0    0  0.00000000000E+00  0.00000000000E+00 -0.16199841858E+04  0.21409987024E+04  0.13998309474E+04 0.  0.
        3    1    3    3  502    0 -0.98838608283E+02  0.20013554809E+03  0.20461045232E+03  0.30280151171E+03  0.10100000352E+00 0.  1.
       -3    1    3    3    0  502  0.98838608283E+02 -0.20013554809E+03 -0.18245946381E+04  0.18381971907E+04  0.10100000352E+00 0. -1.
</event>
<event>
 5   0  0.2316714E-05  0.1400831E+04  0.7818609E-02  0.8953217E-01
       -1   -1    0    0    0  501  0.00000000000E+00  0.00000000000E+00  0.29161062507E+03  0.29161062511E+03  0.50400001928E-02 0. -1.
        1   -1    0    0  501    0  0.00000000000E+00  0.00000000000E+00 -0.16823182432E+04  0.16823182432E+04  0.50400001928E-02 0.  1.
    10030    2    1    2    0    0  0.00000000000E+00  0.00000000000E+00 -0.13907076181E+04  0.19739288683E+04  0.14008310027E+04 0.  0.
        5    1    3    3  502    0 -0.53443345883E+03 -0.16935541318E+03 -0.12869452821E+04  0.14037630238E+04  0.46999998093E+01 0.  1.
       -5    1    3    3    0  502  0.53443345883E+03  0.16935541318E+03 -0.10376233605E+03  0.57016584453E+03  0.46999998093E+01 0. -1.
</event>
<event>
 5   0  0.4460282E-05  0.1400521E+04  0.7818609E-02  0.8953442E-01
        2   -1    0    0  501    0  0.00000000000E+00  0.00000000000E+00  0.74134390514E+03  0.74134390514E+03  0.25500000920E-02 0. -1.
       -2   -1    0    0    0  501  0.00000000000E+00  0.00000000000E+00 -0.66145364279E+03  0.66145364280E+03  0.25500000920E-02 0.  1.
    10030    2    1    2    0    0  0.00000000000E+00  0.00000000000E+00  0.79890262347E+02  0.14027975479E+04  0.14005207983E+04 0.  0.
        1    1    3    3  502    0 -0.58311224231E+03  0.35278709382E+03  0.20109796926E+03  0.71057653631E+03  0.50400001928E-02 0. -1.
       -1    1    3    3    0  502  0.58311224231E+03 -0.35278709382E+03 -0.12120770692E+03  0.69222101162E+03  0.50400001928E-02 0.  1.
</event>
<event>
 5   0  0.4527503E-05  0.1400084E+04  0.7818609E-02  0.8953758E-01
       -2   -1    0    0    0  501  0.00000000000E+00  0.00000000000E+00  0.39453162249E+03  0.39453162250E+03  0.25500000920E-02 0. -1.
        2   -1    0    0  501    0  0.00000000000E+00  0.00000000000E+00 -0.12421274429E+04  0.12421274430E+04  0.25500000920E-02 0.  1.
    10030    2    1    2    0    0  0.00000000000E+00  0.00000000000E+00 -0.84759582046E+03  0.16366590655E+04  0.14000836481E+04 0.  0.
        4    1    3    3  502    0  0.24308954351E+03 -0.58551847383E+03 -0.76763640579E+02  0.63860682644E+03  0.12699999809E+01 0. -1.
       -4    1    3    3    0  502 -0.24308954351E+03  0.58551847383E+03 -0.77083217988E+03  0.99805223901E+03  0.12699999809E+01 0.  1.
</event>
<event>
 5   0  0.1661000E-05  0.1400373E+04  0.7818609E-02  0.8953549E-01
       -4   -1    0    0    0  501  0.00000000000E+00  0.00000000000E+00  0.57370379340E+03  0.57370519909E+03  0.12699999809E+01 0. -1.
        4   -1    0    0  501    0  0.00000000000E+00  0.00000000000E+00 -0.85455126294E+03  0.85455220665E+03  0.12699999809E+01 0.  1.
    10030    2    1    2    0    0  0.00000000000E+00  0.00000000000E+00 -0.28084746954E+03  0.14282574057E+04  0.14003727775E+04 0.  0.
        5    1    3    3  502    0  0.70583133682E+01 -0.67830892620E+03  0.36483483842E+02  0.67934229498E+03  0.46999998093E+01 0. -1.
       -5    1    3    3    0  502 -0.70583133682E+01  0.67830892620E+03 -0.31733095339E+03  0.74891511076E+03  0.46999998093E+01 0.  1.
</event>
<event>
 5   0  0.2428507E-05  0.1399924E+04  0.7818609E-02  0.8953874E-01
        1   -1    0    0  501    0  0.00000000000E+00  0.00000000000E+00  0.95081754579E+03  0.95081754580E+03  0.50400001928E-02 0. -1.
       -1   -1    0    0    0  501  0.00000000000E+00  0.00000000000E+00 -0.51528982714E+03  0.51528982717E+03  0.50400001928E-02 0.  1.
    10030    2    1    2    0    0  0.00000000000E+00  0.00000000000E+00  0.43552771864E+03  0.14661073730E+04  0.13999237248E+04 0.  0.
        4    1    3    3  502    0 -0.59674018087E+03 -0.34496177018E+03  0.34537497446E+03  0.77096235462E+03  0.12699999809E+01 0.  1.
       -4    1    3    3    0  502  0.59674018087E+03  0.34496177018E+03  0.90152744181E+02  0.69514501835E+03  0.12699999809E+01 0. -1.
</event>
<event>
 5   0  0.4441253E-05  0.1399749E+04  0.7818609E-02  0.8954000E-01
        2   -1    0    0  501    0  0.00000000000E+00  0.00000000000E+00  0.63454771705E+03  0.63454771706E+03  0.25500000920E-02 0. -1.
       -2   -1    0    0    0  501  0.00000000000E+00  0.00000000000E+00 -0.77192709421E+03  0.77192709422E+03  0.25500000920E-02 0.  1.
    10030    2    1    2    0    0  0.00000000000E+00  0.00000000000E+00 -0.13737937716E+03  0.14064748113E+04  0.13997493710E+04 0.  0.
        3    1    3    3  502    0  0.66474856706E+03 -0.20587172775E+03  0.61715658001E+01  0.69592522883E+03  0.10100000352E+00 0. -1.
       -3    1    3    3    0  502 -0.66474856706E+03  0.20587172775E+03 -0.14355094296E+03  0.71054958245E+03  0.10100000352E+00 0.  1.
</event>
<event>
 5   0  0.2427569E-05  0.1400149E+04  0.7818609E-02  0.8953711E-01
       -1   -1    0    0    0  501  0.00000000000E+00  0.00000000000E+00  0.35851103247E+03  0.35851103251E+03  0.50400001928E-02 0. -1.
        1   -1    0    0  501    0  0.00000000000E+00  0.00000000000E+00 -0.13670553269E+04  0.13670553269E+04  0.50400001928E-02 0.  1.
    10030    2    1    2    0    0  0.00000000000E+00  0.00000000000E+00 -0.10085442944E+04  0.17255663594E+04  0.14001491588E+04 0.  0.
        1    1    3    3  502    0  0.16049432139E+02  0.66670446298E+03 -0.76672756533E+03  0.10161808819E+04  0.50400001928E-02 0.  1.
       -1    1    3    3    0  502 -0.16049432139E+02 -0.66670446298E+03 -0.24181672909E+03  0.70938547753E+03  0.50400001928E-02 0. -1.
</event>
<event>
 5   0  0.4621450E-05  0.1400406E+04  0.7818609E-02  0.8953525E-01
        2   -1    0    0  501    0  0.00000000000E+00  0.00000000000E+00  0.13214312153E+04  0.13214312154E+04  0.25500000920E-02 0. -1.
       -2   -1    0    0    0  501  0.00000000000E+00  0.00000000000E+00 -0.37102507506E+03  0.37102507507E+03  0.25500000920E-02 0.  1.
    10030    2    1    2    0    0  0.00000000000E+00  0.00000000000E+00  0.95040614029E+03  0.16924562904E+04  0.14004058210E+04 0.  0.
        5    1    3    3  502    0  0.37538912928E+03  0.25204378039E+03 -0.17091081103E+03  0.48340010441E+03  0.46999998093E+01 0.  1.
       -5    1    3    3    0  502 -0.37538912928E+03 -0.25204378039E+03  0.11213169513E+04  0.12090561860E+04  0.46999998093E+01 0. -1.
</event>
<event>
 5   0  0.2363419E-05  0.1400311E+04  0.7818609E-02  0.8953593E-01
        1   -1    0    0  501    0  0.00000000000E+00  0.00000000000E+00  0.73128060433E+03  0.73128060434E+03  0.50400001928E-02 0. -1.
       -1   -1    0    0    0  501  0.00000000000E+00  0.00000000000E+00 -0.67035540898E+03  0.67035540899E+03  0.50400001928E-02 0.  1.
    10030    2    1    2    0    0  0.00000000000E+00  0.00000000000E+00  0.60925195351E+02  0.14016360133E+04  0.14003112634E+04 0.  0.
        2    1    3    3  502    0  0.69828826057E+02 -0.46455389366E+03 -0.48919280715E+03  0.67823004035E+03  0.25500000920E-02 0.  1.
       -2    1    3    3    0  502 -0.69828826057E+02  0.46455389366E+03  0.55011800250E+03  0.72340597298E+03  0.25500000920E-02 0. -1.
</event>
<event>
 5   0  0.4460282E-05  0.1400775E+04  0.7818609E-02  0.8953258E-01
        2   -1    0    0  501    0  0.00000000000E+00  0.00000000000E+00  0.15265360081E+04  0.15265360081E+04  0.25500000920E-02 0.  1.
       -2   -1    0    0    0  501  0.00000000000E+00  0.00000000000E+00 -0.32134353220E+03  0.32134353221E+03  0.25500000920E-02 0. -1.
    10030    2    1    2    0    0  0.00000000000E+00  0.00000000000E+00  0.12051924759E+04  0.18478795403E+04  0.14007747469E+04 0.  0.
        1    1    3    3  502    0  0.43525253218E+03  0.38544025501E+03  0.11178106390E+04  0.12599641192E+04  0.50400001928E-02 0.  1.
       -1    1    3    3    0  502 -0.43525253218E+03 -0.38544025501E+03  0.87381836904E+02  0.58791542113E+03  0.50400001928E-02 0. -1.
</event>
<event>
 5   0  0.4243281E-05  0.1400072E+04  0.7818609E-02  0.8953766E-01
       -2   -1    0    0    0  501  0.00000000000E+00  0.00000000000E+00  0.73499648593E+03  0.73499648593E+03  0.25500000920E-02 0.  1.
        2   -1    0    0  501    0  0.00000000000E+00  0.00000000000E+00 -0.66673888479E+03  0.66673888479E+03  0.25500000920E-02 0. -1.
    10030    2    1    2    0    0  0.00000000000E+00  0.00000000000E+00  0.68257601139E+02  0.14017353707E+04  0.14000724801E+04 0.  0.
        2    1    3    3  502    0  0.14970173485E+03  0.65674564273E+03 -0.15668951170E+03  0.69157577440E+03  0.25500000920E-02 0.  1.
       -2    1    3    3    0  502 -0.14970173485E+03 -0.65674564273E+03  0.22494711283E+03  0.71015959632E+03  0.25500000920E-02 0. -1.
</event>
<event>
 5   0  0.1661000E-05  0.1397524E+04  0.7818609E-02  0.8955613E-01
       -3   -1    0    0    0  501  0.00000000000E+00  0.00000000000E+00  0.36880315996E+03  0.36880317379E+03  0.10100000352E+00 0.  1.
        3   -1    0    0  501    0  0.00000000000E+00  0.00000000000E+00 -0.13239265914E+04  0.13239265953E+04  0.10100000352E+00 0. -1.
    10030    2    1    2    0    0  0.00000000000E+00  0.00000000000E+00 -0.95512343146E+03  0.16927297691E+04  0.13975239897E+04 0.  0.
        2    1    3    3  502    0  0.63842048229E+03  0.28391356163E+03 -0.48844280874E+03  0.85250454550E+03  0.25500000920E-02 0.  1.
       -2    1    3    3    0  502 -0.63842048229E+03 -0.28391356163E+03 -0.46668062272E+03  0.84022522357E+03  0.25500000920E-02 0. -1.
</event>
<event>
 5   0  0.2428507E-05  0.1400239E+04  0.7818609E-02  0.8953646E-01
        1   -1    0    0  501    0  0.00000000000E+00  0.00000000000E+00  0.15434148892E+04  0.15434148892E+04  0.50400001928E-02 0. -1.
       -1   -1    0    0    0  501  0.00000000000E+00  0.00000000000E+00 -0.31758616614E+03  0.31758616618E+03  0.50400001928E-02 0.  1.
    10030    2    1    2    0    0  0.00000000000E+00  0.00000000000E+00  0.12258287231E+04  0.18610010554E+04  0.14002388617E+04 0.  0.
        4    1    3    3  502    0  0.39131645420E+03  0.56237911953E+03  0.42138785035E+03  0.80434331894E+03  0.12699999809E+01 0.  1.
       -4    1    3    3    0  502 -0.39131645420E+03 -0.56237911953E+03  0.80444087271E+03  0.10566577364E+04  0.12699999809E+01 0. -1.
</event>
<event>
 5   0  0.1661000E-05  0.1396408E+04  0.7818609E-02  0.8956423E-01
        3   -1    0    0  501    0  0.00000000000E+00  0.00000000000E+00  0.78008055250E+03  0.78008055903E+03  0.10100000352E+00 0.  1.
       -3   -1    0    0    0  501  0.00000000000E+00  0.00000000000E+00 -0.62492128095E+03  0.62492128911E+03  0.10100000352E+00 0. -1.
    10030    2    1    2    0    0  0.00000000000E+00  0.00000000000E+00  0.15515927155E+03  0.14050018481E+04  0.13964081759E+04 0.  0.
        3    1    3    3  502    0 -0.29952768852E+03  0.56821834874E+03 -0.19778327957E+03  0.67209163357E+03  0.10100000352E+00 0. -1.
       -3    1    3    3    0  502  0.29952768852E+03 -0.56821834874E+03  0.35294255112E+03  0.73291021457E+03  0.10100000352E+00 0.  1.
</event>
<event>
 5   0  0.4527503E-05  0.1400258E+04  0.7818609E-02  0.8953631E-01
        2   -1    0    0  501    0  0.00000000000E+00  0.00000000000E+00  0.24778242075E+04  0.24778242075E+04  0.25500000920E-02 0.  1.
       -2   -1    0    0    0  501  0.00000000000E+00  0.00000000000E+00 -0.19782717263E+03  0.19782717265E+03  0.25500000920E-02 0. -1.
    10030    2    1    2    0    0  0.00000000000E+00  0.00000000000E+00  0.22799970349E+04  0.26756513802E+04  0.14002584865E+04 0.  0.
        4    1    3    3  502    0  0.24284147959E+02 -0.67590178526E+03  0.14857810914E+04  0.16324766485E+04  0.12699999809E+01 0.  1.
       -4    1    3    3    0  502 -0.24284147959E+02  0.67590178526E+03  0.79421594345E+03  0.10431747317E+04  0.12699999809E+01 0. -1.
</event>
<event>
 5   0  0.4621450E-05  0.1400225E+04  0.7818609E-02  0.8953656E-01
        2   -1    0    0  501    0  0.00000000000E+00  0.00000000000E+00  0.12445478905E+04  0.12445478905E+04  0.25500000920E-02 0. -1.
       -2   -1    0    0    0  501  0.00000000000E+00  0.00000000000E+00 -0.39384374039E+03  0.39384374040E+03  0.25500000920E-02 0.  1.
    10030    2    1    2    0    0  0.00000000000E+00  0.00000000000E+00  0.85070415007E+03  0.16383916309E+04  0.14002248338E+04 0.  0.
        5    1    3    3  502    0  0.13921394497E+03  0.44618634898E+03 -0.18452569725E+03  0.50252821158E+03  0.46999998093E+01 0.  1.
       -5    1    3    3    0  502 -0.13921394497E+03 -0.44618634898E+03  0.10352298473E+04  0.11358634193E+04  0.46999998093E+01 0. -1.
</event>
<event>
 5   0  0.2427569E-05  0.1400414E+04  0.7818609E-02  0.8953519E-01
       -1   -1    0    0    0  501  0.00000000000E+00  0.00000000000E+00  0.51805673919E+03  0.51805673922E+03  0.50400001928E-02 0. -1.
        1   -1    0    0  501    0  0.00000000000E+00  0.00000000000E+00 -0.94640130118E+03  0.94640130119E+03  0.50400001928E-02 0.  1.
    10030    2    1    2    0    0  0.00000000000E+00  0.00000000000E+00 -0.42834456198E+03  0.14644580404E+04  0.14004136133E+04 0.  0.
        1    1    3    3  502    0 -0.35091330485E+03 -0.11215094840E+03 -0.83686326268E+03  0.91436212914E+03  0.50400001928E-02 0.  1.
       -1    1    3    3    0  502  0.35091330485E+03  0.11215094840E+03  0.40851870070E+03  0.55009591127E+03  0.50400001928E-02 0. -1.
</event>
<event>
 5   0  0.4527503E-05  0.1399558E+04  0.7818609E-02  0.8954139E-01
       -2   -1    0    0    0  501  0.00000000000E+00  0.00000000000E+00  0.50618006521E+03  0.50618006521E+03  0.25500000920E-02 0. -1.
        2   -1    0    0  501    0  0.00000000000E+00  0.00000000000E+00 -0.96742390047E+03  0.96742390047E+03  0.25500000920E-02 0.  1.
    10030    2    1    2    0    0  0.00000000000E+00  0.00000000000E+00 -0.46124383526E+03  0.14736039657E+04  0.13995580631E+04 0.  0.
        4    1    3    3  502    0 -0.10380618891E+03 -0.51929287597E+03  0.25101613637E+03  0.58604737821E+03  0.12699999809E+01 0.  1.
       -4    1    3    3    0  502  0.10380618891E+03  0.51929287597E+03 -0.71225997163E+03  0.88755658748E+03  0.12699999809E+01 0. -1.
</event>
<event>
 5   0  0.1661000E-05  0.1401130E+04  0.7818609E-02  0.8953001E-01
       -3   -1    0    0    0  501  0.00000000000E+00  0.00000000000E+00  0.13428202468E+04  0.13428202506E+04  0.10100000352E+00 0.  1.
        3   -1    0    0  501    0  0.00000000000E+00  0.00000000000E+00 -0.36549310354E+03  0.36549311749E+03  0.10100000352E+00 0. -1.
    10030    2    1    2    0    0  0.00000000000E+00  0.00000000000E+00  0.97732714331E+03  0.17083133681E+04  0.14011303361E+04 0.  0.
        3    1    3    3  502    0 -0.13400534383E+03 -0.21308925039E+03 -0.30844966691E+03  0.39812770316E+03  0.10100000352E+00 0. -1.
       -3    1    3    3    0  502  0.13400534383E+03  0.21308925039E+03  0.12857768102E+04  0.13101856650E+04  0.10100000352E+00 0.  1.
</event>
<event>
 5   0  0.2467303E-05  0.1400302E+04  0.7818609E-02  0.8953600E-01
        1   -1    0    0  501    0  0.00000000000E+00  0.00000000000E+00  0.10828553215E+04  0.10828553215E+04  0.50400001928E-02 0. -1.
       -1   -1    0    0    0  501  0.00000000000E+00  0.00000000000E+00 -0.45270237501E+03  0.45270237504E+03  0.50400001928E-02 0.  1.
    10030    2    1    2    0    0  0.00000000000E+00  0.00000000000E+00  0.63015294646E+03  0.15355576965E+04  0.14003016473E+04 0.  0.
        3    1    3    3  502    0  0.22185511629E+03  0.66007166331E+03  0.23526702811E+03  0.73502712743E+03  0.10100000352E+00 0. -1.
       -3    1    3    3    0  502 -0.22185511629E+03 -0.66007166331E+03  0.39488591834E+03  0.80053056909E+03  0.10100000352E+00 0.  1.
</event>
<event>
 5   0  0.2363419E-05  0.1405875E+04  0.7818609E-02  0.8949577E-01
       -1   -1    0    0    0  501  0.00000000000E+00  0.00000000000E+00  0.53146112867E+03  0.53146112869E+03  0.50400001928E-02 0. -1.
        1   -1    0    0  501    0  0.00000000000E+00  0.00000000000E+00 -0.92974106726E+03  0.92974106727E+03  0.50400001928E-02 0.  1.
    10030    2    1    2    0    0  0.00000000000E+00  0.00000000000E+00 -0.39827993859E+03  0.14612021960E+04  0.14058751538E+04 0.  0.
        2    1    3    3  502    0  0.33983924679E+03  0.33991993651E+03 -0.73224351518E+03  0.87590915193E+03  0.25500000920E-02 0. -1.
       -2    1    3    3    0  502 -0.33983924679E+03 -0.33991993651E+03  0.33396357659E+03  0.58529304403E+03  0.25500000920E-02 0.  1.
</event>
<event>
 5   0  0.2363419E-05  0.1400067E+04  0.7818609E-02  0.8953770E-01
        1   -1    0    0  501    0  0.00000000000E+00  0.00000000000E+00  0.77341909777E+03  0.77341909779E+03  0.50400001928E-02 0.  1.
       -1   -1    0    0    0  501  0.00000000000E+00  0.00000000000E+00 -0.63361067343E+03  0.63361067345E+03  0.50400001928E-02 0. -1.
    10030    2    1    2    0    0  0.00000000000E+00  0.00000000000E+00  0.13980842434E+03  0.14070297712E+04  0.14000665633E+04 0.  0.
        2    1    3    3  502    0 -0.55160714289E+03 -0.41482699316E+03  0.18751067778E+03  0.71520076106E+03  0.25500000920E-02 0.  1.
       -2    1    3    3    0  502  0.55160714289E+03  0.41482699316E+03 -0.47702253441E+02  0.69182901018E+03  0.25500000920E-02 0. -1.
</event>
<event>
 5   0  0.2427569E-05  0.1402861E+04  0.7818609E-02  0.8951750E-01
        1   -1    0    0  501    0  0.00000000000E+00  0.00000000000E+00  0.88775343075E+03  0.88775343077E+03  0.50400001928E-02 0. -1.
       -1   -1    0    0    0  501  0.00000000000E+00  0.00000000000E+00 -0.55421302362E+03  0.55421302364E+03  0.50400001928E-02 0.  1.
    10030    2    1    2    0    0  0.00000000000E+00  0.00000000000E+00  0.33354040713E+03  0.14419664544E+04  0.14028606675E+04 0.  0.
        1    1    3    3  502    0 -0.21742320307E+03  0.42747175134E+03 -0.35935717712E+03  0.59928501417E+03  0.50400001928E-02 0.  1.
       -1    1    3    3    0  502  0.21742320307E+03 -0.42747175134E+03  0.69289758425E+03  0.84268144024E+03  0.50400001928E-02 0. -1.
</event>
<event>
 5   0  0.2316714E-05  0.1393743E+04  0.7818609E-02  0.8958360E-01
       -1   -1    0    0    0  501  0.00000000000E+00  0.00000000000E+00  0.31825727282E+03  0.31825727286E+03  0.50400001928E-02 0.  1.
        1   -1    0    0  501    0  0.00000000000E+00  0.00000000000E+00 -0.15259039041E+04  0.15259039041E+04  0.50400001928E-02 0. -1.
    10030    2    1    2    0    0  0.00000000000E+00  0.00000000000E+00 -0.12076466313E+04  0.18441611770E+04  0.13937431832E+04 0.  0.
        5    1    3    3  502    0 -0.31717113434E+03  0.14212004010E+03  0.19536817238E+03  0.39873104598E+03  0.46999998093E+01 0.  1.
       -5    1    3    3    0  502  0.31717113434E+03 -0.14212004010E+03 -0.14030148037E+04  0.14454301310E+04  0.46999998093E+01 0. -1.
</event>
<event>
 5   0  0.2363419E-05  0.1400633E+04  0.7818609E-02  0.8953360E-01
        1   -1    0    0  501    0  0.00000000000E+00  0.00000000000E+00  0.70249562293E+03  0.70249562294E+03  0.50400001928E-02 0. -1.
       -1   -1    0    0    0  501  0.00000000000E+00  0.00000000000E+00 -0.69814460086E+03  0.69814460088E+03  0.50400001928E-02 0.  1.
    10030    2    1    2    0    0  0.00000000000E+00  0.00000000000E+00  0.43510220644E+01  0.14006402238E+04  0.14006334657E+04 0.  0.
        2    1    3    3  502    0 -0.24325052314E+03  0.37935055495E+03 -0.53389224482E+03  0.69865484299E+03  0.25500000920E-02 0.  1.
       -2    1    3    3    0  502  0.24325052314E+03 -0.37935055495E+03  0.53824326689E+03  0.70198538083E+03  0.25500000920E-02 0. -1.
</event>
<event>
 5   0  0.4527503E-05  0.1400127E+04  0.7818609E-02  0.8953727E-01
        2   -1    0    0  501    0  0.00000000000E+00  0.00000000000E+00  0.22088154620E+04  0.22088154620E+04  0.25500000920E-02 0.  1.
       -2   -1    0    0    0  501  0.00000000000E+00  0.00000000000E+00 -0.22187862886E+03  0.22187862887E+03  0.25500000920E-02 0. -1.
    10030    2    1    2    0    0  0.00000000000E+00  0.00000000000E+00  0.19869368331E+04  0.24306940908E+04  0.14001270601E+04 0.  0.
        4    1    3    3  502    0 -0.25537794957E+03  0.64803355344E+03  0.11152639724E+04  0.13149071164E+04  0.12699999809E+01 0. -1.
       -4    1    3    3    0  502  0.25537794957E+03 -0.64803355344E+03  0.87167286067E+03  0.11157869745E+04  0.12699999809E+01 0.  1.
</event>
<event>
 5   0  0.4527503E-05  0.1400445E+04  0.7818609E-02  0.8953496E-01
       -2   -1    0    0    0  501  0.00000000000E+00  0.00000000000E+00  0.33375178676E+03  0.33375178677E+03  0.25500000920E-02 0. -1.
        2   -1    0    0  501    0  0.00000000000E+00  0.00000000000E+00 -0.14690911746E+04  0.14690911746E+04  0.25500000920E-02 0.  1.
    10030    2    1    2    0    0  0.00000000000E+00  0.00000000000E+00 -0.11353393878E+04  0.18028429613E+04  0.14004453641E+04 0.  0.
        4    1    3    3  502    0  0.10888295830E+03  0.60832094610E+03 -0.99151464044E+03  0.11683376084E+04  0.12699999809E+01 0.  1.
       -4    1    3    3    0  502 -0.10888295830E+03 -0.60832094610E+03 -0.14382474736E+03  0.63450535295E+03  0.12699999809E+01 0. -1.
</event>
<event>
 5   0  0.4460282E-05  0.1400442E+04  0.7818609E-02  0.8953498E-01
       -2   -1    0    0    0  501  0.00000000000E+00  0.00000000000E+00  0.46071527611E+03  0.46071527612E+03  0.25500000920E-02 0. -1.
        2   -1    0    0  501    0  0.00000000000E+00  0.00000000000E+00 -0.10642359402E+04  0.10642359402E+04  0.25500000920E-02 0.  1.
    10030    2    1    2    0    0  0.00000000000E+00  0.00000000000E+00 -0.60352066409E+03  0.15249512163E+04  0.14004424373E+04 0.  0.
        1    1    3    3  502    0  0.52043594848E+03 -0.32956900678E+02  0.20708664199E+03  0.56109233740E+03  0.50400001928E-02 0. -1.
       -1    1    3    3    0  502 -0.52043594848E+03  0.32956900678E+02 -0.81060730608E+03  0.96385887892E+03  0.50400001928E-02 0.  1.
</event>
<event>
 5   0  0.2428507E-05  0.1400256E+04  0.7818609E-02  0.8953633E-01
       -1   -1    0    0    0  501  0.00000000000E+00  0.00000000000E+00  0.62992385870E+03  0.62992385872E+03  0.50400001928E-02 0. -1.
        1   -1    0    0  501    0  0.00000000000E+00  0.00000000000E+00 -0.77815662739E+03  0.77815662740E+03  0.50400001928E-02 0.  1.
    10030    2    1    2    0    0  0.00000000000E+00  0.00000000000E+00 -0.14823276869E+03  0.14080804861E+04  0.14002562986E+04 0.  0.
        4    1    3    3  502    0 -0.59882110940E+02 -0.48463317860E+03 -0.57863950478E+03  0.75715287387E+03  0.12699999809E+01 0.  1.
       -4    1    3    3    0  502  0.59882110940E+02  0.48463317860E+03  0.43040673610E+03  0.65092761225E+03  0.12699999809E+01 0. -1.
</event>
<event>
 5   0  0.2428507E-05  0.1399541E+04  0.7818609E-02  0.8954151E-01
        1   -1    0    0  501    0  0.00000000000E+00  0.00000000000E+00  0.59424499865E+03  0.59424499867E+03  0.50400001928E-02 0. -1.
       -1   -1    0    0    0  501  0.00000000000E+00  0.00000000000E+00 -0.82403460295E+03  0.82403460296E+03  0.50400001928E-02 0.  1.
    10030    2    1    2    0    0  0.00000000000E+00  0.00000000000E+00 -0.22978960430E+03  0.14182796016E+04  0.13995405554E+04 0.  0.
        4    1    3    3  502    0 -0.40813141558E+03 -0.47989924821E+03  0.19381876097E+03  0.65912204167E+03  0.12699999809E+01 0. -1.
       -4    1    3    3    0  502  0.40813141558E+03  0.47989924821E+03 -0.42360836527E+03  0.75915755996E+03  0.12699999809E+01 0.  1.
</event>
<event>
 5   0  0.4621450E-05  0.1400065E+04  0.7818609E-02  0.8953771E-01
       -2   -1    0    0    0  501  0.00000000000E+00  0.00000000000E+00  0.19383226090E+03  0.19383226092E+03  0.25500000920E-02 0.  1.
        2   -1    0    0  501    0  0.00000000000E+00  0.00000000000E+00 -0.25281949146E+04  0.25281949146E+04  0.25500000920E-02 0. -1.
    10030    2    1    2    0    0  0.00000000000E+00  0.00000000000E+00 -0.23343626537E+04  0.27220271756E+04  0.14000653361E+04 0.  0.
        5    1    3    3  502    0  0.24595257581E+03 -0.56628409672E+03 -0.52572816449E+03  0.81091463218E+03  0.46999998093E+01 0.  1.
       -5    1    3    3    0  502 -0.24595257581E+03  0.56628409672E+03 -0.18086344892E+04  0.19111125434E+04  0.46999998093E+01 0. -1.
</event>
<event>
 5   0  0.2316714E-05  0.1398727E+04  0.7818609E-02  0.8954741E-01
       -1   -1    0    0    0  501  0.00000000000E+00  0.00000000000E+00  0.34738874827E+03  0.34738874831E+03  0.50400001928E-02 0. -1.
        1   -1    0    0  501    0  0.00000000000E+00  0.00000000000E+00 -0.14079588422E+04  0.14079588422E+04  0.50400001928E-02 0.  1.
    10030    2    1    2    0    0  0.00000000000E+00  0.00000000000E+00 -0.10605700939E+04  0.17553475905E+04  0.13987266493E+04 0.  0.
        5    1    3    3  502    0 -0.37013002340E+03  0.95302763395E+02  0.20470672619E+03  0.43359633840E+03  0.46999998093E+01 0. -1.
       -5    1    3    3    0  502  0.37013002340E+03 -0.95302763395E+02 -0.12652768201E+04  0.13217512521E+04  0.46999998093E+01 0.  1.
</event>
<event>
 5   0  0.2316714E-05  0.1399872E+04  0.7818609E-02  0.8953911E-01
        1   -1    0    0  501    0  0.00000000000E+00  0.00000000000E+00  0.12979925447E+04  0.12979925447E+04  0.50400001928E-02 0. -1.
       -1   -1    0    0    0  501  0.00000000000E+00  0.00000000000E+00 -0.37743679111E+03  0.37743679114E+03  0.50400001928E-02 0.  1.
    10030    2    1    2    0    0  0.00000000000E+00  0.00000000000E+00  0.92055575357E+03  0.16754293358E+04  0.13998716241E+04 0.  0.
        5    1    3    3  502    0  0.35772475140E+03  0.39319552517E+03 -0.84672250478E+02  0.53829471368E+03  0.46999998093E+01 0.  1.
       -5    1    3    3    0  502 -0.35772475140E+03 -0.39319552517E+03  0.10052280040E+04  0.11371346222E+04  0.46999998093E+01 0. -1.
</event>
<event>
 5   0  0.4243281E-05  0.1400150E+04  0.7818609E-02  0.8953710E-01
        2   -1    0    0  501    0  0.00000000000E+00  0.00000000000E+00  0.20115152203E+04  0.20115152203E+04  0.25500000920E-02 0. -1.
       -2   -1    0    0    0  501  0.00000000000E+00  0.00000000000E+00 -0.24364956613E+03  0.24364956614E+03  0.25500000920E-02 0.  1.
    10030    2    1    2    0    0  0.00000000000E+00  0.00000000000E+00  0.17678656542E+04  0.22551647864E+04  0.14001497216E+04 0.  0.
        2    1    3    3  502    0 -0.87068457141E+02 -0.29003200393E+03 -0.13270525490E+03  0.33062087686E+03  0.25500000920E-02 0.  1.
       -2    1    3    3    0  502  0.87068457141E+02  0.29003200393E+03  0.19005709091E+04  0.19245439096E+04  0.25500000920E-02 0. -1.
</event>
<event>
 5   0  0.2467303E-05  0.1400019E+04  0.7818609E-02  0.8953805E-01
        1   -1    0    0  501    0  0.00000000000E+00  0.00000000000E+00  0.23452866053E+04  0.23452866053E+04  0.50400001928E-02 0.  1.
       -1   -1    0    0    0  501  0.00000000000E+00  0.00000000000E+00 -0.20893542587E+03  0.20893542593E+03  0.50400001928E-02 0. -1.
    10030    2    1    2    0    0  0.00000000000E+00  0.00000000000E+00  0.21363511794E+04  0.25542220312E+04  0.14000192224E+04 0.  0.
        3    1    3    3  502    0  0.71207101384E+01 -0.52847636158E+03  0.19055730514E+04  0.19775102108E+04  0.10100000352E+00 0.  1.
       -3    1    3    3    0  502 -0.71207101384E+01  0.52847636158E+03  0.23077812798E+03  0.57671182042E+03  0.10100000352E+00 0. -1.
</event>
<event>
 5   0  0.4441253E-05  0.1400050E+04  0.7818609E-02  0.8953782E-01
        2   -1    0    0  501    0  0.00000000000E+00  0.00000000000E+00  0.15115230226E+04  0.15115230227E+04  0.25500000920E-02 0.  1.
       -2   -1    0    0    0  501  0.00000000000E+00  0.00000000000E+00 -0.32419964818E+03  0.32419964819E+03  0.25500000920E-02 0. -1.
    10030    2    1    2    0    0  0.00000000000E+00  0.00000000000E+00  0.11873233745E+04  0.18357226708E+04  0.14000503308E+04 0.  0.
        3    1    3    3  502    0  0.75213706935E+02  0.56454558554E+03  0.59982036879E+02  0.57268374764E+03  0.10100000352E+00 0. -1.
       -3    1    3    3    0  502 -0.75213706935E+02 -0.56454558554E+03  0.11273413376E+04  0.12630389232E+04  0.10100000352E+00 0.  1.
</event>
<event>
 5   0  0.1661000E-05  0.1399799E+04  0.7818609E-02  0.8953964E-01
        3   -1    0    0  501    0  0.00000000000E+00  0.00000000000E+00  0.11093419475E+04  0.11093419521E+04  0.10100000352E+00 0. -1.
       -3   -1    0    0    0  501  0.00000000000E+00  0.00000000000E+00 -0.44157657590E+03  0.44157658745E+03  0.10100000352E+00 0.  1.
    10030    2    1    2    0    0  0.00000000000E+00  0.00000000000E+00  0.66776537161E+03  0.15509185396E+04  0.13997991730E+04 0.  0.
        3    1    3    3  502    0 -0.23054410447E+03 -0.41682417620E+03 -0.23428093275E+03  0.53083005155E+03  0.10100000352E+00 0.  1.
       -3    1    3    3    0  502  0.23054410447E+03  0.41682417620E+03  0.90204630436E+03  0.10200884880E+04  0.10100000352E+00 0. -1.
</event>
<event>
 5   0  0.4527503E-05  0.1400348E+04  0.7818609E-02  0.8953567E-01
        2   -1    0    0  501    0  0.00000000000E+00  0.00000000000E+00  0.55324515662E+03  0.55324515663E+03  0.25500000920E-02 0. -1.
       -2   -1    0    0    0  501  0.00000000000E+00  0.00000000000E+00 -0.88612395778E+03  0.88612395778E+03  0.25500000920E-02 0.  1.
    10030    2    1    2    0    0  0.00000000000E+00  0.00000000000E+00 -0.33287880115E+03  0.14393691144E+04  0.14003482250E+04 0.  0.
        4    1    3    3  502    0  0.30693825842E+02 -0.45214650419E+03 -0.71503790023E+03  0.84655737186E+03  0.12699999809E+01 0.  1.
       -4    1    3    3    0  502 -0.30693825842E+02  0.45214650419E+03  0.38215909907E+03  0.59281174255E+03  0.12699999809E+01 0. -1.
</event>
<event>
 5   0  0.4527503E-05  0.1399625E+04  0.7818609E-02  0.8954090E-01
        2   -1    0    0  501    0  0.00000000000E+00  0.00000000000E+00  0.13884452029E+04  0.13884452029E+04  0.25500000920E-02 0.  1.
       -2   -1    0    0    0  501  0.00000000000E+00  0.00000000000E+00 -0.35272348428E+03  0.35272348429E+03  0.25500000920E-02 0. -1.
    10030    2    1    2    0    0  0.00000000000E+00  0.00000000000E+00  0.10357217187E+04  0.17411686872E+04  0.13996245636E+04 0.  0.
        4    1    3    3  502    0  0.13858116563E+02 -0.42772174413E+03  0.12066935092E+04  0.12803315101E+04  0.12699999809E+01 0.  1.
       -4    1    3    3    0  502 -0.13858116563E+02  0.42772174413E+03 -0.17097179050E+03  0.46083717715E+03  0.12699999809E+01 0. -1.
</event>
<event>
 5   0  0.2363419E-05  0.1400834E+04  0.7818609E-02  0.8953215E-01
       -1   -1    0    0    0  501  0.00000000000E+00  0.00000000000E+00  0.80560492255E+03  0.80560492257E+03  0.50400001928E-02 0. -1.
        1   -1    0    0  501    0  0.00000000000E+00  0.00000000000E+00 -0.60896379113E+03  0.60896379115E+03  0.50400001928E-02 0.  1.
    10030    2    1    2    0    0  0.00000000000E+00  0.00000000000E+00  0.19664113142E+03  0.14145687137E+04  0.14008343625E+04 0.  0.
        2    1    3    3  502    0  0.13992861355E+03 -0.53313368723E+02  0.78925254393E+03  0.80333175605E+03  0.25500000920E-02 0. -1.
       -2    1    3    3    0  502 -0.13992861355E+03  0.53313368723E+02 -0.59261141251E+03  0.61123695767E+03  0.25500000920E-02 0.  1.
</event>
<event>
 5   0  0.4460282E-05  0.1400105E+04  0.7818609E-02  0.8953742E-01
        2   -1    0    0  501    0  0.00000000000E+00  0.00000000000E+00  0.39009963097E+03  0.39009963097E+03  0.25500000920E-02 0.  1.
       -2   -1    0    0    0  501  0.00000000000E+00  0.00000000000E+00 -0.12562786452E+04  0.12562786452E+04  0.25500000920E-02 0. -1.
    10030    2    1    2    0    0  0.00000000000E+00  0.00000000000E+00 -0.86617901424E+03  0.16463782762E+04  0.14001054759E+04 0.  0.
        1    1    3    3  502    0 -0.19145264071E+03 -0.40459240249E+03  0.19984917916E+03  0.49019263584E+03  0.50400001928E-02 0.  1.
       -1    1    3    3    0  502  0.19145264071E+03  0.40459240249E+03 -0.10660281934E+04  0.11561856403E+04  0.50400001928E-02 0. -1.
</event>
<event>
 5   0  0.2427569E-05  0.1399536E+04  0.7818609E-02  0.8954155E-01
        1   -1    0    0  501    0  0.00000000000E+00  0.00000000000E+00  0.84461125290E+03  0.84461125291E+03  0.50400001928E-02 0.  1.
       -1   -1    0    0    0  501  0.00000000000E+00  0.00000000000E+00 -0.57976397249E+03  0.57976397251E+03  0.50400001928E-02 0. -1.
    10030    2    1    2    0    0  0.00000000000E+00  0.00000000000E+00  0.26484728041E+03  0.14243752254E+04  0.13995358877E+04 0.  0.
        1    1    3    3  502    0 -0.53933279662E+03  0.39385244487E+03  0.34511978571E+03  0.75173617736E+03  0.50400001928E-02 0.  1.
       -1    1    3    3    0  502  0.53933279662E+03 -0.39385244487E+03 -0.80272505303E+02  0.67263904806E+03  0.50400001928E-02 0. -1.
</event>
<event>
 5   0  0.2316714E-05  0.1399953E+04  0.7818609E-02  0.8953853E-01
       -1   -1    0    0    0  501  0.00000000000E+00  0.00000000000E+00  0.57574483957E+03  0.57574483960E+03  0.50400001928E-02 0. -1.
        1   -1    0    0  501    0  0.00000000000E+00  0.00000000000E+00 -0.85101380541E+03  0.85101380543E+03  0.50400001928E-02 0.  1.
    10030    2    1    2    0    0  0.00000000000E+00  0.00000000000E+00 -0.27526896584E+03  0.14267586450E+04  0.13999525805E+04 0.  0.
        5    1    3    3  502    0  0.10111604047E+03  0.40744752274E+03 -0.70845442801E+03  0.82350938306E+03  0.46999998093E+01 0.  1.
       -5    1    3    3    0  502 -0.10111604047E+03 -0.40744752274E+03  0.43318546217E+03  0.60324926196E+03  0.46999998093E+01 0. -1.
</event>
<event>
 5   0  0.4460282E-05  0.1400309E+04  0.7818609E-02  0.8953595E-01
       -2   -1    0    0    0  501  0.00000000000E+00  0.00000000000E+00  0.58491388557E+03  0.58491388558E+03  0.25500000920E-02 0. -1.
        2   -1    0    0  501    0  0.00000000000E+00  0.00000000000E+00 -0.83809956897E+03  0.83809956897E+03  0.25500000920E-02 0.  1.
    10030    2    1    2    0    0  0.00000000000E+00  0.00000000000E+00 -0.25318568339E+03  0.14230134546E+04  0.14003086451E+04 0.  0.
        1    1    3    3  502    0  0.12868103837E+03  0.64595793983E+03  0.11473524461E+03  0.66856910342E+03  0.50400001928E-02 0. -1.
       -1    1    3    3    0  502 -0.12868103837E+03 -0.64595793983E+03 -0.36792092801E+03  0.75444435113E+03  0.50400001928E-02 0.  1.
</event>
<event>
 5   0  0.2316714E-05  0.1400066E+04  0.7818609E-02  0.8953771E-01
        1   -1    0    0  501    0  0.00000000000E+00  0.00000000000E+00  0.11383474530E+04  0.11383474530E+04  0.50400001928E-02 0. -1.
       -1   -1    0    0    0  501  0.00000000000E+00  0.00000000000E+00 -0.43048907456E+03  0.43048907459E+03  0.50400001928E-02 0.  1.
    10030    2    1    2    0    0  0.00000000000E+00  0.00000000000E+00  0.70785837845E+03  0.15688365276E+04  0.14000659150E+04 0.  0.
        5    1    3    3  502    0  0.57138020016E+02 -0.53580617197E+03  0.85463975360E+03  0.10103386589E+04  0.46999998093E+01 0. -1.
       -5    1    3    3    0  502 -0.57138020016E+02  0.53580617197E+03 -0.14678137515E+03  0.55849786870E+03  0.46999998093E+01 0.  1.
</event>
<event>
 5   0  0.2467303E-05  0.1400134E+04  0.7818609E-02  0.8953721E-01
        1   -1    0    0  501    0  0.00000000000E+00  0.00000000000E+00  0.11900701999E+04  0.11900701999E+04  0.50400001928E-02 0.  1.
       -1   -1    0    0    0  501  0.00000000000E+00  0.00000000000E+00 -0.41181951032E+03  0.41181951035E+03  0.50400001928E-02 0. -1.
    10030    2    1    2    0    0  0.00000000000E+00  0.00000000000E+00  0.77825068955E+03  0.16018897102E+04  0.14001344607E+04 0.  0.
        3    1    3    3  502    0 -0.31325349909E+02 -0.57267424995E+03  0.84841589664E+03  0.10240833062E+04  0.10100000352E+00 0.  1.
       -3    1    3    3    0  502  0.31325349909E+02  0.57267424995E+03 -0.70165207091E+02  0.57780640407E+03  0.10100000352E+00 0. -1.
</event>
<event>
 5   0  0.2428507E-05  0.1400143E+04  0.7818609E-02  0.8953715E-01
       -1   -1    0    0    0  501  0.00000000000E+00  0.00000000000E+00  0.20983662752E+04  0.20983662752E+04  0.50400001928E-02 0.  1.
        1   -1    0    0  501    0  0.00000000000E+00  0.00000000000E+00 -0.23356258567E+03  0.23356258573E+03  0.50400001928E-02 0. -1.
    10030    2    1    2    0    0  0.00000000000E+00  0.00000000000E+00  0.18648036895E+04  0.23319288609E+04  0.14001426399E+04 0.  0.
        4    1    3    3  502    0 -0.43201196439E+03 -0.49520197328E+03  0.13343311095E+04  0.14873804000E+04  0.12699999809E+01 0.  1.
       -4    1    3    3    0  502  0.43201196439E+03  0.49520197328E+03  0.53047257998E+03  0.84454846085E+03  0.12699999809E+01 0. -1.
</event>
<event>
 5   0  0.4621450E-05  0.1400115E+04  0.7818609E-02  0.8953735E-01
       -2   -1    0    0    0  501  0.00000000000E+00  0.00000000000E+00  0.26925400189E+03  0.26925400190E+03  0.25500000920E-02 0.  1.
        2   -1    0    0  501    0  0.00000000000E+00  0.00000000000E+00 -0.18201417928E+04  0.18201417928E+04  0.25500000920E-02 0. -1.
    10030    2    1    2    0    0  0.00000000000E+00  0.00000000000E+00 -0.15508877909E+04  0.20893957947E+04  0.14001149406E+04 0.  0.
        5    1    3    3  502    0  0.16782372680E+03  0.56577306513E+03 -0.13373795348E+04  0.14618037059E+04  0.46999998093E+01 0.  1.
       -5    1    3    3    0  502 -0.16782372680E+03 -0.56577306513E+03 -0.21350825612E+03  0.62759208881E+03  0.46999998093E+01 0. -1.
</event>
<event>
 5   0  0.4460282E-05  0.1400230E+04  0.7818609E-02  0.8953652E-01
        2   -1    0    0  501    0  0.00000000000E+00  0.00000000000E+00  0.77588909629E+03  0.77588909630E+03  0.25500000920E-02 0.  1.
       -2   -1    0    0    0  501  0.00000000000E+00  0.00000000000E+00 -0.63174093556E+03  0.63174093556E+03  0.25500000920E-02 0. -1.
    10030    2    1    2    0    0  0.00000000000E+00  0.00000000000E+00  0.14414816073E+03  0.14076300319E+04  0.14002298434E+04 0.  0.
        1    1    3    3  502    0  0.13636943626E+03  0.26750304432E+03 -0.56372905501E+03  0.63870568288E+03  0.50400001928E-02 0. -1.
       -1    1    3    3    0  502 -0.13636943626E+03 -0.26750304432E+03  0.70787721574E+03  0.76892434898E+03  0.50400001928E-02 0.  1.
</event>
<event>
 5   0  0.2363419E-05  0.1400496E+04  0.7818609E-02  0.8953460E-01
        1   -1    0    0  501    0  0.00000000000E+00  0.00000000000E+00  0.62535480949E+03  0.62535480951E+03  0.50400001928E-02 0.  1.
       -1   -1    0    0    0  501  0.00000000000E+00  0.00000000000E+00 -0.78411056982E+03  0.78411056984E+03  0.50400001928E-02 0. -1.
    10030    2    1    2    0    0  0.00000000000E+00  0.00000000000E+00 -0.15875576034E+03  0.14094653793E+04  0.14004960779E+04 0.  0.
        2    1    3    3  502    0  0.13918934825E+03  0.12986190767E+03  0.59881436918E+03  0.62834420382E+03  0.25500000920E-02 0.  1.
       -2    1    3    3    0  502 -0.13918934825E+03 -0.12986190767E+03 -0.75757012951E+03  0.78112117553E+03  0.25500000920E-02 0. -1.
</event>
<event>
 5   0  0.2316714E-05  0.1401206E+04  0.7818609E-02  0.8952946E-01
       -1   -1    0    0    0  501  0.00000000000E+00  0.00000000000E+00  0.40782859206E+03  0.40782859209E+03  0.50400001928E-02 0. -1.
        1   -1    0    0  501    0  0.00000000000E+00  0.00000000000E+00 -0.12035560429E+04  0.12035560429E+04  0.50400001928E-02 0.  1.
    10030    2    1    2    0    0  0.00000000000E+00  0.00000000000E+00 -0.79572745086E+03  0.16113846350E+04  0.14012060041E+04 0.  0.
        5    1    3    3  502    0  0.51252295003E+03 -0.30984425560E+03  0.20171741804E+02  0.59925973184E+03  0.46999998093E+01 0. -1.
       -5    1    3    3    0  502 -0.51252295003E+03  0.30984425560E+03 -0.81589919266E+03  0.10121249032E+04  0.46999998093E+01 0.  1.
</event>
<event>
 5   0  0.4441253E-05  0.1400419E+04  0.7818609E-02  0.8953515E-01
        2   -1    0    0  501    0  0.00000000000E+00  0.00000000000E+00  0.16918341544E+04  0.16918341544E+04  0.25500000920E-02 0. -1.
       -2   -1    0    0    0  501  0.00000000000E+00  0.00000000000E+00 -0.28979978498E+03  0.28979978499E+03  0.25500000920E-02 0.  1.
    10030    2    1    2    0    0  0.00000000000E+00  0.00000000000E+00  0.14020343694E+04  0.19816339394E+04  0.14004187576E+04 0.  0.
        3    1    3    3  502    0  0.20891355163E+03 -0.50706264230E+03  0.84974076939E+02  0.55495765534E+03  0.10100000352E+00 0.  1.
       -3    1    3    3    0  502 -0.20891355163E+03  0.50706264230E+03  0.13170602925E+04  0.14266762841E+04  0.10100000352E+00 0. -1.
</event>
<event>
 5   0  0.4460282E-05  0.1400175E+04  0.7818609E-02  0.8953692E-01
        2   -1    0    0  501    0  0.00000000000E+00  0.00000000000E+00  0.71788203059E+03  0.71788203060E+03  0.25500000920E-02 0.  1.
       -2   -1    0    0    0  501  0.00000000000E+00  0.00000000000E+00 -0.68273367143E+03  0.68273367144E+03  0.25500000920E-02 0. -1.
    10030    2    1    2    0    0  0.00000000000E+00  0.00000000000E+00  0.35148359158E+02  0.14006157020E+04  0.14001746097E+04 0.  0.
        1    1    3    3  502    0 -0.45869784470E+03 -0.52375963332E+03  0.91043679627E+02  0.70215156330E+03  0.50400001928E-02 0. -1.
       -1    1    3    3    0  502  0.45869784470E+03  0.52375963332E+03 -0.55895320469E+02  0.69846413873E+03  0.50400001928E-02 0.  1.
</event>
<event>
 5   0  0.2316714E-05  0.1400599E+04  0.7818609E-02  0.8953385E-01
       -1   -1    0    0    0  501  0.00000000000E+00  0.00000000000E+00  0.19377109256E+03  0.19377109263E+03  0.50400001928E-02 0. -1.
        1   -1    0    0  501    0  0.00000000000E+00  0.00000000000E+00 -0.25309224139E+04  0.25309224139E+04  0.50400001928E-02 0.  1.
    10030    2    1    2    0    0  0.00000000000E+00  0.00000000000E+00 -0.23371513213E+04  0.27246935065E+04  0.14005993023E+04 0.  0.
        5    1    3    3  502    0  0.40810038985E+02 -0.13564198121E+03  0.16558035118E+03  0.21795217146E+03  0.46999998093E+01 0. -1.
       -5    1    3    3    0  502 -0.40810038985E+02  0.13564198121E+03 -0.25027316725E+04  0.25067413350E+04  0.46999998093E+01 0.  1.
</event>
<event>
 5   0  0.2363419E-05  0.1399710E+04  0.7818609E-02  0.8954028E-01
        1   -1    0    0  501    0  0.00000000000E+00  0.00000000000E+00  0.56887722844E+03  0.56887722846E+03  0.50400001928E-02 0.  1.
       -1   -1    0    0    0  501  0.00000000000E+00  0.00000000000E+00 -0.86098944112E+03  0.86098944113E+03  0.50400001928E-02 0. -1.
    10030    2    1    2    0    0  0.00000000000E+00  0.00000000000E+00 -0.29211221268E+03  0.14298666696E+04  0.13997103800E+04 0.  0.
        2    1    3    3  502    0  0.54411419956E+03  0.13933480793E+02  0.30335723672E+03  0.62312118976E+03  0.25500000920E-02 0.  1.
       -2    1    3    3    0  502 -0.54411419956E+03 -0.13933480793E+02 -0.59546944939E+03  0.80674547983E+03  0.25500000920E-02 0. -1.
</event>
<event>
 5   0  0.2316714E-05  0.1399848E+04  0.7818609E-02  0.8953928E-01
        1   -1    0    0  501    0  0.00000000000E+00  0.00000000000E+00  0.29765790077E+04  0.29765790077E+04  0.50400001928E-02 0.  1.
       -1   -1    0    0    0  501  0.00000000000E+00  0.00000000000E+00 -0.16458282233E+03  0.16458282241E+03  0.50400001928E-02 0. -1.
    10030    2    1    2    0    0  0.00000000000E+00  0.00000000000E+00  0.28119961854E+04  0.31411618301E+04  0.13998482405E+04 0.  0.
        5    1    3    3  502    0 -0.11805590272E+03  0.44194438820E+03  0.21730868793E+03  0.50645552053E+03  0.46999998093E+01 0. -1.
       -5    1    3    3    0  502  0.11805590272E+03 -0.44194438820E+03  0.25946874975E+04  0.26347063096E+04  0.46999998093E+01 0.  1.
</event>
<event>
 5   0  0.2363419E-05  0.1399441E+04  0.7818609E-02  0.8954223E-01
       -1   -1    0    0    0  501  0.00000000000E+00  0.00000000000E+00  0.16524433405E+04  0.16524433405E+04  0.50400001928E-02 0.  1.
        1   -1    0    0  501    0  0.00000000000E+00  0.00000000000E+00 -0.29629396221E+03  0.29629396225E+03  0.50400001928E-02 0. -1.
    10030    2    1    2    0    0  0.00000000000E+00  0.00000000000E+00  0.13561493783E+04  0.19487373028E+04  0.13994412953E+04 0.  0.
        2    1    3    3  502    0 -0.95968225059E+02  0.45190673556E+02  0.16411818882E+04  0.16446063624E+04  0.25500000920E-02 0.  1.
       -2    1    3    3    0  502  0.95968225059E+02 -0.45190673556E+02 -0.28503250987E+03  0.30413094036E+03  0.25500000920E-02 0. -1.
</event>
<event>
 5   0  0.2316714E-05  0.1400333E+04  0.7818609E-02  0.8953578E-01
        1   -1    0    0  501    0  0.00000000000E+00  0.00000000000E+00  0.14807697390E+04  0.14807697390E+04  0.50400001928E-02 0. -1.
       -1   -1    0    0    0  501  0.00000000000E+00  0.00000000000E+00 -0.33106619984E+03  0.33106619988E+03  0.50400001928E-02 0.  1.
    10030    2    1    2    0    0  0.00000000000E+00  0.00000000000E+00  0.11497035391E+04  0.18118359389E+04  0.14003325467E+04 0.  0.
        5    1    3    3  502    0 -0.29563076434E+03  0.35825852306E+03  0.12526967478E+04  0.13360456392E+04  0.46999998093E+01 0. -1.
       -5    1    3    3    0  502  0.29563076434E+03 -0.35825852306E+03 -0.10299320869E+03  0.47579029961E+03  0.46999998093E+01 0.  1.
</event>
<event>
 5   0  0.2363419E-05  0.1400953E+04  0.7818609E-02  0.8953129E-01
       -1   -1    0    0    0  501  0.00000000000E+00  0.00000000000E+00  0.70945460858E+03  0.70945460860E+03  0.50400001928E-02 0. -1.
        1   -1    0    0  501    0  0.00000000000E+00  0.00000000000E+00 -0.69161187562E+03  0.69161187564E+03  0.50400001928E-02 0.  1.
    10030    2    1    2    0    0  0.00000000000E+00  0.00000000000E+00  0.17842732956E+02  0.14010664842E+04  0.14009528651E+04 0.  0.
        2    1    3    3  502    0  0.32603479843E+03  0.10346688090E+03  0.62025086759E+03  0.70831858932E+03  0.25500000920E-02 0. -1.
       -2    1    3    3    0  502 -0.32603479843E+03 -0.10346688090E+03 -0.60240813463E+03  0.69274789491E+03  0.25500000920E-02 0.  1.
</event>
<event>
 5   0  0.4441253E-05  0.1399859E+04  0.7818609E-02  0.8953921E-01
       -2   -1    0    0    0  501  0.00000000000E+00  0.00000000000E+00  0.79753176627E+03  0.79753176628E+03  0.25500000920E-02 0.  1.
        2   -1    0    0  501    0  0.00000000000E+00  0.00000000000E+00 -0.61427140815E+03  0.61427140815E+03  0.25500000920E-02 0. -1.
    10030    2    1    2    0    0  0.00000000000E+00  0.00000000000E+00  0.18326035812E+03  0.14118031744E+04  0.13998585087E+04 0.  0.
        3    1    3    3  502    0  0.66079815826E+03  0.47420011594E+02  0.31938467422E+03  0.73546546064E+03  0.10100000352E+00 0.  1.
       -3    1    3    3    0  502 -0.66079815826E+03 -0.47420011594E+02 -0.13612431609E+03  0.67633771379E+03  0.10100000352E+00 0. -1.
</event>
<event>
 5   0  0.4243281E-05  0.1400115E+04  0.7818609E-02  0.8953735E-01
       -2   -1    0    0    0  501  0.00000000000E+00  0.00000000000E+00  0.49939829370E+03  0.49939829370E+03  0.25500000920E-02 0.  1.
        2   -1    0    0  501    0  0.00000000000E+00  0.00000000000E+00 -0.98134246291E+03  0.98134246291E+03  0.25500000920E-02 0. -1.
    10030    2    1    2    0    0  0.00000000000E+00  0.00000000000E+00 -0.48194416921E+03  0.14807407566E+04  0.14001153546E+04 0.  0.
        2    1    3    3  502    0 -0.46682057012E+03  0.51571328244E+03 -0.32424046808E+03  0.76747215944E+03  0.25500000920E-02 0. -1.
       -2    1    3    3    0  502  0.46682057012E+03 -0.51571328244E+03 -0.15770370113E+03  0.71326859718E+03  0.25500000920E-02 0.  1.
</event>
<event>
 5   0  0.4460282E-05  0.1400395E+04  0.7818609E-02  0.8953533E-01
        2   -1    0    0  501    0  0.00000000000E+00  0.00000000000E+00  0.64699726473E+03  0.64699726474E+03  0.25500000920E-02 0.  1.
       -2   -1    0    0    0  501  0.00000000000E+00  0.00000000000E+00 -0.75777224610E+03  0.75777224611E+03  0.25500000920E-02 0. -1.
    10030    2    1    2    0    0  0.00000000000E+00  0.00000000000E+00 -0.11077498137E+03  0.14047695108E+04  0.14003950450E+04 0.  0.
        1    1    3    3  502    0  0.30814404254E+03 -0.60934077306E+03 -0.21088021836E+03  0.71464634273E+03  0.50400001928E-02 0.  1.
       -1    1    3    3    0  502 -0.30814404254E+03  0.60934077306E+03  0.10010523699E+03  0.69012316811E+03  0.50400001928E-02 0. -1.
</event>
<event>
 5   0  0.2363419E-05  0.1399863E+04  0.7818609E-02  0.8953918E-01
       -1   -1    0    0    0  501  0.00000000000E+00  0.00000000000E+00  0.65330075431E+03  0.65330075433E+03  0.50400001928E-02 0. -1.
        1   -1    0    0  501    0  0.00000000000E+00  0.00000000000E+00 -0.74989048429E+03  0.74989048431E+03  0.50400001928E-02 0.  1.
    10030    2    1    2    0    0  0.00000000000E+00  0.00000000000E+00 -0.96589729979E+02  0.14031912386E+04  0.13998628777E+04 0.  0.
        2    1    3    3  502    0  0.56784906639E+03  0.21693125862E+03  0.29950603204E+03  0.67765448157E+03  0.25500000920E-02 0. -1.
       -2    1    3    3    0  502 -0.56784906639E+03 -0.21693125862E+03 -0.39609576202E+03  0.72553675707E+03  0.25500000920E-02 0.  1.
</event>
<event>
 5   0  0.4527503E-05  0.1400233E+04  0.7818609E-02  0.8953650E-01
        2   -1    0    0  501    0  0.00000000000E+00  0.00000000000E+00  0.12092979839E+04  0.12092979839E+04  0.25500000920E-02 0. -1.
       -2   -1    0    0    0  501  0.00000000000E+00  0.00000000000E+00 -0.40532866407E+03  0.40532866408E+03  0.25500000920E-02 0.  1.
    10030    2    1    2    0    0  0.00000000000E+00  0.00000000000E+00  0.80396931987E+03  0.16146266480E+04  0.14002330325E+04 0.  0.
        4    1    3    3  502    0 -0.16748001653E+03  0.30854370007E+03  0.11004634138E+04  0.11551061028E+04  0.12699999809E+01 0. -1.
       -4    1    3    3    0  502  0.16748001653E+03 -0.30854370007E+03 -0.29649409395E+03  0.45952054517E+03  0.12699999809E+01 0.  1.
</event>
<event>
 5   0  0.2427569E-05  0.1399973E+04  0.7818609E-02  0.8953838E-01
       -1   -1    0    0    0  501  0.00000000000E+00  0.00000000000E+00  0.56117363507E+03  0.56117363510E+03  0.50400001928E-02 0.  1.
        1   -1    0    0  501    0  0.00000000000E+00  0.00000000000E+00 -0.87313624422E+03  0.87313624423E+03  0.50400001928E-02 0. -1.
    10030    2    1    2    0    0  0.00000000000E+00  0.00000000000E+00 -0.31196260914E+03  0.14343098793E+04  0.13999729142E+04 0.  0.
        1    1    3    3  502    0  0.11276088783E+03  0.47576211045E+03 -0.66918279864E+03  0.82877633990E+03  0.50400001928E-02 0. -1.
       -1    1    3    3    0  502 -0.11276088783E+03 -0.47576211045E+03  0.35722018950E+03  0.60553353943E+03  0.50400001928E-02 0.  1.
</event>
<event>
 5   0  0.2428507E-05  0.1400365E+04  0.7818609E-02  0.8953554E-01
       -1   -1    0    0    0  501  0.00000000000E+00  0.00000000000E+00  0.48714806263E+03  0.48714806266E+03  0.50400001928E-02 0.  1.
        1   -1    0    0  501    0  0.00000000000E+00  0.00000000000E+00 -0.10063788932E+04  0.10063788932E+04  0.50400001928E-02 0. -1.
    10030    2    1    2    0    0  0.00000000000E+00  0.00000000000E+00 -0.51923083053E+03  0.14935269558E+04  0.14003649926E+04 0.  0.
        4    1    3    3  502    0 -0.65469450861E+03  0.12577861452E+03 -0.48788395874E+03  0.82612198226E+03  0.12699999809E+01 0. -1.
       -4    1    3    3    0  502  0.65469450861E+03 -0.12577861452E+03 -0.31346871782E+02  0.66740497357E+03  0.12699999809E+01 0.  1.
</event>
<event>
 5   0  0.4441253E-05  0.1399759E+04  0.7818609E-02  0.8953993E-01
       -2   -1    0    0    0  501  0.00000000000E+00  0.00000000000E+00  0.34121909059E+03  0.34121909060E+03  0.25500000920E-02 0.  1.
        2   -1    0    0  501    0  0.00000000000E+00  0.00000000000E+00 -0.14355325970E+04  0.14355325970E+04  0.25500000920E-02 0. -1.
    10030    2    1    2    0    0  0.00000000000E+00  0.00000000000E+00 -0.10943135064E+04  0.17767516876E+04  0.13997587324E+04 0.  0.
        3    1    3    3  502    0 -0.58993519570E+03 -0.27329754902E+03 -0.87599830280E+03  0.10909116014E+04  0.10100000352E+00 0. -1.
       -3    1    3    3    0  502  0.58993519570E+03  0.27329754902E+03 -0.21831520358E+03  0.68584008613E+03  0.10100000352E+00 0.  1.
</event>
<event>
 5   0  0.2316714E-05  0.1401117E+04  0.7818609E-02  0.8953010E-01
        1   -1    0    0  501    0  0.00000000000E+00  0.00000000000E+00  0.85990750956E+03  0.85990750958E+03  0.50400001928E-02 0. -1.
       -1   -1    0    0    0  501  0.00000000000E+00  0.00000000000E+00 -0.57073872852E+03  0.57073872854E+03  0.50400001928E-02 0.  1.
    10030    2    1    2    0    0  0.00000000000E+00  0.00000000000E+00  0.28916878105E+03  0.14306462381E+04  0.14011174379E+04 0.  0.
        5    1    3    3  502    0  0.24038032255E+03 -0.49210280597E+02 -0.52541218193E+03  0.57990033808E+03  0.46999998093E+01 0.  1.
       -5    1    3    3    0  502 -0.24038032255E+03  0.49210280597E+02  0.81458096298E+03  0.85074590004E+03  0.46999998093E+01 0. -1.
</event>
<event>
 5   0  0.4441253E-05  0.1399942E+04  0.7818609E-02  0.8953860E-01
       -2   -1    0    0    0  501  0.00000000000E+00  0.00000000000E+00  0.91512863236E+03  0.91512863236E+03  0.25500000920E-02 0.  1.
        2   -1    0    0  501    0  0.00000000000E+00  0.00000000000E+00 -0.53539964860E+03  0.53539964860E+03  0.25500000920E-02 0. -1.
    10030    2    1    2    0    0  0.00000000000E+00  0.00000000000E+00  0.37972898376E+03  0.14505282810E+04  0.13999422105E+04 0.  0.
        3    1    3    3  502    0 -0.34726413509E+03  0.11040079633E+03  0.80910440773E+03  0.88737290253E+03  0.10100000352E+00 0.  1.
       -3    1    3    3    0  502  0.34726413509E+03 -0.11040079633E+03 -0.42937542396E+03  0.56315537843E+03  0.10100000352E+00 0. -1.
</event>
<event>
 5   0  0.2428507E-05  0.1399386E+04  0.7818609E-02  0.8954263E-01
        1   -1    0    0  501    0  0.00000000000E+00  0.00000000000E+00  0.44259470861E+03  0.44259470863E+03  0.50400001928E-02 0.  1.
       -1   -1    0    0    0  501  0.00000000000E+00  0.00000000000E+00 -0.11061370056E+04  0.11061370056E+04  0.50400001928E-02 0. -1.
    10030    2    1    2    0    0  0.00000000000E+00  0.00000000000E+00 -0.66354229701E+03  0.15487317143E+04  0.13993861307E+04 0.  0.
        4    1    3    3  502    0  0.28093119356E+03  0.60472097269E+03 -0.56643536142E+03  0.87490595031E+03  0.12699999809E+01 0. -1.
       -4    1    3    3    0  502 -0.28093119356E+03 -0.60472097269E+03 -0.97106935592E+02  0.67382576395E+03  0.12699999809E+01 0.  1.
</event>
<event>
 5   0  0.2316714E-05  0.1399662E+04  0.7818609E-02  0.8954064E-01
        1   -1    0    0  501    0  0.00000000000E+00  0.00000000000E+00  0.63836486062E+03  0.63836486064E+03  0.50400001928E-02 0.  1.
       -1   -1    0    0    0  501  0.00000000000E+00  0.00000000000E+00 -0.76721504595E+03  0.76721504597E+03  0.50400001928E-02 0. -1.
    10030    2    1    2    0    0  0.00000000000E+00  0.00000000000E+00 -0.12885018533E+03  0.14055799066E+04  0.13996615675E+04 0.  0.
        5    1    3    3  502    0  0.66887024446E+02 -0.13089201698E+03  0.62267150741E+03  0.63980347787E+03  0.46999998093E+01 0.  1.
       -5    1    3    3    0  502 -0.66887024446E+02  0.13089201698E+03 -0.75152169275E+03  0.76577642874E+03  0.46999998093E+01 0. -1.
</event>
<event>
 5   0  0.4621450E-05  0.1397881E+04  0.7818609E-02  0.8955354E-01
       -2   -1    0    0    0  501  0.00000000000E+00  0.00000000000E+00  0.54772557890E+03  0.54772557890E+03  0.25500000920E-02 0.  1.
        2   -1    0    0  501    0  0.00000000000E+00  0.00000000000E+00 -0.89190254202E+03  0.89190254202E+03  0.25500000920E-02 0. -1.
    10030    2    1    2    0    0  0.00000000000E+00  0.00000000000E+00 -0.34417696312E+03  0.14396281209E+04  0.13978810195E+04 0.  0.
        5    1    3    3  502    0 -0.17024037940E+03 -0.62452677895E+03 -0.44355160154E+03  0.78471370425E+03  0.46999998093E+01 0.  1.
       -5    1    3    3    0  502  0.17024037940E+03  0.62452677895E+03  0.99374638420E+02  0.65491441667E+03  0.46999998093E+01 0. -1.
</event>
<event>
 5   0  0.2427569E-05  0.1402874E+04  0.7818609E-02  0.8951741E-01
        1   -1    0    0  501    0  0.00000000000E+00  0.00000000000E+00  0.12891469581E+04  0.12891469581E+04  0.50400001928E-02 0. -1.
       -1   -1    0    0    0  501  0.00000000000E+00  0.00000000000E+00 -0.38165844269E+03  0.38165844272E+03  0.50400001928E-02 0.  1.
    10030    2    1    2    0    0  0.00000000000E+00  0.00000000000E+00  0.90748851539E+03  0.16708054008E+04  0.14028739365E+04 0.  0.
        1    1    3    3  502    0 -0.66052373511E+03 -0.11075600519E+02  0.73457383725E+03  0.98793370019E+03  0.50400001928E-02 0. -1.
       -1    1    3    3    0  502  0.66052373511E+03  0.11075600519E+02  0.17291467814E+03  0.68287170062E+03  0.50400001928E-02 0.  1.
</event>
<event>
 5   0  0.4621450E-05  0.1391012E+04  0.7818609E-02  0.8960350E-01
       -2   -1    0    0    0  501  0.00000000000E+00  0.00000000000E+00  0.35976932363E+03  0.35976932364E+03  0.25500000920E-02 0. -1.
        2   -1    0    0  501    0  0.00000000000E+00  0.00000000000E+00 -0.13445529596E+04  0.13445529596E+04  0.25500000920E-02 0.  1.
    10030    2    1    2    0    0  0.00000000000E+00  0.00000000000E+00 -0.98478363596E+03  0.17043222832E+04  0.13910124498E+04 0.  0.
        5    1    3    3  502    0  0.31850732269E+03 -0.32433248618E+03 -0.11373241633E+04  0.12248129729E+04  0.46999998093E+01 0.  1.
       -5    1    3    3    0  502 -0.31850732269E+03  0.32433248618E+03  0.15254052735E+03  0.47950931031E+03  0.46999998093E+01 0. -1.
</event>
<event>
 5   0  0.2363419E-05  0.1397290E+04  0.7818609E-02  0.8955782E-01
       -1   -1    0    0    0  501  0.00000000000E+00  0.00000000000E+00  0.31460103840E+03  0.31460103844E+03  0.50400001928E-02 0. -1.
        1   -1    0    0  501    0  0.00000000000E+00  0.00000000000E+00 -0.15515047605E+04  0.15515047605E+04  0.50400001928E-02 0.  1.
    10030    2    1    2    0    0  0.00000000000E+00  0.00000000000E+00 -0.12369037221E+04  0.18661057990E+04  0.13972902473E+04 0.  0.
        2    1    3    3  502    0  0.15926940998E+03 -0.33452257030E+03  0.17259060722E+03  0.40872926578E+03  0.25500000920E-02 0. -1.
       -2    1    3    3    0  502 -0.15926940998E+03  0.33452257030E+03 -0.14094943293E+04  0.14573765332E+04  0.25500000920E-02 0.  1.
</event>
<event>
 5   0  0.2467303E-05  0.1400759E+04  0.7818609E-02  0.8953270E-01
        1   -1    0    0  501    0  0.00000000000E+00  0.00000000000E+00  0.70543344229E+03  0.70543344231E+03  0.50400001928E-02 0.  1.
       -1   -1    0    0    0  501  0.00000000000E+00  0.00000000000E+00 -0.69536141187E+03  0.69536141189E+03  0.50400001928E-02 0. -1.
    10030    2    1    2    0    0  0.00000000000E+00  0.00000000000E+00  0.10072030418E+02  0.14007948542E+04  0.14007586437E+04 0.  0.
        3    1    3    3  502    0  0.26151448389E+03 -0.31083834673E+03 -0.56552310639E+03  0.69629497854E+03  0.10100000352E+00 0. -1.
       -3    1    3    3    0  502 -0.26151448389E+03  0.31083834673E+03  0.57559513681E+03  0.70449987566E+03  0.10100000352E+00 0.  1.
</event>
<event>
 5   0  0.2316714E-05  0.1400099E+04  0.7818609E-02  0.8953747E-01
        1   -1    0    0  501    0  0.00000000000E+00  0.00000000000E+00  0.50484498729E+03  0.50484498732E+03  0.50400001928E-02 0.  1.
       -1   -1    0    0    0  501  0.00000000000E+00  0.00000000000E+00 -0.97073213728E+03  0.97073213729E+03  0.50400001928E-02 0. -1.
    10030    2    1    2    0    0  0.00000000000E+00  0.00000000000E+00 -0.46588714998E+03  0.14755771246E+04  0.14000989301E+04 0.  0.
        5    1    3    3  502    0 -0.32049921261E+03 -0.59325241601E+03 -0.43117655065E+03  0.80037708752E+03  0.46999998093E+01 0.  1.
       -5    1    3    3    0  502  0.32049921261E+03  0.59325241601E+03 -0.34710599330E+02  0.67520003709E+03  0.46999998093E+01 0. -1.
</event>
<event>
 5   0  0.4243281E-05  0.1400825E+04  0.7818609E-02  0.8953221E-01
       -2   -1    0    0    0  501  0.00000000000E+00  0.00000000000E+00  0.22718369475E+03  0.22718369477E+03  0.25500000920E-02 0.  1.
        2   -1    0    0  501    0  0.00000000000E+00  0.00000000000E+00 -0.21593888372E+04  0.21593888372E+04  0.25500000920E-02 0. -1.
    10030    2    1    2    0    0  0.00000000000E+00  0.00000000000E+00 -0.19322051424E+04  0.23865725320E+04  0.14008253774E+04 0.  0.
        2    1    3    3  502    0  0.49505673406E+03  0.39735872897E+03 -0.46184823302E+03  0.78503434306E+03  0.25500000920E-02 0.  1.
       -2    1    3    3    0  502 -0.49505673406E+03 -0.39735872897E+03 -0.14703569094E+04  0.16015381889E+04  0.25500000920E-02 0. -1.
</event>
<event>
 5   0  0.4460282E-05  0.1399887E+04  0.7818609E-02  0.8953901E-01
        2   -1    0    0  501    0  0.00000000000E+00  0.00000000000E+00  0.16157969831E+04  0.16157969831E+04  0.25500000920E-02 0. -1.
       -2   -1    0    0    0  501  0.00000000000E+00  0.00000000000E+00 -0.30320686025E+03  0.30320686026E+03  0.25500000920E-02 0.  1.
    10030    2    1    2    0    0  0.00000000000E+00  0.00000000000E+00  0.13125901228E+04  0.19190038433E+04  0.13998867526E+04 0.  0.
        1    1    3    3  502    0  0.16862287535E+03 -0.48721150772E+00  0.15875371392E+04  0.15964673751E+04  0.50400001928E-02 0. -1.
       -1    1    3    3    0  502 -0.16862287535E+03  0.48721150772E+00 -0.27494701639E+03  0.32253646819E+03  0.50400001928E-02 0.  1.
</event>
<event>
 5   0  0.2427569E-05  0.1400062E+04  0.7818609E-02  0.8953774E-01
        1   -1    0    0  501    0  0.00000000000E+00  0.00000000000E+00  0.64751116064E+03  0.64751116066E+03  0.50400001928E-02 0. -1.
       -1   -1    0    0    0  501  0.00000000000E+00  0.00000000000E+00 -0.75681025877E+03  0.75681025878E+03  0.50400001928E-02 0.  1.
    10030    2    1    2    0    0  0.00000000000E+00  0.00000000000E+00 -0.10929909813E+03  0.14043214194E+04  0.14000615545E+04 0.  0.
        1    1    3    3  502    0 -0.16326469909E+03  0.28732740526E+03 -0.67364200963E+03  0.75033722882E+03  0.50400001928E-02 0.  1.
       -1    1    3    3    0  502  0.16326469909E+03 -0.28732740526E+03  0.56434291151E+03  0.65398419062E+03  0.50400001928E-02 0. -1.
</event>
<event>
 5   0  0.2467303E-05  0.1398766E+04  0.7818609E-02  0.8954712E-01
       -1   -1    0    0    0  501  0.00000000000E+00  0.00000000000E+00  0.11269606077E+04  0.11269606077E+04  0.50400001928E-02 0.  1.
        1   -1    0    0  501    0  0.00000000000E+00  0.00000000000E+00 -0.43403154286E+03  0.43403154289E+03  0.50400001928E-02 0. -1.
    10030    2    1    2    0    0  0.00000000000E+00  0.00000000000E+00  0.69292906486E+03  0.15609921506E+04  0.13987658151E+04 0.  0.
        3    1    3    3  502    0  0.62373384722E+03  0.18971774182E+03  0.62900699950E+03  0.90591751796E+03  0.10100000352E+00 0. -1.
       -3    1    3    3    0  502 -0.62373384722E+03 -0.18971774182E+03  0.63922065361E+02  0.65507463267E+03  0.10100000352E+00 0.  1.
</event>
<event>
 5   0  0.2467303E-05  0.1399419E+04  0.7818609E-02  0.8954240E-01
        1   -1    0    0  501    0  0.00000000000E+00  0.00000000000E+00  0.10052426466E+04  0.10052426466E+04  0.50400001928E-02 0.  1.
       -1   -1    0    0    0  501  0.00000000000E+00  0.00000000000E+00 -0.48703970221E+03  0.48703970224E+03  0.50400001928E-02 0. -1.
    10030    2    1    2    0    0  0.00000000000E+00  0.00000000000E+00  0.51820294438E+03  0.14922823488E+04  0.13994185639E+04 0.  0.
        3    1    3    3  502    0  0.14894617955E+03  0.52756031825E+03  0.72279987789E+03  0.90716290018E+03  0.10100000352E+00 0.  1.
       -3    1    3    3    0  502 -0.14894617955E+03 -0.52756031825E+03 -0.20459693351E+03  0.58511944865E+03  0.10100000352E+00 0. -1.
</event>
<event>
 5   0  0.2363419E-05  0.1399688E+04  0.7818609E-02  0.8954045E-01
        1   -1    0    0  501    0  0.00000000000E+00  0.00000000000E+00  0.17129597160E+04  0.17129597160E+04  0.50400001928E-02 0. -1.
       -1   -1    0    0    0  501  0.00000000000E+00  0.00000000000E+00 -0.28592691746E+03  0.28592691750E+03  0.50400001928E-02 0.  1.
    10030    2    1    2    0    0  0.00000000000E+00  0.00000000000E+00  0.14270327986E+04  0.19988866335E+04  0.13996875243E+04 0.  0.
        2    1    3    3  502    0  0.49505431855E+03  0.38453252034E+03  0.26911204574E+03  0.68217690571E+03  0.25500000920E-02 0.  1.
       -2    1    3    3    0  502 -0.49505431855E+03 -0.38453252034E+03  0.11579207528E+04  0.13167097278E+04  0.25500000920E-02 0. -1.
</event>
<event>
 5   0  0.4460282E-05  0.1400316E+04  0.7818609E-02  0.8953590E-01
       -2   -1    0    0    0  501  0.00000000000E+00  0.00000000000E+00  0.64743750550E+03  0.64743750550E+03  0.25500000920E-02 0.  1.
        2   -1    0    0  501    0  0.00000000000E+00  0.00000000000E+00 -0.75717115901E+03  0.75717115901E+03  0.25500000920E-02 0. -1.
    10030    2    1    2    0    0  0.00000000000E+00  0.00000000000E+00 -0.10973365351E+03  0.14046086645E+04  0.14003156879E+04 0.  0.
        1    1    3    3  502    0 -0.38596519035E+03  0.50564046945E+03  0.23856992023E+03  0.67937987854E+03  0.50400001928E-02 0.  1.
       -1    1    3    3    0  502  0.38596519035E+03 -0.50564046945E+03 -0.34830357374E+03  0.72522878598E+03  0.50400001928E-02 0. -1.
</event>
<event>
 5   0  0.4441253E-05  0.1400134E+04  0.7818609E-02  0.8953722E-01
        2   -1    0    0  501    0  0.00000000000E+00  0.00000000000E+00  0.79319175195E+03  0.79319175196E+03  0.25500000920E-02 0. -1.
       -2   -1    0    0    0  501  0.00000000000E+00  0.00000000000E+00 -0.61787535511E+03  0.61787535512E+03  0.25500000920E-02 0.  1.
    10030    2    1    2    0    0  0.00000000000E+00  0.00000000000E+00  0.17531639684E+03  0.14110671071E+04  0.14001337585E+04 0.  0.
        3    1    3    3  502    0  0.94479225480E+02  0.59753858523E+03 -0.26739233767E+03  0.66142071130E+03  0.10100000352E+00 0.  1.
       -3    1    3    3    0  502 -0.94479225480E+02 -0.59753858523E+03  0.44270873451E+03  0.74964639578E+03  0.10100000352E+00 0. -1.
</event>
<event>
 5   0  0.2467303E-05  0.1399670E+04  0.7818609E-02  0.8954057E-01
        1   -1    0    0  501    0  0.00000000000E+00  0.00000000000E+00  0.65926703915E+03  0.65926703917E+03  0.50400001928E-02 0.  1.
       -1   -1    0    0    0  501  0.00000000000E+00  0.00000000000E+00 -0.74289963948E+03  0.74289963950E+03  0.50400001928E-02 0. -1.
    10030    2    1    2    0    0  0.00000000000E+00  0.00000000000E+00 -0.83632600334E+02  0.14021666787E+04  0.13996703122E+04 0.  0.
        3    1    3    3  502    0  0.47630922766E+03  0.44781743724E+03  0.20834551415E+03  0.68616237212E+03  0.10100000352E+00 0.  1.
       -3    1    3    3    0  502 -0.47630922766E+03 -0.44781743724E+03 -0.29197811448E+03  0.71600430654E+03  0.10100000352E+00 0. -1.
</event>
<event>
 5   0  0.4527503E-05  0.1399434E+04  0.7818609E-02  0.8954228E-01
       -2   -1    0    0    0  501  0.00000000000E+00  0.00000000000E+00  0.49582081136E+03  0.49582081137E+03  0.25500000920E-02 0.  1.
        2   -1    0    0  501    0  0.00000000000E+00  0.00000000000E+00 -0.98746172560E+03  0.98746172561E+03  0.25500000920E-02 0. -1.
    10030    2    1    2    0    0  0.00000000000E+00  0.00000000000E+00 -0.49164091424E+03  0.14832825370E+04  0.13994342771E+04 0.  0.
        4    1    3    3  502    0  0.32754458553E+03 -0.60609340188E+03 -0.11614724404E+03  0.69866047728E+03  0.12699999809E+01 0.  1.
       -4    1    3    3    0  502 -0.32754458553E+03  0.60609340188E+03 -0.37549367020E+03  0.78462205970E+03  0.12699999809E+01 0. -1.
</event>
<event>
 5   0  0.2467303E-05  0.1401401E+04  0.7818609E-02  0.8952805E-01
        1   -1    0    0  501    0  0.00000000000E+00  0.00000000000E+00  0.60569348669E+03  0.60569348671E+03  0.50400001928E-02 0. -1.
       -1   -1    0    0    0  501  0.00000000000E+00  0.00000000000E+00 -0.81060963250E+03  0.81060963252E+03  0.50400001928E-02 0.  1.
    10030    2    1    2    0    0  0.00000000000E+00  0.00000000000E+00 -0.20491614581E+03  0.14163031192E+04  0.14014006917E+04 0.  0.
        3    1    3    3  502    0  0.48544254313E+02 -0.11196931305E+03  0.59487004779E+03  0.60725946320E+03  0.10100000352E+00 0. -1.
       -3    1    3    3    0  502 -0.48544254313E+02  0.11196931305E+03 -0.79978619360E+03  0.80904365603E+03  0.10100000352E+00 0.  1.
</event>
<event>
 5   0  0.2467303E-05  0.1399713E+04  0.7818609E-02  0.8954026E-01
        1   -1    0    0  501    0  0.00000000000E+00  0.00000000000E+00  0.56674493379E+03  0.56674493381E+03  0.50400001928E-02 0.  1.
       -1   -1    0    0    0  501  0.00000000000E+00  0.00000000000E+00 -0.86423194132E+03  0.86423194133E+03  0.50400001928E-02 0. -1.
    10030    2    1    2    0    0  0.00000000000E+00  0.00000000000E+00 -0.29748700753E+03  0.14309768751E+04  0.13997129340E+04 0.  0.
        3    1    3    3  502    0 -0.90558490338E+02 -0.49686003622E+03 -0.64405270159E+03  0.81845869071E+03  0.10100000352E+00 0. -1.
       -3    1    3    3    0  502  0.90558490338E+02  0.49686003622E+03  0.34656569406E+03  0.61251818444E+03  0.10100000352E+00 0.  1.
</event>
<event>
 5   0  0.4621450E-05  0.1400558E+04  0.7818609E-02  0.8953415E-01
       -2   -1    0    0    0  501  0.00000000000E+00  0.00000000000E+00  0.35405234747E+03  0.35405234748E+03  0.25500000920E-02 0. -1.
        2   -1    0    0  501    0  0.00000000000E+00  0.00000000000E+00 -0.13850791720E+04  0.13850791720E+04  0.25500000920E-02 0.  1.
    10030    2    1    2    0    0  0.00000000000E+00  0.00000000000E+00 -0.10310268245E+04  0.17391315195E+04  0.14005577921E+04 0.  0.
        5    1    3    3  502    0  0.73365920992E+02 -0.26833152744E+03 -0.13135045070E+04  0.13426468437E+04  0.46999998093E+01 0.  1.
       -5    1    3    3    0  502 -0.73365920992E+02  0.26833152744E+03  0.28247768251E+03  0.39648467574E+03  0.46999998093E+01 0. -1.
</event>
<event>
 5   0  0.2428507E-05  0.1403104E+04  0.7818609E-02  0.8951575E-01
       -1   -1    0    0    0  501  0.00000000000E+00  0.00000000000E+00  0.26792572959E+03  0.26792572964E+03  0.50400001928E-02 0.  1.
        1   -1    0    0  501    0  0.00000000000E+00  0.00000000000E+00 -0.18369831164E+04  0.18369831164E+04  0.50400001928E-02 0. -1.
    10030    2    1    2    0    0  0.00000000000E+00  0.00000000000E+00 -0.15690573868E+04  0.21049088460E+04  0.14031037620E+04 0.  0.
        4    1    3    3  502    0 -0.10962644931E+03 -0.49171760733E+03 -0.15169629239E+04  0.15984311962E+04  0.12699999809E+01 0. -1.
       -4    1    3    3    0  502  0.10962644931E+03  0.49171760733E+03 -0.52094462870E+02  0.50647764976E+03  0.12699999809E+01 0.  1.
</event>
<event>
 5   0  0.2467303E-05  0.1400184E+04  0.7818609E-02  0.8953686E-01
        1   -1    0    0  501    0  0.00000000000E+00  0.00000000000E+00  0.58718512299E+03  0.58718512301E+03  0.50400001928E-02 0. -1.
       -1   -1    0    0    0  501  0.00000000000E+00  0.00000000000E+00 -0.83470878050E+03  0.83470878052E+03  0.50400001928E-02 0.  1.
    10030    2    1    2    0    0  0.00000000000E+00  0.00000000000E+00 -0.24752365751E+03  0.14218939035E+04  0.14001836708E+04 0.  0.
        3    1    3    3  502    0 -0.54881975646E+03  0.57828712620E+02  0.31370917206E+03  0.63479188710E+03  0.10100000352E+00 0. -1.
       -3    1    3    3    0  502  0.54881975646E+03 -0.57828712620E+02 -0.56123282957E+03  0.78710201644E+03  0.10100000352E+00 0.  1.
</event>
<event>
 5   0  0.4243281E-05  0.1400105E+04  0.7818609E-02  0.8953742E-01
       -2   -1    0    0    0  501  0.00000000000E+00  0.00000000000E+00  0.17851386140E+04  0.17851386140E+04  0.25500000920E-02 0.  1.
        2   -1    0    0  501    0  0.00000000000E+00  0.00000000000E+00 -0.27452977109E+03  0.27452977110E+03  0.25500000920E-02 0. -1.
    10030    2    1    2    0    0  0.00000000000E+00  0.00000000000E+00  0.15106088429E+04  0.20596683851E+04  0.14001052747E+04 0.  0.
        2    1    3    3  502    0 -0.66998221229E+03  0.10998457266E+02  0.10534536339E+04  0.12485037804E+04  0.25500000920E-02 0.  1.
       -2    1    3    3    0  502  0.66998221229E+03 -0.10998457266E+02  0.45715520904E+03  0.81116460475E+03  0.25500000920E-02 0. -1.
</event>
<event>
 5   0  0.2428507E-05  0.1400083E+04  0.7818609E-02  0.8953758E-01
       -1   -1    0    0    0  501  0.00000000000E+00  0.00000000000E+00  0.80718976071E+03  0.80718976073E+03  0.50400001928E-02 0. -1.
        1   -1    0    0  501    0  0.00000000000E+00  0.00000000000E+00 -0.60711675473E+03  0.60711675475E+03  0.50400001928E-02 0.  1.
    10030    2    1    2    0    0  0.00000000000E+00  0.00000000000E+00  0.20007300598E+03  0.14143065155E+04  0.14000834661E+04 0.  0.
        4    1    3    3  502    0  0.51427965253E+03 -0.33248802382E+03  0.44263517556E+03  0.75561852712E+03  0.12699999809E+01 0. -1.
       -4    1    3    3    0  502 -0.51427965253E+03  0.33248802382E+03 -0.24256216958E+03  0.65868798836E+03  0.12699999809E+01 0.  1.
</event>
<event>
 5   0  0.4460282E-05  0.1400153E+04  0.7818609E-02  0.8953708E-01
        2   -1    0    0  501    0  0.00000000000E+00  0.00000000000E+00  0.70055172387E+03  0.70055172387E+03  0.25500000920E-02 0.  1.
       -2   -1    0    0    0  501  0.00000000000E+00  0.00000000000E+00 -0.69960146244E+03  0.69960146244E+03  0.25500000920E-02 0. -1.
    10030    2    1    2    0    0  0.00000000000E+00  0.00000000000E+00  0.95026143193E+00  0.14001531863E+04  0.14001528639E+04 0.  0.
        1    1    3    3  502    0 -0.25064110263E+03 -0.64689450290E+03 -0.93405401681E+02  0.70001287795E+03  0.50400001928E-02 0. -1.
       -1    1    3    3    0  502  0.25064110263E+03  0.64689450290E+03  0.94355663113E+02  0.70014030836E+03  0.50400001928E-02 0.  1.
</event>
<event>
 5   0  0.2363419E-05  0.1399713E+04  0.7818609E-02  0.8954026E-01
        1   -1    0    0  501    0  0.00000000000E+00  0.00000000000E+00  0.20113325544E+04  0.20113325544E+04  0.50400001928E-02 0.  1.
       -1   -1    0    0    0  501  0.00000000000E+00  0.00000000000E+00 -0.24351975687E+03  0.24351975692E+03  0.50400001928E-02 0. -1.
    10030    2    1    2    0    0  0.00000000000E+00  0.00000000000E+00  0.17678127975E+04  0.22548523113E+04  0.13997131345E+04 0.  0.
        2    1    3    3  502    0 -0.13384338682E+03  0.58284753950E+03  0.14695749842E+04  0.15865925566E+04  0.25500000920E-02 0.  1.
       -2    1    3    3    0  502  0.13384338682E+03 -0.58284753950E+03  0.29823781337E+03  0.66825975475E+03  0.25500000920E-02 0. -1.
</event>
<event>
 5   0  0.2428507E-05  0.1400186E+04  0.7818609E-02  0.8953684E-01
        1   -1    0    0  501    0  0.00000000000E+00  0.00000000000E+00  0.65986649874E+03  0.65986649876E+03  0.50400001928E-02 0.  1.
       -1   -1    0    0    0  501  0.00000000000E+00  0.00000000000E+00 -0.74277196540E+03  0.74277196541E+03  0.50400001928E-02 0. -1.
    10030    2    1    2    0    0  0.00000000000E+00  0.00000000000E+00 -0.82905466654E+02  0.14026384642E+04  0.14001861822E+04 0.  0.
        4    1    3    3  502    0 -0.16770264801E+02  0.26123563519E+03 -0.69189989310E+03  0.73976508017E+03  0.12699999809E+01 0. -1.
       -4    1    3    3    0  502  0.16770264801E+02 -0.26123563519E+03  0.60899442645E+03  0.66287338400E+03  0.12699999809E+01 0.  1.
</event>
<event>
 5   0  0.4441253E-05  0.1400173E+04  0.7818609E-02  0.8953693E-01
        2   -1    0    0  501    0  0.00000000000E+00  0.00000000000E+00  0.13310906128E+04  0.13310906128E+04  0.25500000920E-02 0.  1.
       -2   -1    0    0    0  501  0.00000000000E+00  0.00000000000E+00 -0.36821034277E+03  0.36821034278E+03  0.25500000920E-02 0. -1.
    10030    2    1    2    0    0  0.00000000000E+00  0.00000000000E+00  0.96288027001E+03  0.16993009556E+04  0.14001733190E+04 0.  0.
        3    1    3    3  502    0 -0.61088279066E+03  0.20302533140E+03  0.81540901378E+03  0.10388883189E+04  0.10100000352E+00 0. -1.
       -3    1    3    3    0  502  0.61088279066E+03 -0.20302533140E+03  0.14747125624E+03  0.66041263671E+03  0.10100000352E+00 0.  1.
</event>
<event>
 5   0  0.2467303E-05  0.1400327E+04  0.7818609E-02  0.8953582E-01
       -1   -1    0    0    0  501  0.00000000000E+00  0.00000000000E+00  0.45185698189E+03  0.45185698192E+03  0.50400001928E-02 0. -1.
        1   -1    0    0  501    0  0.00000000000E+00  0.00000000000E+00 -0.10849208746E+04  0.10849208746E+04  0.50400001928E-02 0.  1.
    10030    2    1    2    0    0  0.00000000000E+00  0.00000000000E+00 -0.63306389274E+03  0.15367778566E+04  0.14003272075E+04 0.  0.
        3    1    3    3  502    0  0.24632651831E+03 -0.24196592016E+03  0.35192175499E+03  0.49302453486E+03  0.10100000352E+00 0. -1.
       -3    1    3    3    0  502 -0.24632651831E+03  0.24196592016E+03 -0.98498564773E+03  0.10437533217E+04  0.10100000352E+00 0.  1.
</event>
<event>
 5   0  0.4243281E-05  0.1398542E+04  0.7818609E-02  0.8954874E-01
       -2   -1    0    0    0  501  0.00000000000E+00  0.00000000000E+00  0.55881202358E+03  0.55881202359E+03  0.25500000920E-02 0.  1.
        2   -1    0    0  501    0  0.00000000000E+00  0.00000000000E+00 -0.87503513178E+03  0.87503513178E+03  0.25500000920E-02 0. -1.
    10030    2    1    2    0    0  0.00000000000E+00  0.00000000000E+00 -0.31622310820E+03  0.14338471554E+04  0.13985423164E+04 0.  0.
        2    1    3    3  502    0 -0.16718444322E+03  0.33805707166E+03 -0.76182876973E+03  0.85006840674E+03  0.25500000920E-02 0. -1.
       -2    1    3    3    0  502  0.16718444322E+03 -0.33805707166E+03  0.44560566153E+03  0.58377874863E+03  0.25500000920E-02 0.  1.
</event>
<event>
 5   0  0.4441253E-05  0.1400032E+04  0.7818609E-02  0.8953796E-01
       -2   -1    0    0    0  501  0.00000000000E+00  0.00000000000E+00  0.55182784936E+03  0.55182784936E+03  0.25500000920E-02 0. -1.
        2   -1    0    0  501    0  0.00000000000E+00  0.00000000000E+00 -0.88799841569E+03  0.88799841570E+03  0.25500000920E-02 0.  1.
    10030    2    1    2    0    0  0.00000000000E+00  0.00000000000E+00 -0.33617056633E+03  0.14398262651E+04  0.14000317939E+04 0.  0.
        3    1    3    3  502    0 -0.21603094807E+03  0.25053509902E+03  0.46636566311E+03  0.57178155645E+03  0.10100000352E+00 0. -1.
       -3    1    3    3    0  502  0.21603094807E+03 -0.25053509902E+03 -0.80253622945E+03  0.86804470861E+03  0.10100000352E+00 0.  1.
</event>
<event>
 5   0  0.4243281E-05  0.1397416E+04  0.7818609E-02  0.8955691E-01
        2   -1    0    0  501    0  0.00000000000E+00  0.00000000000E+00  0.16161017939E+04  0.16161017939E+04  0.25500000920E-02 0.  1.
       -2   -1    0    0    0  501  0.00000000000E+00  0.00000000000E+00 -0.30208052765E+03  0.30208052766E+03  0.25500000920E-02 0. -1.
    10030    2    1    2    0    0  0.00000000000E+00  0.00000000000E+00  0.13140212662E+04  0.19181823215E+04  0.13974160192E+04 0.  0.
        2    1    3    3  502    0  0.30341679661E+03  0.22506280126E+02 -0.20637697171E+03  0.36764077517E+03  0.25500000920E-02 0. -1.
       -2    1    3    3    0  502 -0.30341679661E+03 -0.22506280126E+02  0.15203982379E+04  0.15505415464E+04  0.25500000920E-02 0.  1.
</event>
<event>
 5   0  0.4243281E-05  0.1399978E+04  0.7818609E-02  0.8953834E-01
        2   -1    0    0  501    0  0.00000000000E+00  0.00000000000E+00  0.16792580275E+04  0.16792580275E+04  0.25500000920E-02 0.  1.
       -2   -1    0    0    0  501  0.00000000000E+00  0.00000000000E+00 -0.29178648707E+03  0.29178648708E+03  0.25500000920E-02 0. -1.
    10030    2    1    2    0    0  0.00000000000E+00  0.00000000000E+00  0.13874715405E+04  0.19710445146E+04  0.13999782866E+04 0.  0.
        2    1    3    3  502    0  0.51016926012E+03 -0.46440942731E+03  0.86053612753E+03  0.11029375399E+04  0.25500000920E-02 0. -1.
       -2    1    3    3    0  502 -0.51016926012E+03  0.46440942731E+03  0.52693541294E+03  0.86810697472E+03  0.25500000920E-02 0.  1.
</event>
<event>
 5   0  0.2316714E-05  0.1399744E+04  0.7818609E-02  0.8954004E-01
        1   -1    0    0  501    0  0.00000000000E+00  0.00000000000E+00  0.17485238998E+04  0.17485238998E+04  0.50400001928E-02 0.  1.
       -1   -1    0    0    0  501  0.00000000000E+00  0.00000000000E+00 -0.28013389331E+03  0.28013389335E+03  0.50400001928E-02 0. -1.
    10030    2    1    2    0    0  0.00000000000E+00  0.00000000000E+00  0.14683900065E+04  0.20286577932E+04  0.13997439875E+04 0.  0.
        5    1    3    3  502    0 -0.46584789554E+03 -0.46931120325E+02  0.14880877670E+04  0.15600141294E+04  0.46999998093E+01 0.  1.
       -5    1    3    3    0  502  0.46584789554E+03  0.46931120325E+02 -0.19697760426E+02  0.46864366377E+03  0.46999998093E+01 0. -1.
</event>
<event>
 5   0  0.2428507E-05  0.1399717E+04  0.7818609E-02  0.8954023E-01
        1   -1    0    0  501    0  0.00000000000E+00  0.00000000000E+00  0.11793094014E+04  0.11793094014E+04  0.50400001928E-02 0.  1.
       -1   -1    0    0    0  501  0.00000000000E+00  0.00000000000E+00 -0.41532973037E+03  0.41532973040E+03  0.50400001928E-02 0. -1.
    10030    2    1    2    0    0  0.00000000000E+00  0.00000000000E+00  0.76397967099E+03  0.15946391318E+04  0.13997174797E+04 0.  0.
        4    1    3    3  502    0  0.18836939822E+03  0.38309628539E+03 -0.24981554538E+03  0.49462633743E+03  0.12699999809E+01 0. -1.
       -4    1    3    3    0  502 -0.18836939822E+03 -0.38309628539E+03  0.10137952164E+04  0.11000127943E+04  0.12699999809E+01 0.  1.
</event>
<event>
 5   0  0.4243281E-05  0.1398206E+04  0.7818609E-02  0.8955118E-01
       -2   -1    0    0    0  501  0.00000000000E+00  0.00000000000E+00  0.18861716014E+04  0.18861716015E+04  0.25500000920E-02 0. -1.
        2   -1    0    0  501    0  0.00000000000E+00  0.00000000000E+00 -0.25912020552E+03  0.25912020553E+03  0.25500000920E-02 0.  1.
    10030    2    1    2    0    0  0.00000000000E+00  0.00000000000E+00  0.16270513959E+04  0.21452918070E+04  0.13982062409E+04 0.  0.
        2    1    3    3  502    0 -0.46265543783E+03 -0.47759759641E+03  0.48232758982E+03  0.82145567266E+03  0.25500000920E-02 0.  1.
       -2    1    3    3    0  502  0.46265543783E+03  0.47759759641E+03  0.11447238061E+04  0.13238361343E+04  0.25500000920E-02 0. -1.
</event>
<event>
 5   0  0.4243281E-05  0.1400183E+04  0.7818609E-02  0.8953686E-01
        2   -1    0    0  501    0  0.00000000000E+00  0.00000000000E+00  0.18969163860E+04  0.18969163860E+04  0.25500000920E-02 0.  1.
       -2   -1    0    0    0  501  0.00000000000E+00  0.00000000000E+00 -0.25838132856E+03  0.25838132857E+03  0.25500000920E-02 0. -1.
    10030    2    1    2    0    0  0.00000000000E+00  0.00000000000E+00  0.16385350574E+04  0.21552977146E+04  0.14001825252E+04 0.  0.
        2    1    3    3  502    0 -0.13641163103E+03 -0.14555596243E+03  0.18522419132E+04  0.18629532405E+04  0.25500000920E-02 0.  1.
       -2    1    3    3    0  502  0.13641163103E+03  0.14555596243E+03 -0.21370685579E+03  0.29234447403E+03  0.25500000920E-02 0. -1.
</event>
<event>
 5   0  0.1661000E-05  0.1401765E+04  0.7818609E-02  0.8952542E-01
       -3   -1    0    0    0  501  0.00000000000E+00  0.00000000000E+00  0.42745413082E+03  0.42745414275E+03  0.10100000352E+00 0.  1.
        3   -1    0    0  501    0  0.00000000000E+00  0.00000000000E+00 -0.11492136637E+04  0.11492136681E+04  0.10100000352E+00 0. -1.
    10030    2    1    2    0    0  0.00000000000E+00  0.00000000000E+00 -0.72175953284E+03  0.15766678108E+04  0.14017648029E+04 0.  0.
        1    1    3    3  502    0 -0.20107507758E+03 -0.53510667101E+03 -0.81702470152E+03  0.99714577626E+03  0.50400001928E-02 0. -1.
       -1    1    3    3    0  502  0.20107507758E+03  0.53510667101E+03  0.95265168679E+02  0.57952203459E+03  0.50400001928E-02 0.  1.
</event>
<event>
 5   0  0.4441253E-05  0.1399041E+04  0.7818609E-02  0.8954513E-01
       -2   -1    0    0    0  501  0.00000000000E+00  0.00000000000E+00  0.40853350953E+03  0.40853350954E+03  0.25500000920E-02 0. -1.
        2   -1    0    0  501    0  0.00000000000E+00  0.00000000000E+00 -0.11977691788E+04  0.11977691788E+04  0.25500000920E-02 0.  1.
    10030    2    1    2    0    0  0.00000000000E+00  0.00000000000E+00 -0.78923566927E+03  0.16063026883E+04  0.13990408804E+04 0.  0.
        3    1    3    3  502    0 -0.21067391679E+02  0.30965734663E+03  0.32514891569E+03  0.44950343146E+03  0.10100000352E+00 0. -1.
       -3    1    3    3    0  502  0.21067391679E+02 -0.30965734663E+03 -0.11143845850E+04  0.11567992569E+04  0.10100000352E+00 0.  1.
</event>
<event>
 5   0  0.2363419E-05  0.1399932E+04  0.7818609E-02  0.8953868E-01
       -1   -1    0    0    0  501  0.00000000000E+00  0.00000000000E+00  0.85535945295E+03  0.85535945297E+03  0.50400001928E-02 0. -1.
        1   -1    0    0  501    0  0.00000000000E+00  0.00000000000E+00 -0.57280257590E+03  0.57280257592E+03  0.50400001928E-02 0.  1.
    10030    2    1    2    0    0  0.00000000000E+00  0.00000000000E+00  0.28255687705E+03  0.14281620289E+04  0.13999315669E+04 0.  0.
        2    1    3    3  502    0  0.33896263749E+03  0.53119798685E+01  0.76602323113E+03  0.83768459302E+03  0.25500000920E-02 0. -1.
       -2    1    3    3    0  502 -0.33896263749E+03 -0.53119798685E+01 -0.48346635408E+03  0.59047743587E+03  0.25500000920E-02 0.  1.
</event>
<event>
 5   0  0.2427569E-05  0.1400151E+04  0.7818609E-02  0.8953709E-01
       -1   -1    0    0    0  501  0.00000000000E+00  0.00000000000E+00  0.11671993144E+04  0.11671993144E+04  0.50400001928E-02 0. -1.
        1   -1    0    0  501    0  0.00000000000E+00  0.00000000000E+00 -0.41989878981E+03  0.41989878984E+03  0.50400001928E-02 0.  1.
    10030    2    1    2    0    0  0.00000000000E+00  0.00000000000E+00  0.74730052459E+03  0.15870981043E+04  0.14001508199E+04 0.  0.
        1    1    3    3  502    0  0.58424929654E+03 -0.34735405617E+03  0.56367456575E+03  0.88302383713E+03  0.50400001928E-02 0. -1.
       -1    1    3    3    0  502 -0.58424929654E+03  0.34735405617E+03  0.18362595884E+03  0.70407426713E+03  0.50400001928E-02 0.  1.
</event>
<event>
 5   0  0.4243281E-05  0.1400518E+04  0.7818609E-02  0.8953444E-01
        2   -1    0    0  501    0  0.00000000000E+00  0.00000000000E+00  0.12468465623E+04  0.12468465623E+04  0.25500000920E-02 0. -1.
       -2   -1    0    0    0  501  0.00000000000E+00  0.00000000000E+00 -0.39328227787E+03  0.39328227788E+03  0.25500000920E-02 0.  1.
    10030    2    1    2    0    0  0.00000000000E+00  0.00000000000E+00  0.85356428443E+03  0.16401288402E+04  0.14005179845E+04 0.  0.
        2    1    3    3  502    0 -0.27927843221E+03 -0.53430872531E+03  0.84392666356E+03  0.10371569168E+04  0.25500000920E-02 0. -1.
       -2    1    3    3    0  502  0.27927843221E+03  0.53430872531E+03  0.96376208718E+01  0.60297192337E+03  0.25500000920E-02 0.  1.
</event>
<event>
 5   0  0.4621450E-05  0.1399511E+04  0.7818609E-02  0.8954173E-01
       -2   -1    0    0    0  501  0.00000000000E+00  0.00000000000E+00  0.42589785884E+03  0.42589785884E+03  0.25500000920E-02 0. -1.
        2   -1    0    0  501    0  0.00000000000E+00  0.00000000000E+00 -0.11497069520E+04  0.11497069520E+04  0.25500000920E-02 0.  1.
    10030    2    1    2    0    0  0.00000000000E+00  0.00000000000E+00 -0.72380909312E+03  0.15756048108E+04  0.13995109562E+04 0.  0.
        5    1    3    3  502    0 -0.11958321785E+02  0.22095698266E+03  0.38545237021E+03  0.44447790648E+03  0.46999998093E+01 0. -1.
       -5    1    3    3    0  502  0.11958321785E+02 -0.22095698266E+03 -0.11092614633E+04  0.11311269043E+04  0.46999998093E+01 0.  1.
</event>
<event>
 5   0  0.1661000E-05  0.1399146E+04  0.7818609E-02  0.8954437E-01
        4   -1    0    0  501    0  0.00000000000E+00  0.00000000000E+00  0.80423625736E+03  0.80423726011E+03  0.12699999809E+01 0.  1.
       -4   -1    0    0    0  501  0.00000000000E+00  0.00000000000E+00 -0.60852881588E+03  0.60853014112E+03  0.12699999809E+01 0. -1.
    10030    2    1    2    0    0  0.00000000000E+00  0.00000000000E+00  0.19570744148E+03  0.14127674012E+04  0.13991462852E+04 0.  0.
        5    1    3    3  502    0  0.14602190979E+03  0.17325541611E+02  0.78844027128E+03  0.80204907824E+03  0.46999998093E+01 0.  1.
       -5    1    3    3    0  502 -0.14602190979E+03 -0.17325541611E+02 -0.59273282980E+03  0.61071832300E+03  0.46999998093E+01 0. -1.
</event>
<event>
 5   0  0.2316714E-05  0.1400262E+04  0.7818609E-02  0.8953629E-01
        1   -1    0    0  501    0  0.00000000000E+00  0.00000000000E+00  0.28047432127E+04  0.28047432127E+04  0.50400001928E-02 0.  1.
       -1   -1    0    0    0  501  0.00000000000E+00  0.00000000000E+00 -0.17476938549E+03  0.17476938557E+03  0.50400001928E-02 0. -1.
    10030    2    1    2    0    0  0.00000000000E+00  0.00000000000E+00  0.26299738272E+04  0.29795125983E+04  0.14002617582E+04 0.  0.
        5    1    3    3  502    0  0.67524840745E+03 -0.13950777101E+02  0.92259996676E+03  0.11434018649E+04  0.46999998093E+01 0. -1.
       -5    1    3    3    0  502 -0.67524840745E+03  0.13950777101E+02  0.17073738604E+04  0.18361107334E+04  0.46999998093E+01 0.  1.
</event>
<event>
 5   0  0.4527503E-05  0.1399655E+04  0.7818609E-02  0.8954068E-01
       -2   -1    0    0    0  501  0.00000000000E+00  0.00000000000E+00  0.37680437115E+03  0.37680437116E+03  0.25500000920E-02 0. -1.
        2   -1    0    0  501    0  0.00000000000E+00  0.00000000000E+00 -0.12997688732E+04  0.12997688732E+04  0.25500000920E-02 0.  1.
    10030    2    1    2    0    0  0.00000000000E+00  0.00000000000E+00 -0.92296450206E+03  0.16765732444E+04  0.13996550903E+04 0.  0.
        4    1    3    3  502    0 -0.52504637331E+03  0.16274580100E+03 -0.98029967391E+03  0.11238989961E+04  0.12699999809E+01 0.  1.
       -4    1    3    3    0  502  0.52504637331E+03 -0.16274580100E+03  0.57335171843E+02  0.55267424827E+03  0.12699999809E+01 0. -1.
</event>
<event>
 5   0  0.2467303E-05  0.1399652E+04  0.7818609E-02  0.8954070E-01
       -1   -1    0    0    0  501  0.00000000000E+00  0.00000000000E+00  0.61248803677E+03  0.61248803679E+03  0.50400001928E-02 0.  1.
        1   -1    0    0  501    0  0.00000000000E+00  0.00000000000E+00 -0.79961799331E+03  0.79961799332E+03  0.50400001928E-02 0. -1.
    10030    2    1    2    0    0  0.00000000000E+00  0.00000000000E+00 -0.18712995654E+03  0.14121060301E+04  0.13996520352E+04 0.  0.
        3    1    3    3  502    0 -0.13432911603E+03  0.62253834850E+03 -0.38624648798E+03  0.74483868485E+03  0.10100000352E+00 0. -1.
       -3    1    3    3    0  502  0.13432911603E+03 -0.62253834850E+03  0.19911653144E+03  0.66726734526E+03  0.10100000352E+00 0.  1.
</event>
<event>
 5   0  0.2363419E-05  0.1400984E+04  0.7818609E-02  0.8953106E-01
        1   -1    0    0  501    0  0.00000000000E+00  0.00000000000E+00  0.11716743954E+04  0.11716743954E+04  0.50400001928E-02 0.  1.
       -1   -1    0    0    0  501  0.00000000000E+00  0.00000000000E+00 -0.41879325869E+03  0.41879325872E+03  0.50400001928E-02 0. -1.
    10030    2    1    2    0    0  0.00000000000E+00  0.00000000000E+00  0.75288113673E+03  0.15904676542E+04  0.14009844228E+04 0.  0.
        2    1    3    3  502    0 -0.18414889319E+03 -0.79565697060E+02  0.11383683003E+04  0.11559082586E+04  0.25500000920E-02 0.  1.
       -2    1    3    3    0  502  0.18414889319E+03  0.79565697060E+02 -0.38548716359E+03  0.43455939561E+03  0.25500000920E-02 0. -1.
</event>
<event>
 5   0  0.4243281E-05  0.1400230E+04  0.7818609E-02  0.8953652E-01
       -2   -1    0    0    0  501  0.00000000000E+00  0.00000000000E+00  0.24442868993E+03  0.24442868994E+03  0.25500000920E-02 0.  1.
        2   -1    0    0  501    0  0.00000000000E+00  0.00000000000E+00 -0.20053336851E+04  0.20053336851E+04  0.25500000920E-02 0. -1.
    10030    2    1    2    0    0  0.00000000000E+00  0.00000000000E+00 -0.17609049952E+04  0.22497623750E+04  0.14002301033E+04 0.  0.
        2    1    3    3  502    0  0.37591130044E+03  0.53055746862E+03 -0.46344865341E+03  0.79848931593E+03  0.25500000920E-02 0.  1.
       -2    1    3    3    0  502 -0.37591130044E+03 -0.53055746862E+03 -0.12974563418E+04  0.14512730591E+04  0.25500000920E-02 0. -1.
</event>
<event>
 5   0  0.4621450E-05  0.1400018E+04  0.7818609E-02  0.8953805E-01
        2   -1    0    0  501    0  0.00000000000E+00  0.00000000000E+00  0.62000622041E+03  0.62000622041E+03  0.25500000920E-02 0. -1.
       -2   -1    0    0    0  501  0.00000000000E+00  0.00000000000E+00 -0.79033526312E+03  0.79033526313E+03  0.25500000920E-02 0.  1.
    10030    2    1    2    0    0  0.00000000000E+00  0.00000000000E+00 -0.17032904272E+03  0.14103414835E+04  0.14000182561E+04 0.  0.
        5    1    3    3  502    0 -0.19125363976E+03  0.46610321045E+03  0.40438230625E+03  0.64604744186E+03  0.46999998093E+01 0. -1.
       -5    1    3    3    0  502  0.19125363976E+03 -0.46610321045E+03 -0.57471134897E+03  0.76429404168E+03  0.46999998093E+01 0.  1.
</event>
<event>
 5   0  0.2428507E-05  0.1399886E+04  0.7818609E-02  0.8953901E-01
       -1   -1    0    0    0  501  0.00000000000E+00  0.00000000000E+00  0.48341085887E+03  0.48341085890E+03  0.50400001928E-02 0.  1.
        1   -1    0    0  501    0  0.00000000000E+00  0.00000000000E+00 -0.10134657776E+04  0.10134657776E+04  0.50400001928E-02 0. -1.
    10030    2    1    2    0    0  0.00000000000E+00  0.00000000000E+00 -0.53005491870E+03  0.14968766365E+04  0.13998862268E+04 0.  0.
        4    1    3    3  502    0 -0.39819504044E+03  0.38455465850E+03 -0.72304729843E+03  0.91062647901E+03  0.12699999809E+01 0. -1.
       -4    1    3    3    0  502  0.39819504044E+03 -0.38455465850E+03  0.19299237973E+03  0.58625015747E+03  0.12699999809E+01 0.  1.
</event>
<event>
 5   0  0.4621450E-05  0.1401091E+04  0.7818609E-02  0.8953029E-01
       -2   -1    0    0    0  501  0.00000000000E+00  0.00000000000E+00  0.41711552133E+03  0.41711552134E+03  0.25500000920E-02 0.  1.
        2   -1    0    0  501    0  0.00000000000E+00  0.00000000000E+00 -0.11765661174E+04  0.11765661174E+04  0.25500000920E-02 0. -1.
    10030    2    1    2    0    0  0.00000000000E+00  0.00000000000E+00 -0.75945059606E+03  0.15936816387E+04  0.14010909884E+04 0.  0.
        5    1    3    3  502    0  0.14526488811E+03  0.53006908434E+03 -0.87378899654E+03  0.10322811741E+04  0.46999998093E+01 0. -1.
       -5    1    3    3    0  502 -0.14526488811E+03 -0.53006908434E+03  0.11433840048E+03  0.56140046466E+03  0.46999998093E+01 0.  1.
</event>
<event>
 5   0  0.2467303E-05  0.1399759E+04  0.7818609E-02  0.8953993E-01
        1   -1    0    0  501    0  0.00000000000E+00  0.00000000000E+00  0.61359278118E+03  0.61359278121E+03  0.50400001928E-02 0. -1.
       -1   -1    0    0    0  501  0.00000000000E+00  0.00000000000E+00 -0.79830003836E+03  0.79830003837E+03  0.50400001928E-02 0.  1.
    10030    2    1    2    0    0  0.00000000000E+00  0.00000000000E+00 -0.18470725717E+03  0.14118928196E+04  0.13997587518E+04 0.  0.
        3    1    3    3  502    0  0.49993647112E+03  0.36075125166E+03 -0.42651566870E+03  0.74966230169E+03  0.10100000352E+00 0.  1.
       -3    1    3    3    0  502 -0.49993647112E+03 -0.36075125166E+03  0.24180841153E+03  0.66223051788E+03  0.10100000352E+00 0. -1.
</event>
<event>
 5   0  0.4243281E-05  0.1399891E+04  0.7818609E-02  0.8953897E-01
        2   -1    0    0  501    0  0.00000000000E+00  0.00000000000E+00  0.16175379276E+04  0.16175379276E+04  0.25500000920E-02 0. -1.
       -2   -1    0    0    0  501  0.00000000000E+00  0.00000000000E+00 -0.30288250067E+03  0.30288250068E+03  0.25500000920E-02 0.  1.
    10030    2    1    2    0    0  0.00000000000E+00  0.00000000000E+00  0.13146554269E+04  0.19204204282E+04  0.13998913278E+04 0.  0.
        2    1    3    3  502    0 -0.20760814764E+03 -0.86581240571E+01  0.15742514552E+04  0.15879054601E+04  0.25500000920E-02 0. -1.
       -2    1    3    3    0  502  0.20760814764E+03  0.86581240571E+01 -0.25959602833E+03  0.33251496810E+03  0.25500000920E-02 0.  1.
</event>
<event>
 5   0  0.4441253E-05  0.1399679E+04  0.7818609E-02  0.8954051E-01
        2   -1    0    0  501    0  0.00000000000E+00  0.00000000000E+00  0.59281799339E+03  0.59281799340E+03  0.25500000920E-02 0. -1.
       -2   -1    0    0    0  501  0.00000000000E+00  0.00000000000E+00 -0.82618147899E+03  0.82618147900E+03  0.25500000920E-02 0.  1.
    10030    2    1    2    0    0  0.00000000000E+00  0.00000000000E+00 -0.23336348560E+03  0.14189994724E+04  0.13996788868E+04 0.  0.
        3    1    3    3  502    0 -0.17279899890E+03  0.14800642830E+03  0.55427690643E+03  0.59915632020E+03  0.10100000352E+00 0. -1.
       -3    1    3    3    0  502  0.17279899890E+03 -0.14800642830E+03 -0.78764039203E+03  0.81984315219E+03  0.10100000352E+00 0.  1.
</event>
<event>
 5   0  0.4460282E-05  0.1400042E+04  0.7818609E-02  0.8953788E-01
        2   -1    0    0  501    0  0.00000000000E+00  0.00000000000E+00  0.56249013314E+03  0.56249013314E+03  0.25500000920E-02 0.  1.
       -2   -1    0    0    0  501  0.00000000000E+00  0.00000000000E+00 -0.87117831653E+03  0.87117831654E+03  0.25500000920E-02 0. -1.
    10030    2    1    2    0    0  0.00000000000E+00  0.00000000000E+00 -0.30868818340E+03  0.14336684497E+04  0.14000417240E+04 0.  0.
        1    1    3    3  502    0 -0.16090671867E+02  0.29666791308E+03 -0.80341218012E+03  0.85658735197E+03  0.50400001928E-02 0. -1.
       -1    1    3    3    0  502  0.16090671867E+02 -0.29666791308E+03  0.49472399672E+03  0.57708109771E+03  0.50400001928E-02 0.  1.
</event>
<event>
 5   0  0.2427569E-05  0.1399564E+04  0.7818609E-02  0.8954134E-01
       -1   -1    0    0    0  501  0.00000000000E+00  0.00000000000E+00  0.21278362099E+03  0.21278362105E+03  0.50400001928E-02 0.  1.
        1   -1    0    0  501    0  0.00000000000E+00  0.00000000000E+00 -0.23013760229E+04  0.23013760229E+04  0.50400001928E-02 0. -1.
    10030    2    1    2    0    0  0.00000000000E+00  0.00000000000E+00 -0.20885924019E+04  0.25141596440E+04  0.13995643944E+04 0.  0.
        1    1    3    3  502    0 -0.20705529775E+03  0.30336289838E+03 -0.21143071180E+04  0.21459719322E+04  0.50400001928E-02 0. -1.
       -1    1    3    3    0  502  0.20705529775E+03 -0.30336289838E+03  0.25714716102E+02  0.36818771176E+03  0.50400001928E-02 0.  1.
</event>
<event>
 5   0  0.4441253E-05  0.1399863E+04  0.7818609E-02  0.8953917E-01
       -2   -1    0    0    0  501  0.00000000000E+00  0.00000000000E+00  0.57347259376E+03  0.57347259376E+03  0.25500000920E-02 0. -1.
        2   -1    0    0  501    0  0.00000000000E+00  0.00000000000E+00 -0.85427682471E+03  0.85427682471E+03  0.25500000920E-02 0.  1.
    10030    2    1    2    0    0  0.00000000000E+00  0.00000000000E+00 -0.28080423095E+03  0.14277494185E+04  0.13998633454E+04 0.  0.
        3    1    3    3  502    0 -0.50383955538E+03 -0.30660384812E+03 -0.52479733569E+03  0.78947607373E+03  0.10100000352E+00 0.  1.
       -3    1    3    3    0  502  0.50383955538E+03  0.30660384812E+03  0.24399310474E+03  0.63827334474E+03  0.10100000352E+00 0. -1.
</event>
<event>
 5   0  0.2428507E-05  0.1401123E+04  0.7818609E-02  0.8953006E-01
        1   -1    0    0  501    0  0.00000000000E+00  0.00000000000E+00  0.87304620828E+03  0.87304620830E+03  0.50400001928E-02 0. -1.
       -1   -1    0    0    0  501  0.00000000000E+00  0.00000000000E+00 -0.56215399316E+03  0.56215399318E+03  0.50400001928E-02 0.  1.
    10030    2    1    2    0    0  0.00000000000E+00  0.00000000000E+00  0.31089221512E+03  0.14352002015E+04  0.14011229956E+04 0.  0.
        4    1    3    3  502    0 -0.82553756147E+02  0.30803097223E+03  0.79438505364E+03  0.85600667570E+03  0.12699999809E+01 0. -1.
       -4    1    3    3    0  502  0.82553756147E+02 -0.30803097223E+03 -0.48349283852E+03  0.57919352578E+03  0.12699999809E+01 0.  1.
</event>
<event>
 5   0  0.4621450E-05  0.1399866E+04  0.7818609E-02  0.8953915E-01
       -2   -1    0    0    0  501  0.00000000000E+00  0.00000000000E+00  0.39215275173E+03  0.39215275174E+03  0.25500000920E-02 0. -1.
        2   -1    0    0  501    0  0.00000000000E+00  0.00000000000E+00 -0.12492746880E+04  0.12492746880E+04  0.25500000920E-02 0.  1.
    10030    2    1    2    0    0  0.00000000000E+00  0.00000000000E+00 -0.85712193627E+03  0.16414274397E+04  0.13998664316E+04 0.  0.
        5    1    3    3  502    0 -0.16395788494E+03 -0.61176249815E+03 -0.77787539022E+03  0.10031190133E+04  0.46999998093E+01 0.  1.
       -5    1    3    3    0  502  0.16395788494E+03  0.61176249815E+03 -0.79246546048E+02  0.63830842642E+03  0.46999998093E+01 0. -1.
</event>
<event>
 5   0  0.2428507E-05  0.1400194E+04  0.7818609E-02  0.8953678E-01
        1   -1    0    0  501    0  0.00000000000E+00  0.00000000000E+00  0.10984109117E+04  0.10984109117E+04  0.50400001928E-02 0. -1.
       -1   -1    0    0    0  501  0.00000000000E+00  0.00000000000E+00 -0.44622240844E+03  0.44622240846E+03  0.50400001928E-02 0.  1.
    10030    2    1    2    0    0  0.00000000000E+00  0.00000000000E+00  0.65218850328E+03  0.15446333202E+04  0.14001936473E+04 0.  0.
        4    1    3    3  502    0 -0.19196068907E+03  0.15354441126E+03 -0.39704943747E+03  0.46698464758E+03  0.12699999809E+01 0.  1.
       -4    1    3    3    0  502  0.19196068907E+03 -0.15354441126E+03  0.10492379408E+04  0.10776486726E+04  0.12699999809E+01 0. -1.
</event>
<event>
 5   0  0.2467303E-05  0.1400256E+04  0.7818609E-02  0.8953633E-01
       -1   -1    0    0    0  501  0.00000000000E+00  0.00000000000E+00  0.29293301369E+03  0.29293301374E+03  0.50400001928E-02 0. -1.
        1   -1    0    0  501    0  0.00000000000E+00  0.00000000000E+00 -0.16733499584E+04  0.16733499584E+04  0.50400001928E-02 0.  1.
    10030    2    1    2    0    0  0.00000000000E+00  0.00000000000E+00 -0.13804169447E+04  0.19662829721E+04  0.14002563284E+04 0.  0.
        3    1    3    3  502    0  0.32306436636E+03  0.14289491333E+03  0.15861374905E+03  0.38723103266E+03  0.10100000352E+00 0. -1.
       -3    1    3    3    0  502 -0.32306436636E+03 -0.14289491333E+03 -0.15390306937E+04  0.15790519395E+04  0.10100000352E+00 0.  1.
</event>
<event>
 5   0  0.4460282E-05  0.1399441E+04  0.7818609E-02  0.8954223E-01
       -2   -1    0    0    0  501  0.00000000000E+00  0.00000000000E+00  0.62966439118E+03  0.62966439118E+03  0.25500000920E-02 0.  1.
        2   -1    0    0  501    0  0.00000000000E+00  0.00000000000E+00 -0.77757100811E+03  0.77757100811E+03  0.25500000920E-02 0. -1.
    10030    2    1    2    0    0  0.00000000000E+00  0.00000000000E+00 -0.14790661693E+03  0.14072353993E+04  0.13994409961E+04 0.  0.
        1    1    3    3  502    0  0.36555843589E+03  0.13540393141E+03 -0.65825900649E+03  0.76503079307E+03  0.50400001928E-02 0. -1.
       -1    1    3    3    0  502 -0.36555843589E+03 -0.13540393141E+03  0.51035238956E+03  0.64220460622E+03  0.50400001928E-02 0.  1.
</event>
<event>
 5   0  0.4527503E-05  0.1399130E+04  0.7818609E-02  0.8954449E-01
        2   -1    0    0  501    0  0.00000000000E+00  0.00000000000E+00  0.10018470436E+04  0.10018470436E+04  0.25500000920E-02 0.  1.
       -2   -1    0    0    0  501  0.00000000000E+00  0.00000000000E+00 -0.48848894652E+03  0.48848894652E+03  0.25500000920E-02 0. -1.
    10030    2    1    2    0    0  0.00000000000E+00  0.00000000000E+00  0.51335809712E+03  0.14903359902E+04  0.13991300253E+04 0.  0.
        4    1    3    3  502    0  0.52273589332E+03 -0.12725541309E+02 -0.23834659113E+03  0.57465247235E+03  0.12699999809E+01 0. -1.
       -4    1    3    3    0  502 -0.52273589332E+03  0.12725541309E+02  0.75170468825E+03  0.91568351782E+03  0.12699999809E+01 0.  1.
</event>
<event>
 5   0  0.4441253E-05  0.1400723E+04  0.7818609E-02  0.8953295E-01
        2   -1    0    0  501    0  0.00000000000E+00  0.00000000000E+00  0.90909754071E+03  0.90909754072E+03  0.25500000920E-02 0. -1.
       -2   -1    0    0    0  501  0.00000000000E+00  0.00000000000E+00 -0.53955317565E+03  0.53955317565E+03  0.25500000920E-02 0.  1.
    10030    2    1    2    0    0  0.00000000000E+00  0.00000000000E+00  0.36954436507E+03  0.14486507164E+04  0.14007233347E+04 0.  0.
        3    1    3    3  502    0 -0.20694126363E+03 -0.24001574667E+03  0.83070141629E+03  0.88909903749E+03  0.10100000352E+00 0. -1.
       -3    1    3    3    0  502  0.20694126363E+03  0.24001574667E+03 -0.46115705122E+03  0.55955167888E+03  0.10100000352E+00 0.  1.
</event>
<event>
 5   0  0.2363419E-05  0.1401599E+04  0.7818609E-02  0.8952662E-01
       -1   -1    0    0    0  501  0.00000000000E+00  0.00000000000E+00  0.66843200582E+03  0.66843200584E+03  0.50400001928E-02 0. -1.
        1   -1    0    0  501    0  0.00000000000E+00  0.00000000000E+00 -0.73473407942E+03  0.73473407944E+03  0.50400001928E-02 0.  1.
    10030    2    1    2    0    0  0.00000000000E+00  0.00000000000E+00 -0.66302073604E+02  0.14031660853E+04  0.14015987649E+04 0.  0.
        2    1    3    3  502    0  0.42682166851E+03  0.55092534453E+03  0.40581185539E+02  0.69809906502E+03  0.25500000920E-02 0.  1.
       -2    1    3    3    0  502 -0.42682166851E+03 -0.55092534453E+03 -0.10688325914E+03  0.70506702025E+03  0.25500000920E-02 0. -1.
</event>
<event>
 5   0  0.2363419E-05  0.1400093E+04  0.7818609E-02  0.8953751E-01
        1   -1    0    0  501    0  0.00000000000E+00  0.00000000000E+00  0.96816691922E+03  0.96816691923E+03  0.50400001928E-02 0.  1.
       -1   -1    0    0    0  501  0.00000000000E+00  0.00000000000E+00 -0.50617862881E+03  0.50617862883E+03  0.50400001928E-02 0. -1.
    10030    2    1    2    0    0  0.00000000000E+00  0.00000000000E+00  0.46198829041E+03  0.14743455481E+04  0.14000934307E+04 0.  0.
        2    1    3    3  502    0 -0.20820889708E+03 -0.60646032576E+03  0.52682040109E+03  0.82987035527E+03  0.25500000920E-02 0. -1.
       -2    1    3    3    0  502  0.20820889708E+03  0.60646032576E+03 -0.64832110676E+02  0.64447519279E+03  0.25500000920E-02 0.  1.
</event>
<event>
 5   0  0.4621450E-05  0.1399821E+04  0.7818609E-02  0.8953948E-01
        2   -1    0    0  501    0  0.00000000000E+00  0.00000000000E+00  0.11523004139E+04  0.11523004139E+04  0.25500000920E-02 0.  1.
       -2   -1    0    0    0  501  0.00000000000E+00  0.00000000000E+00 -0.42512735594E+03  0.42512735595E+03  0.25500000920E-02 0. -1.
    10030    2    1    2    0    0  0.00000000000E+00  0.00000000000E+00  0.72717305792E+03  0.15774277698E+04  0.13998206002E+04 0.  0.
        5    1    3    3  502    0  0.16891693087E+03  0.62333215496E+03  0.59587297803E+02  0.64857431417E+03  0.46999998093E+01 0. -1.
       -5    1    3    3    0  502 -0.16891693087E+03 -0.62333215496E+03  0.66758576012E+03  0.92885345564E+03  0.46999998093E+01 0.  1.
</event>
<event>
 5   0  0.2427569E-05  0.1400060E+04  0.7818609E-02  0.8953775E-01
       -1   -1    0    0    0  501  0.00000000000E+00  0.00000000000E+00  0.58628519804E+03  0.58628519806E+03  0.50400001928E-02 0.  1.
        1   -1    0    0  501    0  0.00000000000E+00  0.00000000000E+00 -0.83584206637E+03  0.83584206638E+03  0.50400001928E-02 0. -1.
    10030    2    1    2    0    0  0.00000000000E+00  0.00000000000E+00 -0.24955686832E+03  0.14221272644E+04  0.14000597579E+04 0.  0.
        1    1    3    3  502    0  0.58469249039E+03 -0.10885726733E+03  0.25026556496E+03  0.64525039016E+03  0.50400001928E-02 0.  1.
       -1    1    3    3    0  502 -0.58469249039E+03  0.10885726733E+03 -0.49982243328E+03  0.77687687429E+03  0.50400001928E-02 0. -1.
</event>
<event>
 5   0  0.4441253E-05  0.1400049E+04  0.7818609E-02  0.8953783E-01
        2   -1    0    0  501    0  0.00000000000E+00  0.00000000000E+00  0.20801793143E+04  0.20801793143E+04  0.25500000920E-02 0.  1.
       -2   -1    0    0    0  501  0.00000000000E+00  0.00000000000E+00 -0.23557308296E+03  0.23557308297E+03  0.25500000920E-02 0. -1.
    10030    2    1    2    0    0  0.00000000000E+00  0.00000000000E+00  0.18446062313E+04  0.23157523973E+04  0.14000489337E+04 0.  0.
        3    1    3    3  502    0 -0.21822816595E+03 -0.18109965236E+03 -0.13630716071E+03  0.31464308154E+03  0.10100000352E+00 0. -1.
       -3    1    3    3    0  502  0.21822816595E+03  0.18109965236E+03  0.19809133920E+04  0.20011093157E+04  0.10100000352E+00 0.  1.
</event>
<event>
 5   0  0.2363419E-05  0.1401362E+04  0.7818609E-02  0.8952833E-01
        1   -1    0    0  501    0  0.00000000000E+00  0.00000000000E+00  0.73707469753E+03  0.73707469755E+03  0.50400001928E-02 0. -1.
       -1   -1    0    0    0  501  0.00000000000E+00  0.00000000000E+00 -0.66608453850E+03  0.66608453852E+03  0.50400001928E-02 0.  1.
    10030    2    1    2    0    0  0.00000000000E+00  0.00000000000E+00  0.70990159035E+02  0.14031592361E+04  0.14013622797E+04 0.  0.
        2    1    3    3  502    0 -0.67790970042E+03  0.17717259953E+03  0.37035823543E+02  0.70165756903E+03  0.25500000920E-02 0. -1.
       -2    1    3    3    0  502  0.67790970042E+03 -0.17717259953E+03  0.33954335492E+02  0.70150166703E+03  0.25500000920E-02 0.  1.
</event>
<event>
 5   0  0.2428507E-05  0.1400291E+04  0.7818609E-02  0.8953608E-01
        1   -1    0    0  501    0  0.00000000000E+00  0.00000000000E+00  0.14851695889E+04  0.14851695889E+04  0.50400001928E-02 0.  1.
       -1   -1    0    0    0  501  0.00000000000E+00  0.00000000000E+00 -0.33006595518E+03  0.33006595522E+03  0.50400001928E-02 0. -1.
    10030    2    1    2    0    0  0.00000000000E+00  0.00000000000E+00  0.11551036337E+04  0.18152355441E+04  0.14002912825E+04 0.  0.
        4    1    3    3  502    0 -0.53918446819E+03 -0.44663431197E+03  0.57696240838E+03  0.90724270895E+03  0.12699999809E+01 0. -1.
       -4    1    3    3    0  502  0.53918446819E+03  0.44663431197E+03  0.57814122530E+03  0.90799283513E+03  0.12699999809E+01 0.  1.
</event>
<event>
 5   0  0.1661000E-05  0.1400548E+04  0.7818609E-02  0.8953422E-01
        3   -1    0    0  501    0  0.00000000000E+00  0.00000000000E+00  0.48170488687E+03  0.48170489746E+03  0.10100000352E+00 0.  1.
       -3   -1    0    0    0  501  0.00000000000E+00  0.00000000000E+00 -0.10180166921E+04  0.10180166971E+04  0.10100000352E+00 0. -1.
    10030    2    1    2    0    0  0.00000000000E+00  0.00000000000E+00 -0.53631180525E+03  0.14997215946E+04  0.14005479317E+04 0.  0.
        2    1    3    3  502    0 -0.21100025716E+03  0.63182550203E+03 -0.49945856495E+03  0.83257638187E+03  0.25500000920E-02 0.  1.
       -2    1    3    3    0  502  0.21100025716E+03 -0.63182550203E+03 -0.36853240300E+02  0.66714521273E+03  0.25500000920E-02 0. -1.
</event>
<event>
 5   0  0.4527503E-05  0.1399986E+04  0.7818609E-02  0.8953829E-01
        2   -1    0    0  501    0  0.00000000000E+00  0.00000000000E+00  0.49074847205E+03  0.49074847205E+03  0.25500000920E-02 0. -1.
       -2   -1    0    0    0  501  0.00000000000E+00  0.00000000000E+00 -0.99845510103E+03  0.99845510103E+03  0.25500000920E-02 0.  1.
    10030    2    1    2    0    0  0.00000000000E+00  0.00000000000E+00 -0.50770662898E+03  0.14892035731E+04  0.13999861646E+04 0.  0.
        4    1    3    3  502    0 -0.23968959175E+03 -0.53759395237E+03 -0.65685066338E+03  0.88199363088E+03  0.12699999809E+01 0.  1.
       -4    1    3    3    0  502  0.23968959175E+03  0.53759395237E+03  0.14914403440E+03  0.60720994221E+03  0.12699999809E+01 0. -1.
</event>
<event>
 5   0  0.2316714E-05  0.1398847E+04  0.7818609E-02  0.8954654E-01
       -1   -1    0    0    0  501  0.00000000000E+00  0.00000000000E+00  0.61010337050E+03  0.61010337052E+03  0.50400001928E-02 0.  1.
        1   -1    0    0  501    0  0.00000000000E+00  0.00000000000E+00 -0.80181976009E+03  0.80181976011E+03  0.50400001928E-02 0. -1.
    10030    2    1    2    0    0  0.00000000000E+00  0.00000000000E+00 -0.19171638959E+03  0.14119231306E+04  0.13988465794E+04 0.  0.
        5    1    3    3  502    0 -0.13004496440E+03 -0.41380733559E+03  0.45792599298E+03  0.63076660406E+03  0.46999998093E+01 0.  1.
       -5    1    3    3    0  502  0.13004496440E+03  0.41380733559E+03 -0.64964238258E+03  0.78115652656E+03  0.46999998093E+01 0. -1.
</event>
<event>
 5   0  0.4243281E-05  0.1400229E+04  0.7818609E-02  0.8953653E-01
       -2   -1    0    0    0  501  0.00000000000E+00  0.00000000000E+00  0.65769182338E+03  0.65769182339E+03  0.25500000920E-02 0. -1.
        2   -1    0    0  501    0  0.00000000000E+00  0.00000000000E+00 -0.74527314635E+03  0.74527314636E+03  0.25500000920E-02 0.  1.
    10030    2    1    2    0    0  0.00000000000E+00  0.00000000000E+00 -0.87581322971E+02  0.14029649697E+04  0.14002286307E+04 0.  0.
        2    1    3    3  502    0  0.67270588409E+03 -0.39985627208E+02 -0.23397201629E+03  0.71335472332E+03  0.25500000920E-02 0.  1.
       -2    1    3    3    0  502 -0.67270588409E+03  0.39985627208E+02  0.14639069332E+03  0.68961024642E+03  0.25500000920E-02 0. -1.
</event>
<event>
 5   0  0.2363419E-05  0.1399728E+04  0.7818609E-02  0.8954016E-01
       -1   -1    0    0    0  501  0.00000000000E+00  0.00000000000E+00  0.50562479177E+03  0.50562479179E+03  0.50400001928E-02 0. -1.
        1   -1    0    0  501    0  0.00000000000E+00  0.00000000000E+00 -0.96872107463E+03  0.96872107465E+03  0.50400001928E-02 0.  1.
    10030    2    1    2    0    0  0.00000000000E+00  0.00000000000E+00 -0.46309628286E+03  0.14743458664E+04  0.13997276759E+04 0.  0.
        2    1    3    3  502    0  0.23666153471E+03 -0.19261569358E+03 -0.89496556692E+03  0.94555425725E+03  0.25500000920E-02 0.  1.
       -2    1    3    3    0  502 -0.23666153471E+03  0.19261569358E+03  0.43186928406E+03  0.52879160919E+03  0.25500000920E-02 0. -1.
</event>
<event>
 5   0  0.2427569E-05  0.1400606E+04  0.7818609E-02  0.8953380E-01
        1   -1    0    0  501    0  0.00000000000E+00  0.00000000000E+00  0.49818574121E+03  0.49818574124E+03  0.50400001928E-02 0. -1.
       -1   -1    0    0    0  501  0.00000000000E+00  0.00000000000E+00 -0.98442087501E+03  0.98442087502E+03  0.50400001928E-02 0.  1.
    10030    2    1    2    0    0  0.00000000000E+00  0.00000000000E+00 -0.48623513379E+03  0.14826066163E+04  0.14006062163E+04 0.  0.
        1    1    3    3  502    0  0.62646699186E+03  0.30503910306E+03 -0.31732685371E+03  0.76564095920E+03  0.50400001928E-02 0. -1.
       -1    1    3    3    0  502 -0.62646699186E+03 -0.30503910306E+03 -0.16890828009E+03  0.71696565706E+03  0.50400001928E-02 0.  1.
</event>
<event>
 5   0  0.4243281E-05  0.1399857E+04  0.7818609E-02  0.8953922E-01
       -2   -1    0    0    0  501  0.00000000000E+00  0.00000000000E+00  0.42855160621E+03  0.42855160622E+03  0.25500000920E-02 0.  1.
        2   -1    0    0  501    0  0.00000000000E+00  0.00000000000E+00 -0.11431527393E+04  0.11431527393E+04  0.25500000920E-02 0. -1.
    10030    2    1    2    0    0  0.00000000000E+00  0.00000000000E+00 -0.71460113304E+03  0.15717043455E+04  0.13998570535E+04 0.  0.
        2    1    3    3  502    0 -0.17075902079E+03 -0.34457812839E+02 -0.11184245721E+04  0.11319096729E+04  0.25500000920E-02 0. -1.
       -2    1    3    3    0  502  0.17075902079E+03  0.34457812839E+02  0.40382343910E+03  0.43979467257E+03  0.25500000920E-02 0.  1.
</event>
<event>
 5   0  0.4527503E-05  0.1399766E+04  0.7818609E-02  0.8953988E-01
        2   -1    0    0  501    0  0.00000000000E+00  0.00000000000E+00  0.85502199740E+03  0.85502199740E+03  0.25500000920E-02 0. -1.
       -2   -1    0    0    0  501  0.00000000000E+00  0.00000000000E+00 -0.57289306612E+03  0.57289306613E+03  0.25500000920E-02 0.  1.
    10030    2    1    2    0    0  0.00000000000E+00  0.00000000000E+00  0.28212893127E+03  0.14279150635E+04  0.13997659429E+04 0.  0.
        4    1    3    3  502    0 -0.11850242190E+03  0.24829762788E+03  0.79754303782E+03  0.84366524527E+03  0.12699999809E+01 0. -1.
       -4    1    3    3    0  502  0.11850242190E+03 -0.24829762788E+03 -0.51541410655E+03  0.58424981826E+03  0.12699999809E+01 0.  1.
</event>
<event>
 5   0  0.2363419E-05  0.1399259E+04  0.7818609E-02  0.8954355E-01
        1   -1    0    0  501    0  0.00000000000E+00  0.00000000000E+00  0.61965034627E+03  0.61965034629E+03  0.50400001928E-02 0. -1.
       -1   -1    0    0    0  501  0.00000000000E+00  0.00000000000E+00 -0.78993173501E+03  0.78993173503E+03  0.50400001928E-02 0.  1.
    10030    2    1    2    0    0  0.00000000000E+00  0.00000000000E+00 -0.17028138874E+03  0.14095820813E+04  0.13992590513E+04 0.  0.
        2    1    3    3  502    0 -0.10567427080E+03  0.19112610707E+03 -0.75471355591E+03  0.78567728222E+03  0.25500000920E-02 0.  1.
       -2    1    3    3    0  502  0.10567427080E+03 -0.19112610707E+03  0.58443216717E+03  0.62390479910E+03  0.25500000920E-02 0. -1.
</event>
<event>
 5   0  0.2427569E-05  0.1400038E+04  0.7818609E-02  0.8953791E-01
        1   -1    0    0  501    0  0.00000000000E+00  0.00000000000E+00  0.57121377450E+03  0.57121377453E+03  0.50400001928E-02 0. -1.
       -1   -1    0    0    0  501  0.00000000000E+00  0.00000000000E+00 -0.85786863089E+03  0.85786863090E+03  0.50400001928E-02 0.  1.
    10030    2    1    2    0    0  0.00000000000E+00  0.00000000000E+00 -0.28665485638E+03  0.14290824054E+04  0.14000376834E+04 0.  0.
        1    1    3    3  502    0 -0.26761773610E+03 -0.52341690453E+03  0.24461215806E+03  0.63672569959E+03  0.50400001928E-02 0. -1.
       -1    1    3    3    0  502  0.26761773610E+03  0.52341690453E+03 -0.53126701445E+03  0.79235670584E+03  0.50400001928E-02 0.  1.
</event>
<event>
 5   0  0.2428507E-05  0.1400212E+04  0.7818609E-02  0.8953665E-01
        1   -1    0    0  501    0  0.00000000000E+00  0.00000000000E+00  0.17476950966E+04  0.17476950966E+04  0.50400001928E-02 0. -1.
       -1   -1    0    0    0  501  0.00000000000E+00  0.00000000000E+00 -0.28045426565E+03  0.28045426569E+03  0.50400001928E-02 0.  1.
    10030    2    1    2    0    0  0.00000000000E+00  0.00000000000E+00  0.14672408310E+04  0.20281493623E+04  0.14002121910E+04 0.  0.
        4    1    3    3  502    0 -0.93203926501E+02 -0.68186843303E+03  0.54747573428E+03  0.87941049824E+03  0.12699999809E+01 0.  1.
       -4    1    3    3    0  502  0.93203926501E+02  0.68186843303E+03  0.91976509670E+03  0.11487388641E+04  0.12699999809E+01 0. -1.
</event>
<event>
 5   0  0.4527503E-05  0.1400786E+04  0.7818609E-02  0.8953250E-01
       -2   -1    0    0    0  501  0.00000000000E+00  0.00000000000E+00  0.31063746509E+03  0.31063746510E+03  0.25500000920E-02 0. -1.
        2   -1    0    0  501    0  0.00000000000E+00  0.00000000000E+00 -0.15791727398E+04  0.15791727398E+04  0.25500000920E-02 0.  1.
    10030    2    1    2    0    0  0.00000000000E+00  0.00000000000E+00 -0.12685352748E+04  0.18898102049E+04  0.14007858035E+04 0.  0.
        4    1    3    3  502    0 -0.42576979408E+03  0.93054418295E+02  0.10541913655E+03  0.44839028710E+03  0.12699999809E+01 0. -1.
       -4    1    3    3    0  502  0.42576979408E+03 -0.93054418295E+02 -0.13739544113E+04  0.14414199178E+04  0.12699999809E+01 0.  1.
</event>
<event>
 5   0  0.2467303E-05  0.1399854E+04  0.7818609E-02  0.8953924E-01
       -1   -1    0    0    0  501  0.00000000000E+00  0.00000000000E+00  0.58977109230E+03  0.58977109232E+03  0.50400001928E-02 0. -1.
        1   -1    0    0  501    0  0.00000000000E+00  0.00000000000E+00 -0.83065769483E+03  0.83065769485E+03  0.50400001928E-02 0.  1.
    10030    2    1    2    0    0  0.00000000000E+00  0.00000000000E+00 -0.24088660253E+03  0.14204287872E+04  0.13998541296E+04 0.  0.
        3    1    3    3  502    0 -0.33424327212E+03  0.18524416506E+03 -0.71546114193E+03  0.81112182899E+03  0.10100000352E+00 0.  1.
       -3    1    3    3    0  502  0.33424327212E+03 -0.18524416506E+03  0.47457453940E+03  0.60930695819E+03  0.10100000352E+00 0. -1.
</event>
<event>
 5   0  0.2427569E-05  0.1402216E+04  0.7818609E-02  0.8952216E-01
        1   -1    0    0  501    0  0.00000000000E+00  0.00000000000E+00  0.10017281044E+04  0.10017281044E+04  0.50400001928E-02 0. -1.
       -1   -1    0    0    0  501  0.00000000000E+00  0.00000000000E+00 -0.49070461066E+03  0.49070461068E+03  0.50400001928E-02 0.  1.
    10030    2    1    2    0    0  0.00000000000E+00  0.00000000000E+00  0.51102349378E+03  0.14924327151E+04  0.14022162451E+04 0.  0.
        1    1    3    3  502    0  0.16796702850E+03  0.26719388373E+03 -0.41082458989E+03  0.51805630760E+03  0.50400001928E-02 0.  1.
       -1    1    3    3    0  502 -0.16796702850E+03 -0.26719388373E+03  0.92184808367E+03  0.97437640753E+03  0.50400001928E-02 0. -1.
</event>
<event>
 5   0  0.2427569E-05  0.1400047E+04  0.7818609E-02  0.8953785E-01
       -1   -1    0    0    0  501  0.00000000000E+00  0.00000000000E+00  0.34746677999E+03  0.34746678003E+03  0.50400001928E-02 0. -1.
        1   -1    0    0  501    0  0.00000000000E+00  0.00000000000E+00 -0.14103012633E+04  0.14103012633E+04  0.50400001928E-02 0.  1.
    10030    2    1    2    0    0  0.00000000000E+00  0.00000000000E+00 -0.10628344833E+04  0.17577680433E+04  0.14000469118E+04 0.  0.
        1    1    3    3  502    0  0.61250729544E+03  0.32343946585E+03 -0.65855588461E+03  0.95575840473E+03  0.50400001928E-02 0. -1.
       -1    1    3    3    0  502 -0.61250729544E+03 -0.32343946585E+03 -0.40427859871E+03  0.80200963861E+03  0.50400001928E-02 0.  1.
</event>
<event>
 5   0  0.4527503E-05  0.1400122E+04  0.7818609E-02  0.8953730E-01
       -2   -1    0    0    0  501  0.00000000000E+00  0.00000000000E+00  0.42166526689E+03  0.42166526690E+03  0.25500000920E-02 0. -1.
        2   -1    0    0  501    0  0.00000000000E+00  0.00000000000E+00 -0.11622613007E+04  0.11622613007E+04  0.25500000920E-02 0.  1.
    10030    2    1    2    0    0  0.00000000000E+00  0.00000000000E+00 -0.74059603385E+03  0.15839265677E+04  0.14001217398E+04 0.  0.
        4    1    3    3  502    0 -0.46209423860E+02 -0.41321408128E+03  0.26684582654E+03  0.49405414264E+03  0.12699999809E+01 0. -1.
       -4    1    3    3    0  502  0.46209423860E+02  0.41321408128E+03 -0.10074418604E+04  0.10898724250E+04  0.12699999809E+01 0.  1.
</event>
<event>
 5   0  0.4441253E-05  0.1400287E+04  0.7818609E-02  0.8953611E-01
       -2   -1    0    0    0  501  0.00000000000E+00  0.00000000000E+00  0.26250130243E+03  0.26250130244E+03  0.25500000920E-02 0.  1.
        2   -1    0    0  501    0  0.00000000000E+00  0.00000000000E+00 -0.18674237847E+04  0.18674237847E+04  0.25500000920E-02 0. -1.
    10030    2    1    2    0    0  0.00000000000E+00  0.00000000000E+00 -0.16049224823E+04  0.21299250871E+04  0.14002873643E+04 0.  0.
        3    1    3    3  502    0 -0.65954748325E+03  0.13564436994E+03 -0.51067520450E+03  0.84509848683E+03  0.10100000352E+00 0.  1.
       -3    1    3    3    0  502  0.65954748325E+03 -0.13564436994E+03 -0.10942472778E+04  0.12848266003E+04  0.10100000352E+00 0. -1.
</event>
<event>
 5   0  0.4621450E-05  0.1399578E+04  0.7818609E-02  0.8954124E-01
       -2   -1    0    0    0  501  0.00000000000E+00  0.00000000000E+00  0.54262462620E+03  0.54262462621E+03  0.25500000920E-02 0. -1.
        2   -1    0    0  501    0  0.00000000000E+00  0.00000000000E+00 -0.90247402220E+03  0.90247402221E+03  0.25500000920E-02 0.  1.
    10030    2    1    2    0    0  0.00000000000E+00  0.00000000000E+00 -0.35984939600E+03  0.14450986484E+04  0.13995779778E+04 0.  0.
        5    1    3    3  502    0 -0.28138020177E+03  0.71117320911E+02  0.47753490397E+03  0.55883286033E+03  0.46999998093E+01 0. -1.
       -5    1    3    3    0  502  0.28138020177E+03 -0.71117320911E+02 -0.83738429997E+03  0.88626578808E+03  0.46999998093E+01 0.  1.
</event>
<event>
 5   0  0.4441253E-05  0.1399823E+04  0.7818609E-02  0.8953947E-01
       -2   -1    0    0    0  501  0.00000000000E+00  0.00000000000E+00  0.45784698984E+03  0.45784698985E+03  0.25500000920E-02 0.  1.
        2   -1    0    0  501    0  0.00000000000E+00  0.00000000000E+00 -0.10699559760E+04  0.10699559761E+04  0.25500000920E-02 0. -1.
    10030    2    1    2    0    0  0.00000000000E+00  0.00000000000E+00 -0.61210898621E+03  0.15278029659E+04  0.13998230215E+04 0.  0.
        3    1    3    3  502    0 -0.53259985097E+03 -0.28571047515E+03 -0.69128766087E+03  0.91824382227E+03  0.10100000352E+00 0. -1.
       -3    1    3    3    0  502  0.53259985097E+03  0.28571047515E+03  0.79178674662E+02  0.60955914363E+03  0.10100000352E+00 0.  1.
</event>
<event>
 5   0  0.2316714E-05  0.1400017E+04  0.7818609E-02  0.8953807E-01
        1   -1    0    0  501    0  0.00000000000E+00  0.00000000000E+00  0.14813498926E+04  0.14813498926E+04  0.50400001928E-02 0.  1.
       -1   -1    0    0    0  501  0.00000000000E+00  0.00000000000E+00 -0.33078722706E+03  0.33078722709E+03  0.50400001928E-02 0. -1.
    10030    2    1    2    0    0  0.00000000000E+00  0.00000000000E+00  0.11505626655E+04  0.18121371197E+04  0.14000166046E+04 0.  0.
        5    1    3    3  502    0 -0.27753235855E+03  0.46185955718E+03  0.11536352666E+04  0.12732772200E+04  0.46999998093E+01 0.  1.
       -5    1    3    3    0  502  0.27753235855E+03 -0.46185955718E+03 -0.30726010986E+01  0.53885989967E+03  0.46999998093E+01 0. -1.
</event>
<event>
 5   0  0.4621450E-05  0.1393953E+04  0.7818609E-02  0.8958207E-01
        2   -1    0    0  501    0  0.00000000000E+00  0.00000000000E+00  0.15470392014E+04  0.15470392014E+04  0.25500000920E-02 0. -1.
       -2   -1    0    0    0  501  0.00000000000E+00  0.00000000000E+00 -0.31400382243E+03  0.31400382244E+03  0.25500000920E-02 0.  1.
    10030    2    1    2    0    0  0.00000000000E+00  0.00000000000E+00  0.12330353789E+04  0.18610430238E+04  0.13939529729E+04 0.  0.
        5    1    3    3  502    0 -0.50296189982E+03 -0.20984537836E+03  0.11965469517E+04  0.13148203121E+04  0.46999998093E+01 0.  1.
       -5    1    3    3    0  502  0.50296189982E+03  0.20984537836E+03  0.36488427267E+02  0.54622271174E+03  0.46999998093E+01 0. -1.
</event>
<event>
 5   0  0.4243281E-05  0.1400141E+04  0.7818609E-02  0.8953716E-01
        2   -1    0    0  501    0  0.00000000000E+00  0.00000000000E+00  0.12050081953E+04  0.12050081953E+04  0.25500000920E-02 0. -1.
       -2   -1    0    0    0  501  0.00000000000E+00  0.00000000000E+00 -0.40671833401E+03  0.40671833401E+03  0.25500000920E-02 0.  1.
    10030    2    1    2    0    0  0.00000000000E+00  0.00000000000E+00  0.79828986132E+03  0.16117265293E+04  0.14001413153E+04 0.  0.
        2    1    3    3  502    0  0.25879580182E+03  0.39156856856E+03 -0.19876892420E+03  0.50971589749E+03  0.25500000920E-02 0.  1.
       -2    1    3    3    0  502 -0.25879580182E+03 -0.39156856856E+03  0.99705878552E+03  0.11020106318E+04  0.25500000920E-02 0. -1.
</event>
<event>
 5   0  0.4621450E-05  0.1399587E+04  0.7818609E-02  0.8954118E-01
        2   -1    0    0  501    0  0.00000000000E+00  0.00000000000E+00  0.10216390020E+04  0.10216390020E+04  0.25500000920E-02 0. -1.
       -2   -1    0    0    0  501  0.00000000000E+00  0.00000000000E+00 -0.47933850487E+03  0.47933850488E+03  0.25500000920E-02 0.  1.
    10030    2    1    2    0    0  0.00000000000E+00  0.00000000000E+00  0.54230049716E+03  0.15009775069E+04  0.13995869559E+04 0.  0.
        5    1    3    3  502    0 -0.10793177694E+03  0.61833192714E+03 -0.60623502311E+02  0.63061948878E+03  0.46999998093E+01 0.  1.
       -5    1    3    3    0  502  0.10793177694E+03 -0.61833192714E+03  0.60292399947E+03  0.87035801813E+03  0.46999998093E+01 0. -1.
</event>
<event>
 5   0  0.2427569E-05  0.1400888E+04  0.7818609E-02  0.8953176E-01
        1   -1    0    0  501    0  0.00000000000E+00  0.00000000000E+00  0.92279465518E+03  0.92279465519E+03  0.50400001928E-02 0. -1.
       -1   -1    0    0    0  501  0.00000000000E+00  0.00000000000E+00 -0.53166950999E+03  0.53166951001E+03  0.50400001928E-02 0.  1.
    10030    2    1    2    0    0  0.00000000000E+00  0.00000000000E+00  0.39112514519E+03  0.14544641652E+04  0.14008879786E+04 0.  0.
        1    1    3    3  502    0  0.47642583573E+03 -0.12316579524E+03 -0.32196910751E+03  0.58806079302E+03  0.50400001928E-02 0.  1.
       -1    1    3    3    0  502 -0.47642583573E+03  0.12316579524E+03  0.71309425270E+03  0.86640337218E+03  0.50400001928E-02 0. -1.
</event>
<event>
 5   0  0.4243281E-05  0.1399962E+04  0.7818609E-02  0.8953846E-01
        2   -1    0    0  501    0  0.00000000000E+00  0.00000000000E+00  0.12975538668E+04  0.12975538668E+04  0.25500000920E-02 0. -1.
       -2   -1    0    0    0  501  0.00000000000E+00  0.00000000000E+00 -0.37761289668E+03  0.37761289668E+03  0.25500000920E-02 0.  1.
    10030    2    1    2    0    0  0.00000000000E+00  0.00000000000E+00  0.91994097016E+03  0.16751667635E+04  0.13999615341E+04 0.  0.
        2    1    3    3  502    0  0.15381259865E+03  0.58048409518E+03  0.89032875583E+03  0.10739205714E+04  0.25500000920E-02 0. -1.
       -2    1    3    3    0  502 -0.15381259865E+03 -0.58048409518E+03  0.29612214327E+02  0.60124619209E+03  0.25500000920E-02 0.  1.
</event>
<event>
 5   0  0.2316714E-05  0.1399744E+04  0.7818609E-02  0.8954004E-01
       -1   -1    0    0    0  501  0.00000000000E+00  0.00000000000E+00  0.37149850182E+03  0.37149850186E+03  0.50400001928E-02 0.  1.
        1   -1    0    0  501    0  0.00000000000E+00  0.00000000000E+00 -0.13185007077E+04  0.13185007077E+04  0.50400001928E-02 0. -1.
    10030    2    1    2    0    0  0.00000000000E+00  0.00000000000E+00 -0.94700220588E+03  0.16899992096E+04  0.13997443161E+04 0.  0.
        5    1    3    3  502    0 -0.12787183771E+03 -0.23902636485E+03  0.30551846826E+03  0.40847084893E+03  0.46999998093E+01 0.  1.
       -5    1    3    3    0  502  0.12787183771E+03  0.23902636485E+03 -0.12525206741E+04  0.12815283606E+04  0.46999998093E+01 0. -1.
</event>
<event>
 5   0  0.2467303E-05  0.1399804E+04  0.7818609E-02  0.8953960E-01
       -1   -1    0    0    0  501  0.00000000000E+00  0.00000000000E+00  0.88561433850E+03  0.88561433851E+03  0.50400001928E-02 0. -1.
        1   -1    0    0  501    0  0.00000000000E+00  0.00000000000E+00 -0.55313353514E+03  0.55313353516E+03  0.50400001928E-02 0.  1.
    10030    2    1    2    0    0  0.00000000000E+00  0.00000000000E+00  0.33248080336E+03  0.14387478737E+04  0.13998042575E+04 0.  0.
        3    1    3    3  502    0  0.54223122581E+03 -0.18332771004E+03 -0.24775481229E+03  0.62370362250E+03  0.10100000352E+00 0.  1.
       -3    1    3    3    0  502 -0.54223122581E+03  0.18332771004E+03  0.58023561565E+03  0.81504425118E+03  0.10100000352E+00 0. -1.
</event>
<event>
 5   0  0.4527503E-05  0.1400460E+04  0.7818609E-02  0.8953486E-01
        2   -1    0    0  501    0  0.00000000000E+00  0.00000000000E+00  0.14204932530E+04  0.14204932530E+04  0.25500000920E-02 0.  1.
       -2   -1    0    0    0  501  0.00000000000E+00  0.00000000000E+00 -0.34517723926E+03  0.34517723927E+03  0.25500000920E-02 0. -1.
    10030    2    1    2    0    0  0.00000000000E+00  0.00000000000E+00  0.10753160137E+04  0.17656704922E+04  0.14004598380E+04 0.  0.
        4    1    3    3  502    0 -0.51387515400E+03  0.74878821695E+02 -0.54567144263E+02  0.52216252065E+03  0.12699999809E+01 0. -1.
       -4    1    3    3    0  502  0.51387515400E+03 -0.74878821695E+02  0.11298831580E+04  0.12435079716E+04  0.12699999809E+01 0.  1.
</event>
<event>
 5   0  0.2316714E-05  0.1399647E+04  0.7818609E-02  0.8954074E-01
       -1   -1    0    0    0  501  0.00000000000E+00  0.00000000000E+00  0.55423889523E+03  0.55423889525E+03  0.50400001928E-02 0. -1.
        1   -1    0    0  501    0  0.00000000000E+00  0.00000000000E+00 -0.88364960800E+03  0.88364960801E+03  0.50400001928E-02 0.  1.
    10030    2    1    2    0    0  0.00000000000E+00  0.00000000000E+00 -0.32941071277E+03  0.14378885033E+04  0.13996470734E+04 0.  0.
        5    1    3    3  502    0 -0.35502097844E+03 -0.23376510351E+03  0.40640159062E+03  0.58810744053E+03  0.46999998093E+01 0. -1.
       -5    1    3    3    0  502  0.35502097844E+03  0.23376510351E+03 -0.73581230339E+03  0.84978106273E+03  0.46999998093E+01 0.  1.
</event>
<event>
 5   0  0.2428507E-05  0.1400077E+04  0.7818609E-02  0.8953763E-01
        1   -1    0    0  501    0  0.00000000000E+00  0.00000000000E+00  0.22325286787E+04  0.22325286787E+04  0.50400001928E-02 0. -1.
       -1   -1    0    0    0  501  0.00000000000E+00  0.00000000000E+00 -0.21950622807E+03  0.21950622813E+03  0.50400001928E-02 0.  1.
    10030    2    1    2    0    0  0.00000000000E+00  0.00000000000E+00  0.20130224506E+04  0.24520349068E+04  0.14000770684E+04 0.  0.
        4    1    3    3  502    0  0.67102347975E+02 -0.30152033560E+03  0.21067135550E+04  0.21292395013E+04  0.12699999809E+01 0. -1.
       -4    1    3    3    0  502 -0.67102347975E+02  0.30152033560E+03 -0.93691104434E+02  0.32279540554E+03  0.12699999809E+01 0.  1.
</event>
<event>
 5   0  0.2467303E-05  0.1400023E+04  0.7818609E-02  0.8953802E-01
        1   -1    0    0  501    0  0.00000000000E+00  0.00000000000E+00  0.26672019760E+04  0.26672019760E+04  0.50400001928E-02 0. -1.
       -1   -1    0    0    0  501  0.00000000000E+00  0.00000000000E+00 -0.18371916440E+03  0.18371916447E+03  0.50400001928E-02 0.  1.
    10030    2    1    2    0    0  0.00000000000E+00  0.00000000000E+00  0.24834828116E+04  0.28509211405E+04  0.14000230261E+04 0.  0.
        3    1    3    3  502    0  0.93730837004E+02 -0.37595863570E+03  0.24289212089E+04  0.24596318048E+04  0.10100000352E+00 0. -1.
       -3    1    3    3    0  502 -0.93730837004E+02  0.37595863570E+03  0.54561602672E+02  0.39128933572E+03  0.10100000352E+00 0.  1.
</event>
<event>
 5   0  0.4621450E-05  0.1400009E+04  0.7818609E-02  0.8953812E-01
       -2   -1    0    0    0  501  0.00000000000E+00  0.00000000000E+00  0.45004510122E+03  0.45004510122E+03  0.25500000920E-02 0.  1.
        2   -1    0    0  501    0  0.00000000000E+00  0.00000000000E+00 -0.10887938199E+04  0.10887938200E+04  0.25500000920E-02 0. -1.
    10030    2    1    2    0    0  0.00000000000E+00  0.00000000000E+00 -0.63874871873E+03  0.15388389212E+04  0.14000090356E+04 0.  0.
        5    1    3    3  502    0  0.31364771138E+03  0.52290232312E+03  0.58492605822E+02  0.61257260901E+03  0.46999998093E+01 0.  1.
       -5    1    3    3    0  502 -0.31364771138E+03 -0.52290232312E+03 -0.69724132455E+03  0.92626631216E+03  0.46999998093E+01 0. -1.
</event>
<event>
 5   0  0.2428507E-05  0.1399875E+04  0.7818609E-02  0.8953909E-01
       -1   -1    0    0    0  501  0.00000000000E+00  0.00000000000E+00  0.36836812201E+03  0.36836812205E+03  0.50400001928E-02 0. -1.
        1   -1    0    0  501    0  0.00000000000E+00  0.00000000000E+00 -0.13299536709E+04  0.13299536709E+04  0.50400001928E-02 0.  1.
    10030    2    1    2    0    0  0.00000000000E+00  0.00000000000E+00 -0.96158554890E+03  0.16983217930E+04  0.13998750461E+04 0.  0.
        4    1    3    3  502    0  0.11529836263E+03  0.33434189039E+03  0.25199395513E+03  0.43425888410E+03  0.12699999809E+01 0. -1.
       -4    1    3    3    0  502 -0.11529836263E+03 -0.33434189039E+03 -0.12135795040E+04  0.12640629089E+04  0.12699999809E+01 0.  1.
</event>
<event>
 5   0  0.2316714E-05  0.1400005E+04  0.7818609E-02  0.8953815E-01
        1   -1    0    0  501    0  0.00000000000E+00  0.00000000000E+00  0.68425412488E+03  0.68425412490E+03  0.50400001928E-02 0.  1.
       -1   -1    0    0    0  501  0.00000000000E+00  0.00000000000E+00 -0.71611371946E+03  0.71611371948E+03  0.50400001928E-02 0. -1.
    10030    2    1    2    0    0  0.00000000000E+00  0.00000000000E+00 -0.31859594581E+02  0.14003678444E+04  0.14000053806E+04 0.  0.
        5    1    3    3  502    0  0.67589404358E+03 -0.66932631322E+02  0.15343309112E+03  0.69633076819E+03  0.46999998093E+01 0.  1.
       -5    1    3    3    0  502 -0.67589404358E+03  0.66932631322E+02 -0.18529268570E+03  0.70403707619E+03  0.46999998093E+01 0. -1.
</event>
<event>
 5   0  0.4621450E-05  0.1400780E+04  0.7818609E-02  0.8953254E-01
        2   -1    0    0  501    0  0.00000000000E+00  0.00000000000E+00  0.14012283732E+04  0.14012283732E+04  0.25500000920E-02 0. -1.
       -2   -1    0    0    0  501  0.00000000000E+00  0.00000000000E+00 -0.35008317649E+03  0.35008317650E+03  0.25500000920E-02 0.  1.
    10030    2    1    2    0    0  0.00000000000E+00  0.00000000000E+00  0.10511451967E+04  0.17513115497E+04  0.14007804680E+04 0.  0.
        5    1    3    3  502    0  0.21622095649E+03  0.51475525133E+03  0.10542332577E+04  0.11929603189E+04  0.46999998093E+01 0. -1.
       -5    1    3    3    0  502 -0.21622095649E+03 -0.51475525133E+03 -0.30880610326E+01  0.55835123078E+03  0.46999998093E+01 0.  1.
</event>
<event>
 5   0  0.2316714E-05  0.1398171E+04  0.7818609E-02  0.8955143E-01
       -1   -1    0    0    0  501  0.00000000000E+00  0.00000000000E+00  0.48814776040E+03  0.48814776042E+03  0.50400001928E-02 0.  1.
        1   -1    0    0  501    0  0.00000000000E+00  0.00000000000E+00 -0.10011735155E+04  0.10011735155E+04  0.50400001928E-02 0. -1.
    10030    2    1    2    0    0  0.00000000000E+00  0.00000000000E+00 -0.51302575507E+03  0.14893212759E+04  0.13981711045E+04 0.  0.
        5    1    3    3  502    0  0.43799748299E+03 -0.45743695005E+03  0.58769976532E+02  0.63605531089E+03  0.46999998093E+01 0.  1.
       -5    1    3    3    0  502 -0.43799748299E+03  0.45743695005E+03 -0.57179573160E+03  0.85326596501E+03  0.46999998093E+01 0. -1.
</event>
<event>
 5   0  0.4527503E-05  0.1398987E+04  0.7818609E-02  0.8954552E-01
       -2   -1    0    0    0  501  0.00000000000E+00  0.00000000000E+00  0.30421963226E+03  0.30421963228E+03  0.25500000920E-02 0.  1.
        2   -1    0    0  501    0  0.00000000000E+00  0.00000000000E+00 -0.16083493775E+04  0.16083493775E+04  0.25500000920E-02 0. -1.
    10030    2    1    2    0    0  0.00000000000E+00  0.00000000000E+00 -0.13041297453E+04  0.19125690098E+04  0.13989874284E+04 0.  0.
        4    1    3    3  502    0 -0.49156304649E+03  0.21984829960E+03 -0.12624181640E+04  0.13724681188E+04  0.12699999809E+01 0. -1.
       -4    1    3    3    0  502  0.49156304649E+03 -0.21984829960E+03 -0.41711581261E+02  0.54010089097E+03  0.12699999809E+01 0.  1.
</event>
<event>
 5   0  0.2428507E-05  0.1398466E+04  0.7818609E-02  0.8954929E-01
        1   -1    0    0  501    0  0.00000000000E+00  0.00000000000E+00  0.17377415359E+04  0.17377415359E+04  0.50400001928E-02 0. -1.
       -1   -1    0    0    0  501  0.00000000000E+00  0.00000000000E+00 -0.28135777255E+03  0.28135777259E+03  0.50400001928E-02 0.  1.
    10030    2    1    2    0    0  0.00000000000E+00  0.00000000000E+00  0.14563837634E+04  0.20190993085E+04  0.13984664284E+04 0.  0.
        4    1    3    3  502    0  0.40941869485E+03 -0.56523870771E+03  0.78956610133E+03  0.10538191048E+04  0.12699999809E+01 0. -1.
       -4    1    3    3    0  502 -0.40941869485E+03  0.56523870771E+03  0.66681766206E+03  0.96528020373E+03  0.12699999809E+01 0.  1.
</event>
<event>
 5   0  0.2363419E-05  0.1402555E+04  0.7818609E-02  0.8951971E-01
        1   -1    0    0  501    0  0.00000000000E+00  0.00000000000E+00  0.11018427972E+04  0.11018427972E+04  0.50400001928E-02 0.  1.
       -1   -1    0    0    0  501  0.00000000000E+00  0.00000000000E+00 -0.44633451803E+03  0.44633451805E+03  0.50400001928E-02 0. -1.
    10030    2    1    2    0    0  0.00000000000E+00  0.00000000000E+00  0.65550827914E+03  0.15481773152E+04  0.14025554875E+04 0.  0.
        2    1    3    3  502    0  0.38245110172E+03  0.53996320988E+03  0.58416835220E+03  0.88265609212E+03  0.25500000920E-02 0.  1.
       -2    1    3    3    0  502 -0.38245110172E+03 -0.53996320988E+03  0.71339926943E+02  0.66552122312E+03  0.25500000920E-02 0. -1.
</event>
<event>
 5   0  0.2467303E-05  0.1400387E+04  0.7818609E-02  0.8953538E-01
        1   -1    0    0  501    0  0.00000000000E+00  0.00000000000E+00  0.74635473009E+03  0.74635473011E+03  0.50400001928E-02 0. -1.
       -1   -1    0    0    0  501  0.00000000000E+00  0.00000000000E+00 -0.65688763620E+03  0.65688763622E+03  0.50400001928E-02 0.  1.
    10030    2    1    2    0    0  0.00000000000E+00  0.00000000000E+00  0.89467093889E+02  0.14032423663E+04  0.14003873670E+04 0.  0.
        3    1    3    3  502    0  0.31533600222E+03 -0.13397987892E+03 -0.56715348831E+03  0.66260885276E+03  0.10100000352E+00 0.  1.
       -3    1    3    3    0  502 -0.31533600222E+03  0.13397987892E+03  0.65662058220E+03  0.74063351357E+03  0.10100000352E+00 0. -1.
</event>
<event>
 5   0  0.4441253E-05  0.1399942E+04  0.7818609E-02  0.8953860E-01
       -2   -1    0    0    0  501  0.00000000000E+00  0.00000000000E+00  0.92626018740E+03  0.92626018740E+03  0.25500000920E-02 0. -1.
        2   -1    0    0  501    0  0.00000000000E+00  0.00000000000E+00 -0.52896523320E+03  0.52896523320E+03  0.25500000920E-02 0.  1.
    10030    2    1    2    0    0  0.00000000000E+00  0.00000000000E+00  0.39729495420E+03  0.14552254206E+04  0.13999420503E+04 0.  0.
        3    1    3    3  502    0  0.32517711758E+02 -0.69783769698E+03  0.15304510846E+03  0.71516268661E+03  0.10100000352E+00 0.  1.
       -3    1    3    3    0  502 -0.32517711758E+02  0.69783769698E+03  0.24424984574E+03  0.74006273399E+03  0.10100000352E+00 0. -1.
</event>
<event>
 5   0  0.2363419E-05  0.1399790E+04  0.7818609E-02  0.8953970E-01
       -1   -1    0    0    0  501  0.00000000000E+00  0.00000000000E+00  0.48415724984E+03  0.48415724986E+03  0.50400001928E-02 0.  1.
        1   -1    0    0  501    0  0.00000000000E+00  0.00000000000E+00 -0.10117649138E+04  0.10117649139E+04  0.50400001928E-02 0. -1.
    10030    2    1    2    0    0  0.00000000000E+00  0.00000000000E+00 -0.52760766401E+03  0.14959221637E+04  0.13997904389E+04 0.  0.
        2    1    3    3  502    0  0.36983822808E+03 -0.86402007324E+02 -0.89206132449E+03  0.96954578462E+03  0.25500000920E-02 0. -1.
       -2    1    3    3    0  502 -0.36983822808E+03  0.86402007324E+02  0.36445366049E+03  0.52637637909E+03  0.25500000920E-02 0.  1.
</event>
<event>
 5   0  0.2363419E-05  0.1399587E+04  0.7818609E-02  0.8954117E-01
        1   -1    0    0  501    0  0.00000000000E+00  0.00000000000E+00  0.86152906062E+03  0.86152906064E+03  0.50400001928E-02 0. -1.
       -1   -1    0    0    0  501  0.00000000000E+00  0.00000000000E+00 -0.56842103662E+03  0.56842103664E+03  0.50400001928E-02 0.  1.
    10030    2    1    2    0    0  0.00000000000E+00  0.00000000000E+00  0.29310802400E+03  0.14299500973E+04  0.13995874274E+04 0.  0.
        2    1    3    3  502    0  0.37576226531E+03 -0.59028088291E+03  0.13727733581E+03  0.71307353597E+03  0.25500000920E-02 0.  1.
       -2    1    3    3    0  502 -0.37576226531E+03  0.59028088291E+03  0.15583068820E+03  0.71687656131E+03  0.25500000920E-02 0. -1.
</event>
<event>
 5   0  0.4621450E-05  0.1399822E+04  0.7818609E-02  0.8953948E-01
        2   -1    0    0  501    0  0.00000000000E+00  0.00000000000E+00  0.17954857863E+04  0.17954857863E+04  0.25500000920E-02 0.  1.
       -2   -1    0    0    0  501  0.00000000000E+00  0.00000000000E+00 -0.27283707612E+03  0.27283707613E+03  0.25500000920E-02 0. -1.
    10030    2    1    2    0    0  0.00000000000E+00  0.00000000000E+00  0.15226487102E+04  0.20683228625E+04  0.13998215489E+04 0.  0.
        5    1    3    3  502    0  0.19073641841E+03 -0.28594092906E+02  0.17554226253E+04  0.17659922669E+04  0.46999998093E+01 0.  1.
       -5    1    3    3    0  502 -0.19073641841E+03  0.28594092906E+02 -0.23277391508E+03  0.30233059554E+03  0.46999998093E+01 0. -1.
</event>
<event>
 5   0  0.4527503E-05  0.1403415E+04  0.7818609E-02  0.8951350E-01
        2   -1    0    0  501    0  0.00000000000E+00  0.00000000000E+00  0.88558262304E+03  0.88558262304E+03  0.25500000920E-02 0.  1.
       -2   -1    0    0    0  501  0.00000000000E+00  0.00000000000E+00 -0.55601089229E+03  0.55601089230E+03  0.25500000920E-02 0. -1.
    10030    2    1    2    0    0  0.00000000000E+00  0.00000000000E+00  0.32957173075E+03  0.14415935153E+04  0.14034152407E+04 0.  0.
        4    1    3    3  502    0  0.17894886253E+03 -0.26562987787E+03 -0.47654648031E+03  0.57417774967E+03  0.12699999809E+01 0. -1.
       -4    1    3    3    0  502 -0.17894886253E+03  0.26562987787E+03  0.80611821106E+03  0.86741576567E+03  0.12699999809E+01 0.  1.
</event>
<event>
 5   0  0.2363419E-05  0.1399994E+04  0.7818609E-02  0.8953823E-01
        1   -1    0    0  501    0  0.00000000000E+00  0.00000000000E+00  0.67835381007E+03  0.67835381009E+03  0.50400001928E-02 0.  1.
       -1   -1    0    0    0  501  0.00000000000E+00  0.00000000000E+00 -0.72233112972E+03  0.72233112974E+03  0.50400001928E-02 0. -1.
    10030    2    1    2    0    0  0.00000000000E+00  0.00000000000E+00 -0.43977319655E+02  0.14006849398E+04  0.13999943914E+04 0.  0.
        2    1    3    3  502    0  0.15550929256E+03 -0.16318341977E+03  0.64104789131E+03  0.67952510441E+03  0.25500000920E-02 0.  1.
       -2    1    3    3    0  502 -0.15550929256E+03  0.16318341977E+03 -0.68502521097E+03  0.72115983542E+03  0.25500000920E-02 0. -1.
</event>
<event>
 5   0  0.2467303E-05  0.1400103E+04  0.7818609E-02  0.8953744E-01
        1   -1    0    0  501    0  0.00000000000E+00  0.00000000000E+00  0.77988153076E+03  0.77988153078E+03  0.50400001928E-02 0.  1.
       -1   -1    0    0    0  501  0.00000000000E+00  0.00000000000E+00 -0.62839345099E+03  0.62839345101E+03  0.50400001928E-02 0. -1.
    10030    2    1    2    0    0  0.00000000000E+00  0.00000000000E+00  0.15148807978E+03  0.14082749818E+04  0.14001034912E+04 0.  0.
        3    1    3    3  502    0  0.39624832494E+03 -0.49630450350E+03  0.37198212542E+03  0.73600380913E+03  0.10100000352E+00 0.  1.
       -3    1    3    3    0  502 -0.39624832494E+03  0.49630450350E+03 -0.22049404565E+03  0.67227117266E+03  0.10100000352E+00 0. -1.
</event>
<event>
 5   0  0.2467303E-05  0.1399615E+04  0.7818609E-02  0.8954097E-01
       -1   -1    0    0    0  501  0.00000000000E+00  0.00000000000E+00  0.73399512271E+03  0.73399512273E+03  0.50400001928E-02 0.  1.
        1   -1    0    0  501    0  0.00000000000E+00  0.00000000000E+00 -0.66721263882E+03  0.66721263883E+03  0.50400001928E-02 0. -1.
    10030    2    1    2    0    0  0.00000000000E+00  0.00000000000E+00  0.66782483896E+02  0.14012077616E+04  0.13996154082E+04 0.  0.
        3    1    3    3  502    0  0.35044235947E+03  0.55168172516E+03  0.28381226557E+03  0.71253911154E+03  0.10100000352E+00 0.  1.
       -3    1    3    3    0  502 -0.35044235947E+03 -0.55168172516E+03 -0.21702978167E+03  0.68866865002E+03  0.10100000352E+00 0. -1.
</event>
<event>
 5   0  0.4243281E-05  0.1399252E+04  0.7818609E-02  0.8954360E-01
       -2   -1    0    0    0  501  0.00000000000E+00  0.00000000000E+00  0.39651600390E+03  0.39651600390E+03  0.25500000920E-02 0. -1.
        2   -1    0    0  501    0  0.00000000000E+00  0.00000000000E+00 -0.12344429586E+04  0.12344429586E+04  0.25500000920E-02 0.  1.
    10030    2    1    2    0    0  0.00000000000E+00  0.00000000000E+00 -0.83792695468E+03  0.16309589625E+04  0.13992517843E+04 0.  0.
        2    1    3    3  502    0  0.24440258217E+03  0.30468405220E+03 -0.10955214470E+04  0.11630701762E+04  0.25500000920E-02 0.  1.
       -2    1    3    3    0  502 -0.24440258217E+03 -0.30468405220E+03  0.25759449236E+03  0.46788878629E+03  0.25500000920E-02 0. -1.
</event>
<event>
 5   0  0.2427569E-05  0.1398050E+04  0.7818609E-02  0.8955232E-01
        1   -1    0    0  501    0  0.00000000000E+00  0.00000000000E+00  0.74008987382E+03  0.74008987384E+03  0.50400001928E-02 0.  1.
       -1   -1    0    0    0  501  0.00000000000E+00  0.00000000000E+00 -0.66023827903E+03  0.66023827905E+03  0.50400001928E-02 0. -1.
    10030    2    1    2    0    0  0.00000000000E+00  0.00000000000E+00  0.79851594787E+02  0.14003281529E+04  0.13980495909E+04 0.  0.
        1    1    3    3  502    0  0.50277550866E+03 -0.33731383669E+03 -0.31003143043E+03  0.68020829487E+03  0.50400001928E-02 0. -1.
       -1    1    3    3    0  502 -0.50277550866E+03  0.33731383669E+03  0.38988302522E+03  0.72011985802E+03  0.50400001928E-02 0.  1.
</event>
<event>
 5   0  0.4621450E-05  0.1400309E+04  0.7818609E-02  0.8953595E-01
       -2   -1    0    0    0  501  0.00000000000E+00  0.00000000000E+00  0.35919172366E+03  0.35919172367E+03  0.25500000920E-02 0. -1.
        2   -1    0    0  501    0  0.00000000000E+00  0.00000000000E+00 -0.13647771566E+04  0.13647771566E+04  0.25500000920E-02 0.  1.
    10030    2    1    2    0    0  0.00000000000E+00  0.00000000000E+00 -0.10055854330E+04  0.17239688803E+04  0.14003094791E+04 0.  0.
        5    1    3    3  502    0  0.15331739876E+03  0.64058269663E+03 -0.79502091037E+03  0.10324401939E+04  0.46999998093E+01 0.  1.
       -5    1    3    3    0  502 -0.15331739876E+03 -0.64058269663E+03 -0.21056452260E+03  0.69152868643E+03  0.46999998093E+01 0. -1.
</event>
<event>
 5   0  0.2467303E-05  0.1400031E+04  0.7818609E-02  0.8953796E-01
       -1   -1    0    0    0  501  0.00000000000E+00  0.00000000000E+00  0.30052400135E+03  0.30052400139E+03  0.50400001928E-02 0.  1.
        1   -1    0    0  501    0  0.00000000000E+00  0.00000000000E+00 -0.16305570512E+04  0.16305570512E+04  0.50400001928E-02 0. -1.
    10030    2    1    2    0    0  0.00000000000E+00  0.00000000000E+00 -0.13300330499E+04  0.19310810526E+04  0.14000307561E+04 0.  0.
        3    1    3    3  502    0  0.13701368528E+03  0.44464387647E+03  0.56379621126E+02  0.46867856652E+03  0.10100000352E+00 0.  1.
       -3    1    3    3    0  502 -0.13701368528E+03 -0.44464387647E+03 -0.13864126710E+04  0.14624024861E+04  0.10100000352E+00 0. -1.
</event>
<event>
 5   0  0.4243281E-05  0.1400165E+04  0.7818609E-02  0.8953699E-01
       -2   -1    0    0    0  501  0.00000000000E+00  0.00000000000E+00  0.65086336467E+03  0.65086336467E+03  0.25500000920E-02 0. -1.
        2   -1    0    0  501    0  0.00000000000E+00  0.00000000000E+00 -0.75302312686E+03  0.75302312687E+03  0.25500000920E-02 0.  1.
    10030    2    1    2    0    0  0.00000000000E+00  0.00000000000E+00 -0.10215976219E+03  0.14038864915E+04  0.14001645132E+04 0.  0.
        2    1    3    3  502    0 -0.19249675521E+03 -0.57409802921E+02 -0.72350729275E+03  0.75087528186E+03  0.25500000920E-02 0.  1.
       -2    1    3    3    0  502  0.19249675521E+03  0.57409802921E+02  0.62134753055E+03  0.65301120968E+03  0.25500000920E-02 0. -1.
</event>
<event>
 5   0  0.1661000E-05  0.1399559E+04  0.7818609E-02  0.8954138E-01
        3   -1    0    0  501    0  0.00000000000E+00  0.00000000000E+00  0.10393932814E+04  0.10393932863E+04  0.10100000352E+00 0. -1.
       -3   -1    0    0    0  501  0.00000000000E+00  0.00000000000E+00 -0.47113176753E+03  0.47113177835E+03  0.10100000352E+00 0.  1.
    10030    2    1    2    0    0  0.00000000000E+00  0.00000000000E+00  0.56826151383E+03  0.15105250646E+04  0.13995587957E+04 0.  0.
        1    1    3    3  502    0  0.36953665010E+03  0.32418882288E+03 -0.25338808167E+03  0.55304723904E+03  0.50400001928E-02 0.  1.
       -1    1    3    3    0  502 -0.36953665010E+03 -0.32418882288E+03  0.82164959551E+03  0.95747782558E+03  0.50400001928E-02 0. -1.
</event>
<event>
 5   0  0.4621450E-05  0.1399661E+04  0.7818609E-02  0.8954064E-01
       -2   -1    0    0    0  501  0.00000000000E+00  0.00000000000E+00  0.53573392145E+03  0.53573392145E+03  0.25500000920E-02 0. -1.
        2   -1    0    0  501    0  0.00000000000E+00  0.00000000000E+00 -0.91419023125E+03  0.91419023125E+03  0.25500000920E-02 0.  1.
    10030    2    1    2    0    0  0.00000000000E+00  0.00000000000E+00 -0.37845630980E+03  0.14499241527E+04  0.13996609840E+04 0.  0.
        5    1    3    3  502    0 -0.25878766640E+02 -0.31466831489E+02 -0.91294431426E+03  0.91386502448E+03  0.46999998093E+01 0.  1.
       -5    1    3    3    0  502  0.25878766640E+02  0.31466831489E+02  0.53448800445E+03  0.53605912822E+03  0.46999998093E+01 0. -1.
</event>
<event>
 5   0  0.2427569E-05  0.1400302E+04  0.7818609E-02  0.8953600E-01
       -1   -1    0    0    0  501  0.00000000000E+00  0.00000000000E+00  0.78124328003E+03  0.78124328004E+03  0.50400001928E-02 0. -1.
        1   -1    0    0  501    0  0.00000000000E+00  0.00000000000E+00 -0.62747602608E+03  0.62747602611E+03  0.50400001928E-02 0.  1.
    10030    2    1    2    0    0  0.00000000000E+00  0.00000000000E+00  0.15376725394E+03  0.14087193061E+04  0.14003020085E+04 0.  0.
        1    1    3    3  502    0 -0.17303366715E+03  0.67654096839E+03  0.25952267881E+02  0.69880029487E+03  0.50400001928E-02 0. -1.
       -1    1    3    3    0  502  0.17303366715E+03 -0.67654096839E+03  0.12781498606E+03  0.70991901127E+03  0.50400001928E-02 0.  1.
</event>
<event>
 5   0  0.2428507E-05  0.1399502E+04  0.7818609E-02  0.8954179E-01
        1   -1    0    0  501    0  0.00000000000E+00  0.00000000000E+00  0.85955368390E+03  0.85955368392E+03  0.50400001928E-02 0. -1.
       -1   -1    0    0    0  501  0.00000000000E+00  0.00000000000E+00 -0.56965803815E+03  0.56965803818E+03  0.50400001928E-02 0.  1.
    10030    2    1    2    0    0  0.00000000000E+00  0.00000000000E+00  0.28989564575E+03  0.14292117221E+04  0.13995022905E+04 0.  0.
        4    1    3    3  502    0 -0.17762874239E+02 -0.57745518408E+03  0.54814567926E+03  0.79638891749E+03  0.12699999809E+01 0. -1.
       -4    1    3    3    0  502  0.17762874239E+02  0.57745518408E+03 -0.25825003351E+03  0.63282280460E+03  0.12699999809E+01 0.  1.
</event>
<event>
 5   0  0.4441253E-05  0.1399965E+04  0.7818609E-02  0.8953844E-01
        2   -1    0    0  501    0  0.00000000000E+00  0.00000000000E+00  0.12978445669E+04  0.12978445669E+04  0.25500000920E-02 0. -1.
       -2   -1    0    0    0  501  0.00000000000E+00  0.00000000000E+00 -0.37753022195E+03  0.37753022195E+03  0.25500000920E-02 0.  1.
    10030    2    1    2    0    0  0.00000000000E+00  0.00000000000E+00  0.92031434494E+03  0.16753747888E+04  0.13999650673E+04 0.  0.
        3    1    3    3  502    0 -0.27416602750E+03 -0.63476725264E+03  0.32972466512E+03  0.76603840677E+03  0.10100000352E+00 0. -1.
       -3    1    3    3    0  502  0.27416602750E+03  0.63476725264E+03  0.59058967982E+03  0.90933638207E+03  0.10100000352E+00 0.  1.
</event>
<event>
 5   0  0.2316714E-05  0.1400040E+04  0.7818609E-02  0.8953790E-01
        1   -1    0    0  501    0  0.00000000000E+00  0.00000000000E+00  0.27409915952E+03  0.27409915957E+03  0.50400001928E-02 0. -1.
       -1   -1    0    0    0  501  0.00000000000E+00  0.00000000000E+00 -0.17877752379E+04  0.17877752379E+04  0.50400001928E-02 0.  1.
    10030    2    1    2    0    0  0.00000000000E+00  0.00000000000E+00 -0.15136760784E+04  0.20618743975E+04  0.14000395568E+04 0.  0.
        5    1    3    3  502    0 -0.17183464337E+03  0.61884641052E+03 -0.34682848576E+03  0.72993843097E+03  0.46999998093E+01 0. -1.
       -5    1    3    3    0  502  0.17183464337E+03 -0.61884641052E+03 -0.11668475926E+04  0.13319359665E+04  0.46999998093E+01 0.  1.
</event>
<event>
 5   0  0.4460282E-05  0.1398369E+04  0.7818609E-02  0.8955000E-01
       -2   -1    0    0    0  501  0.00000000000E+00  0.00000000000E+00  0.28479947485E+03  0.28479947486E+03  0.25500000920E-02 0. -1.
        2   -1    0    0  501    0  0.00000000000E+00  0.00000000000E+00 -0.17165035243E+04  0.17165035243E+04  0.25500000920E-02 0.  1.
    10030    2    1    2    0    0  0.00000000000E+00  0.00000000000E+00 -0.14317040494E+04  0.20013029991E+04  0.13983694824E+04 0.  0.
        1    1    3    3  502    0  0.45312080526E+03 -0.29032367882E+03 -0.13546938514E+04  0.14576699673E+04  0.50400001928E-02 0.  1.
       -1    1    3    3    0  502 -0.45312080526E+03  0.29032367882E+03 -0.77010198041E+02  0.54363303181E+03  0.50400001928E-02 0. -1.
</event>
<event>
 5   0  0.2427569E-05  0.1402149E+04  0.7818609E-02  0.8952265E-01
       -1   -1    0    0    0  501  0.00000000000E+00  0.00000000000E+00  0.42851193370E+03  0.42851193372E+03  0.50400001928E-02 0.  1.
        1   -1    0    0  501    0  0.00000000000E+00  0.00000000000E+00 -0.11470048281E+04  0.11470048281E+04  0.50400001928E-02 0. -1.
    10030    2    1    2    0    0  0.00000000000E+00  0.00000000000E+00 -0.71849289437E+03  0.15755167618E+04  0.14021487180E+04 0.  0.
        1    1    3    3  502    0 -0.65073834492E+03  0.18247437024E+03 -0.14979003893E+03  0.69223864753E+03  0.50400001928E-02 0. -1.
       -1    1    3    3    0  502  0.65073834492E+03 -0.18247437024E+03 -0.56870285544E+03  0.88327811427E+03  0.50400001928E-02 0.  1.
</event>
<event>
 5   0  0.4243281E-05  0.1398442E+04  0.7818609E-02  0.8954947E-01
       -2   -1    0    0    0  501  0.00000000000E+00  0.00000000000E+00  0.29883903361E+03  0.29883903362E+03  0.25500000920E-02 0.  1.
        2   -1    0    0  501    0  0.00000000000E+00  0.00000000000E+00 -0.16360310145E+04  0.16360310145E+04  0.25500000920E-02 0. -1.
    10030    2    1    2    0    0  0.00000000000E+00  0.00000000000E+00 -0.13371919809E+04  0.19348700481E+04  0.13984418863E+04 0.  0.
        2    1    3    3  502    0  0.56806326569E+03 -0.20524605841E+03 -0.18121065103E+03  0.63060218710E+03  0.25500000920E-02 0.  1.
       -2    1    3    3    0  502 -0.56806326569E+03  0.20524605841E+03 -0.11559813299E+04  0.13042678610E+04  0.25500000920E-02 0. -1.
</event>
<event>
 5   0  0.2467303E-05  0.1399829E+04  0.7818609E-02  0.8953942E-01
        1   -1    0    0  501    0  0.00000000000E+00  0.00000000000E+00  0.27348279368E+03  0.27348279373E+03  0.50400001928E-02 0. -1.
       -1   -1    0    0    0  501  0.00000000000E+00  0.00000000000E+00 -0.17912658578E+04  0.17912658578E+04  0.50400001928E-02 0.  1.
    10030    2    1    2    0    0  0.00000000000E+00  0.00000000000E+00 -0.15177830641E+04  0.20647486516E+04  0.13998291197E+04 0.  0.
        3    1    3    3  502    0  0.31079161043E+03 -0.30453114306E+03  0.49739390276E+02  0.43795508828E+03  0.10100000352E+00 0. -1.
       -3    1    3    3    0  502 -0.31079161043E+03  0.30453114306E+03 -0.15675224544E+04  0.16267935633E+04  0.10100000352E+00 0.  1.
</event>
<event>
 5   0  0.4527503E-05  0.1399898E+04  0.7818609E-02  0.8953893E-01
        2   -1    0    0  501    0  0.00000000000E+00  0.00000000000E+00  0.23820953665E+04  0.23820953665E+04  0.25500000920E-02 0.  1.
       -2   -1    0    0    0  501  0.00000000000E+00  0.00000000000E+00 -0.20567119649E+03  0.20567119651E+03  0.25500000920E-02 0. -1.
    10030    2    1    2    0    0  0.00000000000E+00  0.00000000000E+00  0.21764241701E+04  0.25877665631E+04  0.13998977166E+04 0.  0.
        4    1    3    3  502    0  0.50813092559E+02  0.32571531136E+03 -0.53183529411E+02  0.33391995318E+03  0.12699999809E+01 0. -1.
       -4    1    3    3    0  502 -0.50813092559E+02 -0.32571531136E+03  0.22296076995E+04  0.22538466099E+04  0.12699999809E+01 0.  1.
</event>
<event>
 5   0  0.4460282E-05  0.1398160E+04  0.7818609E-02  0.8955151E-01
       -2   -1    0    0    0  501  0.00000000000E+00  0.00000000000E+00  0.45771981560E+03  0.45771981561E+03  0.25500000920E-02 0.  1.
        2   -1    0    0  501    0  0.00000000000E+00  0.00000000000E+00 -0.10677123191E+04  0.10677123191E+04  0.25500000920E-02 0. -1.
    10030    2    1    2    0    0  0.00000000000E+00  0.00000000000E+00 -0.60999250347E+03  0.15254321347E+04  0.13981603425E+04 0.  0.
        1    1    3    3  502    0 -0.25838922560E+03  0.12742109804E+03 -0.99993226005E+03  0.10406083090E+04  0.50400001928E-02 0. -1.
       -1    1    3    3    0  502  0.25838922560E+03 -0.12742109804E+03  0.38993975657E+03  0.48482382565E+03  0.50400001928E-02 0.  1.
</event>
<event>
 5   0  0.2467303E-05  0.1401093E+04  0.7818609E-02  0.8953028E-01
       -1   -1    0    0    0  501  0.00000000000E+00  0.00000000000E+00  0.59061163123E+03  0.59061163126E+03  0.50400001928E-02 0. -1.
        1   -1    0    0  501    0  0.00000000000E+00  0.00000000000E+00 -0.83094408961E+03  0.83094408962E+03  0.50400001928E-02 0.  1.
    10030    2    1    2    0    0  0.00000000000E+00  0.00000000000E+00 -0.24033245837E+03  0.14215557209E+04  0.14010927796E+04 0.  0.
        3    1    3    3  502    0  0.12650071026E+03 -0.22734658742E+03 -0.78010912557E+03  0.82234977868E+03  0.10100000352E+00 0.  1.
       -3    1    3    3    0  502 -0.12650071026E+03  0.22734658742E+03  0.53977666719E+03  0.59920594219E+03  0.10100000352E+00 0. -1.
</event>
<event>
 5   0  0.2316714E-05  0.1399999E+04  0.7818609E-02  0.8953819E-01
       -1   -1    0    0    0  501  0.00000000000E+00  0.00000000000E+00  0.31844089548E+03  0.31844089552E+03  0.50400001928E-02 0.  1.
        1   -1    0    0  501    0  0.00000000000E+00  0.00000000000E+00 -0.15387446042E+04  0.15387446042E+04  0.50400001928E-02 0. -1.
    10030    2    1    2    0    0  0.00000000000E+00  0.00000000000E+00 -0.12203037087E+04  0.18571854997E+04  0.13999988710E+04 0.  0.
        5    1    3    3  502    0  0.26923882403E+03 -0.28013238686E+03 -0.13825407912E+04  0.14361075266E+04  0.46999998093E+01 0. -1.
       -5    1    3    3    0  502 -0.26923882403E+03  0.28013238686E+03  0.16223708250E+03  0.42107797315E+03  0.46999998093E+01 0.  1.
</event>
<event>
 5   0  0.2467303E-05  0.1400553E+04  0.7818609E-02  0.8953418E-01
       -1   -1    0    0    0  501  0.00000000000E+00  0.00000000000E+00  0.17476075314E+04  0.17476075314E+04  0.50400001928E-02 0. -1.
        1   -1    0    0  501    0  0.00000000000E+00  0.00000000000E+00 -0.28060485905E+03  0.28060485910E+03  0.50400001928E-02 0.  1.
    10030    2    1    2    0    0  0.00000000000E+00  0.00000000000E+00  0.14670026724E+04  0.20282123905E+04  0.14005529838E+04 0.  0.
        3    1    3    3  502    0 -0.28719023771E+03 -0.44462689523E+03  0.69534154614E+02  0.53385982941E+03  0.10100000352E+00 0.  1.
       -3    1    3    3    0  502  0.28719023771E+03  0.44462689523E+03  0.13974685178E+04  0.14943525611E+04  0.10100000352E+00 0. -1.
</event>
<event>
 5   0  0.2316714E-05  0.1400201E+04  0.7818609E-02  0.8953673E-01
        1   -1    0    0  501    0  0.00000000000E+00  0.00000000000E+00  0.90803658171E+03  0.90803658172E+03  0.50400001928E-02 0.  1.
       -1   -1    0    0    0  501  0.00000000000E+00  0.00000000000E+00 -0.53978063457E+03  0.53978063459E+03  0.50400001928E-02 0. -1.
    10030    2    1    2    0    0  0.00000000000E+00  0.00000000000E+00  0.36825594714E+03  0.14478172163E+04  0.14002007889E+04 0.  0.
        5    1    3    3  502    0 -0.61000322655E+03 -0.34283162119E+03  0.20680587810E+03  0.72967679016E+03  0.46999998093E+01 0.  1.
       -5    1    3    3    0  502  0.61000322655E+03  0.34283162119E+03  0.16145006904E+03  0.71814042616E+03  0.46999998093E+01 0. -1.
</event>
<event>
 5   0  0.4243281E-05  0.1400097E+04  0.7818609E-02  0.8953748E-01
       -2   -1    0    0    0  501  0.00000000000E+00  0.00000000000E+00  0.71918603786E+03  0.71918603786E+03  0.25500000920E-02 0.  1.
        2   -1    0    0  501    0  0.00000000000E+00  0.00000000000E+00 -0.68142013955E+03  0.68142013955E+03  0.25500000920E-02 0. -1.
    10030    2    1    2    0    0  0.00000000000E+00  0.00000000000E+00  0.37765898311E+02  0.14006061774E+04  0.14000969256E+04 0.  0.
        2    1    3    3  502    0 -0.66216201715E+03  0.13816242631E+03 -0.16151693626E+03  0.69543879221E+03  0.25500000920E-02 0. -1.
       -2    1    3    3    0  502  0.66216201715E+03 -0.13816242631E+03  0.19928283457E+03  0.70516738521E+03  0.25500000920E-02 0.  1.
</event>
<event>
 5   0  0.2467303E-05  0.1399546E+04  0.7818609E-02  0.8954147E-01
        1   -1    0    0  501    0  0.00000000000E+00  0.00000000000E+00  0.47308976007E+03  0.47308976009E+03  0.50400001928E-02 0.  1.
       -1   -1    0    0    0  501  0.00000000000E+00  0.00000000000E+00 -0.10350722871E+04  0.10350722871E+04  0.50400001928E-02 0. -1.
    10030    2    1    2    0    0  0.00000000000E+00  0.00000000000E+00 -0.56198252699E+03  0.15081620472E+04  0.13995457834E+04 0.  0.
        3    1    3    3  502    0 -0.44105741858E+03  0.51277781005E+03 -0.87593275964E+02  0.68201563117E+03  0.10100000352E+00 0.  1.
       -3    1    3    3    0  502  0.44105741858E+03 -0.51277781005E+03 -0.47438925102E+03  0.82614641599E+03  0.10100000352E+00 0. -1.
</event>
<event>
 5   0  0.4460282E-05  0.1399849E+04  0.7818609E-02  0.8953928E-01
       -2   -1    0    0    0  501  0.00000000000E+00  0.00000000000E+00  0.56894198848E+03  0.56894198849E+03  0.25500000920E-02 0. -1.
        2   -1    0    0  501    0  0.00000000000E+00  0.00000000000E+00 -0.86106247113E+03  0.86106247114E+03  0.25500000920E-02 0.  1.
    10030    2    1    2    0    0  0.00000000000E+00  0.00000000000E+00 -0.29212048265E+03  0.14300044596E+04  0.13998494127E+04 0.  0.
        1    1    3    3  502    0  0.63153659596E+03  0.22412851995E+03 -0.35245849845E+03  0.75716514622E+03  0.50400001928E-02 0.  1.
       -1    1    3    3    0  502 -0.63153659596E+03 -0.22412851995E+03  0.60338015799E+02  0.67283931341E+03  0.50400001928E-02 0. -1.
</event>
<event>
 5   0  0.4527503E-05  0.1399849E+04  0.7818609E-02  0.8953928E-01
       -2   -1    0    0    0  501  0.00000000000E+00  0.00000000000E+00  0.81873446504E+03  0.81873446504E+03  0.25500000920E-02 0. -1.
        2   -1    0    0  501    0  0.00000000000E+00  0.00000000000E+00 -0.59835547931E+03  0.59835547931E+03  0.25500000920E-02 0.  1.
    10030    2    1    2    0    0  0.00000000000E+00  0.00000000000E+00  0.22037898573E+03  0.14170899444E+04  0.13998489251E+04 0.  0.
        4    1    3    3  502    0 -0.41233744270E+03 -0.49443647389E+03 -0.16778868004E+03  0.66531514894E+03  0.12699999809E+01 0.  1.
       -4    1    3    3    0  502  0.41233744270E+03  0.49443647389E+03  0.38816766576E+03  0.75177479541E+03  0.12699999809E+01 0. -1.
</event>
<event>
 5   0  0.2467303E-05  0.1399413E+04  0.7818609E-02  0.8954244E-01
        1   -1    0    0  501    0  0.00000000000E+00  0.00000000000E+00  0.35784359408E+03  0.35784359411E+03  0.50400001928E-02 0.  1.
       -1   -1    0    0    0  501  0.00000000000E+00  0.00000000000E+00 -0.13681646001E+04  0.13681646001E+04  0.50400001928E-02 0. -1.
    10030    2    1    2    0    0  0.00000000000E+00  0.00000000000E+00 -0.10103210060E+04  0.17260081942E+04  0.13994126451E+04 0.  0.
        3    1    3    3  502    0 -0.79517788990E+02  0.51879041831E+03  0.65566026450E+02  0.52892862554E+03  0.10100000352E+00 0.  1.
       -3    1    3    3    0  502  0.79517788990E+02 -0.51879041831E+03 -0.10758870324E+04  0.11970795686E+04  0.10100000352E+00 0. -1.
</event>
<event>
 5   0  0.4441253E-05  0.1399943E+04  0.7818609E-02  0.8953859E-01
       -2   -1    0    0    0  501  0.00000000000E+00  0.00000000000E+00  0.12467015652E+04  0.12467015652E+04  0.25500000920E-02 0.  1.
        2   -1    0    0  501    0  0.00000000000E+00  0.00000000000E+00 -0.39300537134E+03  0.39300537135E+03  0.25500000920E-02 0. -1.
    10030    2    1    2    0    0  0.00000000000E+00  0.00000000000E+00  0.85369619388E+03  0.16397069366E+04  0.13999434440E+04 0.  0.
        3    1    3    3  502    0 -0.56810892150E+03 -0.40237702767E+03  0.34153531860E+03  0.77543626633E+03  0.10100000352E+00 0. -1.
       -3    1    3    3    0  502  0.56810892150E+03  0.40237702767E+03  0.51216087527E+03  0.86427067024E+03  0.10100000352E+00 0.  1.
</event>
<event>
 5   0  0.4441253E-05  0.1399961E+04  0.7818609E-02  0.8953847E-01
        2   -1    0    0  501    0  0.00000000000E+00  0.00000000000E+00  0.10452164444E+04  0.10452164444E+04  0.25500000920E-02 0. -1.
       -2   -1    0    0    0  501  0.00000000000E+00  0.00000000000E+00 -0.46877610378E+03  0.46877610378E+03  0.25500000920E-02 0.  1.
    10030    2    1    2    0    0  0.00000000000E+00  0.00000000000E+00  0.57644034060E+03  0.15139925482E+04  0.13999607029E+04 0.  0.
        3    1    3    3  502    0  0.27969908680E+03 -0.36592322483E+03  0.85826122458E+03  0.97403476604E+03  0.10100000352E+00 0. -1.
       -3    1    3    3    0  502 -0.27969908680E+03  0.36592322483E+03 -0.28182088399E+03  0.53995778213E+03  0.10100000352E+00 0.  1.
</event>
<event>
 5   0  0.2363419E-05  0.1400197E+04  0.7818609E-02  0.8953676E-01
        1   -1    0    0  501    0  0.00000000000E+00  0.00000000000E+00  0.68433702879E+03  0.68433702881E+03  0.50400001928E-02 0.  1.
       -1   -1    0    0    0  501  0.00000000000E+00  0.00000000000E+00 -0.71622323371E+03  0.71622323373E+03  0.50400001928E-02 0. -1.
    10030    2    1    2    0    0  0.00000000000E+00  0.00000000000E+00 -0.31886204923E+02  0.14005602625E+04  0.14001972429E+04 0.  0.
        2    1    3    3  502    0  0.69711858413E+03 -0.61650456112E+02  0.31138880964E+01  0.69984626554E+03  0.25500000920E-02 0.  1.
       -2    1    3    3    0  502 -0.69711858413E+03  0.61650456112E+02 -0.35000093019E+02  0.70071399700E+03  0.25500000920E-02 0. -1.
</event>
<event>
 5   0  0.2316714E-05  0.1399011E+04  0.7818609E-02  0.8954535E-01
       -1   -1    0    0    0  501  0.00000000000E+00  0.00000000000E+00  0.31140908579E+03  0.31140908583E+03  0.50400001928E-02 0. -1.
        1   -1    0    0  501    0  0.00000000000E+00  0.00000000000E+00 -0.15712704302E+04  0.15712704303E+04  0.50400001928E-02 0.  1.
    10030    2    1    2    0    0  0.00000000000E+00  0.00000000000E+00 -0.12598613445E+04  0.18826795161E+04  0.13990109196E+04 0.  0.
        5    1    3    3  502    0  0.48785528816E+03  0.49698925957E+03 -0.54184300786E+03  0.88239279319E+03  0.46999998093E+01 0.  1.
       -5    1    3    3    0  502 -0.48785528816E+03 -0.49698925957E+03 -0.71801833660E+03  0.10002867229E+04  0.46999998093E+01 0. -1.
</event>
<event>
 5   0  0.2427569E-05  0.1399574E+04  0.7818609E-02  0.8954127E-01
       -1   -1    0    0    0  501  0.00000000000E+00  0.00000000000E+00  0.91976833470E+03  0.91976833471E+03  0.50400001928E-02 0.  1.
        1   -1    0    0  501    0  0.00000000000E+00  0.00000000000E+00 -0.53241866953E+03  0.53241866956E+03  0.50400001928E-02 0. -1.
    10030    2    1    2    0    0  0.00000000000E+00  0.00000000000E+00  0.38734966516E+03  0.14521870043E+04  0.13995739824E+04 0.  0.
        1    1    3    3  502    0  0.47411663101E+03  0.51043353454E+03  0.12506134812E+03  0.70779185768E+03  0.50400001928E-02 0. -1.
       -1    1    3    3    0  502 -0.47411663101E+03 -0.51043353454E+03  0.26228831704E+03  0.74439514659E+03  0.50400001928E-02 0.  1.
</event>
<event>
 5   0  0.4621450E-05  0.1399972E+04  0.7818609E-02  0.8953839E-01
        2   -1    0    0  501    0  0.00000000000E+00  0.00000000000E+00  0.75715242330E+03  0.75715242330E+03  0.25500000920E-02 0. -1.
       -2   -1    0    0    0  501  0.00000000000E+00  0.00000000000E+00 -0.64713535788E+03  0.64713535788E+03  0.25500000920E-02 0.  1.
    10030    2    1    2    0    0  0.00000000000E+00  0.00000000000E+00  0.11001706542E+03  0.14042877812E+04  0.13999715775E+04 0.  0.
        5    1    3    3  502    0  0.15813502732E+03 -0.57782502503E+03  0.41816002441E+03  0.73059451300E+03  0.46999998093E+01 0. -1.
       -5    1    3    3    0  502 -0.15813502732E+03  0.57782502503E+03 -0.30814295898E+03  0.67369326818E+03  0.46999998093E+01 0.  1.
</event>
<event>
 5   0  0.4441253E-05  0.1400034E+04  0.7818609E-02  0.8953794E-01
        2   -1    0    0  501    0  0.00000000000E+00  0.00000000000E+00  0.20111440967E+04  0.20111440967E+04  0.25500000920E-02 0. -1.
       -2   -1    0    0    0  501  0.00000000000E+00  0.00000000000E+00 -0.24365427467E+03  0.24365427468E+03  0.25500000920E-02 0.  1.
    10030    2    1    2    0    0  0.00000000000E+00  0.00000000000E+00  0.17674898220E+04  0.22547983713E+04  0.14000340798E+04 0.  0.
        3    1    3    3  502    0 -0.68031873528E+03 -0.10690300238E+03  0.10859420183E+04  0.12858973174E+04  0.10100000352E+00 0.  1.
       -3    1    3    3    0  502  0.68031873528E+03  0.10690300238E+03  0.68154780369E+03  0.96890105398E+03  0.10100000352E+00 0. -1.
</event>
<event>
 5   0  0.4527503E-05  0.1399772E+04  0.7818609E-02  0.8953984E-01
        2   -1    0    0  501    0  0.00000000000E+00  0.00000000000E+00  0.14386619248E+04  0.14386619248E+04  0.25500000920E-02 0. -1.
       -2   -1    0    0    0  501  0.00000000000E+00  0.00000000000E+00 -0.34048326800E+03  0.34048326801E+03  0.25500000920E-02 0.  1.
    10030    2    1    2    0    0  0.00000000000E+00  0.00000000000E+00  0.10981786568E+04  0.17791451928E+04  0.13997718581E+04 0.  0.
        4    1    3    3  502    0 -0.34931026625E+03  0.44133348933E+03  0.20358476753E+02  0.56321309589E+03  0.12699999809E+01 0.  1.
       -4    1    3    3    0  502  0.34931026625E+03 -0.44133348933E+03  0.10778201800E+04  0.12159320969E+04  0.12699999809E+01 0. -1.
</event>
<event>
 5   0  0.4441253E-05  0.1400660E+04  0.7818609E-02  0.8953341E-01
        2   -1    0    0  501    0  0.00000000000E+00  0.00000000000E+00  0.72120635994E+03  0.72120635995E+03  0.25500000920E-02 0. -1.
       -2   -1    0    0    0  501  0.00000000000E+00  0.00000000000E+00 -0.68005808160E+03  0.68005808161E+03  0.25500000920E-02 0.  1.
    10030    2    1    2    0    0  0.00000000000E+00  0.00000000000E+00  0.41148278342E+02  0.14012644416E+04  0.14006601495E+04 0.  0.
        3    1    3    3  502    0  0.25345616896E+03 -0.36414926158E+03  0.56267274343E+03  0.71655100355E+03  0.10100000352E+00 0. -1.
       -3    1    3    3    0  502 -0.25345616896E+03  0.36414926158E+03 -0.52152446508E+03  0.68471343800E+03  0.10100000352E+00 0.  1.
</event>
<event>
 5   0  0.2316714E-05  0.1400080E+04  0.7818609E-02  0.8953761E-01
        1   -1    0    0  501    0  0.00000000000E+00  0.00000000000E+00  0.12508505029E+04  0.12508505030E+04  0.50400001928E-02 0. -1.
       -1   -1    0    0    0  501  0.00000000000E+00  0.00000000000E+00 -0.39177810137E+03  0.39177810140E+03  0.50400001928E-02 0.  1.
    10030    2    1    2    0    0  0.00000000000E+00  0.00000000000E+00  0.85907240157E+03  0.16426286044E+04  0.14000797623E+04 0.  0.
        5    1    3    3  502    0  0.52703144652E+03  0.32396500766E+03  0.81388315301E+03  0.10223225267E+04  0.46999998093E+01 0. -1.
       -5    1    3    3    0  502 -0.52703144652E+03 -0.32396500766E+03  0.45189248567E+02  0.62030607767E+03  0.46999998093E+01 0.  1.
</event>
<event>
 5   0  0.2428507E-05  0.1400600E+04  0.7818609E-02  0.8953384E-01
        1   -1    0    0  501    0  0.00000000000E+00  0.00000000000E+00  0.51842943816E+03  0.51842943818E+03  0.50400001928E-02 0.  1.
       -1   -1    0    0    0  501  0.00000000000E+00  0.00000000000E+00 -0.94597310677E+03  0.94597310679E+03  0.50400001928E-02 0. -1.
    10030    2    1    2    0    0  0.00000000000E+00  0.00000000000E+00 -0.42754366862E+03  0.14644025450E+04  0.14006003088E+04 0.  0.
        4    1    3    3  502    0 -0.51538076341E+03  0.11438114621E+03 -0.69486088436E+03  0.87265894794E+03  0.12699999809E+01 0. -1.
       -4    1    3    3    0  502  0.51538076341E+03 -0.11438114621E+03  0.26731721574E+03  0.59174359704E+03  0.12699999809E+01 0.  1.
</event>
<event>
 5   0  0.2316714E-05  0.1400040E+04  0.7818609E-02  0.8953789E-01
       -1   -1    0    0    0  501  0.00000000000E+00  0.00000000000E+00  0.93529923623E+03  0.93529923624E+03  0.50400001928E-02 0.  1.
        1   -1    0    0  501    0  0.00000000000E+00  0.00000000000E+00 -0.52392656794E+03  0.52392656796E+03  0.50400001928E-02 0. -1.
    10030    2    1    2    0    0  0.00000000000E+00  0.00000000000E+00  0.41137266829E+03  0.14592258042E+04  0.14000401692E+04 0.  0.
        5    1    3    3  502    0 -0.40540503484E+03  0.34940058402E+03  0.67594958950E+03  0.86218556467E+03  0.46999998093E+01 0. -1.
       -5    1    3    3    0  502  0.40540503484E+03 -0.34940058402E+03 -0.26457692121E+03  0.59704023953E+03  0.46999998093E+01 0.  1.
</event>
<event>
 5   0  0.2428507E-05  0.1399340E+04  0.7818609E-02  0.8954296E-01
        1   -1    0    0  501    0  0.00000000000E+00  0.00000000000E+00  0.37185722920E+03  0.37185722923E+03  0.50400001928E-02 0.  1.
       -1   -1    0    0    0  501  0.00000000000E+00  0.00000000000E+00 -0.13164683510E+04  0.13164683510E+04  0.50400001928E-02 0. -1.
    10030    2    1    2    0    0  0.00000000000E+00  0.00000000000E+00 -0.94461112182E+03  0.16883255803E+04  0.13993402351E+04 0.  0.
        4    1    3    3  502    0 -0.42004657787E+02 -0.68909470102E+03 -0.33516151851E+03  0.76743127030E+03  0.12699999809E+01 0.  1.
       -4    1    3    3    0  502  0.42004657787E+02  0.68909470102E+03 -0.60944960331E+03  0.92089430997E+03  0.12699999809E+01 0. -1.
</event>
<event>
 5   0  0.4441253E-05  0.1410734E+04  0.7818609E-02  0.8946085E-01
        2   -1    0    0  501    0  0.00000000000E+00  0.00000000000E+00  0.19068309270E+04  0.19068309270E+04  0.25500000920E-02 0.  1.
       -2   -1    0    0    0  501  0.00000000000E+00  0.00000000000E+00 -0.26092641784E+03  0.26092641786E+03  0.25500000920E-02 0. -1.
    10030    2    1    2    0    0  0.00000000000E+00  0.00000000000E+00  0.16459045092E+04  0.21677573449E+04  0.14107339412E+04 0.  0.
        3    1    3    3  502    0 -0.18691731867E+03 -0.65836350693E+03  0.10853583501E+04  0.12831147063E+04  0.10100000352E+00 0.  1.
       -3    1    3    3    0  502  0.18691731867E+03  0.65836350693E+03  0.56054615907E+03  0.88464263854E+03  0.10100000352E+00 0. -1.
</event>
<event>
 5   0  0.2467303E-05  0.1400135E+04  0.7818609E-02  0.8953721E-01
        1   -1    0    0  501    0  0.00000000000E+00  0.00000000000E+00  0.17367539030E+04  0.17367539030E+04  0.50400001928E-02 0.  1.
       -1   -1    0    0    0  501  0.00000000000E+00  0.00000000000E+00 -0.28218986397E+03  0.28218986401E+03  0.50400001928E-02 0. -1.
    10030    2    1    2    0    0  0.00000000000E+00  0.00000000000E+00  0.14545640390E+04  0.20189437670E+04  0.14001347759E+04 0.  0.
        3    1    3    3  502    0  0.58363050497E+03 -0.16770215949E+03  0.12295860670E+04  0.13713608158E+04  0.10100000352E+00 0.  1.
       -3    1    3    3    0  502 -0.58363050497E+03  0.16770215949E+03  0.22497797197E+03  0.64758295121E+03  0.10100000352E+00 0. -1.
</event>
<event>
 5   0  0.1661000E-05  0.1400484E+04  0.7818609E-02  0.8953468E-01
        4   -1    0    0  501    0  0.00000000000E+00  0.00000000000E+00  0.58949729049E+03  0.58949865852E+03  0.12699999809E+01 0.  1.
       -4   -1    0    0    0  501  0.00000000000E+00  0.00000000000E+00 -0.83178858877E+03  0.83178955830E+03  0.12699999809E+01 0. -1.
    10030    2    1    2    0    0  0.00000000000E+00  0.00000000000E+00 -0.24229129827E+03  0.14212882168E+04  0.14004838885E+04 0.  0.
        4    1    3    3  502    0 -0.27163911333E+02 -0.16223058151E+03  0.56961257131E+03  0.59288846670E+03  0.12699999809E+01 0.  1.
       -4    1    3    3    0  502  0.27163911333E+02  0.16223058151E+03 -0.81190386958E+03  0.82839975012E+03  0.12699999809E+01 0. -1.
</event>
<event>
 5   0  0.4441253E-05  0.1400278E+04  0.7818609E-02  0.8953617E-01
        2   -1    0    0  501    0  0.00000000000E+00  0.00000000000E+00  0.44910007024E+03  0.44910007025E+03  0.25500000920E-02 0.  1.
       -2   -1    0    0    0  501  0.00000000000E+00  0.00000000000E+00 -0.10915044530E+04  0.10915044530E+04  0.25500000920E-02 0. -1.
    10030    2    1    2    0    0  0.00000000000E+00  0.00000000000E+00 -0.64240438277E+03  0.15406045233E+04  0.14002781531E+04 0.  0.
        3    1    3    3  502    0 -0.20357337009E+03 -0.38905588745E+02 -0.10569799697E+04  0.10771083643E+04  0.10100000352E+00 0. -1.
       -3    1    3    3    0  502  0.20357337009E+03  0.38905588745E+02  0.41457558697E+03  0.46349615894E+03  0.10100000352E+00 0.  1.
</event>
<event>
 5   0  0.2467303E-05  0.1399895E+04  0.7818609E-02  0.8953895E-01
        1   -1    0    0  501    0  0.00000000000E+00  0.00000000000E+00  0.54707889798E+03  0.54707889800E+03  0.50400001928E-02 0.  1.
       -1   -1    0    0    0  501  0.00000000000E+00  0.00000000000E+00 -0.89553139983E+03  0.89553139985E+03  0.50400001928E-02 0. -1.
    10030    2    1    2    0    0  0.00000000000E+00  0.00000000000E+00 -0.34845250185E+03  0.14426102978E+04  0.13998947551E+04 0.  0.
        3    1    3    3  502    0 -0.18389649011E+03  0.47573950313E+03 -0.66820704441E+03  0.84062278004E+03  0.10100000352E+00 0. -1.
       -3    1    3    3    0  502  0.18389649011E+03 -0.47573950313E+03  0.31975454256E+03  0.60198751781E+03  0.10100000352E+00 0.  1.
</event>
<event>
 5   0  0.4527503E-05  0.1399321E+04  0.7818609E-02  0.8954310E-01
        2   -1    0    0  501    0  0.00000000000E+00  0.00000000000E+00  0.11771642797E+04  0.11771642797E+04  0.25500000920E-02 0.  1.
       -2   -1    0    0    0  501  0.00000000000E+00  0.00000000000E+00 -0.41585107367E+03  0.41585107368E+03  0.25500000920E-02 0. -1.
    10030    2    1    2    0    0  0.00000000000E+00  0.00000000000E+00  0.76131320605E+03  0.15930153534E+04  0.13993213064E+04 0.  0.
        4    1    3    3  502    0 -0.35104404393E+03  0.34079515974E+03 -0.18872430788E+03  0.52439654744E+03  0.12699999809E+01 0. -1.
       -4    1    3    3    0  502  0.35104404393E+03 -0.34079515974E+03  0.95003751393E+03  0.10686188060E+04  0.12699999809E+01 0.  1.
</event>
<event>
 5   0  0.1661000E-05  0.1400198E+04  0.7818609E-02  0.8953675E-01
       -4   -1    0    0    0  501  0.00000000000E+00  0.00000000000E+00  0.36218687267E+03  0.36218909928E+03  0.12699999809E+01 0.  1.
        4   -1    0    0  501    0  0.00000000000E+00  0.00000000000E+00 -0.13532684668E+04  0.13532690628E+04  0.12699999809E+01 0. -1.
    10030    2    1    2    0    0  0.00000000000E+00  0.00000000000E+00 -0.99108159418E+03  0.17154581621E+04  0.14001978358E+04 0.  0.
        4    1    3    3  502    0  0.24917750408E+03  0.54015883727E+03 -0.43268244260E+02  0.59643503575E+03  0.12699999809E+01 0.  1.
       -4    1    3    3    0  502 -0.24917750408E+03 -0.54015883727E+03 -0.94781334992E+03  0.11190231263E+04  0.12699999809E+01 0. -1.
</event>
<event>
 5   0  0.2363419E-05  0.1402071E+04  0.7818609E-02  0.8952321E-01
       -1   -1    0    0    0  501  0.00000000000E+00  0.00000000000E+00  0.38402596668E+03  0.38402596671E+03  0.50400001928E-02 0. -1.
        1   -1    0    0  501    0  0.00000000000E+00  0.00000000000E+00 -0.12797323322E+04  0.12797323322E+04  0.50400001928E-02 0.  1.
    10030    2    1    2    0    0  0.00000000000E+00  0.00000000000E+00 -0.89570636548E+03  0.16637582989E+04  0.14020705346E+04 0.  0.
        2    1    3    3  502    0 -0.29090104757E+03 -0.48175191123E+03  0.48189646229E+02  0.56482790783E+03  0.25500000920E-02 0. -1.
       -2    1    3    3    0  502  0.29090104757E+03  0.48175191123E+03 -0.94389601171E+03  0.10989303911E+04  0.25500000920E-02 0.  1.
</event>
<event>
 5   0  0.2428507E-05  0.1400074E+04  0.7818609E-02  0.8953765E-01
        1   -1    0    0  501    0  0.00000000000E+00  0.00000000000E+00  0.13225666678E+04  0.13225666678E+04  0.50400001928E-02 0. -1.
       -1   -1    0    0    0  501  0.00000000000E+00  0.00000000000E+00 -0.37053081424E+03  0.37053081427E+03  0.50400001928E-02 0.  1.
    10030    2    1    2    0    0  0.00000000000E+00  0.00000000000E+00  0.95203585354E+03  0.16930974821E+04  0.14000738614E+04 0.  0.
        4    1    3    3  502    0 -0.27133619450E+03  0.29843909321E+03  0.11679196279E+04  0.12356079852E+04  0.12699999809E+01 0. -1.
       -4    1    3    3    0  502  0.27133619450E+03 -0.29843909321E+03 -0.21588377440E+03  0.45748949688E+03  0.12699999809E+01 0.  1.
</event>
<event>
 5   0  0.2467303E-05  0.1397317E+04  0.7818609E-02  0.8955763E-01
        1   -1    0    0  501    0  0.00000000000E+00  0.00000000000E+00  0.87021922399E+03  0.87021922400E+03  0.50400001928E-02 0. -1.
       -1   -1    0    0    0  501  0.00000000000E+00  0.00000000000E+00 -0.56092024023E+03  0.56092024026E+03  0.50400001928E-02 0.  1.
    10030    2    1    2    0    0  0.00000000000E+00  0.00000000000E+00  0.30929898375E+03  0.14311394643E+04  0.13973168233E+04 0.  0.
        3    1    3    3  502    0 -0.82057340204E+02  0.56274721871E+03  0.57031254158E+03  0.80540315652E+03  0.10100000352E+00 0. -1.
       -3    1    3    3    0  502  0.82057340204E+02 -0.56274721871E+03 -0.26101355783E+03  0.62573630774E+03  0.10100000352E+00 0.  1.
</event>
<event>
 5   0  0.2316714E-05  0.1392441E+04  0.7818609E-02  0.8959308E-01
       -1   -1    0    0    0  501  0.00000000000E+00  0.00000000000E+00  0.33778283843E+03  0.33778283847E+03  0.50400001928E-02 0.  1.
        1   -1    0    0  501    0  0.00000000000E+00  0.00000000000E+00 -0.14350137327E+04  0.14350137327E+04  0.50400001928E-02 0. -1.
    10030    2    1    2    0    0  0.00000000000E+00  0.00000000000E+00 -0.10972308942E+04  0.17727965711E+04  0.13924410391E+04 0.  0.
        5    1    3    3  502    0  0.10567064625E+03 -0.55364215129E+03 -0.10689226444E+04  0.12084302325E+04  0.46999998093E+01 0. -1.
       -5    1    3    3    0  502 -0.10567064625E+03  0.55364215129E+03 -0.28308249845E+02  0.56436633862E+03  0.46999998093E+01 0.  1.
</event>
<event>
 5   0  0.4441253E-05  0.1399661E+04  0.7818609E-02  0.8954064E-01
        2   -1    0    0  501    0  0.00000000000E+00  0.00000000000E+00  0.44716813986E+03  0.44716813987E+03  0.25500000920E-02 0. -1.
       -2   -1    0    0    0  501  0.00000000000E+00  0.00000000000E+00 -0.10952533105E+04  0.10952533105E+04  0.25500000920E-02 0.  1.
    10030    2    1    2    0    0  0.00000000000E+00  0.00000000000E+00 -0.64808517062E+03  0.15424214504E+04  0.13996605096E+04 0.  0.
        3    1    3    3  502    0 -0.27007599028E+03  0.49034936622E+02  0.38537031368E+03  0.47313397088E+03  0.10100000352E+00 0. -1.
       -3    1    3    3    0  502  0.27007599028E+03 -0.49034936622E+02 -0.10334554843E+04  0.10692874795E+04  0.10100000352E+00 0.  1.
</event>
<event>
 5   0  0.2427569E-05  0.1399426E+04  0.7818609E-02  0.8954234E-01
       -1   -1    0    0    0  501  0.00000000000E+00  0.00000000000E+00  0.34644136160E+03  0.34644136164E+03  0.50400001928E-02 0. -1.
        1   -1    0    0  501    0  0.00000000000E+00  0.00000000000E+00 -0.14132215552E+04  0.14132215553E+04  0.50400001928E-02 0.  1.
    10030    2    1    2    0    0  0.00000000000E+00  0.00000000000E+00 -0.10667801936E+04  0.17596629169E+04  0.13994261679E+04 0.  0.
        1    1    3    3  502    0  0.47544499538E+03  0.50821208252E+03 -0.62468012444E+03  0.93517523617E+03  0.50400001928E-02 0. -1.
       -1    1    3    3    0  502 -0.47544499538E+03 -0.50821208252E+03 -0.44210006920E+03  0.82448768072E+03  0.50400001928E-02 0.  1.
</event>
<event>
 5   0  0.4460282E-05  0.1400039E+04  0.7818609E-02  0.8953790E-01
       -2   -1    0    0    0  501  0.00000000000E+00  0.00000000000E+00  0.41961118924E+03  0.41961118925E+03  0.25500000920E-02 0. -1.
        2   -1    0    0  501    0  0.00000000000E+00  0.00000000000E+00 -0.11678124923E+04  0.11678124923E+04  0.25500000920E-02 0.  1.
    10030    2    1    2    0    0  0.00000000000E+00  0.00000000000E+00 -0.74820130301E+03  0.15874236815E+04  0.14000388405E+04 0.  0.
        1    1    3    3  502    0  0.62298716040E+03 -0.89053531198E+02 -0.72169998620E+03  0.95754603207E+03  0.50400001928E-02 0. -1.
       -1    1    3    3    0  502 -0.62298716040E+03  0.89053531198E+02 -0.26501316818E+02  0.62987764943E+03  0.50400001928E-02 0.  1.
</event>
<event>
 5   0  0.2467303E-05  0.1398598E+04  0.7818609E-02  0.8954834E-01
       -1   -1    0    0    0  501  0.00000000000E+00  0.00000000000E+00  0.63375329583E+03  0.63375329585E+03  0.50400001928E-02 0.  1.
        1   -1    0    0  501    0  0.00000000000E+00  0.00000000000E+00 -0.77162406340E+03  0.77162406341E+03  0.50400001928E-02 0. -1.
    10030    2    1    2    0    0  0.00000000000E+00  0.00000000000E+00 -0.13787076757E+03  0.14053773593E+04  0.13985982888E+04 0.  0.
        3    1    3    3  502    0  0.61070702210E+03 -0.36783197605E+02  0.27138483460E+03  0.66930247954E+03  0.10100000352E+00 0.  1.
       -3    1    3    3    0  502 -0.61070702210E+03  0.36783197605E+02 -0.40925560217E+03  0.73607487973E+03  0.10100000352E+00 0. -1.
</event>
<event>
 5   0  0.2363419E-05  0.1400172E+04  0.7818609E-02  0.8953694E-01
       -1   -1    0    0    0  501  0.00000000000E+00  0.00000000000E+00  0.32215601602E+03  0.32215601606E+03  0.50400001928E-02 0.  1.
        1   -1    0    0  501    0  0.00000000000E+00  0.00000000000E+00 -0.15213767377E+04  0.15213767377E+04  0.50400001928E-02 0. -1.
    10030    2    1    2    0    0  0.00000000000E+00  0.00000000000E+00 -0.11992207217E+04  0.18435327538E+04  0.14001723733E+04 0.  0.
        2    1    3    3  502    0 -0.40550359573E+03  0.53315593385E+03 -0.86761272644E+03  0.10961023032E+04  0.25500000920E-02 0. -1.
       -2    1    3    3    0  502  0.40550359573E+03 -0.53315593385E+03 -0.33160799524E+03  0.74743045059E+03  0.25500000920E-02 0.  1.
</event>
<event>
 5   0  0.2316714E-05  0.1394844E+04  0.7818609E-02  0.8957559E-01
       -1   -1    0    0    0  501  0.00000000000E+00  0.00000000000E+00  0.71805762718E+03  0.71805762720E+03  0.50400001928E-02 0. -1.
        1   -1    0    0  501    0  0.00000000000E+00  0.00000000000E+00 -0.67737959768E+03  0.67737959770E+03  0.50400001928E-02 0.  1.
    10030    2    1    2    0    0  0.00000000000E+00  0.00000000000E+00  0.40678029508E+02  0.13954372249E+04  0.13948442015E+04 0.  0.
        5    1    3    3  502    0  0.23839377820E+03  0.28408445206E+03  0.61121684610E+03  0.71494313924E+03  0.46999998093E+01 0. -1.
       -5    1    3    3    0  502 -0.23839377820E+03 -0.28408445206E+03 -0.57053881659E+03  0.68049408566E+03  0.46999998093E+01 0.  1.
</event>
<event>
 5   0  0.4621450E-05  0.1399772E+04  0.7818609E-02  0.8953984E-01
       -2   -1    0    0    0  501  0.00000000000E+00  0.00000000000E+00  0.66393956595E+03  0.66393956595E+03  0.25500000920E-02 0.  1.
        2   -1    0    0  501    0  0.00000000000E+00  0.00000000000E+00 -0.73777829271E+03  0.73777829271E+03  0.25500000920E-02 0. -1.
    10030    2    1    2    0    0  0.00000000000E+00  0.00000000000E+00 -0.73838726758E+02  0.14017178587E+04  0.13997716949E+04 0.  0.
        5    1    3    3  502    0 -0.19940681588E+03 -0.32783682932E+03  0.54919607683E+03  0.66998394435E+03  0.46999998093E+01 0.  1.
       -5    1    3    3    0  502  0.19940681588E+03  0.32783682932E+03 -0.62303480359E+03  0.73173391432E+03  0.46999998093E+01 0. -1.
</event>
<event>
 5   0  0.4621450E-05  0.1400105E+04  0.7818609E-02  0.8953743E-01
        2   -1    0    0  501    0  0.00000000000E+00  0.00000000000E+00  0.14193926456E+04  0.14193926456E+04  0.25500000920E-02 0. -1.
       -2   -1    0    0    0  501  0.00000000000E+00  0.00000000000E+00 -0.34526964454E+03  0.34526964455E+03  0.25500000920E-02 0.  1.
    10030    2    1    2    0    0  0.00000000000E+00  0.00000000000E+00  0.10741230011E+04  0.17646622902E+04  0.14001045593E+04 0.  0.
        5    1    3    3  502    0  0.54827294695E+03  0.33660998931E+03  0.18927548082E+03  0.67063910332E+03  0.46999998093E+01 0.  1.
       -5    1    3    3    0  502 -0.54827294695E+03 -0.33660998931E+03  0.88484752024E+03  0.10940231868E+04  0.46999998093E+01 0. -1.
</event>
<event>
 5   0  0.4621450E-05  0.1400089E+04  0.7818609E-02  0.8953754E-01
       -2   -1    0    0    0  501  0.00000000000E+00  0.00000000000E+00  0.35291448112E+03  0.35291448113E+03  0.25500000920E-02 0.  1.
        2   -1    0    0  501    0  0.00000000000E+00  0.00000000000E+00 -0.13886150242E+04  0.13886150242E+04  0.25500000920E-02 0. -1.
    10030    2    1    2    0    0  0.00000000000E+00  0.00000000000E+00 -0.10357005431E+04  0.17415295054E+04  0.14000890697E+04 0.  0.
        5    1    3    3  502    0 -0.31364883555E+02  0.69115989774E+03 -0.38530654087E+03  0.79194001073E+03  0.46999998093E+01 0.  1.
       -5    1    3    3    0  502  0.31364883555E+02 -0.69115989774E+03 -0.65039400223E+03  0.94958949462E+03  0.46999998093E+01 0. -1.
</event>
<event>
 5   0  0.2428507E-05  0.1400708E+04  0.7818609E-02  0.8953306E-01
       -1   -1    0    0    0  501  0.00000000000E+00  0.00000000000E+00  0.12562104497E+04  0.12562104497E+04  0.50400001928E-02 0. -1.
        1   -1    0    0  501    0  0.00000000000E+00  0.00000000000E+00 -0.39045675571E+03  0.39045675574E+03  0.50400001928E-02 0.  1.
    10030    2    1    2    0    0  0.00000000000E+00  0.00000000000E+00  0.86575369395E+03  0.16466672054E+04  0.14007081876E+04 0.  0.
        4    1    3    3  502    0 -0.68090996020E+03  0.58419308744E+02  0.25287984755E+03  0.72869816779E+03  0.12699999809E+01 0.  1.
       -4    1    3    3    0  502  0.68090996020E+03 -0.58419308744E+02  0.61287384639E+03  0.91796903762E+03  0.12699999809E+01 0. -1.
</event>
<event>
 5   0  0.4243281E-05  0.1399660E+04  0.7818609E-02  0.8954065E-01
        2   -1    0    0  501    0  0.00000000000E+00  0.00000000000E+00  0.71354764758E+03  0.71354764759E+03  0.25500000920E-02 0. -1.
       -2   -1    0    0    0  501  0.00000000000E+00  0.00000000000E+00 -0.68637631428E+03  0.68637631428E+03  0.25500000920E-02 0.  1.
    10030    2    1    2    0    0  0.00000000000E+00  0.00000000000E+00  0.27171333305E+02  0.13999239619E+04  0.13996602508E+04 0.  0.
        2    1    3    3  502    0  0.32064042955E+03 -0.36787990061E+03  0.51529387015E+03  0.70969971041E+03  0.25500000920E-02 0. -1.
       -2    1    3    3    0  502 -0.32064042955E+03  0.36787990061E+03 -0.48812253684E+03  0.69022425147E+03  0.25500000920E-02 0.  1.
</event>
<event>
 5   0  0.4441253E-05  0.1400456E+04  0.7818609E-02  0.8953489E-01
       -2   -1    0    0    0  501  0.00000000000E+00  0.00000000000E+00  0.38420733372E+03  0.38420733373E+03  0.25500000920E-02 0. -1.
        2   -1    0    0  501    0  0.00000000000E+00  0.00000000000E+00 -0.12761838077E+04  0.12761838077E+04  0.25500000920E-02 0.  1.
    10030    2    1    2    0    0  0.00000000000E+00  0.00000000000E+00 -0.89197647397E+03  0.16603911414E+04  0.14004558945E+04 0.  0.
        3    1    3    3  502    0  0.21993498984E+03  0.87960416273E+02 -0.12272404294E+04  0.12498910018E+04  0.10100000352E+00 0.  1.
       -3    1    3    3    0  502 -0.21993498984E+03 -0.87960416273E+02  0.33526395547E+03  0.41050013961E+03  0.10100000352E+00 0. -1.
</event>
<event>
 5   0  0.2427569E-05  0.1400282E+04  0.7818609E-02  0.8953615E-01
        1   -1    0    0  501    0  0.00000000000E+00  0.00000000000E+00  0.20961062964E+04  0.20961062964E+04  0.50400001928E-02 0.  1.
       -1   -1    0    0    0  501  0.00000000000E+00  0.00000000000E+00 -0.23386083716E+03  0.23386083722E+03  0.50400001928E-02 0. -1.
    10030    2    1    2    0    0  0.00000000000E+00  0.00000000000E+00  0.18622454592E+04  0.23299671336E+04  0.14002816478E+04 0.  0.
        1    1    3    3  502    0  0.47832091793E+03 -0.51111436209E+03  0.95271417732E+03  0.11822407096E+04  0.50400001928E-02 0. -1.
       -1    1    3    3    0  502 -0.47832091793E+03  0.51111436209E+03  0.90953128191E+03  0.11477264240E+04  0.50400001928E-02 0.  1.
</event>
<event>
 5   0  0.4441253E-05  0.1400200E+04  0.7818609E-02  0.8953674E-01
        2   -1    0    0  501    0  0.00000000000E+00  0.00000000000E+00  0.53630305141E+03  0.53630305142E+03  0.25500000920E-02 0.  1.
       -2   -1    0    0    0  501  0.00000000000E+00  0.00000000000E+00 -0.91392294078E+03  0.91392294078E+03  0.25500000920E-02 0. -1.
    10030    2    1    2    0    0  0.00000000000E+00  0.00000000000E+00 -0.37761988936E+03  0.14502259922E+04  0.14001995028E+04 0.  0.
        3    1    3    3  502    0  0.12183572674E+03  0.50477985616E+03 -0.67515350857E+03  0.85175050210E+03  0.10100000352E+00 0. -1.
       -3    1    3    3    0  502 -0.12183572674E+03 -0.50477985616E+03  0.29753361921E+03  0.59847549010E+03  0.10100000352E+00 0.  1.
</event>
<event>
 5   0  0.2428507E-05  0.1400253E+04  0.7818609E-02  0.8953635E-01
        1   -1    0    0  501    0  0.00000000000E+00  0.00000000000E+00  0.18189147177E+04  0.18189147177E+04  0.50400001928E-02 0.  1.
       -1   -1    0    0    0  501  0.00000000000E+00  0.00000000000E+00 -0.26948883891E+03  0.26948883896E+03  0.50400001928E-02 0. -1.
    10030    2    1    2    0    0  0.00000000000E+00  0.00000000000E+00  0.15494258788E+04  0.20884035567E+04  0.14002531420E+04 0.  0.
        4    1    3    3  502    0  0.56598627064E+01 -0.64747335967E+02 -0.26497801434E+03  0.27283550455E+03  0.12699999809E+01 0. -1.
       -4    1    3    3    0  502 -0.56598627064E+01  0.64747335967E+02  0.18144038932E+04  0.18155680521E+04  0.12699999809E+01 0.  1.
</event>
<event>
 5   0  0.4621450E-05  0.1400617E+04  0.7818609E-02  0.8953372E-01
        2   -1    0    0  501    0  0.00000000000E+00  0.00000000000E+00  0.10333594879E+04  0.10333594879E+04  0.25500000920E-02 0. -1.
       -2   -1    0    0    0  501  0.00000000000E+00  0.00000000000E+00 -0.47459925873E+03  0.47459925873E+03  0.25500000920E-02 0.  1.
    10030    2    1    2    0    0  0.00000000000E+00  0.00000000000E+00  0.55876022919E+03  0.15079587466E+04  0.14006165028E+04 0.  0.
        5    1    3    3  502    0 -0.53967839129E+03  0.34532531239E+03  0.58372305427E+03  0.86675084741E+03  0.46999998093E+01 0. -1.
       -5    1    3    3    0  502  0.53967839129E+03 -0.34532531239E+03 -0.24962825086E+02  0.64120789923E+03  0.46999998093E+01 0.  1.
</event>
<event>
 5   0  0.2467303E-05  0.1399796E+04  0.7818609E-02  0.8953966E-01
       -1   -1    0    0    0  501  0.00000000000E+00  0.00000000000E+00  0.28460701016E+03  0.28460701021E+03  0.50400001928E-02 0. -1.
        1   -1    0    0  501    0  0.00000000000E+00  0.00000000000E+00 -0.17211716881E+04  0.17211716881E+04  0.50400001928E-02 0.  1.
    10030    2    1    2    0    0  0.00000000000E+00  0.00000000000E+00 -0.14365646779E+04  0.20057786983E+04  0.13997964540E+04 0.  0.
        3    1    3    3  502    0  0.36542440161E+03 -0.36023181006E+03 -0.36249170752E+02  0.51440836196E+03  0.10100000352E+00 0. -1.
       -3    1    3    3    0  502 -0.36542440161E+03  0.36023181006E+03 -0.14003155072E+04  0.14913703363E+04  0.10100000352E+00 0.  1.
</event>
<event>
 5   0  0.4243281E-05  0.1399725E+04  0.7818609E-02  0.8954017E-01
       -2   -1    0    0    0  501  0.00000000000E+00  0.00000000000E+00  0.55921314119E+03  0.55921314119E+03  0.25500000920E-02 0. -1.
        2   -1    0    0  501    0  0.00000000000E+00  0.00000000000E+00 -0.87588732907E+03  0.87588732907E+03  0.25500000920E-02 0.  1.
    10030    2    1    2    0    0  0.00000000000E+00  0.00000000000E+00 -0.31667418788E+03  0.14351004703E+04  0.13997252654E+04 0.  0.
        2    1    3    3  502    0  0.38936646512E+03 -0.16219107952E+03  0.41425331510E+03  0.59120047320E+03  0.25500000920E-02 0. -1.
       -2    1    3    3    0  502 -0.38936646512E+03  0.16219107952E+03 -0.73092750298E+03  0.84389999707E+03  0.25500000920E-02 0.  1.
</event>
<event>
 5   0  0.2316714E-05  0.1399883E+04  0.7818609E-02  0.8953903E-01
       -1   -1    0    0    0  501  0.00000000000E+00  0.00000000000E+00  0.59325040923E+03  0.59325040926E+03  0.50400001928E-02 0. -1.
        1   -1    0    0  501    0  0.00000000000E+00  0.00000000000E+00 -0.82582015132E+03  0.82582015134E+03  0.50400001928E-02 0.  1.
    10030    2    1    2    0    0  0.00000000000E+00  0.00000000000E+00 -0.23256974209E+03  0.14190705606E+04  0.13998830562E+04 0.  0.
        5    1    3    3  502    0  0.27953212067E+03 -0.63534386408E+03 -0.20749604323E+03  0.72448376798E+03  0.46999998093E+01 0. -1.
       -5    1    3    3    0  502 -0.27953212067E+03  0.63534386408E+03 -0.25073698853E+02  0.69458679262E+03  0.46999998093E+01 0.  1.
</event>
<event>
 5   0  0.2363419E-05  0.1399972E+04  0.7818609E-02  0.8953839E-01
        1   -1    0    0  501    0  0.00000000000E+00  0.00000000000E+00  0.13504414523E+04  0.13504414523E+04  0.50400001928E-02 0.  1.
       -1   -1    0    0    0  501  0.00000000000E+00  0.00000000000E+00 -0.36282976096E+03  0.36282976099E+03  0.50400001928E-02 0. -1.
    10030    2    1    2    0    0  0.00000000000E+00  0.00000000000E+00  0.98761169135E+03  0.17132712133E+04  0.13999719274E+04 0.  0.
        2    1    3    3  502    0  0.27769312072E+03  0.50693476850E+03  0.10627358227E+02  0.57810835452E+03  0.25500000920E-02 0. -1.
       -2    1    3    3    0  502 -0.27769312072E+03 -0.50693476850E+03  0.97698433313E+03  0.11351628588E+04  0.25500000920E-02 0.  1.
</event>
<event>
 5   0  0.2316714E-05  0.1400105E+04  0.7818609E-02  0.8953742E-01
       -1   -1    0    0    0  501  0.00000000000E+00  0.00000000000E+00  0.10372264390E+04  0.10372264391E+04  0.50400001928E-02 0.  1.
        1   -1    0    0  501    0  0.00000000000E+00  0.00000000000E+00 -0.47248467562E+03  0.47248467565E+03  0.50400001928E-02 0. -1.
    10030    2    1    2    0    0  0.00000000000E+00  0.00000000000E+00  0.56474176342E+03  0.15097111147E+04  0.14001051355E+04 0.  0.
        5    1    3    3  502    0  0.23400349447E+03  0.50036848626E+02  0.99173939223E+03  0.10202109751E+04  0.46999998093E+01 0.  1.
       -5    1    3    3    0  502 -0.23400349447E+03 -0.50036848626E+02 -0.42699762881E+03  0.48950013959E+03  0.46999998093E+01 0. -1.
</event>
<event>
 5   0  0.4621450E-05  0.1391450E+04  0.7818609E-02  0.8960031E-01
       -2   -1    0    0    0  501  0.00000000000E+00  0.00000000000E+00  0.45984554653E+03  0.45984554654E+03  0.25500000920E-02 0. -1.
        2   -1    0    0  501    0  0.00000000000E+00  0.00000000000E+00 -0.10525993399E+04  0.10525993399E+04  0.25500000920E-02 0.  1.
    10030    2    1    2    0    0  0.00000000000E+00  0.00000000000E+00 -0.59275379332E+03  0.15124448864E+04  0.13914497745E+04 0.  0.
        5    1    3    3  502    0  0.55845847699E+03  0.34597436071E+03 -0.47473669617E+02  0.65867288399E+03  0.46999998093E+01 0.  1.
       -5    1    3    3    0  502 -0.55845847699E+03 -0.34597436071E+03 -0.54528012370E+03  0.85377200241E+03  0.46999998093E+01 0. -1.
</event>
<event>
 5   0  0.2316714E-05  0.1400060E+04  0.7818609E-02  0.8953775E-01
       -1   -1    0    0    0  501  0.00000000000E+00  0.00000000000E+00  0.31624163277E+03  0.31624163281E+03  0.50400001928E-02 0.  1.
        1   -1    0    0  501    0  0.00000000000E+00  0.00000000000E+00 -0.15495812396E+04  0.15495812396E+04  0.50400001928E-02 0. -1.
    10030    2    1    2    0    0  0.00000000000E+00  0.00000000000E+00 -0.12333396069E+04  0.18658228724E+04  0.14000601435E+04 0.  0.
        5    1    3    3  502    0  0.58307666427E+03  0.31710068299E+03 -0.91313728085E+03  0.11288813150E+04  0.46999998093E+01 0. -1.
       -5    1    3    3    0  502 -0.58307666427E+03 -0.31710068299E+03 -0.32020232601E+03  0.73694155749E+03  0.46999998093E+01 0.  1.
</event>
<event>
 5   0  0.4460282E-05  0.1399922E+04  0.7818609E-02  0.8953875E-01
       -2   -1    0    0    0  501  0.00000000000E+00  0.00000000000E+00  0.28054470993E+03  0.28054470994E+03  0.25500000920E-02 0. -1.
        2   -1    0    0  501    0  0.00000000000E+00  0.00000000000E+00 -0.17464078214E+04  0.17464078214E+04  0.25500000920E-02 0.  1.
    10030    2    1    2    0    0  0.00000000000E+00  0.00000000000E+00 -0.14658631115E+04  0.20269525314E+04  0.13999221060E+04 0.  0.
        1    1    3    3  502    0 -0.38428824480E+02 -0.16622345443E+03  0.24997915386E+03  0.30264928340E+03  0.50400001928E-02 0. -1.
       -1    1    3    3    0  502  0.38428824480E+02  0.16622345443E+03 -0.17158422654E+04  0.17243032480E+04  0.50400001928E-02 0.  1.
</event>
<event>
 5   0  0.4621450E-05  0.1400337E+04  0.7818609E-02  0.8953575E-01
       -2   -1    0    0    0  501  0.00000000000E+00  0.00000000000E+00  0.37643727493E+03  0.37643727494E+03  0.25500000920E-02 0. -1.
        2   -1    0    0  501    0  0.00000000000E+00  0.00000000000E+00 -0.13023043638E+04  0.13023043638E+04  0.25500000920E-02 0.  1.
    10030    2    1    2    0    0  0.00000000000E+00  0.00000000000E+00 -0.92586708886E+03  0.16787416387E+04  0.14003369678E+04 0.  0.
        5    1    3    3  502    0  0.41043556152E+03 -0.10488339820E+03 -0.11312174883E+04  0.12079457659E+04  0.46999998093E+01 0.  1.
       -5    1    3    3    0  502 -0.41043556152E+03  0.10488339820E+03  0.20535039945E+03  0.47079587289E+03  0.46999998093E+01 0. -1.
</event>
<event>
 5   0  0.4621450E-05  0.1399609E+04  0.7818609E-02  0.8954102E-01
       -2   -1    0    0    0  501  0.00000000000E+00  0.00000000000E+00  0.36245764841E+03  0.36245764841E+03  0.25500000920E-02 0. -1.
        2   -1    0    0  501    0  0.00000000000E+00  0.00000000000E+00 -0.13511267359E+04  0.13511267359E+04  0.25500000920E-02 0.  1.
    10030    2    1    2    0    0  0.00000000000E+00  0.00000000000E+00 -0.98866908750E+03  0.17135843843E+04  0.13996088302E+04 0.  0.
        5    1    3    3  502    0  0.47976447996E+03  0.71751654357E+02  0.12317248116E+03  0.50051554047E+03  0.46999998093E+01 0. -1.
       -5    1    3    3    0  502 -0.47976447996E+03 -0.71751654357E+02 -0.11118415687E+04  0.12130688439E+04  0.46999998093E+01 0.  1.
</event>
<event>
 5   0  0.2316714E-05  0.1400352E+04  0.7818609E-02  0.8953564E-01
        1   -1    0    0  501    0  0.00000000000E+00  0.00000000000E+00  0.16431414945E+04  0.16431414945E+04  0.50400001928E-02 0.  1.
       -1   -1    0    0    0  501  0.00000000000E+00  0.00000000000E+00 -0.29835925324E+03  0.29835925329E+03  0.50400001928E-02 0. -1.
    10030    2    1    2    0    0  0.00000000000E+00  0.00000000000E+00  0.13447822413E+04  0.19415007478E+04  0.14003520548E+04 0.  0.
        5    1    3    3  502    0  0.73781987951E+01 -0.16675488141E+03  0.16151307176E+04  0.16237398047E+04  0.46999998093E+01 0.  1.
       -5    1    3    3    0  502 -0.73781987951E+01  0.16675488141E+03 -0.27034847637E+03  0.31776094311E+03  0.46999998093E+01 0. -1.
</event>
<event>
 5   0  0.2316714E-05  0.1399715E+04  0.7818609E-02  0.8954025E-01
        1   -1    0    0  501    0  0.00000000000E+00  0.00000000000E+00  0.10758758036E+04  0.10758758036E+04  0.50400001928E-02 0.  1.
       -1   -1    0    0    0  501  0.00000000000E+00  0.00000000000E+00 -0.45525720381E+03  0.45525720384E+03  0.50400001928E-02 0. -1.
    10030    2    1    2    0    0  0.00000000000E+00  0.00000000000E+00  0.62061859975E+03  0.15311330074E+04  0.13997145566E+04 0.  0.
        5    1    3    3  502    0  0.22007683862E+02  0.14321420127E+03 -0.43865236036E+03  0.46198769338E+03  0.46999998093E+01 0. -1.
       -5    1    3    3    0  502 -0.22007683862E+02 -0.14321420127E+03  0.10592709601E+04  0.10691453140E+04  0.46999998093E+01 0.  1.
</event>
<event>
 5   0  0.4621450E-05  0.1399546E+04  0.7818609E-02  0.8954147E-01
       -2   -1    0    0    0  501  0.00000000000E+00  0.00000000000E+00  0.31763479177E+03  0.31763479178E+03  0.25500000920E-02 0. -1.
        2   -1    0    0  501    0  0.00000000000E+00  0.00000000000E+00 -0.15416518664E+04  0.15416518664E+04  0.25500000920E-02 0.  1.
    10030    2    1    2    0    0  0.00000000000E+00  0.00000000000E+00 -0.12240170746E+04  0.18592866582E+04  0.13995460258E+04 0.  0.
        5    1    3    3  502    0  0.29566972121E+03  0.10955670303E+03  0.21788684406E+03  0.38330147669E+03  0.46999998093E+01 0. -1.
       -5    1    3    3    0  502 -0.29566972121E+03 -0.10955670303E+03 -0.14419039187E+04  0.14759851815E+04  0.46999998093E+01 0.  1.
</event>
<event>
 5   0  0.2428507E-05  0.1399806E+04  0.7818609E-02  0.8953959E-01
       -1   -1    0    0    0  501  0.00000000000E+00  0.00000000000E+00  0.88033179089E+03  0.88033179090E+03  0.50400001928E-02 0. -1.
        1   -1    0    0  501    0  0.00000000000E+00  0.00000000000E+00 -0.55645439839E+03  0.55645439842E+03  0.50400001928E-02 0.  1.
    10030    2    1    2    0    0  0.00000000000E+00  0.00000000000E+00  0.32387739249E+03  0.14367861893E+04  0.13998064111E+04 0.  0.
        4    1    3    3  502    0  0.36894915168E+02 -0.60446303810E+02  0.87664386554E+03  0.87950046634E+03  0.12699999809E+01 0. -1.
       -4    1    3    3    0  502 -0.36894915168E+02  0.60446303810E+02 -0.55276647304E+03  0.55728572297E+03  0.12699999809E+01 0.  1.
</event>
<event>
 5   0  0.4460282E-05  0.1400107E+04  0.7818609E-02  0.8953741E-01
       -2   -1    0    0    0  501  0.00000000000E+00  0.00000000000E+00  0.29280065129E+03  0.29280065131E+03  0.25500000920E-02 0.  1.
        2   -1    0    0  501    0  0.00000000000E+00  0.00000000000E+00 -0.16737505220E+04  0.16737505220E+04  0.25500000920E-02 0. -1.
    10030    2    1    2    0    0  0.00000000000E+00  0.00000000000E+00 -0.13809498707E+04  0.19665511733E+04  0.14001074858E+04 0.  0.
        1    1    3    3  502    0 -0.68296496752E+03 -0.14050378201E+03 -0.77810920880E+03  0.10448140507E+04  0.50400001928E-02 0. -1.
       -1    1    3    3    0  502  0.68296496752E+03  0.14050378201E+03 -0.60284066195E+03  0.92173712269E+03  0.50400001928E-02 0.  1.
</event>
<event>
 5   0  0.2316714E-05  0.1400997E+04  0.7818609E-02  0.8953097E-01
        1   -1    0    0  501    0  0.00000000000E+00  0.00000000000E+00  0.11615510292E+04  0.11615510292E+04  0.50400001928E-02 0. -1.
       -1   -1    0    0    0  501  0.00000000000E+00  0.00000000000E+00 -0.42245082507E+03  0.42245082510E+03  0.50400001928E-02 0.  1.
    10030    2    1    2    0    0  0.00000000000E+00  0.00000000000E+00  0.73910020417E+03  0.15840018543E+04  0.14009970602E+04 0.  0.
        5    1    3    3  502    0 -0.19957408868E+03 -0.65787649511E+03  0.52142797641E+03  0.86286761689E+03  0.46999998093E+01 0. -1.
       -5    1    3    3    0  502  0.19957408868E+03  0.65787649511E+03  0.21767222776E+03  0.72113423746E+03  0.46999998093E+01 0.  1.
</event>
<event>
 5   0  0.2427569E-05  0.1399933E+04  0.7818609E-02  0.8953867E-01
       -1   -1    0    0    0  501  0.00000000000E+00  0.00000000000E+00  0.27082125579E+03  0.27082125584E+03  0.50400001928E-02 0. -1.
        1   -1    0    0  501    0  0.00000000000E+00  0.00000000000E+00 -0.18091370772E+04  0.18091370772E+04  0.50400001928E-02 0.  1.
    10030    2    1    2    0    0  0.00000000000E+00  0.00000000000E+00 -0.15383158214E+04  0.20799583331E+04  0.13999325344E+04 0.  0.
        1    1    3    3  502    0 -0.44040914346E+03  0.26842551643E+03 -0.14722523445E+04  0.15599805888E+04  0.50400001928E-02 0.  1.
       -1    1    3    3    0  502  0.44040914346E+03 -0.26842551643E+03 -0.66063476913E+02  0.51997774426E+03  0.50400001928E-02 0. -1.
</event>
<event>
 5   0  0.2427569E-05  0.1399582E+04  0.7818609E-02  0.8954121E-01
       -1   -1    0    0    0  501  0.00000000000E+00  0.00000000000E+00  0.59090129075E+03  0.59090129077E+03  0.50400001928E-02 0. -1.
        1   -1    0    0  501    0  0.00000000000E+00  0.00000000000E+00 -0.82874624498E+03  0.82874624500E+03  0.50400001928E-02 0.  1.
    10030    2    1    2    0    0  0.00000000000E+00  0.00000000000E+00 -0.23784495424E+03  0.14196475358E+04  0.13995816888E+04 0.  0.
        1    1    3    3  502    0  0.22822127107E+03 -0.12100566414E+03  0.54077093871E+03  0.59930003129E+03  0.50400001928E-02 0. -1.
       -1    1    3    3    0  502 -0.22822127107E+03  0.12100566414E+03 -0.77861589295E+03  0.82034750448E+03  0.50400001928E-02 0.  1.
</event>
<event>
 5   0  0.2428507E-05  0.1400688E+04  0.7818609E-02  0.8953321E-01
        1   -1    0    0  501    0  0.00000000000E+00  0.00000000000E+00  0.11398384919E+04  0.11398384919E+04  0.50400001928E-02 0. -1.
       -1   -1    0    0    0  501  0.00000000000E+00  0.00000000000E+00 -0.43030786002E+03  0.43030786005E+03  0.50400001928E-02 0.  1.
    10030    2    1    2    0    0  0.00000000000E+00  0.00000000000E+00  0.70953063186E+03  0.15701463519E+04  0.14006876343E+04 0.  0.
        4    1    3    3  502    0 -0.12395465334E+03 -0.20150488110E+03  0.10936882835E+04  0.11189837566E+04  0.12699999809E+01 0. -1.
       -4    1    3    3    0  502  0.12395465334E+03  0.20150488110E+03 -0.38415765165E+03  0.45116259532E+03  0.12699999809E+01 0.  1.
</event>
<event>
 5   0  0.4527503E-05  0.1401599E+04  0.7818609E-02  0.8952662E-01
       -2   -1    0    0    0  501  0.00000000000E+00  0.00000000000E+00  0.57396730535E+03  0.57396730536E+03  0.25500000920E-02 0.  1.
        2   -1    0    0  501    0  0.00000000000E+00  0.00000000000E+00 -0.85565804832E+03  0.85565804833E+03  0.25500000920E-02 0. -1.
    10030    2    1    2    0    0  0.00000000000E+00  0.00000000000E+00 -0.28169074297E+03  0.14296253537E+04  0.14015987219E+04 0.  0.
        4    1    3    3  502    0 -0.18291378115E+03 -0.40730800247E+03  0.41010448251E+03  0.60625453375E+03  0.12699999809E+01 0.  1.
       -4    1    3    3    0  502  0.18291378115E+03  0.40730800247E+03 -0.69179522549E+03  0.82337081993E+03  0.12699999809E+01 0. -1.
</event>
<event>
 5   0  0.4441253E-05  0.1400278E+04  0.7818609E-02  0.8953617E-01
        2   -1    0    0  501    0  0.00000000000E+00  0.00000000000E+00  0.96682611836E+03  0.96682611836E+03  0.25500000920E-02 0.  1.
       -2   -1    0    0    0  501  0.00000000000E+00  0.00000000000E+00 -0.50701450516E+03  0.50701450516E+03  0.25500000920E-02 0. -1.
    10030    2    1    2    0    0  0.00000000000E+00  0.00000000000E+00  0.45981161320E+03  0.14738406235E+04  0.14002783523E+04 0.  0.
        3    1    3    3  502    0  0.31617778008E+03  0.55536477291E+01 -0.42756631939E+03  0.53180090193E+03  0.10100000352E+00 0. -1.
       -3    1    3    3    0  502 -0.31617778008E+03 -0.55536477291E+01  0.88737793259E+03  0.94203972160E+03  0.10100000352E+00 0.  1.
</event>
<event>
 5   0  0.2428507E-05  0.1400133E+04  0.7818609E-02  0.8953722E-01
        1   -1    0    0  501    0  0.00000000000E+00  0.00000000000E+00  0.86658207392E+03  0.86658207394E+03  0.50400001928E-02 0.  1.
       -1   -1    0    0    0  501  0.00000000000E+00  0.00000000000E+00 -0.56554745909E+03  0.56554745912E+03  0.50400001928E-02 0. -1.
    10030    2    1    2    0    0  0.00000000000E+00  0.00000000000E+00  0.30103461483E+03  0.14321295331E+04  0.14001332651E+04 0.  0.
        4    1    3    3  502    0  0.44682622345E+03 -0.50949724193E+03 -0.29139831120E+02  0.67830071219E+03  0.12699999809E+01 0. -1.
       -4    1    3    3    0  502 -0.44682622345E+03  0.50949724193E+03  0.33017444595E+03  0.75382882086E+03  0.12699999809E+01 0.  1.
</event>
<event>
 5   0  0.4621450E-05  0.1399593E+04  0.7818609E-02  0.8954113E-01
       -2   -1    0    0    0  501  0.00000000000E+00  0.00000000000E+00  0.26551813367E+03  0.26551813369E+03  0.25500000920E-02 0. -1.
        2   -1    0    0  501    0  0.00000000000E+00  0.00000000000E+00 -0.18443762062E+04  0.18443762062E+04  0.25500000920E-02 0.  1.
    10030    2    1    2    0    0  0.00000000000E+00  0.00000000000E+00 -0.15788580725E+04  0.21098943398E+04  0.13995932667E+04 0.  0.
        5    1    3    3  502    0 -0.59005121528E+03  0.37395537687E+03 -0.72745282497E+03  0.10085696620E+04  0.46999998093E+01 0.  1.
       -5    1    3    3    0  502  0.59005121528E+03 -0.37395537687E+03 -0.85140524751E+03  0.11013246778E+04  0.46999998093E+01 0. -1.
</event>
<event>
 5   0  0.4441253E-05  0.1399684E+04  0.7818609E-02  0.8954047E-01
        2   -1    0    0  501    0  0.00000000000E+00  0.00000000000E+00  0.21402854196E+04  0.21402854196E+04  0.25500000920E-02 0.  1.
       -2   -1    0    0    0  501  0.00000000000E+00  0.00000000000E+00 -0.22883822236E+03  0.22883822237E+03  0.25500000920E-02 0. -1.
    10030    2    1    2    0    0  0.00000000000E+00  0.00000000000E+00  0.19114471973E+04  0.23691236420E+04  0.13996844084E+04 0.  0.
        3    1    3    3  502    0 -0.50496985136E+03  0.40223028617E+03  0.14130277981E+04  0.15535222311E+04  0.10100000352E+00 0.  1.
       -3    1    3    3    0  502  0.50496985136E+03 -0.40223028617E+03  0.49841939911E+03  0.81560141093E+03  0.10100000352E+00 0. -1.
</event>
<event>
 5   0  0.4527503E-05  0.1399286E+04  0.7818609E-02  0.8954335E-01
        2   -1    0    0  501    0  0.00000000000E+00  0.00000000000E+00  0.52821184022E+03  0.52821184023E+03  0.25500000920E-02 0. -1.
       -2   -1    0    0    0  501  0.00000000000E+00  0.00000000000E+00 -0.92671231903E+03  0.92671231903E+03  0.25500000920E-02 0.  1.
    10030    2    1    2    0    0  0.00000000000E+00  0.00000000000E+00 -0.39850047881E+03  0.14549241593E+04  0.13992861314E+04 0.  0.
        4    1    3    3  502    0 -0.32193451263E+03  0.61994034286E+03 -0.23993333161E+03  0.73860508775E+03  0.12699999809E+01 0. -1.
       -4    1    3    3    0  502  0.32193451263E+03 -0.61994034286E+03 -0.15856714720E+03  0.71631907151E+03  0.12699999809E+01 0.  1.
</event>
<event>
 5   0  0.4243281E-05  0.1399975E+04  0.7818609E-02  0.8953836E-01
        2   -1    0    0  501    0  0.00000000000E+00  0.00000000000E+00  0.12080202109E+04  0.12080202109E+04  0.25500000920E-02 0. -1.
       -2   -1    0    0    0  501  0.00000000000E+00  0.00000000000E+00 -0.40560798886E+03  0.40560798886E+03  0.25500000920E-02 0.  1.
    10030    2    1    2    0    0  0.00000000000E+00  0.00000000000E+00  0.80241222206E+03  0.16136281998E+04  0.13999752116E+04 0.  0.
        2    1    3    3  502    0  0.45910455253E+02  0.65935361667E+03  0.66687676291E+03  0.93892469274E+03  0.25500000920E-02 0.  1.
       -2    1    3    3    0  502 -0.45910455253E+02 -0.65935361667E+03  0.13553545915E+03  0.67470350704E+03  0.25500000920E-02 0. -1.
</event>
<event>
 5   0  0.4243281E-05  0.1400166E+04  0.7818609E-02  0.8953699E-01
       -2   -1    0    0    0  501  0.00000000000E+00  0.00000000000E+00  0.33876289328E+03  0.33876289329E+03  0.25500000920E-02 0.  1.
        2   -1    0    0  501    0  0.00000000000E+00  0.00000000000E+00 -0.14467816832E+04  0.14467816832E+04  0.25500000920E-02 0. -1.
    10030    2    1    2    0    0  0.00000000000E+00  0.00000000000E+00 -0.11080187899E+04  0.17855445765E+04  0.14001656316E+04 0.  0.
        2    1    3    3  502    0 -0.46682978552E+03  0.37265029901E+03 -0.10196331368E+04  0.11817148673E+04  0.25500000920E-02 0. -1.
       -2    1    3    3    0  502  0.46682978552E+03 -0.37265029901E+03 -0.88385653152E+02  0.60382970919E+03  0.25500000920E-02 0.  1.
</event>
<event>
 5   0  0.4243281E-05  0.1398251E+04  0.7818609E-02  0.8955085E-01
       -2   -1    0    0    0  501  0.00000000000E+00  0.00000000000E+00  0.66176087765E+03  0.66176087766E+03  0.25500000920E-02 0.  1.
        2   -1    0    0  501    0  0.00000000000E+00  0.00000000000E+00 -0.73859996471E+03  0.73859996472E+03  0.25500000920E-02 0. -1.
    10030    2    1    2    0    0  0.00000000000E+00  0.00000000000E+00 -0.76839087062E+02  0.14003608424E+04  0.13982511375E+04 0.  0.
        2    1    3    3  502    0  0.50801310342E+03  0.26956290823E+03 -0.43655562317E+03  0.72202651397E+03  0.25500000920E-02 0. -1.
       -2    1    3    3    0  502 -0.50801310342E+03 -0.26956290823E+03  0.35971653611E+03  0.67833432841E+03  0.25500000920E-02 0.  1.
</event>
<event>
 5   0  0.4441253E-05  0.1400410E+04  0.7818609E-02  0.8953522E-01
       -2   -1    0    0    0  501  0.00000000000E+00  0.00000000000E+00  0.52242658403E+03  0.52242658404E+03  0.25500000920E-02 0.  1.
        2   -1    0    0  501    0  0.00000000000E+00  0.00000000000E+00 -0.93848070133E+03  0.93848070133E+03  0.25500000920E-02 0. -1.
    10030    2    1    2    0    0  0.00000000000E+00  0.00000000000E+00 -0.41605411730E+03  0.14609072854E+04  0.14004103213E+04 0.  0.
        3    1    3    3  502    0  0.46652885624E+03 -0.26699588430E+03  0.26007931045E+03  0.59714088276E+03  0.10100000352E+00 0.  1.
       -3    1    3    3    0  502 -0.46652885624E+03  0.26699588430E+03 -0.67613342775E+03  0.86376640260E+03  0.10100000352E+00 0. -1.
</event>
<event>
 5   0  0.4527503E-05  0.1402725E+04  0.7818609E-02  0.8951849E-01
        2   -1    0    0  501    0  0.00000000000E+00  0.00000000000E+00  0.59709569006E+03  0.59709569007E+03  0.25500000920E-02 0. -1.
       -2   -1    0    0    0  501  0.00000000000E+00  0.00000000000E+00 -0.82383618460E+03  0.82383618461E+03  0.25500000920E-02 0.  1.
    10030    2    1    2    0    0  0.00000000000E+00  0.00000000000E+00 -0.22674049454E+03  0.14209318747E+04  0.14027245420E+04 0.  0.
        4    1    3    3  502    0  0.33229923468E+03  0.25693129327E+02 -0.73849011743E+03  0.81021736880E+03  0.12699999809E+01 0.  1.
       -4    1    3    3    0  502 -0.33229923468E+03 -0.25693129327E+02  0.51174962289E+03  0.61071450588E+03  0.12699999809E+01 0. -1.
</event>
<event>
 5   0  0.4460282E-05  0.1399935E+04  0.7818609E-02  0.8953866E-01
       -2   -1    0    0    0  501  0.00000000000E+00  0.00000000000E+00  0.47161714549E+03  0.47161714550E+03  0.25500000920E-02 0. -1.
        2   -1    0    0  501    0  0.00000000000E+00  0.00000000000E+00 -0.10388816859E+04  0.10388816860E+04  0.25500000920E-02 0.  1.
    10030    2    1    2    0    0  0.00000000000E+00  0.00000000000E+00 -0.56726454045E+03  0.15104988315E+04  0.13999348774E+04 0.  0.
        1    1    3    3  502    0  0.59221326750E+03 -0.35428136253E+03 -0.41002741771E+03  0.80271683759E+03  0.50400001928E-02 0. -1.
       -1    1    3    3    0  502 -0.59221326750E+03  0.35428136253E+03 -0.15723712275E+03  0.70778199387E+03  0.50400001928E-02 0.  1.
</event>
<event>
 5   0  0.2427569E-05  0.1401089E+04  0.7818609E-02  0.8953031E-01
       -1   -1    0    0    0  501  0.00000000000E+00  0.00000000000E+00  0.77674254420E+03  0.77674254422E+03  0.50400001928E-02 0.  1.
        1   -1    0    0  501    0  0.00000000000E+00  0.00000000000E+00 -0.63182157896E+03  0.63182157898E+03  0.50400001928E-02 0. -1.
    10030    2    1    2    0    0  0.00000000000E+00  0.00000000000E+00  0.14492096525E+03  0.14085641232E+04  0.14010891488E+04 0.  0.
        1    1    3    3  502    0  0.44659491836E+03  0.23414710656E+03 -0.41643721189E+03  0.65398152886E+03  0.50400001928E-02 0. -1.
       -1    1    3    3    0  502 -0.44659491836E+03 -0.23414710656E+03  0.56135817714E+03  0.75458259434E+03  0.50400001928E-02 0.  1.
</event>
<event>
 5   0  0.2467303E-05  0.1401042E+04  0.7818609E-02  0.8953065E-01
        1   -1    0    0  501    0  0.00000000000E+00  0.00000000000E+00  0.47160495840E+03  0.47160495842E+03  0.50400001928E-02 0. -1.
       -1   -1    0    0    0  501  0.00000000000E+00  0.00000000000E+00 -0.10405520517E+04  0.10405520518E+04  0.50400001928E-02 0.  1.
    10030    2    1    2    0    0  0.00000000000E+00  0.00000000000E+00 -0.56894709335E+03  0.15121570102E+04  0.14010417654E+04 0.  0.
        3    1    3    3  502    0 -0.35625326469E+03  0.31439991764E+03  0.27109892199E+03  0.54704509185E+03  0.10100000352E+00 0. -1.
       -3    1    3    3    0  502  0.35625326469E+03 -0.31439991764E+03 -0.84004601534E+03  0.96511191833E+03  0.10100000352E+00 0.  1.
</event>
<event>
 5   0  0.2427569E-05  0.1401668E+04  0.7818609E-02  0.8952612E-01
        1   -1    0    0  501    0  0.00000000000E+00  0.00000000000E+00  0.83092441130E+03  0.83092441131E+03  0.50400001928E-02 0.  1.
       -1   -1    0    0    0  501  0.00000000000E+00  0.00000000000E+00 -0.59111052343E+03  0.59111052345E+03  0.50400001928E-02 0. -1.
    10030    2    1    2    0    0  0.00000000000E+00  0.00000000000E+00  0.23981388787E+03  0.14220349348E+04  0.14016678119E+04 0.  0.
        1    1    3    3  502    0  0.13752407033E+03  0.23147268029E+03 -0.53654666296E+03  0.60031224642E+03  0.50400001928E-02 0. -1.
       -1    1    3    3    0  502 -0.13752407033E+03 -0.23147268029E+03  0.77636055082E+03  0.82172268835E+03  0.50400001928E-02 0.  1.
</event>
<event>
 5   0  0.4527503E-05  0.1400112E+04  0.7818609E-02  0.8953737E-01
       -2   -1    0    0    0  501  0.00000000000E+00  0.00000000000E+00  0.33063817992E+03  0.33063817993E+03  0.25500000920E-02 0.  1.
        2   -1    0    0  501    0  0.00000000000E+00  0.00000000000E+00 -0.14822196527E+04  0.14822196527E+04  0.25500000920E-02 0. -1.
    10030    2    1    2    0    0  0.00000000000E+00  0.00000000000E+00 -0.11515814727E+04  0.18128578326E+04  0.14001120072E+04 0.  0.
        4    1    3    3  502    0 -0.34566526447E+03 -0.52067838769E+03 -0.98418787186E+03  0.11658549818E+04  0.12699999809E+01 0. -1.
       -4    1    3    3    0  502  0.34566526447E+03  0.52067838769E+03 -0.16739360088E+03  0.64700285083E+03  0.12699999809E+01 0.  1.
</event>
<event>
 5   0  0.4243281E-05  0.1399374E+04  0.7818609E-02  0.8954272E-01
       -2   -1    0    0    0  501  0.00000000000E+00  0.00000000000E+00  0.99650624478E+03  0.99650624479E+03  0.25500000920E-02 0.  1.
        2   -1    0    0  501    0  0.00000000000E+00  0.00000000000E+00 -0.49127821967E+03  0.49127821968E+03  0.25500000920E-02 0. -1.
    10030    2    1    2    0    0  0.00000000000E+00  0.00000000000E+00  0.50522802511E+03  0.14877844645E+04  0.13993738798E+04 0.  0.
        2    1    3    3  502    0 -0.30803958708E+03  0.10596333556E+03 -0.40573760652E+03  0.52032645622E+03  0.25500000920E-02 0. -1.
       -2    1    3    3    0  502  0.30803958708E+03 -0.10596333556E+03  0.91096563163E+03  0.96745800824E+03  0.25500000920E-02 0.  1.
</event>
<event>
 5   0  0.4243281E-05  0.1400006E+04  0.7818609E-02  0.8953814E-01
       -2   -1    0    0    0  501  0.00000000000E+00  0.00000000000E+00  0.29106681934E+03  0.29106681936E+03  0.25500000920E-02 0. -1.
        2   -1    0    0  501    0  0.00000000000E+00  0.00000000000E+00 -0.16834765045E+04  0.16834765045E+04  0.25500000920E-02 0.  1.
    10030    2    1    2    0    0  0.00000000000E+00  0.00000000000E+00 -0.13924096852E+04  0.19745433239E+04  0.14000059309E+04 0.  0.
        2    1    3    3  502    0  0.49214548906E+03  0.44333633678E+03 -0.10154932425E+04  0.12124276537E+04  0.25500000920E-02 0.  1.
       -2    1    3    3    0  502 -0.49214548906E+03 -0.44333633678E+03 -0.37691644261E+03  0.76211567011E+03  0.25500000920E-02 0. -1.
</event>
<event>
 5   0  0.4460282E-05  0.1399898E+04  0.7818609E-02  0.8953892E-01
       -2   -1    0    0    0  501  0.00000000000E+00  0.00000000000E+00  0.57933543935E+03  0.57933543936E+03  0.25500000920E-02 0.  1.
        2   -1    0    0  501    0  0.00000000000E+00  0.00000000000E+00 -0.84567345601E+03  0.84567345601E+03  0.25500000920E-02 0. -1.
    10030    2    1    2    0    0  0.00000000000E+00  0.00000000000E+00 -0.26633801666E+03  0.14250088954E+04  0.13998980008E+04 0.  0.
        1    1    3    3  502    0  0.39308364791E+03 -0.14640560682E+03 -0.70355868135E+03  0.81911182026E+03  0.50400001928E-02 0. -1.
       -1    1    3    3    0  502 -0.39308364791E+03  0.14640560682E+03  0.43722066469E+03  0.60589707511E+03  0.50400001928E-02 0.  1.
</event>
<event>
 5   0  0.4621450E-05  0.1399482E+04  0.7818609E-02  0.8954193E-01
        2   -1    0    0  501    0  0.00000000000E+00  0.00000000000E+00  0.72409486132E+03  0.72409486132E+03  0.25500000920E-02 0. -1.
       -2   -1    0    0    0  501  0.00000000000E+00  0.00000000000E+00 -0.67620639506E+03  0.67620639507E+03  0.25500000920E-02 0.  1.
    10030    2    1    2    0    0  0.00000000000E+00  0.00000000000E+00  0.47888466255E+02  0.14003012564E+04  0.13994821555E+04 0.  0.
        5    1    3    3  502    0  0.18319654628E+03  0.58526085618E+03 -0.31318655646E+03  0.68862119739E+03  0.46999998093E+01 0.  1.
       -5    1    3    3    0  502 -0.18319654628E+03 -0.58526085618E+03  0.36107502271E+03  0.71168005900E+03  0.46999998093E+01 0. -1.
</event>
<event>
 5   0  0.2363419E-05  0.1402282E+04  0.7818609E-02  0.8952169E-01
       -1   -1    0    0    0  501  0.00000000000E+00  0.00000000000E+00  0.55390123776E+03  0.55390123779E+03  0.50400001928E-02 0. -1.
        1   -1    0    0  501    0  0.00000000000E+00  0.00000000000E+00 -0.88752027774E+03  0.88752027775E+03  0.50400001928E-02 0.  1.
    10030    2    1    2    0    0  0.00000000000E+00  0.00000000000E+00 -0.33361903998E+03  0.14414215155E+04  0.14022818267E+04 0.  0.
        2    1    3    3  502    0 -0.16016660149E+03 -0.31707262735E+02  0.53408731475E+03  0.55848719818E+03  0.25500000920E-02 0. -1.
       -2    1    3    3    0  502  0.16016660149E+03  0.31707262735E+02 -0.86770635473E+03  0.88293431736E+03  0.25500000920E-02 0.  1.
</event>
<event>
 5   0  0.2467303E-05  0.1400262E+04  0.7818609E-02  0.8953629E-01
       -1   -1    0    0    0  501  0.00000000000E+00  0.00000000000E+00  0.37228264880E+03  0.37228264883E+03  0.50400001928E-02 0.  1.
        1   -1    0    0  501    0  0.00000000000E+00  0.00000000000E+00 -0.13166974451E+04  0.13166974451E+04  0.50400001928E-02 0. -1.
    10030    2    1    2    0    0  0.00000000000E+00  0.00000000000E+00 -0.94441479628E+03  0.16889800939E+04  0.14002622791E+04 0.  0.
        3    1    3    3  502    0 -0.55238796139E+03  0.20092638297E+03 -0.13412069067E+02  0.58794877758E+03  0.10100000352E+00 0.  1.
       -3    1    3    3    0  502  0.55238796139E+03 -0.20092638297E+03 -0.93100272722E+03  0.11010313163E+04  0.10100000352E+00 0. -1.
</event>
<event>
 5   0  0.2427569E-05  0.1400019E+04  0.7818609E-02  0.8953805E-01
       -1   -1    0    0    0  501  0.00000000000E+00  0.00000000000E+00  0.10475340709E+04  0.10475340709E+04  0.50400001928E-02 0.  1.
        1   -1    0    0  501    0  0.00000000000E+00  0.00000000000E+00 -0.46777768876E+03  0.46777768878E+03  0.50400001928E-02 0. -1.
    10030    2    1    2    0    0  0.00000000000E+00  0.00000000000E+00  0.57975638210E+03  0.15153117597E+04  0.14000186664E+04 0.  0.
        1    1    3    3  502    0 -0.18854978084E+03 -0.36404038358E+03  0.90399838007E+03  0.99261749528E+03  0.50400001928E-02 0.  1.
       -1    1    3    3    0  502  0.18854978084E+03  0.36404038358E+03 -0.32424199797E+03  0.52269426437E+03  0.50400001928E-02 0. -1.
</event>
<event>
 5   0  0.2363419E-05  0.1400063E+04  0.7818609E-02  0.8953773E-01
       -1   -1    0    0    0  501  0.00000000000E+00  0.00000000000E+00  0.82967587180E+03  0.82967587181E+03  0.50400001928E-02 0.  1.
        1   -1    0    0  501    0  0.00000000000E+00  0.00000000000E+00 -0.59064529110E+03  0.59064529112E+03  0.50400001928E-02 0. -1.
    10030    2    1    2    0    0  0.00000000000E+00  0.00000000000E+00  0.23903058070E+03  0.14203211629E+04  0.14000630655E+04 0.  0.
        2    1    3    3  502    0  0.10015674872E+03  0.53161940608E+03  0.57023388001E+03  0.78601351462E+03  0.25500000920E-02 0.  1.
       -2    1    3    3    0  502 -0.10015674872E+03 -0.53161940608E+03 -0.33120329932E+03  0.63430764832E+03  0.25500000920E-02 0. -1.
</event>
<event>
 5   0  0.4441253E-05  0.1397837E+04  0.7818609E-02  0.8955386E-01
        2   -1    0    0  501    0  0.00000000000E+00  0.00000000000E+00  0.61361094205E+03  0.61361094205E+03  0.25500000920E-02 0. -1.
       -2   -1    0    0    0  501  0.00000000000E+00  0.00000000000E+00 -0.79608593104E+03  0.79608593104E+03  0.25500000920E-02 0.  1.
    10030    2    1    2    0    0  0.00000000000E+00  0.00000000000E+00 -0.18247498899E+03  0.14096968731E+04  0.13978369549E+04 0.  0.
        3    1    3    3  502    0 -0.44529535112E+03 -0.38763372135E+03  0.28602086784E+03  0.65601509030E+03  0.10100000352E+00 0. -1.
       -3    1    3    3    0  502  0.44529535112E+03  0.38763372135E+03 -0.46849585683E+03  0.75368178280E+03  0.10100000352E+00 0.  1.
</event>
<event>
 5   0  0.2363419E-05  0.1399605E+04  0.7818609E-02  0.8954104E-01
       -1   -1    0    0    0  501  0.00000000000E+00  0.00000000000E+00  0.17440232746E+03  0.17440232753E+03  0.50400001928E-02 0.  1.
        1   -1    0    0  501    0  0.00000000000E+00  0.00000000000E+00 -0.28080112072E+04  0.28080112072E+04  0.50400001928E-02 0. -1.
    10030    2    1    2    0    0  0.00000000000E+00  0.00000000000E+00 -0.26336088798E+04  0.29824135347E+04  0.13996052160E+04 0.  0.
        2    1    3    3  502    0  0.66570028665E+03 -0.21570525394E+03 -0.13036580085E+04  0.14795978613E+04  0.25500000920E-02 0. -1.
       -2    1    3    3    0  502 -0.66570028665E+03  0.21570525394E+03 -0.13299508713E+04  0.15028156734E+04  0.25500000920E-02 0.  1.
</event>
<event>
 5   0  0.4621450E-05  0.1401373E+04  0.7818609E-02  0.8952825E-01
        2   -1    0    0  501    0  0.00000000000E+00  0.00000000000E+00  0.13740109336E+04  0.13740109336E+04  0.25500000920E-02 0.  1.
       -2   -1    0    0    0  501  0.00000000000E+00  0.00000000000E+00 -0.35731990552E+03  0.35731990553E+03  0.25500000920E-02 0. -1.
    10030    2    1    2    0    0  0.00000000000E+00  0.00000000000E+00  0.10166910281E+04  0.17313308391E+04  0.14013728369E+04 0.  0.
        5    1    3    3  502    0  0.65624280893E+03  0.11729525117E+03  0.24185799533E+03  0.70917570469E+03  0.46999998093E+01 0. -1.
       -5    1    3    3    0  502 -0.65624280893E+03 -0.11729525117E+03  0.77483303272E+03  0.10221551344E+04  0.46999998093E+01 0.  1.
</event>
<event>
 5   0  0.4460282E-05  0.1400386E+04  0.7818609E-02  0.8953539E-01
        2   -1    0    0  501    0  0.00000000000E+00  0.00000000000E+00  0.51688768533E+03  0.51688768534E+03  0.25500000920E-02 0. -1.
       -2   -1    0    0    0  501  0.00000000000E+00  0.00000000000E+00 -0.94850498932E+03  0.94850498932E+03  0.25500000920E-02 0.  1.
    10030    2    1    2    0    0  0.00000000000E+00  0.00000000000E+00 -0.43161730398E+03  0.14653926747E+04  0.14003864445E+04 0.  0.
        1    1    3    3  502    0 -0.35015559927E+03 -0.60374722139E+03 -0.15707009830E+03  0.71539546186E+03  0.50400001928E-02 0.  1.
       -1    1    3    3    0  502  0.35015559927E+03  0.60374722139E+03 -0.27454720568E+03  0.74999721280E+03  0.50400001928E-02 0. -1.
</event>
<event>
 5   0  0.2316714E-05  0.1400214E+04  0.7818609E-02  0.8953664E-01
        1   -1    0    0  501    0  0.00000000000E+00  0.00000000000E+00  0.10711565834E+04  0.10711565834E+04  0.50400001928E-02 0.  1.
       -1   -1    0    0    0  501  0.00000000000E+00  0.00000000000E+00 -0.45758938991E+03  0.45758938993E+03  0.50400001928E-02 0. -1.
    10030    2    1    2    0    0  0.00000000000E+00  0.00000000000E+00  0.61356719345E+03  0.15287459733E+04  0.14002141086E+04 0.  0.
        5    1    3    3  502    0  0.51999290170E+02 -0.46489925921E+03  0.87545293279E+03  0.99261028351E+03  0.46999998093E+01 0.  1.
       -5    1    3    3    0  502 -0.51999290170E+02  0.46489925921E+03 -0.26188573935E+03  0.53613568979E+03  0.46999998093E+01 0. -1.
</event>
<event>
 5   0  0.2467303E-05  0.1400204E+04  0.7818609E-02  0.8953671E-01
        1   -1    0    0  501    0  0.00000000000E+00  0.00000000000E+00  0.19607877340E+04  0.19607877340E+04  0.50400001928E-02 0.  1.
       -1   -1    0    0    0  501  0.00000000000E+00  0.00000000000E+00 -0.24997247029E+03  0.24997247034E+03  0.50400001928E-02 0. -1.
    10030    2    1    2    0    0  0.00000000000E+00  0.00000000000E+00  0.17108152638E+04  0.22107602044E+04  0.14002042046E+04 0.  0.
        3    1    3    3  502    0  0.28036038228E+03 -0.11670338943E+03  0.18513836110E+04  0.18761244389E+04  0.10100000352E+00 0.  1.
       -3    1    3    3    0  502 -0.28036038228E+03  0.11670338943E+03 -0.14056834727E+03  0.33463576544E+03  0.10100000352E+00 0. -1.
</event>
<event>
 5   0  0.2428507E-05  0.1400149E+04  0.7818609E-02  0.8953710E-01
       -1   -1    0    0    0  501  0.00000000000E+00  0.00000000000E+00  0.47420068010E+03  0.47420068013E+03  0.50400001928E-02 0. -1.
        1   -1    0    0  501    0  0.00000000000E+00  0.00000000000E+00 -0.10335384791E+04  0.10335384791E+04  0.50400001928E-02 0.  1.
    10030    2    1    2    0    0  0.00000000000E+00  0.00000000000E+00 -0.55933779898E+03  0.15077391592E+04  0.14001494916E+04 0.  0.
        4    1    3    3  502    0  0.58317527940E+03 -0.22652807783E+03  0.58628481586E+02  0.62836875185E+03  0.12699999809E+01 0. -1.
       -4    1    3    3    0  502 -0.58317527940E+03  0.22652807783E+03 -0.61796628057E+03  0.87937040737E+03  0.12699999809E+01 0.  1.
</event>
<event>
 5   0  0.2316714E-05  0.1396700E+04  0.7818609E-02  0.8956211E-01
       -1   -1    0    0    0  501  0.00000000000E+00  0.00000000000E+00  0.67709368623E+03  0.67709368625E+03  0.50400001928E-02 0.  1.
        1   -1    0    0  501    0  0.00000000000E+00  0.00000000000E+00 -0.72027311716E+03  0.72027311718E+03  0.50400001928E-02 0. -1.
    10030    2    1    2    0    0  0.00000000000E+00  0.00000000000E+00 -0.43179430930E+02  0.13973668034E+04  0.13966995096E+04 0.  0.
        5    1    3    3  502    0 -0.42979479826E+03 -0.53292954416E+03  0.11607261622E+03  0.69442955718E+03  0.46999998093E+01 0.  1.
       -5    1    3    3    0  502  0.42979479826E+03  0.53292954416E+03 -0.15925204715E+03  0.70293724625E+03  0.46999998093E+01 0. -1.
</event>
<event>
 5   0  0.4243281E-05  0.1399493E+04  0.7818609E-02  0.8954185E-01
        2   -1    0    0  501    0  0.00000000000E+00  0.00000000000E+00  0.33606668130E+03  0.33606668131E+03  0.25500000920E-02 0. -1.
       -2   -1    0    0    0  501  0.00000000000E+00  0.00000000000E+00 -0.14569891399E+04  0.14569891399E+04  0.25500000920E-02 0.  1.
    10030    2    1    2    0    0  0.00000000000E+00  0.00000000000E+00 -0.11209224586E+04  0.17930558212E+04  0.13994934869E+04 0.  0.
        2    1    3    3  502    0 -0.49123442078E+03  0.49815569322E+03 -0.57741760651E+03  0.90712812941E+03  0.25500000920E-02 0. -1.
       -2    1    3    3    0  502  0.49123442078E+03 -0.49815569322E+03 -0.54350485208E+03  0.88592769179E+03  0.25500000920E-02 0.  1.
</event>
<event>
 5   0  0.2363419E-05  0.1401442E+04  0.7818609E-02  0.8952775E-01
        1   -1    0    0  501    0  0.00000000000E+00  0.00000000000E+00  0.10675689040E+04  0.10675689040E+04  0.50400001928E-02 0.  1.
       -1   -1    0    0    0  501  0.00000000000E+00  0.00000000000E+00 -0.45993273135E+03  0.45993273138E+03  0.50400001928E-02 0. -1.
    10030    2    1    2    0    0  0.00000000000E+00  0.00000000000E+00  0.60763617267E+03  0.15275016354E+04  0.14014419459E+04 0.  0.
        2    1    3    3  502    0  0.58920872422E+02 -0.68946025499E+03  0.42412195302E+03  0.81160738258E+03  0.25500000920E-02 0. -1.
       -2    1    3    3    0  502 -0.58920872422E+02  0.68946025499E+03  0.18351421965E+03  0.71589425283E+03  0.25500000920E-02 0.  1.
</event>
<event>
 5   0  0.4621450E-05  0.1397243E+04  0.7818609E-02  0.8955816E-01
       -2   -1    0    0    0  501  0.00000000000E+00  0.00000000000E+00  0.28356641970E+03  0.28356641971E+03  0.25500000920E-02 0.  1.
        2   -1    0    0  501    0  0.00000000000E+00  0.00000000000E+00 -0.17211919842E+04  0.17211919842E+04  0.25500000920E-02 0. -1.
    10030    2    1    2    0    0  0.00000000000E+00  0.00000000000E+00 -0.14376255645E+04  0.20047584039E+04  0.13972433554E+04 0.  0.
        5    1    3    3  502    0 -0.49009097913E+03 -0.47147073385E+03 -0.48935163005E+03  0.83783108592E+03  0.46999998093E+01 0.  1.
       -5    1    3    3    0  502  0.49009097913E+03  0.47147073385E+03 -0.94827393440E+03  0.11669273179E+04  0.46999998093E+01 0. -1.
</event>
<event>
 5   0  0.2427569E-05  0.1399348E+04  0.7818609E-02  0.8954291E-01
        1   -1    0    0  501    0  0.00000000000E+00  0.00000000000E+00  0.32898766376E+03  0.32898766380E+03  0.50400001928E-02 0. -1.
       -1   -1    0    0    0  501  0.00000000000E+00  0.00000000000E+00 -0.14880297250E+04  0.14880297250E+04  0.50400001928E-02 0.  1.
    10030    2    1    2    0    0  0.00000000000E+00  0.00000000000E+00 -0.11590420612E+04  0.18170173888E+04  0.13993475949E+04 0.  0.
        1    1    3    3  502    0 -0.41209948865E+03 -0.15994554361E+03  0.12469632684E+03  0.45930136013E+03  0.50400001928E-02 0. -1.
       -1    1    3    3    0  502  0.41209948865E+03  0.15994554361E+03 -0.12837383880E+04  0.13577160286E+04  0.50400001928E-02 0.  1.
</event>
<event>
 5   0  0.4441253E-05  0.1399764E+04  0.7818609E-02  0.8953989E-01
       -2   -1    0    0    0  501  0.00000000000E+00  0.00000000000E+00  0.18817456979E+03  0.18817456981E+03  0.25500000920E-02 0. -1.
        2   -1    0    0  501    0  0.00000000000E+00  0.00000000000E+00 -0.26030873775E+04  0.26030873775E+04  0.25500000920E-02 0.  1.
    10030    2    1    2    0    0  0.00000000000E+00  0.00000000000E+00 -0.24149128077E+04  0.27912619473E+04  0.13997640478E+04 0.  0.
        3    1    3    3  502    0 -0.29207091432E+03  0.39133661464E+03 -0.20765094717E+03  0.53063046558E+03  0.10100000352E+00 0. -1.
       -3    1    3    3    0  502  0.29207091432E+03 -0.39133661464E+03 -0.22072618605E+04  0.22606314817E+04  0.10100000352E+00 0.  1.
</event>
<event>
 5   0  0.4621450E-05  0.1399909E+04  0.7818609E-02  0.8953884E-01
       -2   -1    0    0    0  501  0.00000000000E+00  0.00000000000E+00  0.19527492502E+03  0.19527492503E+03  0.25500000920E-02 0.  1.
        2   -1    0    0  501    0  0.00000000000E+00  0.00000000000E+00 -0.25089563031E+04  0.25089563031E+04  0.25500000920E-02 0. -1.
    10030    2    1    2    0    0  0.00000000000E+00  0.00000000000E+00 -0.23136813781E+04  0.27042312281E+04  0.13999089313E+04 0.  0.
        5    1    3    3  502    0 -0.45250666448E+03 -0.35649911984E+03 -0.19248303715E+04  0.20091908702E+04  0.46999998093E+01 0. -1.
       -5    1    3    3    0  502  0.45250666448E+03  0.35649911984E+03 -0.38885100658E+03  0.69504035793E+03  0.46999998093E+01 0.  1.
</event>
<event>
 5   0  0.4621450E-05  0.1400169E+04  0.7818609E-02  0.8953696E-01
       -2   -1    0    0    0  501  0.00000000000E+00  0.00000000000E+00  0.28007447880E+03  0.28007447881E+03  0.25500000920E-02 0. -1.
        2   -1    0    0  501    0  0.00000000000E+00  0.00000000000E+00 -0.17499561493E+04  0.17499561493E+04  0.25500000920E-02 0.  1.
    10030    2    1    2    0    0  0.00000000000E+00  0.00000000000E+00 -0.14698816705E+04  0.20300306281E+04  0.14001686419E+04 0.  0.
        5    1    3    3  502    0  0.39878199714E+02  0.42373767940E+03 -0.15408160545E+04  0.15985243493E+04  0.46999998093E+01 0.  1.
       -5    1    3    3    0  502 -0.39878199714E+02 -0.42373767940E+03  0.70934383997E+02  0.43150627874E+03  0.46999998093E+01 0. -1.
</event>
<event>
 5   0  0.4441253E-05  0.1400270E+04  0.7818609E-02  0.8953623E-01
       -2   -1    0    0    0  501  0.00000000000E+00  0.00000000000E+00  0.21080627840E+03  0.21080627842E+03  0.25500000920E-02 0. -1.
        2   -1    0    0  501    0  0.00000000000E+00  0.00000000000E+00 -0.23253054352E+04  0.23253054352E+04  0.25500000920E-02 0.  1.
    10030    2    1    2    0    0  0.00000000000E+00  0.00000000000E+00 -0.21144991568E+04  0.25361117136E+04  0.14002699525E+04 0.  0.
        3    1    3    3  502    0  0.39726360732E+03 -0.28349139714E+03 -0.19664500721E+04  0.20261075101E+04  0.10100000352E+00 0.  1.
       -3    1    3    3    0  502 -0.39726360732E+03  0.28349139714E+03 -0.14804908465E+03  0.51000420354E+03  0.10100000352E+00 0. -1.
</event>
<event>
 5   0  0.2427569E-05  0.1400588E+04  0.7818609E-02  0.8953393E-01
        1   -1    0    0  501    0  0.00000000000E+00  0.00000000000E+00  0.11260811081E+04  0.11260811081E+04  0.50400001928E-02 0.  1.
       -1   -1    0    0    0  501  0.00000000000E+00  0.00000000000E+00 -0.43550282306E+03  0.43550282309E+03  0.50400001928E-02 0. -1.
    10030    2    1    2    0    0  0.00000000000E+00  0.00000000000E+00  0.69057828504E+03  0.15615839312E+04  0.14005877361E+04 0.  0.
        1    1    3    3  502    0 -0.32041771938E+03 -0.39923600827E+02  0.10381293514E+04  0.10871862578E+04  0.50400001928E-02 0.  1.
       -1    1    3    3    0  502  0.32041771938E+03  0.39923600827E+02 -0.34755106637E+03  0.47439767343E+03  0.50400001928E-02 0. -1.
</event>
<event>
 5   0  0.2428507E-05  0.1399610E+04  0.7818609E-02  0.8954101E-01
       -1   -1    0    0    0  501  0.00000000000E+00  0.00000000000E+00  0.54396933472E+03  0.54396933474E+03  0.50400001928E-02 0.  1.
        1   -1    0    0  501    0  0.00000000000E+00  0.00000000000E+00 -0.90028451145E+03  0.90028451146E+03  0.50400001928E-02 0. -1.
    10030    2    1    2    0    0  0.00000000000E+00  0.00000000000E+00 -0.35631517673E+03  0.14442538462E+04  0.13996101840E+04 0.  0.
        4    1    3    3  502    0 -0.43273057015E+03  0.70350151182E+02 -0.74101061535E+03  0.86098968349E+03  0.12699999809E+01 0. -1.
       -4    1    3    3    0  502  0.43273057015E+03 -0.70350151182E+02  0.38469543862E+03  0.58326416272E+03  0.12699999809E+01 0.  1.
</event>
<event>
 5   0  0.2316714E-05  0.1399447E+04  0.7818609E-02  0.8954219E-01
       -1   -1    0    0    0  501  0.00000000000E+00  0.00000000000E+00  0.72717936432E+03  0.72717936433E+03  0.50400001928E-02 0. -1.
        1   -1    0    0  501    0  0.00000000000E+00  0.00000000000E+00 -0.67330455851E+03  0.67330455853E+03  0.50400001928E-02 0.  1.
    10030    2    1    2    0    0  0.00000000000E+00  0.00000000000E+00  0.53874805806E+02  0.14004839229E+04  0.13994472921E+04 0.  0.
        5    1    3    3  502    0  0.30709018599E+03  0.21570410506E+03 -0.56405779140E+03  0.67750714041E+03  0.46999998093E+01 0.  1.
       -5    1    3    3    0  502 -0.30709018599E+03 -0.21570410506E+03  0.61793259721E+03  0.72297678245E+03  0.46999998093E+01 0. -1.
</event>
<event>
 5   0  0.4243281E-05  0.1400073E+04  0.7818609E-02  0.8953765E-01
       -2   -1    0    0    0  501  0.00000000000E+00  0.00000000000E+00  0.39075968698E+03  0.39075968699E+03  0.25500000920E-02 0.  1.
        2   -1    0    0  501    0  0.00000000000E+00  0.00000000000E+00 -0.12540992157E+04  0.12540992157E+04  0.25500000920E-02 0. -1.
    10030    2    1    2    0    0  0.00000000000E+00  0.00000000000E+00 -0.86333952872E+03  0.16448589027E+04  0.14000734509E+04 0.  0.
        2    1    3    3  502    0 -0.10932352162E+03  0.17348203440E+03 -0.12180247832E+04  0.12351647749E+04  0.25500000920E-02 0. -1.
       -2    1    3    3    0  502  0.10932352162E+03 -0.17348203440E+03  0.35468525445E+03  0.40969412782E+03  0.25500000920E-02 0.  1.
</event>
<event>
 5   0  0.2467303E-05  0.1400269E+04  0.7818609E-02  0.8953624E-01
        1   -1    0    0  501    0  0.00000000000E+00  0.00000000000E+00  0.50502954929E+03  0.50502954931E+03  0.50400001928E-02 0. -1.
       -1   -1    0    0    0  501  0.00000000000E+00  0.00000000000E+00 -0.97061337182E+03  0.97061337183E+03  0.50400001928E-02 0.  1.
    10030    2    1    2    0    0  0.00000000000E+00  0.00000000000E+00 -0.46558382253E+03  0.14756429211E+04  0.14002691652E+04 0.  0.
        3    1    3    3  502    0 -0.34307377901E+03 -0.58528821642E+03 -0.50487244815E+02  0.68030205513E+03  0.10100000352E+00 0. -1.
       -3    1    3    3    0  502  0.34307377901E+03  0.58528821642E+03 -0.41509657772E+03  0.79534086602E+03  0.10100000352E+00 0.  1.
</event>
<event>
 5   0  0.2428507E-05  0.1399838E+04  0.7818609E-02  0.8953936E-01
        1   -1    0    0  501    0  0.00000000000E+00  0.00000000000E+00  0.10785935119E+04  0.10785935119E+04  0.50400001928E-02 0. -1.
       -1   -1    0    0    0  501  0.00000000000E+00  0.00000000000E+00 -0.45419007157E+03  0.45419007159E+03  0.50400001928E-02 0.  1.
    10030    2    1    2    0    0  0.00000000000E+00  0.00000000000E+00  0.62440344036E+03  0.15327835835E+04  0.13998377969E+04 0.  0.
        4    1    3    3  502    0  0.23823936758E+02 -0.59582948646E+03 -0.89079095996E+02  0.60292375566E+03  0.12699999809E+01 0.  1.
       -4    1    3    3    0  502 -0.23823936758E+02  0.59582948646E+03  0.71348253636E+03  0.92985982787E+03  0.12699999809E+01 0. -1.
</event>
<event>
 5   0  0.4527503E-05  0.1399918E+04  0.7818609E-02  0.8953878E-01
       -2   -1    0    0    0  501  0.00000000000E+00  0.00000000000E+00  0.44860762331E+03  0.44860762332E+03  0.25500000920E-02 0.  1.
        2   -1    0    0  501    0  0.00000000000E+00  0.00000000000E+00 -0.10921403079E+04  0.10921403079E+04  0.25500000920E-02 0. -1.
    10030    2    1    2    0    0  0.00000000000E+00  0.00000000000E+00 -0.64353268461E+03  0.15407479312E+04  0.13999178088E+04 0.  0.
        4    1    3    3  502    0  0.38782087457E+03  0.39831134562E+03 -0.78985595826E+03  0.96588353671E+03  0.12699999809E+01 0. -1.
       -4    1    3    3    0  502 -0.38782087457E+03 -0.39831134562E+03  0.14632327364E+03  0.57486439454E+03  0.12699999809E+01 0.  1.
</event>
<event>
 5   0  0.2428507E-05  0.1398504E+04  0.7818609E-02  0.8954902E-01
        1   -1    0    0  501    0  0.00000000000E+00  0.00000000000E+00  0.14714660115E+04  0.14714660115E+04  0.50400001928E-02 0.  1.
       -1   -1    0    0    0  501  0.00000000000E+00  0.00000000000E+00 -0.33228975966E+03  0.33228975970E+03  0.50400001928E-02 0. -1.
    10030    2    1    2    0    0  0.00000000000E+00  0.00000000000E+00  0.11391762518E+04  0.18037557712E+04  0.13985036108E+04 0.  0.
        4    1    3    3  502    0 -0.52392741774E+03 -0.44040230719E+03  0.38493233666E+03  0.78525705851E+03  0.12699999809E+01 0. -1.
       -4    1    3    3    0  502  0.52392741774E+03  0.44040230719E+03  0.75424391513E+03  0.10184987126E+04  0.12699999809E+01 0.  1.
</event>
<event>
 5   0  0.2428507E-05  0.1398920E+04  0.7818609E-02  0.8954601E-01
        1   -1    0    0  501    0  0.00000000000E+00  0.00000000000E+00  0.18833485952E+04  0.18833485952E+04  0.50400001928E-02 0. -1.
       -1   -1    0    0    0  501  0.00000000000E+00  0.00000000000E+00 -0.25977353161E+03  0.25977353166E+03  0.50400001928E-02 0.  1.
    10030    2    1    2    0    0  0.00000000000E+00  0.00000000000E+00  0.16235750635E+04  0.21431221268E+04  0.13989197488E+04 0.  0.
        4    1    3    3  502    0 -0.24360143862E+03  0.11166971061E+03 -0.17800989711E+03  0.32171559106E+03  0.12699999809E+01 0.  1.
       -4    1    3    3    0  502  0.24360143862E+03 -0.11166971061E+03  0.18015849607E+04  0.18214065358E+04  0.12699999809E+01 0. -1.
</event>
<event>
 5   0  0.2427569E-05  0.1400479E+04  0.7818609E-02  0.8953472E-01
        1   -1    0    0  501    0  0.00000000000E+00  0.00000000000E+00  0.13601324684E+04  0.13601324684E+04  0.50400001928E-02 0.  1.
       -1   -1    0    0    0  501  0.00000000000E+00  0.00000000000E+00 -0.36050565176E+03  0.36050565179E+03  0.50400001928E-02 0. -1.
    10030    2    1    2    0    0  0.00000000000E+00  0.00000000000E+00  0.99962681666E+03  0.17206381202E+04  0.14004791209E+04 0.  0.
        1    1    3    3  502    0  0.41104068695E+03 -0.55197948723E+01 -0.19665658560E+03  0.45569587133E+03  0.50400001928E-02 0. -1.
       -1    1    3    3    0  502 -0.41104068695E+03  0.55197948723E+01  0.11962834023E+04  0.12649422489E+04  0.50400001928E-02 0.  1.
</event>
<event>
 5   0  0.4460282E-05  0.1400610E+04  0.7818609E-02  0.8953377E-01
        2   -1    0    0  501    0  0.00000000000E+00  0.00000000000E+00  0.17099396192E+04  0.17099396192E+04  0.25500000920E-02 0.  1.
       -2   -1    0    0    0  501  0.00000000000E+00  0.00000000000E+00 -0.28680977196E+03  0.28680977197E+03  0.25500000920E-02 0. -1.
    10030    2    1    2    0    0  0.00000000000E+00  0.00000000000E+00  0.14231298473E+04  0.19967493912E+04  0.14006104273E+04 0.  0.
        1    1    3    3  502    0 -0.21644196871E+03  0.39675441481E+03 -0.51067690928E+02  0.45482864968E+03  0.50400001928E-02 0. -1.
       -1    1    3    3    0  502  0.21644196871E+03 -0.39675441481E+03  0.14741975382E+04  0.15419207415E+04  0.50400001928E-02 0.  1.
</event>
<event>
 5   0  0.2467303E-05  0.1399939E+04  0.7818609E-02  0.8953863E-01
       -1   -1    0    0    0  501  0.00000000000E+00  0.00000000000E+00  0.91728117937E+03  0.91728117939E+03  0.50400001928E-02 0.  1.
        1   -1    0    0  501    0  0.00000000000E+00  0.00000000000E+00 -0.53414057452E+03  0.53414057455E+03  0.50400001928E-02 0. -1.
    10030    2    1    2    0    0  0.00000000000E+00  0.00000000000E+00  0.38314060485E+03  0.14514217539E+04  0.13999387075E+04 0.  0.
        3    1    3    3  502    0 -0.13778785263E+03  0.32132681218E+03  0.82027054760E+03  0.89167269444E+03  0.10100000352E+00 0.  1.
       -3    1    3    3    0  502  0.13778785263E+03 -0.32132681218E+03 -0.43712994275E+03  0.55974905949E+03  0.10100000352E+00 0. -1.
</event>
<event>
 5   0  0.4243281E-05  0.1399810E+04  0.7818609E-02  0.8953956E-01
       -2   -1    0    0    0  501  0.00000000000E+00  0.00000000000E+00  0.13074168803E+04  0.13074168803E+04  0.25500000920E-02 0. -1.
        2   -1    0    0  501    0  0.00000000000E+00  0.00000000000E+00 -0.37468321851E+03  0.37468321851E+03  0.25500000920E-02 0.  1.
    10030    2    1    2    0    0  0.00000000000E+00  0.00000000000E+00  0.93273366179E+03  0.16821000988E+04  0.13998102223E+04 0.  0.
        2    1    3    3  502    0  0.20786312031E+02 -0.27705051559E+03  0.12383154414E+04  0.12690997562E+04  0.25500000920E-02 0. -1.
       -2    1    3    3    0  502 -0.20786312031E+02  0.27705051559E+03 -0.30558177957E+03  0.41300034258E+03  0.25500000920E-02 0.  1.
</event>
<event>
 5   0  0.4441253E-05  0.1400068E+04  0.7818609E-02  0.8953770E-01
        2   -1    0    0  501    0  0.00000000000E+00  0.00000000000E+00  0.17677768645E+04  0.17677768645E+04  0.25500000920E-02 0. -1.
       -2   -1    0    0    0  501  0.00000000000E+00  0.00000000000E+00 -0.27721107761E+03  0.27721107762E+03  0.25500000920E-02 0.  1.
    10030    2    1    2    0    0  0.00000000000E+00  0.00000000000E+00  0.14905657869E+04  0.20449879421E+04  0.14000676121E+04 0.  0.
        3    1    3    3  502    0 -0.38941497869E+03  0.13243037118E+03  0.15726595199E+04  0.16255583055E+04  0.10100000352E+00 0. -1.
       -3    1    3    3    0  502  0.38941497869E+03 -0.13243037118E+03 -0.82093733043E+02  0.41942963658E+03  0.10100000352E+00 0.  1.
</event>
<event>
 5   0  0.1661000E-05  0.1400636E+04  0.7818609E-02  0.8953358E-01
        3   -1    0    0  501    0  0.00000000000E+00  0.00000000000E+00  0.91491100301E+03  0.91491100858E+03  0.10100000352E+00 0. -1.
       -3   -1    0    0    0  501  0.00000000000E+00  0.00000000000E+00 -0.53605822712E+03  0.53605823663E+03  0.10100000352E+00 0.  1.
    10030    2    1    2    0    0  0.00000000000E+00  0.00000000000E+00  0.37885277589E+03  0.14509692452E+04  0.14006363999E+04 0.  0.
        1    1    3    3  502    0  0.43201043727E+02 -0.26004265540E+03 -0.48270116903E+03  0.54998993755E+03  0.50400001928E-02 0.  1.
       -1    1    3    3    0  502 -0.43201043727E+02  0.26004265540E+03  0.86155394492E+03  0.90097930766E+03  0.50400001928E-02 0. -1.
</event>
<event>
 5   0  0.2316714E-05  0.1398794E+04  0.7818609E-02  0.8954692E-01
       -1   -1    0    0    0  501  0.00000000000E+00  0.00000000000E+00  0.18259412167E+03  0.18259412174E+03  0.50400001928E-02 0.  1.
        1   -1    0    0  501    0  0.00000000000E+00  0.00000000000E+00 -0.26789256191E+04  0.26789256191E+04  0.50400001928E-02 0. -1.
    10030    2    1    2    0    0  0.00000000000E+00  0.00000000000E+00 -0.24963314974E+04  0.28615197409E+04  0.13987938670E+04 0.  0.
        5    1    3    3  502    0  0.32598776629E+03 -0.32525873539E+03 -0.23249777930E+04  0.23701487499E+04  0.46999998093E+01 0. -1.
       -5    1    3    3    0  502 -0.32598776629E+03  0.32525873539E+03 -0.17135370441E+03  0.49137099093E+03  0.46999998093E+01 0.  1.
</event>
<event>
 5   0  0.4527503E-05  0.1399896E+04  0.7818609E-02  0.8953894E-01
       -2   -1    0    0    0  501  0.00000000000E+00  0.00000000000E+00  0.31926158593E+03  0.31926158594E+03  0.25500000920E-02 0.  1.
        2   -1    0    0  501    0  0.00000000000E+00  0.00000000000E+00 -0.15345636263E+04  0.15345636263E+04  0.25500000920E-02 0. -1.
    10030    2    1    2    0    0  0.00000000000E+00  0.00000000000E+00 -0.12153020404E+04  0.18538252123E+04  0.13998960205E+04 0.  0.
        4    1    3    3  502    0  0.77128200778E+02 -0.40170746190E+03  0.14450951823E+03  0.43382284179E+03  0.12699999809E+01 0.  1.
       -4    1    3    3    0  502 -0.77128200778E+02  0.40170746190E+03 -0.13598115586E+04  0.14200023705E+04  0.12699999809E+01 0. -1.
</event>
<event>
 5   0  0.4527503E-05  0.1397978E+04  0.7818609E-02  0.8955283E-01
       -2   -1    0    0    0  501  0.00000000000E+00  0.00000000000E+00  0.29124595580E+03  0.29124595581E+03  0.25500000920E-02 0. -1.
        2   -1    0    0  501    0  0.00000000000E+00  0.00000000000E+00 -0.16775716357E+04  0.16775716357E+04  0.25500000920E-02 0.  1.
    10030    2    1    2    0    0  0.00000000000E+00  0.00000000000E+00 -0.13863256799E+04  0.19688175915E+04  0.13979784755E+04 0.  0.
        4    1    3    3  502    0 -0.29634656357E+03  0.60750206884E+03 -0.94392616929E+03  0.11609815999E+04  0.12699999809E+01 0.  1.
       -4    1    3    3    0  502  0.29634656357E+03 -0.60750206884E+03 -0.44239951056E+03  0.80783599154E+03  0.12699999809E+01 0. -1.
</event>
<event>
 5   0  0.4243281E-05  0.1399116E+04  0.7818609E-02  0.8954459E-01
        2   -1    0    0  501    0  0.00000000000E+00  0.00000000000E+00  0.23446724214E+04  0.23446724214E+04  0.25500000920E-02 0.  1.
       -2   -1    0    0    0  501  0.00000000000E+00  0.00000000000E+00 -0.20872049477E+03  0.20872049479E+03  0.25500000920E-02 0. -1.
    10030    2    1    2    0    0  0.00000000000E+00  0.00000000000E+00  0.21359519266E+04  0.25533929162E+04  0.13991157034E+04 0.  0.
        2    1    3    3  502    0  0.47452325542E+03 -0.28275084279E+03  0.18513704817E+04  0.19320178621E+04  0.25500000920E-02 0.  1.
       -2    1    3    3    0  502 -0.47452325542E+03  0.28275084279E+03  0.28458144496E+03  0.62137505410E+03  0.25500000920E-02 0. -1.
</event>
<event>
 5   0  0.2316714E-05  0.1399788E+04  0.7818609E-02  0.8953972E-01
       -1   -1    0    0    0  501  0.00000000000E+00  0.00000000000E+00  0.37958557184E+03  0.37958557187E+03  0.50400001928E-02 0. -1.
        1   -1    0    0  501    0  0.00000000000E+00  0.00000000000E+00 -0.12904899248E+04  0.12904899248E+04  0.50400001928E-02 0.  1.
    10030    2    1    2    0    0  0.00000000000E+00  0.00000000000E+00 -0.91090435294E+03  0.16700754967E+04  0.13997876354E+04 0.  0.
        5    1    3    3  502    0 -0.25552834760E+03 -0.45251710421E+03  0.10385583616E+03  0.52997602845E+03  0.46999998093E+01 0. -1.
       -5    1    3    3    0  502  0.25552834760E+03  0.45251710421E+03 -0.10147601891E+04  0.11400994682E+04  0.46999998093E+01 0.  1.
</event>
<event>
 5   0  0.4441253E-05  0.1399844E+04  0.7818609E-02  0.8953932E-01
        2   -1    0    0  501    0  0.00000000000E+00  0.00000000000E+00  0.86693652412E+03  0.86693652412E+03  0.25500000920E-02 0. -1.
       -2   -1    0    0    0  501  0.00000000000E+00  0.00000000000E+00 -0.56508255467E+03  0.56508255468E+03  0.25500000920E-02 0.  1.
    10030    2    1    2    0    0  0.00000000000E+00  0.00000000000E+00  0.30185396944E+03  0.14320190788E+04  0.13998438567E+04 0.  0.
        3    1    3    3  502    0 -0.55363512415E+03 -0.10514146681E+03 -0.27373387940E+03  0.62649567090E+03  0.10100000352E+00 0.  1.
       -3    1    3    3    0  502  0.55363512415E+03  0.10514146681E+03  0.57558784884E+03  0.80552340790E+03  0.10100000352E+00 0. -1.
</event>
<event>
 5   0  0.1661000E-05  0.1400004E+04  0.7818609E-02  0.8953816E-01
        3   -1    0    0  501    0  0.00000000000E+00  0.00000000000E+00  0.36211172772E+03  0.36211174181E+03  0.10100000352E+00 0.  1.
       -3   -1    0    0    0  501  0.00000000000E+00  0.00000000000E+00 -0.13531808640E+04  0.13531808678E+04  0.10100000352E+00 0. -1.
    10030    2    1    2    0    0  0.00000000000E+00  0.00000000000E+00 -0.99106913628E+03  0.17152926096E+04  0.14000038227E+04 0.  0.
        2    1    3    3  502    0  0.43851795395E+03 -0.29062650473E+03  0.70241096271E+02  0.53075000971E+03  0.25500000920E-02 0.  1.
       -2    1    3    3    0  502 -0.43851795395E+03  0.29062650473E+03 -0.10613102326E+04  0.11845425999E+04  0.25500000920E-02 0. -1.
</event>
<event>
 5   0  0.2467303E-05  0.1400430E+04  0.7818609E-02  0.8953507E-01
        1   -1    0    0  501    0  0.00000000000E+00  0.00000000000E+00  0.71833442136E+03  0.71833442137E+03  0.50400001928E-02 0.  1.
       -1   -1    0    0    0  501  0.00000000000E+00  0.00000000000E+00 -0.68255282397E+03  0.68255282399E+03  0.50400001928E-02 0. -1.
    10030    2    1    2    0    0  0.00000000000E+00  0.00000000000E+00  0.35781597384E+02  0.14008872454E+04  0.14004302023E+04 0.  0.
        3    1    3    3  502    0 -0.32923382393E+03  0.18644772593E+03 -0.57149034809E+03  0.68538959248E+03  0.10100000352E+00 0. -1.
       -3    1    3    3    0  502  0.32923382393E+03 -0.18644772593E+03  0.60727194547E+03  0.71549765288E+03  0.10100000352E+00 0.  1.
</event>
<event>
 5   0  0.1661000E-05  0.1399787E+04  0.7818609E-02  0.8953972E-01
       -3   -1    0    0    0  501  0.00000000000E+00  0.00000000000E+00  0.57986396015E+03  0.57986396895E+03  0.10100000352E+00 0.  1.
        3   -1    0    0  501    0  0.00000000000E+00  0.00000000000E+00 -0.84476922402E+03  0.84476923006E+03  0.10100000352E+00 0. -1.
    10030    2    1    2    0    0  0.00000000000E+00  0.00000000000E+00 -0.26490526387E+03  0.14246331990E+04  0.13997874670E+04 0.  0.
        4    1    3    3  502    0 -0.12714533879E+03  0.61511241615E+03  0.18176742022E+03  0.65388854526E+03  0.12699999809E+01 0.  1.
       -4    1    3    3    0  502  0.12714533879E+03 -0.61511241615E+03 -0.44667268409E+03  0.77074465375E+03  0.12699999809E+01 0. -1.
</event>
<event>
 5   0  0.4527503E-05  0.1397974E+04  0.7818609E-02  0.8955287E-01
       -2   -1    0    0    0  501  0.00000000000E+00  0.00000000000E+00  0.45952872713E+03  0.45952872714E+03  0.25500000920E-02 0.  1.
        2   -1    0    0  501    0  0.00000000000E+00  0.00000000000E+00 -0.10632254347E+04  0.10632254347E+04  0.25500000920E-02 0. -1.
    10030    2    1    2    0    0  0.00000000000E+00  0.00000000000E+00 -0.60369670760E+03  0.15227541619E+04  0.13979737203E+04 0.  0.
        4    1    3    3  502    0  0.36089084351E+03  0.23868518764E+03  0.29612178706E+03  0.52431149653E+03  0.12699999809E+01 0.  1.
       -4    1    3    3    0  502 -0.36089084351E+03 -0.23868518764E+03 -0.89981849466E+03  0.99844266533E+03  0.12699999809E+01 0. -1.
</event>
<event>
 5   0  0.2428507E-05  0.1399649E+04  0.7818609E-02  0.8954073E-01
       -1   -1    0    0    0  501  0.00000000000E+00  0.00000000000E+00  0.67421577561E+03  0.67421577563E+03  0.50400001928E-02 0. -1.
        1   -1    0    0  501    0  0.00000000000E+00  0.00000000000E+00 -0.72640586999E+03  0.72640587001E+03  0.50400001928E-02 0.  1.
    10030    2    1    2    0    0  0.00000000000E+00  0.00000000000E+00 -0.52190094378E+02  0.14006216456E+04  0.13996489518E+04 0.  0.
        4    1    3    3  502    0 -0.30321434495E+03 -0.18381751356E+03  0.57766898364E+03  0.67781331120E+03  0.12699999809E+01 0. -1.
       -4    1    3    3    0  502  0.30321434495E+03  0.18381751356E+03 -0.62985907802E+03  0.72280833444E+03  0.12699999809E+01 0.  1.
</event>
<event>
 5   0  0.2467303E-05  0.1399793E+04  0.7818609E-02  0.8953969E-01
       -1   -1    0    0    0  501  0.00000000000E+00  0.00000000000E+00  0.42124339618E+03  0.42124339621E+03  0.50400001928E-02 0. -1.
        1   -1    0    0  501    0  0.00000000000E+00  0.00000000000E+00 -0.11628787858E+04  0.11628787858E+04  0.50400001928E-02 0.  1.
    10030    2    1    2    0    0  0.00000000000E+00  0.00000000000E+00 -0.74163538961E+03  0.15841221820E+04  0.13997928548E+04 0.  0.
        3    1    3    3  502    0 -0.14404173553E+03 -0.26174137527E+03  0.34545686149E+03  0.45672423021E+03  0.10100000352E+00 0. -1.
       -3    1    3    3    0  502  0.14404173553E+03  0.26174137527E+03 -0.10870922511E+04  0.11273979518E+04  0.10100000352E+00 0.  1.
</event>
<event>
 5   0  0.4243281E-05  0.1400055E+04  0.7818609E-02  0.8953779E-01
        2   -1    0    0  501    0  0.00000000000E+00  0.00000000000E+00  0.11656852309E+04  0.11656852309E+04  0.25500000920E-02 0.  1.
       -2   -1    0    0    0  501  0.00000000000E+00  0.00000000000E+00 -0.42038638700E+03  0.42038638701E+03  0.25500000920E-02 0. -1.
    10030    2    1    2    0    0  0.00000000000E+00  0.00000000000E+00  0.74529884385E+03  0.15860716179E+04  0.14000545741E+04 0.  0.
        2    1    3    3  502    0 -0.58263710032E+03  0.52829106999E+02 -0.62849983409E+02  0.58839359755E+03  0.25500000920E-02 0.  1.
       -2    1    3    3    0  502  0.58263710032E+03 -0.52829106999E+02  0.80814882726E+03  0.99767802031E+03  0.25500000920E-02 0. -1.
</event>
<event>
 5   0  0.2467303E-05  0.1399913E+04  0.7818609E-02  0.8953881E-01
        1   -1    0    0  501    0  0.00000000000E+00  0.00000000000E+00  0.13287080298E+04  0.13287080298E+04  0.50400001928E-02 0. -1.
       -1   -1    0    0    0  501  0.00000000000E+00  0.00000000000E+00 -0.36873349566E+03  0.36873349569E+03  0.50400001928E-02 0.  1.
    10030    2    1    2    0    0  0.00000000000E+00  0.00000000000E+00  0.95997453415E+03  0.16974415255E+04  0.13999130781E+04 0.  0.
        3    1    3    3  502    0  0.20206949107E+03  0.94678019736E+02 -0.32444729245E+03  0.39377920516E+03  0.10100000352E+00 0.  1.
       -3    1    3    3    0  502 -0.20206949107E+03 -0.94678019736E+02  0.12844218266E+04  0.13036623203E+04  0.10100000352E+00 0. -1.
</event>
<event>
 5   0  0.4527503E-05  0.1399113E+04  0.7818609E-02  0.8954461E-01
        2   -1    0    0  501    0  0.00000000000E+00  0.00000000000E+00  0.90429105811E+03  0.90429105811E+03  0.25500000920E-02 0. -1.
       -2   -1    0    0    0  501  0.00000000000E+00  0.00000000000E+00 -0.54117456300E+03  0.54117456301E+03  0.25500000920E-02 0.  1.
    10030    2    1    2    0    0  0.00000000000E+00  0.00000000000E+00  0.36311649511E+03  0.14454656211E+04  0.13991130308E+04 0.  0.
        4    1    3    3  502    0 -0.12214286767E+03  0.18009632363E+03 -0.50531714676E+03  0.55018233124E+03  0.12699999809E+01 0.  1.
       -4    1    3    3    0  502  0.12214286767E+03 -0.18009632363E+03  0.86843364187E+03  0.89528328988E+03  0.12699999809E+01 0. -1.
</event>
<event>
 5   0  0.4460282E-05  0.1399204E+04  0.7818609E-02  0.8954395E-01
       -2   -1    0    0    0  501  0.00000000000E+00  0.00000000000E+00  0.10679169032E+04  0.10679169032E+04  0.25500000920E-02 0. -1.
        2   -1    0    0  501    0  0.00000000000E+00  0.00000000000E+00 -0.45831558740E+03  0.45831558741E+03  0.25500000920E-02 0.  1.
    10030    2    1    2    0    0  0.00000000000E+00  0.00000000000E+00  0.60960131578E+03  0.15262324906E+04  0.13992040063E+04 0.  0.
        1    1    3    3  502    0  0.15224938696E+02 -0.17564929354E+03 -0.43368538976E+03  0.46815327661E+03  0.50400001928E-02 0.  1.
       -1    1    3    3    0  502 -0.15224938696E+02  0.17564929354E+03  0.10432867055E+04  0.10580792140E+04  0.50400001928E-02 0. -1.
</event>
<event>
 5   0  0.4441253E-05  0.1399934E+04  0.7818609E-02  0.8953866E-01
        2   -1    0    0  501    0  0.00000000000E+00  0.00000000000E+00  0.19095260329E+04  0.19095260329E+04  0.25500000920E-02 0. -1.
       -2   -1    0    0    0  501  0.00000000000E+00  0.00000000000E+00 -0.25658412369E+03  0.25658412371E+03  0.25500000920E-02 0.  1.
    10030    2    1    2    0    0  0.00000000000E+00  0.00000000000E+00  0.16529419092E+04  0.21661101566E+04  0.13999343754E+04 0.  0.
        3    1    3    3  502    0  0.14629306721E+03 -0.25942163495E+03 -0.15365502962E+03  0.33512851941E+03  0.10100000352E+00 0.  1.
       -3    1    3    3    0  502 -0.14629306721E+03  0.25942163495E+03  0.18065969389E+04  0.18309816372E+04  0.10100000352E+00 0. -1.
</event>
<event>
 5   0  0.4441253E-05  0.1399752E+04  0.7818609E-02  0.8953998E-01
        2   -1    0    0  501    0  0.00000000000E+00  0.00000000000E+00  0.14881461159E+04  0.14881461159E+04  0.25500000920E-02 0.  1.
       -2   -1    0    0    0  501  0.00000000000E+00  0.00000000000E+00 -0.32915204783E+03  0.32915204784E+03  0.25500000920E-02 0. -1.
    10030    2    1    2    0    0  0.00000000000E+00  0.00000000000E+00  0.11589940681E+04  0.18172981638E+04  0.13997518945E+04 0.  0.
        3    1    3    3  502    0 -0.20370180191E+02 -0.35815375506E+03  0.13597066203E+04  0.14062329679E+04  0.10100000352E+00 0.  1.
       -3    1    3    3    0  502  0.20370180191E+02  0.35815375506E+03 -0.20071255215E+03  0.41106519592E+03  0.10100000352E+00 0. -1.
</event>
<event>
 5   0  0.4621450E-05  0.1400148E+04  0.7818609E-02  0.8953711E-01
        2   -1    0    0  501    0  0.00000000000E+00  0.00000000000E+00  0.63687983566E+03  0.63687983566E+03  0.25500000920E-02 0. -1.
       -2   -1    0    0    0  501  0.00000000000E+00  0.00000000000E+00 -0.76953894108E+03  0.76953894109E+03  0.25500000920E-02 0.  1.
    10030    2    1    2    0    0  0.00000000000E+00  0.00000000000E+00 -0.13265910542E+03  0.14064187767E+04  0.14001483269E+04 0.  0.
        5    1    3    3  502    0 -0.67095717671E+02  0.49965328873E+03  0.42156837407E+03  0.65718888326E+03  0.46999998093E+01 0. -1.
       -5    1    3    3    0  502  0.67095717671E+02 -0.49965328873E+03 -0.55422747950E+03  0.74922989349E+03  0.46999998093E+01 0.  1.
</event>
<event>
 5   0  0.2467303E-05  0.1399751E+04  0.7818609E-02  0.8953999E-01
       -1   -1    0    0    0  501  0.00000000000E+00  0.00000000000E+00  0.62806716204E+03  0.62806716206E+03  0.50400001928E-02 0. -1.
        1   -1    0    0  501    0  0.00000000000E+00  0.00000000000E+00 -0.77989405533E+03  0.77989405534E+03  0.50400001928E-02 0.  1.
    10030    2    1    2    0    0  0.00000000000E+00  0.00000000000E+00 -0.15182689328E+03  0.14079612174E+04  0.13997511865E+04 0.  0.
        3    1    3    3  502    0  0.30139030331E+03  0.91929937887E+02 -0.70450976723E+03  0.77176502301E+03  0.10100000352E+00 0.  1.
       -3    1    3    3    0  502 -0.30139030331E+03 -0.91929937887E+02  0.55268287395E+03  0.63619619440E+03  0.10100000352E+00 0. -1.
</event>
<event>
 5   0  0.2428507E-05  0.1400945E+04  0.7818609E-02  0.8953135E-01
       -1   -1    0    0    0  501  0.00000000000E+00  0.00000000000E+00  0.44025495849E+03  0.44025495852E+03  0.50400001928E-02 0.  1.
        1   -1    0    0  501    0  0.00000000000E+00  0.00000000000E+00 -0.11144937584E+04  0.11144937584E+04  0.50400001928E-02 0. -1.
    10030    2    1    2    0    0  0.00000000000E+00  0.00000000000E+00 -0.67423879993E+03  0.15547487170E+04  0.14009445433E+04 0.  0.
        4    1    3    3  502    0 -0.51961381202E+03 -0.67354244378E+02 -0.85305019071E+03  0.10011150527E+04  0.12699999809E+01 0. -1.
       -4    1    3    3    0  502  0.51961381202E+03  0.67354244378E+02  0.17881139078E+03  0.55363366430E+03  0.12699999809E+01 0.  1.
</event>
<event>
 5   0  0.4527503E-05  0.1400499E+04  0.7818609E-02  0.8953457E-01
        2   -1    0    0  501    0  0.00000000000E+00  0.00000000000E+00  0.69131408228E+03  0.69131408229E+03  0.25500000920E-02 0. -1.
       -2   -1    0    0    0  501  0.00000000000E+00  0.00000000000E+00 -0.70930080564E+03  0.70930080564E+03  0.25500000920E-02 0.  1.
    10030    2    1    2    0    0  0.00000000000E+00  0.00000000000E+00 -0.17986723352E+02  0.14006148879E+04  0.14004993902E+04 0.  0.
        4    1    3    3  502    0 -0.30697668330E+03  0.61231149192E+03  0.13657954185E+03  0.69843799393E+03  0.12699999809E+01 0. -1.
       -4    1    3    3    0  502  0.30697668330E+03 -0.61231149192E+03 -0.15456626520E+03  0.70217689399E+03  0.12699999809E+01 0.  1.
</event>
<event>
 5   0  0.2467303E-05  0.1409360E+04  0.7818609E-02  0.8947071E-01
       -1   -1    0    0    0  501  0.00000000000E+00  0.00000000000E+00  0.51241404086E+03  0.51241404089E+03  0.50400001928E-02 0.  1.
        1   -1    0    0  501    0  0.00000000000E+00  0.00000000000E+00 -0.96908791444E+03  0.96908791446E+03  0.50400001928E-02 0. -1.
    10030    2    1    2    0    0  0.00000000000E+00  0.00000000000E+00 -0.45667387358E+03  0.14815019553E+04  0.14093604993E+04 0.  0.
        3    1    3    3  502    0  0.37524899721E+03  0.51179104303E+03  0.93663498731E+02  0.64149414871E+03  0.10100000352E+00 0.  1.
       -3    1    3    3    0  502 -0.37524899721E+03 -0.51179104303E+03 -0.55033737231E+03  0.84000780663E+03  0.10100000352E+00 0. -1.
</event>
<event>
 5   0  0.2363419E-05  0.1399993E+04  0.7818609E-02  0.8953823E-01
        1   -1    0    0  501    0  0.00000000000E+00  0.00000000000E+00  0.93949931238E+03  0.93949931239E+03  0.50400001928E-02 0. -1.
       -1   -1    0    0    0  501  0.00000000000E+00  0.00000000000E+00 -0.52154930777E+03  0.52154930780E+03  0.50400001928E-02 0.  1.
    10030    2    1    2    0    0  0.00000000000E+00  0.00000000000E+00  0.41795000461E+03  0.14610486202E+04  0.13999931658E+04 0.  0.
        2    1    3    3  502    0 -0.46254841298E+03  0.24573359089E+03  0.69361888089E+03  0.86916234615E+03  0.25500000920E-02 0. -1.
       -2    1    3    3    0  502  0.46254841298E+03 -0.24573359089E+03 -0.27566887628E+03  0.59188627404E+03  0.25500000920E-02 0.  1.
</event>
<event>
 5   0  0.2467303E-05  0.1400242E+04  0.7818609E-02  0.8953644E-01
        1   -1    0    0  501    0  0.00000000000E+00  0.00000000000E+00  0.48812834846E+03  0.48812834848E+03  0.50400001928E-02 0. -1.
       -1   -1    0    0    0  501  0.00000000000E+00  0.00000000000E+00 -0.10041808864E+04  0.10041808864E+04  0.50400001928E-02 0.  1.
    10030    2    1    2    0    0  0.00000000000E+00  0.00000000000E+00 -0.51605253793E+03  0.14923092349E+04  0.14002416329E+04 0.  0.
        3    1    3    3  502    0 -0.37435103985E+03 -0.15902225247E+03  0.34930454730E+03  0.53613473566E+03  0.10100000352E+00 0. -1.
       -3    1    3    3    0  502  0.37435103985E+03  0.15902225247E+03 -0.86535708523E+03  0.95617449922E+03  0.10100000352E+00 0.  1.
</event>
<event>
 5   0  0.2467303E-05  0.1400726E+04  0.7818609E-02  0.8953293E-01
        1   -1    0    0  501    0  0.00000000000E+00  0.00000000000E+00  0.10858666778E+04  0.10858666778E+04  0.50400001928E-02 0.  1.
       -1   -1    0    0    0  501  0.00000000000E+00  0.00000000000E+00 -0.45172063902E+03  0.45172063905E+03  0.50400001928E-02 0. -1.
    10030    2    1    2    0    0  0.00000000000E+00  0.00000000000E+00  0.63414603879E+03  0.15375873169E+04  0.14007260826E+04 0.  0.
        3    1    3    3  502    0  0.53468033924E+03 -0.25131835656E+03 -0.95793960156E+02  0.59851522497E+03  0.10100000352E+00 0. -1.
       -3    1    3    3    0  502 -0.53468033924E+03  0.25131835656E+03  0.72993999894E+03  0.93907209189E+03  0.10100000352E+00 0.  1.
</event>
<event>
 5   0  0.2316714E-05  0.1402198E+04  0.7818609E-02  0.8952229E-01
        1   -1    0    0  501    0  0.00000000000E+00  0.00000000000E+00  0.82638026888E+03  0.82638026890E+03  0.50400001928E-02 0. -1.
       -1   -1    0    0    0  501  0.00000000000E+00  0.00000000000E+00 -0.59481096192E+03  0.59481096194E+03  0.50400001928E-02 0.  1.
    10030    2    1    2    0    0  0.00000000000E+00  0.00000000000E+00  0.23156930696E+03  0.14211912308E+04  0.14021983350E+04 0.  0.
        5    1    3    3  502    0 -0.52891384448E+03 -0.26423858208E+03 -0.26607586487E+03  0.64837515299E+03  0.46999998093E+01 0.  1.
       -5    1    3    3    0  502  0.52891384448E+03  0.26423858208E+03  0.49764517183E+03  0.77281607785E+03  0.46999998093E+01 0. -1.
</event>
<event>
 5   0  0.2363419E-05  0.1399007E+04  0.7818609E-02  0.8954538E-01
        1   -1    0    0  501    0  0.00000000000E+00  0.00000000000E+00  0.12419716499E+04  0.12419716499E+04  0.50400001928E-02 0.  1.
       -1   -1    0    0    0  501  0.00000000000E+00  0.00000000000E+00 -0.39397429594E+03  0.39397429597E+03  0.50400001928E-02 0. -1.
    10030    2    1    2    0    0  0.00000000000E+00  0.00000000000E+00  0.84799735394E+03  0.16359459459E+04  0.13990066567E+04 0.  0.
        2    1    3    3  502    0 -0.44571273825E+03  0.39708117442E+03  0.85040989325E+03  0.10390044710E+04  0.25500000920E-02 0.  1.
       -2    1    3    3    0  502  0.44571273825E+03 -0.39708117442E+03 -0.24125393159E+01  0.59694147491E+03  0.25500000920E-02 0. -1.
</event>
<event>
 5   0  0.1661000E-05  0.1400008E+04  0.7818609E-02  0.8953812E-01
       -3   -1    0    0    0  501  0.00000000000E+00  0.00000000000E+00  0.28018393649E+03  0.28018395469E+03  0.10100000352E+00 0.  1.
        3   -1    0    0  501    0  0.00000000000E+00  0.00000000000E+00 -0.17488721178E+04  0.17488721208E+04  0.10100000352E+00 0. -1.
    10030    2    1    2    0    0  0.00000000000E+00  0.00000000000E+00 -0.14686881814E+04  0.20290560755E+04  0.14000084226E+04 0.  0.
        3    1    3    3  502    0  0.37717980884E+03  0.11456395718E+03 -0.15727165388E+04  0.16213657299E+04  0.10100000352E+00 0. -1.
       -3    1    3    3    0  502 -0.37717980884E+03 -0.11456395718E+03  0.10402835746E+03  0.40769034553E+03  0.10100000352E+00 0.  1.
</event>
<event>
 5   0  0.2363419E-05  0.1400368E+04  0.7818609E-02  0.8953552E-01
        1   -1    0    0  501    0  0.00000000000E+00  0.00000000000E+00  0.17312412638E+04  0.17312412638E+04  0.50400001928E-02 0.  1.
       -1   -1    0    0    0  501  0.00000000000E+00  0.00000000000E+00 -0.28318271201E+03  0.28318271205E+03  0.50400001928E-02 0. -1.
    10030    2    1    2    0    0  0.00000000000E+00  0.00000000000E+00  0.14480585518E+04  0.20144239759E+04  0.14003679463E+04 0.  0.
        2    1    3    3  502    0 -0.47420733512E+01  0.59490581727E+03  0.19291010488E+03  0.62541964092E+03  0.25500000920E-02 0.  1.
       -2    1    3    3    0  502  0.47420733512E+01 -0.59490581727E+03  0.12551484469E+04  0.13890043349E+04  0.25500000920E-02 0. -1.
</event>
<event>
 5   0  0.4621450E-05  0.1399396E+04  0.7818609E-02  0.8954256E-01
       -2   -1    0    0    0  501  0.00000000000E+00  0.00000000000E+00  0.27930331036E+03  0.27930331037E+03  0.25500000920E-02 0. -1.
        2   -1    0    0  501    0  0.00000000000E+00  0.00000000000E+00 -0.17528525371E+04  0.17528525371E+04  0.25500000920E-02 0.  1.
    10030    2    1    2    0    0  0.00000000000E+00  0.00000000000E+00 -0.14735492267E+04  0.20321558475E+04  0.13993963216E+04 0.  0.
        5    1    3    3  502    0  0.60923891638E+03 -0.23420309741E+03 -0.37074729720E+03  0.75066556898E+03  0.46999998093E+01 0. -1.
       -5    1    3    3    0  502 -0.60923891638E+03  0.23420309741E+03 -0.11028019295E+04  0.12814902785E+04  0.46999998093E+01 0.  1.
</event>
<event>
 5   0  0.2467303E-05  0.1399003E+04  0.7818609E-02  0.8954541E-01
        1   -1    0    0  501    0  0.00000000000E+00  0.00000000000E+00  0.15043145369E+04  0.15043145369E+04  0.50400001928E-02 0.  1.
       -1   -1    0    0    0  501  0.00000000000E+00  0.00000000000E+00 -0.32526591749E+03  0.32526591753E+03  0.50400001928E-02 0. -1.
    10030    2    1    2    0    0  0.00000000000E+00  0.00000000000E+00  0.11790486194E+04  0.18295804544E+04  0.13990028564E+04 0.  0.
        3    1    3    3  502    0 -0.16019268915E+03 -0.37688727084E+03  0.13311565217E+04  0.13927251732E+04  0.10100000352E+00 0.  1.
       -3    1    3    3    0  502  0.16019268915E+03  0.37688727084E+03 -0.15210790231E+03  0.43685528122E+03  0.10100000352E+00 0. -1.
</event>
<event>
 5   0  0.4621450E-05  0.1401400E+04  0.7818609E-02  0.8952806E-01
       -2   -1    0    0    0  501  0.00000000000E+00  0.00000000000E+00  0.37764802910E+03  0.37764802910E+03  0.25500000920E-02 0.  1.
        2   -1    0    0  501    0  0.00000000000E+00  0.00000000000E+00 -0.13001000879E+04  0.13001000879E+04  0.25500000920E-02 0. -1.
    10030    2    1    2    0    0  0.00000000000E+00  0.00000000000E+00 -0.92245205876E+03  0.16777481170E+04  0.14013996372E+04 0.  0.
        5    1    3    3  502    0  0.18826885030E+02  0.49464757445E+03 -0.10549277143E+04  0.11653004964E+04  0.46999998093E+01 0. -1.
       -5    1    3    3    0  502 -0.18826885030E+02 -0.49464757445E+03  0.13247565555E+03  0.51244762056E+03  0.46999998093E+01 0.  1.
</event>
<event>
 5   0  0.2467303E-05  0.1399902E+04  0.7818609E-02  0.8953889E-01
       -1   -1    0    0    0  501  0.00000000000E+00  0.00000000000E+00  0.59452118022E+03  0.59452118024E+03  0.50400001928E-02 0. -1.
        1   -1    0    0  501    0  0.00000000000E+00  0.00000000000E+00 -0.82407764199E+03  0.82407764200E+03  0.50400001928E-02 0.  1.
    10030    2    1    2    0    0  0.00000000000E+00  0.00000000000E+00 -0.22955646177E+03  0.14185988222E+04  0.13999022999E+04 0.  0.
        3    1    3    3  502    0 -0.38442152272E+03  0.53378906380E+01  0.47794661426E+03  0.61338517792E+03  0.10100000352E+00 0. -1.
       -3    1    3    3    0  502  0.38442152272E+03 -0.53378906380E+01 -0.70750307603E+03  0.80521364432E+03  0.10100000352E+00 0.  1.
</event>
<event>
 5   0  0.4527503E-05  0.1400289E+04  0.7818609E-02  0.8953609E-01
       -2   -1    0    0    0  501  0.00000000000E+00  0.00000000000E+00  0.51062454731E+03  0.51062454731E+03  0.25500000920E-02 0. -1.
        2   -1    0    0  501    0  0.00000000000E+00  0.00000000000E+00 -0.96000519324E+03  0.96000519324E+03  0.25500000920E-02 0.  1.
    10030    2    1    2    0    0  0.00000000000E+00  0.00000000000E+00 -0.44938064593E+03  0.14706297406E+04  0.14002888519E+04 0.  0.
        4    1    3    3  502    0 -0.33518496401E+03 -0.54414712397E+03 -0.52498272229E+03  0.82707528329E+03  0.12699999809E+01 0.  1.
       -4    1    3    3    0  502  0.33518496401E+03  0.54414712397E+03  0.75602076356E+02  0.64355445727E+03  0.12699999809E+01 0. -1.
</event>
<event>
 5   0  0.2428507E-05  0.1397987E+04  0.7818609E-02  0.8955277E-01
       -1   -1    0    0    0  501  0.00000000000E+00  0.00000000000E+00  0.67548300751E+03  0.67548300752E+03  0.50400001928E-02 0. -1.
        1   -1    0    0  501    0  0.00000000000E+00  0.00000000000E+00 -0.72332215031E+03  0.72332215032E+03  0.50400001928E-02 0.  1.
    10030    2    1    2    0    0  0.00000000000E+00  0.00000000000E+00 -0.47839142800E+02  0.13988051578E+04  0.13979868691E+04 0.  0.
        4    1    3    3  502    0  0.52267813956E+03 -0.45275249295E+03  0.78184027158E+02  0.69591063539E+03  0.12699999809E+01 0. -1.
       -4    1    3    3    0  502 -0.52267813956E+03  0.45275249295E+03 -0.12602316996E+03  0.70289452246E+03  0.12699999809E+01 0.  1.
</event>
<event>
 5   0  0.4527503E-05  0.1400127E+04  0.7818609E-02  0.8953727E-01
       -2   -1    0    0    0  501  0.00000000000E+00  0.00000000000E+00  0.76169912009E+03  0.76169912009E+03  0.25500000920E-02 0.  1.
        2   -1    0    0  501    0  0.00000000000E+00  0.00000000000E+00 -0.64341530833E+03  0.64341530834E+03  0.25500000920E-02 0. -1.
    10030    2    1    2    0    0  0.00000000000E+00  0.00000000000E+00  0.11828381176E+03  0.14051144284E+04  0.14001269574E+04 0.  0.
        4    1    3    3  502    0 -0.49201169651E+03  0.44743659961E+03  0.27858091149E+03  0.72102978948E+03  0.12699999809E+01 0. -1.
       -4    1    3    3    0  502  0.49201169651E+03 -0.44743659961E+03 -0.16029709974E+03  0.68408463895E+03  0.12699999809E+01 0.  1.
</event>
<event>
 5   0  0.4243281E-05  0.1399566E+04  0.7818609E-02  0.8954133E-01
       -2   -1    0    0    0  501  0.00000000000E+00  0.00000000000E+00  0.10167381962E+04  0.10167381962E+04  0.25500000920E-02 0. -1.
        2   -1    0    0  501    0  0.00000000000E+00  0.00000000000E+00 -0.48163470898E+03  0.48163470899E+03  0.25500000920E-02 0.  1.
    10030    2    1    2    0    0  0.00000000000E+00  0.00000000000E+00  0.53510348726E+03  0.14983729052E+04  0.13995662260E+04 0.  0.
        2    1    3    3  502    0 -0.81155592520E+02  0.31003453996E+02  0.10109423605E+04  0.10146683698E+04  0.25500000920E-02 0. -1.
       -2    1    3    3    0  502  0.81155592520E+02 -0.31003453996E+02 -0.47583887323E+03  0.48370453548E+03  0.25500000920E-02 0.  1.
</event>
<event>
 5   0  0.2427569E-05  0.1399194E+04  0.7818609E-02  0.8954402E-01
        1   -1    0    0  501    0  0.00000000000E+00  0.00000000000E+00  0.10306596746E+04  0.10306596746E+04  0.50400001928E-02 0.  1.
       -1   -1    0    0    0  501  0.00000000000E+00  0.00000000000E+00 -0.47487621096E+03  0.47487621099E+03  0.50400001928E-02 0. -1.
    10030    2    1    2    0    0  0.00000000000E+00  0.00000000000E+00  0.55578346360E+03  0.15055358856E+04  0.13991937122E+04 0.  0.
        1    1    3    3  502    0  0.24489218555E+03 -0.30495257155E+02  0.98226962226E+03  0.10127960081E+04  0.50400001928E-02 0.  1.
       -1    1    3    3    0  502 -0.24489218555E+03  0.30495257155E+02 -0.42648615866E+03  0.49273987743E+03  0.50400001928E-02 0. -1.
</event>
<event>
 5   0  0.1661000E-05  0.1401153E+04  0.7818609E-02  0.8952985E-01
       -3   -1    0    0    0  501  0.00000000000E+00  0.00000000000E+00  0.78061221038E+03  0.78061221692E+03  0.10100000352E+00 0. -1.
        3   -1    0    0  501    0  0.00000000000E+00  0.00000000000E+00 -0.62874656179E+03  0.62874656991E+03  0.10100000352E+00 0.  1.
    10030    2    1    2    0    0  0.00000000000E+00  0.00000000000E+00  0.15186564859E+03  0.14093587868E+04  0.14011527450E+04 0.  0.
        4    1    3    3  502    0 -0.31961144116E+02  0.41823996487E+03 -0.48847686039E+03  0.64386135074E+03  0.12699999809E+01 0.  1.
       -4    1    3    3    0  502  0.31961144116E+02 -0.41823996487E+03  0.64034250897E+03  0.76549743608E+03  0.12699999809E+01 0. -1.
</event>
<event>
 5   0  0.2427569E-05  0.1402939E+04  0.7818609E-02  0.8951694E-01
       -1   -1    0    0    0  501  0.00000000000E+00  0.00000000000E+00  0.89300643677E+03  0.89300643678E+03  0.50400001928E-02 0. -1.
        1   -1    0    0  501    0  0.00000000000E+00  0.00000000000E+00 -0.55101466148E+03  0.55101466151E+03  0.50400001928E-02 0.  1.
    10030    2    1    2    0    0  0.00000000000E+00  0.00000000000E+00  0.34199177529E+03  0.14440210983E+04  0.14029392567E+04 0.  0.
        1    1    3    3  502    0  0.79405456122E+02  0.13467585540E+03  0.87484527395E+03  0.88870527504E+03  0.50400001928E-02 0. -1.
       -1    1    3    3    0  502 -0.79405456122E+02 -0.13467585540E+03 -0.53285349867E+03  0.55531582326E+03  0.50400001928E-02 0.  1.
</event>
<event>
 5   0  0.4621450E-05  0.1399287E+04  0.7818609E-02  0.8954335E-01
       -2   -1    0    0    0  501  0.00000000000E+00  0.00000000000E+00  0.11738262878E+04  0.11738262878E+04  0.25500000920E-02 0. -1.
        2   -1    0    0  501    0  0.00000000000E+00  0.00000000000E+00 -0.41701314116E+03  0.41701314117E+03  0.25500000920E-02 0.  1.
    10030    2    1    2    0    0  0.00000000000E+00  0.00000000000E+00  0.75681314665E+03  0.15908394290E+04  0.13992869434E+04 0.  0.
        5    1    3    3  502    0  0.29217089046E+03  0.46107342810E+03  0.87595326692E+03  0.10321185742E+04  0.46999998093E+01 0. -1.
       -5    1    3    3    0  502 -0.29217089046E+03 -0.46107342810E+03 -0.11914012027E+03  0.55872085480E+03  0.46999998093E+01 0.  1.
</event>
<event>
 5   0  0.4441253E-05  0.1399598E+04  0.7818609E-02  0.8954110E-01
        2   -1    0    0  501    0  0.00000000000E+00  0.00000000000E+00  0.22192182479E+04  0.22192182479E+04  0.25500000920E-02 0. -1.
       -2   -1    0    0    0  501  0.00000000000E+00  0.00000000000E+00 -0.22067166671E+03  0.22067166672E+03  0.25500000920E-02 0.  1.
    10030    2    1    2    0    0  0.00000000000E+00  0.00000000000E+00  0.19985465812E+04  0.24398899147E+04  0.13995979274E+04 0.  0.
        3    1    3    3  502    0 -0.21261964690E+03 -0.14426021698E+03 -0.13546681954E+03  0.29046410079E+03  0.10100000352E+00 0.  1.
       -3    1    3    3    0  502  0.21261964690E+03  0.14426021698E+03  0.21340134008E+04  0.21494258139E+04  0.10100000352E+00 0. -1.
</event>
<event>
 5   0  0.4621450E-05  0.1402582E+04  0.7818609E-02  0.8951952E-01
       -2   -1    0    0    0  501  0.00000000000E+00  0.00000000000E+00  0.40970527849E+03  0.40970527850E+03  0.25500000920E-02 0. -1.
        2   -1    0    0  501    0  0.00000000000E+00  0.00000000000E+00 -0.12003971309E+04  0.12003971309E+04  0.25500000920E-02 0.  1.
    10030    2    1    2    0    0  0.00000000000E+00  0.00000000000E+00 -0.79069185244E+03  0.16101024094E+04  0.14025819631E+04 0.  0.
        5    1    3    3  502    0  0.15466122396E+03  0.26873500709E+03  0.32672512034E+03  0.45045531687E+03  0.46999998093E+01 0. -1.
       -5    1    3    3    0  502 -0.15466122396E+03 -0.26873500709E+03 -0.11174169728E+04  0.11596470926E+04  0.46999998093E+01 0.  1.
</event>
<event>
 5   0  0.2363419E-05  0.1400034E+04  0.7818609E-02  0.8953794E-01
       -1   -1    0    0    0  501  0.00000000000E+00  0.00000000000E+00  0.39655322385E+03  0.39655322388E+03  0.50400001928E-02 0. -1.
        1   -1    0    0  501    0  0.00000000000E+00  0.00000000000E+00 -0.12357083846E+04  0.12357083847E+04  0.50400001928E-02 0.  1.
    10030    2    1    2    0    0  0.00000000000E+00  0.00000000000E+00 -0.83915516079E+03  0.16322616085E+04  0.14000344906E+04 0.  0.
        2    1    3    3  502    0  0.59168034975E+03 -0.96265285578E+02 -0.84102313085E+03  0.10327984063E+04  0.25500000920E-02 0. -1.
       -2    1    3    3    0  502 -0.59168034975E+03  0.96265285578E+02  0.18679700520E+01  0.59946320221E+03  0.25500000920E-02 0.  1.
</event>
<event>
 5   0  0.4527503E-05  0.1400063E+04  0.7818609E-02  0.8953773E-01
        2   -1    0    0  501    0  0.00000000000E+00  0.00000000000E+00  0.58556591702E+03  0.58556591703E+03  0.25500000920E-02 0. -1.
       -2   -1    0    0    0  501  0.00000000000E+00  0.00000000000E+00 -0.83687248330E+03  0.83687248331E+03  0.25500000920E-02 0.  1.
    10030    2    1    2    0    0  0.00000000000E+00  0.00000000000E+00 -0.25130656628E+03  0.14224384003E+04  0.14000628602E+04 0.  0.
        4    1    3    3  502    0 -0.10649098458E+03  0.64018433644E+03  0.14096418569E+03  0.66411507208E+03  0.12699999809E+01 0. -1.
       -4    1    3    3    0  502  0.10649098458E+03 -0.64018433644E+03 -0.39227075197E+03  0.75832332825E+03  0.12699999809E+01 0.  1.
</event>
<event>
 5   0  0.2427569E-05  0.1399724E+04  0.7818609E-02  0.8954018E-01
       -1   -1    0    0    0  501  0.00000000000E+00  0.00000000000E+00  0.60614516984E+03  0.60614516986E+03  0.50400001928E-02 0.  1.
        1   -1    0    0  501    0  0.00000000000E+00  0.00000000000E+00 -0.80806859928E+03  0.80806859929E+03  0.50400001928E-02 0. -1.
    10030    2    1    2    0    0  0.00000000000E+00  0.00000000000E+00 -0.20192342944E+03  0.14142137692E+04  0.13997240848E+04 0.  0.
        1    1    3    3  502    0  0.70904526085E+02  0.61587774145E+03  0.22716788169E+03  0.66025607966E+03  0.50400001928E-02 0.  1.
       -1    1    3    3    0  502 -0.70904526085E+02 -0.61587774145E+03 -0.42909131113E+03  0.75395768949E+03  0.50400001928E-02 0. -1.
</event>
<event>
 5   0  0.4441253E-05  0.1399748E+04  0.7818609E-02  0.8954001E-01
       -2   -1    0    0    0  501  0.00000000000E+00  0.00000000000E+00  0.68448740026E+03  0.68448740027E+03  0.25500000920E-02 0. -1.
        2   -1    0    0  501    0  0.00000000000E+00  0.00000000000E+00 -0.71560649050E+03  0.71560649051E+03  0.25500000920E-02 0.  1.
    10030    2    1    2    0    0  0.00000000000E+00  0.00000000000E+00 -0.31119090240E+02  0.14000938908E+04  0.13997480149E+04 0.  0.
        3    1    3    3  502    0  0.49838416704E+03 -0.68608681117E+01  0.47587618369E+03  0.68912408308E+03  0.10100000352E+00 0. -1.
       -3    1    3    3    0  502 -0.49838416704E+03  0.68608681117E+01 -0.50699527393E+03  0.71096980770E+03  0.10100000352E+00 0.  1.
</event>
<event>
 5   0  0.2427569E-05  0.1400253E+04  0.7818609E-02  0.8953636E-01
       -1   -1    0    0    0  501  0.00000000000E+00  0.00000000000E+00  0.43904276338E+03  0.43904276341E+03  0.50400001928E-02 0. -1.
        1   -1    0    0  501    0  0.00000000000E+00  0.00000000000E+00 -0.11164672464E+04  0.11164672464E+04  0.50400001928E-02 0.  1.
    10030    2    1    2    0    0  0.00000000000E+00  0.00000000000E+00 -0.67742448304E+03  0.15555100098E+04  0.14002526417E+04 0.  0.
        1    1    3    3  502    0  0.33821184264E+03 -0.88823377634E+01  0.34220322994E+03  0.48121637237E+03  0.50400001928E-02 0. -1.
       -1    1    3    3    0  502 -0.33821184264E+03  0.88823377634E+01 -0.10196277130E+04  0.10742936375E+04  0.50400001928E-02 0.  1.
</event>
<event>
 5   0  0.4621450E-05  0.1400694E+04  0.7818609E-02  0.8953316E-01
        2   -1    0    0  501    0  0.00000000000E+00  0.00000000000E+00  0.16833067860E+04  0.16833067860E+04  0.25500000920E-02 0.  1.
       -2   -1    0    0    0  501  0.00000000000E+00  0.00000000000E+00 -0.29138257361E+03  0.29138257362E+03  0.25500000920E-02 0. -1.
    10030    2    1    2    0    0  0.00000000000E+00  0.00000000000E+00  0.13919242124E+04  0.19746893596E+04  0.14006944899E+04 0.  0.
        5    1    3    3  502    0  0.80772194778E+02 -0.67554656823E+03  0.46184789636E+03  0.82232164185E+03  0.46999998093E+01 0. -1.
       -5    1    3    3    0  502 -0.80772194778E+02  0.67554656823E+03  0.93007631603E+03  0.11523677178E+04  0.46999998093E+01 0.  1.
</event>
<event>
 5   0  0.1661000E-05  0.1400457E+04  0.7818609E-02  0.8953488E-01
       -3   -1    0    0    0  501  0.00000000000E+00  0.00000000000E+00  0.65963811674E+03  0.65963812448E+03  0.10100000352E+00 0.  1.
        3   -1    0    0  501    0  0.00000000000E+00  0.00000000000E+00 -0.74331686926E+03  0.74331687612E+03  0.10100000352E+00 0. -1.
    10030    2    1    2    0    0  0.00000000000E+00  0.00000000000E+00 -0.83678752518E+02  0.14029550006E+04  0.14004572825E+04 0.  0.
        1    1    3    3  502    0  0.74780345794E+02 -0.37257371834E+03 -0.63103532104E+03  0.73661988308E+03  0.50400001928E-02 0. -1.
       -1    1    3    3    0  502 -0.74780345794E+02  0.37257371834E+03  0.54735656852E+03  0.66633511752E+03  0.50400001928E-02 0.  1.
</event>
<event>
 5   0  0.2428507E-05  0.1401057E+04  0.7818609E-02  0.8953054E-01
        1   -1    0    0  501    0  0.00000000000E+00  0.00000000000E+00  0.21087391726E+04  0.21087391726E+04  0.50400001928E-02 0. -1.
       -1   -1    0    0    0  501  0.00000000000E+00  0.00000000000E+00 -0.23271723287E+03  0.23271723293E+03  0.50400001928E-02 0.  1.
    10030    2    1    2    0    0  0.00000000000E+00  0.00000000000E+00  0.18760219397E+04  0.23414564055E+04  0.14010566657E+04 0.  0.
        4    1    3    3  502    0 -0.12491534494E+03 -0.55296534484E+03  0.16257769518E+04  0.17217801329E+04  0.12699999809E+01 0. -1.
       -4    1    3    3    0  502  0.12491534494E+03  0.55296534484E+03  0.25024498787E+03  0.61967627262E+03  0.12699999809E+01 0.  1.
</event>
<event>
 5   0  0.4243281E-05  0.1398851E+04  0.7818609E-02  0.8954651E-01
       -2   -1    0    0    0  501  0.00000000000E+00  0.00000000000E+00  0.82491499119E+03  0.82491499119E+03  0.25500000920E-02 0. -1.
        2   -1    0    0  501    0  0.00000000000E+00  0.00000000000E+00 -0.59302561941E+03  0.59302561942E+03  0.25500000920E-02 0.  1.
    10030    2    1    2    0    0  0.00000000000E+00  0.00000000000E+00  0.23188937178E+03  0.14179406106E+04  0.13988505619E+04 0.  0.
        2    1    3    3  502    0  0.50482971113E+03 -0.14136337463E+03 -0.35336299751E+03  0.63221993716E+03  0.25500000920E-02 0.  1.
       -2    1    3    3    0  502 -0.50482971113E+03  0.14136337463E+03  0.58525236929E+03  0.78572067345E+03  0.25500000920E-02 0. -1.
</event>
<event>
 5   0  0.4441253E-05  0.1398509E+04  0.7818609E-02  0.8954898E-01
       -2   -1    0    0    0  501  0.00000000000E+00  0.00000000000E+00  0.10605638766E+04  0.10605638767E+04  0.25500000920E-02 0. -1.
        2   -1    0    0  501    0  0.00000000000E+00  0.00000000000E+00 -0.46103502970E+03  0.46103502971E+03  0.25500000920E-02 0.  1.
    10030    2    1    2    0    0  0.00000000000E+00  0.00000000000E+00  0.59952884695E+03  0.15215989064E+04  0.13985093470E+04 0.  0.
        3    1    3    3  502    0  0.25530198086E+03 -0.64915282068E+03  0.35282790214E+03  0.78170712211E+03  0.10100000352E+00 0.  1.
       -3    1    3    3    0  502 -0.25530198086E+03  0.64915282068E+03  0.24670094480E+03  0.73989178425E+03  0.10100000352E+00 0. -1.
</event>
<event>
 5   0  0.2316714E-05  0.1400649E+04  0.7818609E-02  0.8953349E-01
       -1   -1    0    0    0  501  0.00000000000E+00  0.00000000000E+00  0.39106072771E+03  0.39106072774E+03  0.50400001928E-02 0.  1.
        1   -1    0    0  501    0  0.00000000000E+00  0.00000000000E+00 -0.12541637964E+04  0.12541637964E+04  0.50400001928E-02 0. -1.
    10030    2    1    2    0    0  0.00000000000E+00  0.00000000000E+00 -0.86310306873E+03  0.16452245242E+04  0.14006487167E+04 0.  0.
        5    1    3    3  502    0  0.66715747473E+02  0.29210211866E+03 -0.11750542746E+04  0.12126620622E+04  0.46999998093E+01 0. -1.
       -5    1    3    3    0  502 -0.66715747473E+02 -0.29210211866E+03  0.31195120590E+03  0.43256246202E+03  0.46999998093E+01 0.  1.
</event>
<event>
 5   0  0.1661000E-05  0.1399046E+04  0.7818609E-02  0.8954510E-01
        4   -1    0    0  501    0  0.00000000000E+00  0.00000000000E+00  0.82138751969E+03  0.82138850151E+03  0.12699999809E+01 0.  1.
       -4   -1    0    0    0  501  0.00000000000E+00  0.00000000000E+00 -0.59573663741E+03  0.59573799111E+03  0.12699999809E+01 0. -1.
    10030    2    1    2    0    0  0.00000000000E+00  0.00000000000E+00  0.22565088228E+03  0.14171264926E+04  0.13990458089E+04 0.  0.
        3    1    3    3  502    0 -0.23345064605E+03  0.35427331165E+03  0.67618172140E+03  0.79826719465E+03  0.10100000352E+00 0.  1.
       -3    1    3    3    0  502  0.23345064605E+03 -0.35427331165E+03 -0.45053083912E+03  0.61885929797E+03  0.10100000352E+00 0. -1.
</event>
<event>
 5   0  0.4527503E-05  0.1399676E+04  0.7818609E-02  0.8954053E-01
        2   -1    0    0  501    0  0.00000000000E+00  0.00000000000E+00  0.69905631457E+03  0.69905631458E+03  0.25500000920E-02 0.  1.
       -2   -1    0    0    0  501  0.00000000000E+00  0.00000000000E+00 -0.70062019919E+03  0.70062019919E+03  0.25500000920E-02 0. -1.
    10030    2    1    2    0    0  0.00000000000E+00  0.00000000000E+00 -0.15638846150E+01  0.13996765138E+04  0.13996756401E+04 0.  0.
        4    1    3    3  502    0  0.24561341384E+03  0.31204236466E+03 -0.57704177054E+03  0.70048212272E+03  0.12699999809E+01 0. -1.
       -4    1    3    3    0  502 -0.24561341384E+03 -0.31204236466E+03  0.57547788592E+03  0.69919439106E+03  0.12699999809E+01 0.  1.
</event>
<event>
 5   0  0.4243281E-05  0.1400865E+04  0.7818609E-02  0.8953192E-01
        2   -1    0    0  501    0  0.00000000000E+00  0.00000000000E+00  0.68936524790E+03  0.68936524790E+03  0.25500000920E-02 0. -1.
       -2   -1    0    0    0  501  0.00000000000E+00  0.00000000000E+00 -0.71167787095E+03  0.71167787095E+03  0.25500000920E-02 0.  1.
    10030    2    1    2    0    0  0.00000000000E+00  0.00000000000E+00 -0.22312623048E+02  0.14010431189E+04  0.14008654353E+04 0.  0.
        2    1    3    3  502    0 -0.67383863817E+03 -0.68515047985E+02 -0.18965351253E+03  0.70336425621E+03  0.25500000920E-02 0.  1.
       -2    1    3    3    0  502  0.67383863817E+03  0.68515047985E+02  0.16734088949E+03  0.69767886265E+03  0.25500000920E-02 0. -1.
</event>
<event>
 5   0  0.2363419E-05  0.1390474E+04  0.7818609E-02  0.8960743E-01
        1   -1    0    0  501    0  0.00000000000E+00  0.00000000000E+00  0.45229049120E+03  0.45229049123E+03  0.50400001928E-02 0.  1.
       -1   -1    0    0    0  501  0.00000000000E+00  0.00000000000E+00 -0.10686817642E+04  0.10686817642E+04  0.50400001928E-02 0. -1.
    10030    2    1    2    0    0  0.00000000000E+00  0.00000000000E+00 -0.61639127297E+03  0.15209722554E+04  0.13904741639E+04 0.  0.
        2    1    3    3  502    0 -0.13699293719E+03  0.22919996695E+03  0.39396408849E+03  0.47592792807E+03  0.25500000920E-02 0.  1.
       -2    1    3    3    0  502  0.13699293719E+03 -0.22919996695E+03 -0.10103553615E+04  0.10450443273E+04  0.25500000920E-02 0. -1.
</event>
<event>
 5   0  0.4243281E-05  0.1399685E+04  0.7818609E-02  0.8954047E-01
        2   -1    0    0  501    0  0.00000000000E+00  0.00000000000E+00  0.18536318984E+04  0.18536318984E+04  0.25500000920E-02 0.  1.
       -2   -1    0    0    0  501  0.00000000000E+00  0.00000000000E+00 -0.26422681041E+03  0.26422681043E+03  0.25500000920E-02 0. -1.
    10030    2    1    2    0    0  0.00000000000E+00  0.00000000000E+00  0.15894050880E+04  0.21178587089E+04  0.13996845991E+04 0.  0.
        2    1    3    3  502    0 -0.51636437776E+03 -0.27911278813E+03  0.21804949655E+03  0.62616427722E+03  0.25500000920E-02 0. -1.
       -2    1    3    3    0  502  0.51636437776E+03  0.27911278813E+03  0.13713555915E+04  0.14916944316E+04  0.25500000920E-02 0.  1.
</event>
<event>
 5   0  0.4621450E-05  0.1400612E+04  0.7818609E-02  0.8953376E-01
       -2   -1    0    0    0  501  0.00000000000E+00  0.00000000000E+00  0.49325987062E+03  0.49325987062E+03  0.25500000920E-02 0.  1.
        2   -1    0    0  501    0  0.00000000000E+00  0.00000000000E+00 -0.99425934178E+03  0.99425934178E+03  0.25500000920E-02 0. -1.
    10030    2    1    2    0    0  0.00000000000E+00  0.00000000000E+00 -0.50099947116E+03  0.14875192124E+04  0.14006116297E+04 0.  0.
        5    1    3    3  502    0  0.65062818294E+03 -0.16660564788E+03 -0.39871762418E+02  0.67281967999E+03  0.46999998093E+01 0. -1.
       -5    1    3    3    0  502 -0.65062818294E+03  0.16660564788E+03 -0.46112770874E+03  0.81469953241E+03  0.46999998093E+01 0.  1.
</event>
<event>
 5   0  0.4527503E-05  0.1400462E+04  0.7818609E-02  0.8953484E-01
        2   -1    0    0  501    0  0.00000000000E+00  0.00000000000E+00  0.13758337757E+04  0.13758337758E+04  0.25500000920E-02 0.  1.
       -2   -1    0    0    0  501  0.00000000000E+00  0.00000000000E+00 -0.35638277194E+03  0.35638277195E+03  0.25500000920E-02 0. -1.
    10030    2    1    2    0    0  0.00000000000E+00  0.00000000000E+00  0.10194510038E+04  0.17322165477E+04  0.14004620020E+04 0.  0.
        4    1    3    3  502    0 -0.20601047297E+03  0.66522225581E+03  0.41916292232E+03  0.81281002267E+03  0.12699999809E+01 0. -1.
       -4    1    3    3    0  502  0.20601047297E+03 -0.66522225581E+03  0.60028808149E+03  0.91940652503E+03  0.12699999809E+01 0.  1.
</event>
<event>
 5   0  0.4243281E-05  0.1399669E+04  0.7818609E-02  0.8954058E-01
       -2   -1    0    0    0  501  0.00000000000E+00  0.00000000000E+00  0.40139026774E+03  0.40139026775E+03  0.25500000920E-02 0. -1.
        2   -1    0    0  501    0  0.00000000000E+00  0.00000000000E+00 -0.12201803101E+04  0.12201803101E+04  0.25500000920E-02 0.  1.
    10030    2    1    2    0    0  0.00000000000E+00  0.00000000000E+00 -0.81879004240E+03  0.16215705779E+04  0.13996692486E+04 0.  0.
        2    1    3    3  502    0  0.62939380918E+03 -0.14697922252E+03 -0.72032618726E+03  0.96778575880E+03  0.25500000920E-02 0. -1.
       -2    1    3    3    0  502 -0.62939380918E+03  0.14697922252E+03 -0.98463855142E+02  0.65378481908E+03  0.25500000920E-02 0.  1.
</event>
<event>
 5   0  0.1661000E-05  0.1400497E+04  0.7818609E-02  0.8953459E-01
       -4   -1    0    0    0  501  0.00000000000E+00  0.00000000000E+00  0.21009380880E+04  0.21009384718E+04  0.12699999809E+01 0.  1.
        4   -1    0    0  501    0  0.00000000000E+00  0.00000000000E+00 -0.23339270946E+03  0.23339616477E+03  0.12699999809E+01 0. -1.
    10030    2    1    2    0    0  0.00000000000E+00  0.00000000000E+00  0.18675453785E+04  0.23343346366E+04  0.14004972170E+04 0.  0.
        2    1    3    3  502    0  0.54446719821E+03 -0.54790474010E+02  0.20551406871E+03  0.58453619085E+03  0.25500000920E-02 0. -1.
       -2    1    3    3    0  502 -0.54446719821E+03  0.54790474010E+02  0.16620313098E+04  0.17497984457E+04  0.25500000920E-02 0.  1.
</event>
<event>
 5   0  0.2427569E-05  0.1397798E+04  0.7818609E-02  0.8955414E-01
        1   -1    0    0  501    0  0.00000000000E+00  0.00000000000E+00  0.10905009767E+04  0.10905009767E+04  0.50400001928E-02 0.  1.
       -1   -1    0    0    0  501  0.00000000000E+00  0.00000000000E+00 -0.44792236196E+03  0.44792236199E+03  0.50400001928E-02 0. -1.
    10030    2    1    2    0    0  0.00000000000E+00  0.00000000000E+00  0.64257861474E+03  0.15384233387E+04  0.13977979442E+04 0.  0.
        1    1    3    3  502    0  0.68178947404E+03 -0.15343049973E+03  0.31132484764E+03  0.76504964933E+03  0.50400001928E-02 0.  1.
       -1    1    3    3    0  502 -0.68178947404E+03  0.15343049973E+03  0.33125376710E+03  0.77337368937E+03  0.50400001928E-02 0. -1.
</event>
<event>
 5   0  0.4441253E-05  0.1399503E+04  0.7818609E-02  0.8954178E-01
       -2   -1    0    0    0  501  0.00000000000E+00  0.00000000000E+00  0.33629709970E+03  0.33629709971E+03  0.25500000920E-02 0. -1.
        2   -1    0    0  501    0  0.00000000000E+00  0.00000000000E+00 -0.14560113655E+04  0.14560113655E+04  0.25500000920E-02 0.  1.
    10030    2    1    2    0    0  0.00000000000E+00  0.00000000000E+00 -0.11197142658E+04  0.17923084652E+04  0.13995033395E+04 0.  0.
        3    1    3    3  502    0 -0.60215356802E+03  0.35640932571E+03 -0.56752646184E+03  0.90094551556E+03  0.10100000352E+00 0. -1.
       -3    1    3    3    0  502  0.60215356802E+03 -0.35640932571E+03 -0.55218780393E+03  0.89136294961E+03  0.10100000352E+00 0.  1.
</event>
<event>
 5   0  0.2427569E-05  0.1400250E+04  0.7818609E-02  0.8953637E-01
        1   -1    0    0  501    0  0.00000000000E+00  0.00000000000E+00  0.11863608182E+04  0.11863608182E+04  0.50400001928E-02 0.  1.
       -1   -1    0    0    0  501  0.00000000000E+00  0.00000000000E+00 -0.41317548691E+03  0.41317548694E+03  0.50400001928E-02 0. -1.
    10030    2    1    2    0    0  0.00000000000E+00  0.00000000000E+00  0.77318533131E+03  0.15995363052E+04  0.14002502759E+04 0.  0.
        1    1    3    3  502    0 -0.11934076658E+03 -0.53753088606E+03 -0.10737865241E+03  0.56099184224E+03  0.50400001928E-02 0. -1.
       -1    1    3    3    0  502  0.11934076658E+03  0.53753088606E+03  0.88056398373E+03  0.10385444629E+04  0.50400001928E-02 0.  1.
</event>
<event>
 5   0  0.4243281E-05  0.1399849E+04  0.7818609E-02  0.8953928E-01
       -2   -1    0    0    0  501  0.00000000000E+00  0.00000000000E+00  0.28141704425E+03  0.28141704426E+03  0.25500000920E-02 0. -1.
        2   -1    0    0  501    0  0.00000000000E+00  0.00000000000E+00 -0.17408120740E+04  0.17408120740E+04  0.25500000920E-02 0.  1.
    10030    2    1    2    0    0  0.00000000000E+00  0.00000000000E+00 -0.14593950297E+04  0.20222291182E+04  0.13998488325E+04 0.  0.
        2    1    3    3  502    0  0.36346895566E+03  0.55080246030E+03 -0.10666380692E+04  0.12542766054E+04  0.25500000920E-02 0.  1.
       -2    1    3    3    0  502 -0.36346895566E+03 -0.55080246030E+03 -0.39275696049E+03  0.76795251287E+03  0.25500000920E-02 0. -1.
</event>
<event>
 5   0  0.4621450E-05  0.1399892E+04  0.7818609E-02  0.8953897E-01
       -2   -1    0    0    0  501  0.00000000000E+00  0.00000000000E+00  0.44443674148E+03  0.44443674149E+03  0.25500000920E-02 0.  1.
        2   -1    0    0  501    0  0.00000000000E+00  0.00000000000E+00 -0.11023491362E+04  0.11023491362E+04  0.25500000920E-02 0. -1.
    10030    2    1    2    0    0  0.00000000000E+00  0.00000000000E+00 -0.65791239476E+03  0.15467858777E+04  0.13998920788E+04 0.  0.
        5    1    3    3  502    0 -0.62094847662E+03 -0.28764772524E+03 -0.16662460331E+03  0.70434655737E+03  0.46999998093E+01 0.  1.
       -5    1    3    3    0  502  0.62094847662E+03  0.28764772524E+03 -0.49128779145E+03  0.84243932036E+03  0.46999998093E+01 0. -1.
</event>
<event>
 5   0  0.2427569E-05  0.1400436E+04  0.7818609E-02  0.8953503E-01
        1   -1    0    0  501    0  0.00000000000E+00  0.00000000000E+00  0.10545728711E+04  0.10545728711E+04  0.50400001928E-02 0.  1.
       -1   -1    0    0    0  501  0.00000000000E+00  0.00000000000E+00 -0.46493266302E+03  0.46493266304E+03  0.50400001928E-02 0. -1.
    10030    2    1    2    0    0  0.00000000000E+00  0.00000000000E+00  0.58964020811E+03  0.15195055342E+04  0.14004361797E+04 0.  0.
        1    1    3    3  502    0  0.58453183894E+03 -0.30352515705E+03  0.36912198439E+02  0.65967226872E+03  0.50400001928E-02 0. -1.
       -1    1    3    3    0  502 -0.58453183894E+03  0.30352515705E+03  0.55272800967E+03  0.85983326547E+03  0.50400001928E-02 0.  1.
</event>
<event>
 5   0  0.2428507E-05  0.1399496E+04  0.7818609E-02  0.8954184E-01
        1   -1    0    0  501    0  0.00000000000E+00  0.00000000000E+00  0.11294492638E+04  0.11294492639E+04  0.50400001928E-02 0. -1.
       -1   -1    0    0    0  501  0.00000000000E+00  0.00000000000E+00 -0.43352715777E+03  0.43352715780E+03  0.50400001928E-02 0.  1.
    10030    2    1    2    0    0  0.00000000000E+00  0.00000000000E+00  0.69592210607E+03  0.15629764216E+04  0.13994955223E+04 0.  0.
        4    1    3    3  502    0  0.28215510188E+03 -0.54408501647E+03  0.72504969587E+03  0.94938858274E+03  0.12699999809E+01 0. -1.
       -4    1    3    3    0  502 -0.28215510188E+03  0.54408501647E+03 -0.29127589800E+02  0.61358783890E+03  0.12699999809E+01 0.  1.
</event>
<event>
 5   0  0.2316714E-05  0.1400281E+04  0.7818609E-02  0.8953615E-01
       -1   -1    0    0    0  501  0.00000000000E+00  0.00000000000E+00  0.31763471319E+03  0.31763471323E+03  0.50400001928E-02 0.  1.
        1   -1    0    0  501    0  0.00000000000E+00  0.00000000000E+00 -0.15432724587E+04  0.15432724587E+04  0.50400001928E-02 0. -1.
    10030    2    1    2    0    0  0.00000000000E+00  0.00000000000E+00 -0.12256377455E+04  0.18609071720E+04  0.14002812644E+04 0.  0.
        5    1    3    3  502    0  0.45642131222E+03 -0.18001593998E+03 -0.12765619752E+04  0.13676105877E+04  0.46999998093E+01 0. -1.
       -5    1    3    3    0  502 -0.45642131222E+03  0.18001593998E+03  0.50924229711E+02  0.49329658428E+03  0.46999998093E+01 0.  1.
</event>
<event>
 5   0  0.1661000E-05  0.1400063E+04  0.7818609E-02  0.8953773E-01
        3   -1    0    0  501    0  0.00000000000E+00  0.00000000000E+00  0.10130610167E+04  0.10130610218E+04  0.10100000352E+00 0. -1.
       -3   -1    0    0    0  501  0.00000000000E+00  0.00000000000E+00 -0.48372614339E+03  0.48372615393E+03  0.10100000352E+00 0.  1.
    10030    2    1    2    0    0  0.00000000000E+00  0.00000000000E+00  0.52933487333E+03  0.14967871757E+04  0.14000630133E+04 0.  0.
        1    1    3    3  502    0 -0.20314926277E+03 -0.65896497668E+03  0.39357826515E+03  0.79398256547E+03  0.50400001928E-02 0. -1.
       -1    1    3    3    0  502  0.20314926277E+03  0.65896497668E+03  0.13575660818E+03  0.70280461022E+03  0.50400001928E-02 0.  1.
</event>
<event>
 5   0  0.1661000E-05  0.1403290E+04  0.7818609E-02  0.8951441E-01
       -3   -1    0    0    0  501  0.00000000000E+00  0.00000000000E+00  0.75189306764E+03  0.75189307443E+03  0.10100000352E+00 0. -1.
        3   -1    0    0  501    0  0.00000000000E+00  0.00000000000E+00 -0.65475452139E+03  0.65475452918E+03  0.10100000352E+00 0.  1.
    10030    2    1    2    0    0  0.00000000000E+00  0.00000000000E+00  0.97138546258E+02  0.14066476036E+04  0.14032895580E+04 0.  0.
        2    1    3    3  502    0 -0.45437294383E+03  0.14163502291E+03  0.56535136238E+03  0.73901110597E+03  0.25500000920E-02 0. -1.
       -2    1    3    3    0  502  0.45437294383E+03 -0.14163502291E+03 -0.46821281612E+03  0.66763649764E+03  0.25500000920E-02 0.  1.
</event>
<event>
 5   0  0.2467303E-05  0.1400980E+04  0.7818609E-02  0.8953110E-01
       -1   -1    0    0    0  501  0.00000000000E+00  0.00000000000E+00  0.34890777792E+03  0.34890777796E+03  0.50400001928E-02 0. -1.
        1   -1    0    0  501    0  0.00000000000E+00  0.00000000000E+00 -0.14063485668E+04  0.14063485668E+04  0.50400001928E-02 0.  1.
    10030    2    1    2    0    0  0.00000000000E+00  0.00000000000E+00 -0.10574407889E+04  0.17552563448E+04  0.14009795908E+04 0.  0.
        3    1    3    3  502    0 -0.21169119791E+03  0.35057018810E+03 -0.12407401916E+04  0.13065790651E+04  0.10100000352E+00 0.  1.
       -3    1    3    3    0  502  0.21169119791E+03 -0.35057018810E+03  0.18329940273E+03  0.44867727968E+03  0.10100000352E+00 0. -1.
</event>
<event>
 5   0  0.4621450E-05  0.1400174E+04  0.7818609E-02  0.8953693E-01
        2   -1    0    0  501    0  0.00000000000E+00  0.00000000000E+00  0.72013766473E+03  0.72013766473E+03  0.25500000920E-02 0.  1.
       -2   -1    0    0    0  501  0.00000000000E+00  0.00000000000E+00 -0.68059461401E+03  0.68059461401E+03  0.25500000920E-02 0. -1.
    10030    2    1    2    0    0  0.00000000000E+00  0.00000000000E+00  0.39543050723E+02  0.14007322787E+04  0.14001740120E+04 0.  0.
        5    1    3    3  502    0 -0.52446518833E+03 -0.50975892981E+02  0.48086466909E+03  0.71338292341E+03  0.46999998093E+01 0.  1.
       -5    1    3    3    0  502  0.52446518833E+03  0.50975892981E+02 -0.44132161837E+03  0.68734935533E+03  0.46999998093E+01 0. -1.
</event>
<event>
 5   0  0.1661000E-05  0.1400275E+04  0.7818609E-02  0.8953619E-01
        3   -1    0    0  501    0  0.00000000000E+00  0.00000000000E+00  0.56929909693E+03  0.56929910589E+03  0.10100000352E+00 0.  1.
       -3   -1    0    0    0  501  0.00000000000E+00  0.00000000000E+00 -0.86104584633E+03  0.86104585225E+03  0.10100000352E+00 0. -1.
    10030    2    1    2    0    0  0.00000000000E+00  0.00000000000E+00 -0.29174674940E+03  0.14303449581E+04  0.14002751635E+04 0.  0.
        2    1    3    3  502    0 -0.35108137876E+03 -0.20893101350E+03  0.43491563245E+03  0.59670923427E+03  0.25500000920E-02 0.  1.
       -2    1    3    3    0  502  0.35108137876E+03  0.20893101350E+03 -0.72666238185E+03  0.83363572387E+03  0.25500000920E-02 0. -1.
</event>
<event>
 5   0  0.4621450E-05  0.1399973E+04  0.7818609E-02  0.8953838E-01
       -2   -1    0    0    0  501  0.00000000000E+00  0.00000000000E+00  0.30919268063E+03  0.30919268064E+03  0.25500000920E-02 0.  1.
        2   -1    0    0  501    0  0.00000000000E+00  0.00000000000E+00 -0.15847105519E+04  0.15847105519E+04  0.25500000920E-02 0. -1.
    10030    2    1    2    0    0  0.00000000000E+00  0.00000000000E+00 -0.12755178712E+04  0.18939032325E+04  0.13999727191E+04 0.  0.
        5    1    3    3  502    0  0.57405838647E+03  0.15299682247E+03 -0.13702066253E+03  0.60971125192E+03  0.46999998093E+01 0.  1.
       -5    1    3    3    0  502 -0.57405838647E+03 -0.15299682247E+03 -0.11384972087E+04  0.12841919806E+04  0.46999998093E+01 0. -1.
</event>
<event>
 5   0  0.2428507E-05  0.1400473E+04  0.7818609E-02  0.8953476E-01
       -1   -1    0    0    0  501  0.00000000000E+00  0.00000000000E+00  0.10401001813E+04  0.10401001813E+04  0.50400001928E-02 0.  1.
        1   -1    0    0  501    0  0.00000000000E+00  0.00000000000E+00 -0.47142677459E+03  0.47142677461E+03  0.50400001928E-02 0. -1.
    10030    2    1    2    0    0  0.00000000000E+00  0.00000000000E+00  0.56867340672E+03  0.15115269559E+04  0.14004728826E+04 0.  0.
        4    1    3    3  502    0 -0.21490702026E+03 -0.42458847873E+03 -0.27007887552E+03  0.54717877840E+03  0.12699999809E+01 0. -1.
       -4    1    3    3    0  502  0.21490702026E+03  0.42458847873E+03  0.83875228224E+03  0.96434817753E+03  0.12699999809E+01 0.  1.
</event>
<event>
 5   0  0.2316714E-05  0.1399997E+04  0.7818609E-02  0.8953820E-01
        1   -1    0    0  501    0  0.00000000000E+00  0.00000000000E+00  0.14193550676E+04  0.14193550676E+04  0.50400001928E-02 0. -1.
       -1   -1    0    0    0  501  0.00000000000E+00  0.00000000000E+00 -0.34522597342E+03  0.34522597346E+03  0.50400001928E-02 0.  1.
    10030    2    1    2    0    0  0.00000000000E+00  0.00000000000E+00  0.10741290942E+04  0.17645810410E+04  0.13999974784E+04 0.  0.
        5    1    3    3  502    0  0.98156711469E+02 -0.40646664931E+01  0.14106027406E+04  0.14140273842E+04  0.46999998093E+01 0. -1.
       -5    1    3    3    0  502 -0.98156711469E+02  0.40646664931E+01 -0.33647364648E+03  0.35055365680E+03  0.46999998093E+01 0.  1.
</event>
<event>
 5   0  0.4441253E-05  0.1399933E+04  0.7818609E-02  0.8953867E-01
       -2   -1    0    0    0  501  0.00000000000E+00  0.00000000000E+00  0.11344559560E+04  0.11344559560E+04  0.25500000920E-02 0. -1.
        2   -1    0    0  501    0  0.00000000000E+00  0.00000000000E+00 -0.43188362808E+03  0.43188362808E+03  0.25500000920E-02 0.  1.
    10030    2    1    2    0    0  0.00000000000E+00  0.00000000000E+00  0.70257232797E+03  0.15663395841E+04  0.13999327901E+04 0.  0.
        3    1    3    3  502    0 -0.19155090164E+03  0.47160336508E+03 -0.18629624890E+03  0.54204039004E+03  0.10100000352E+00 0.  1.
       -3    1    3    3    0  502  0.19155090164E+03 -0.47160336508E+03  0.88886857686E+03  0.10242991941E+04  0.10100000352E+00 0. -1.
</event>
<event>
 5   0  0.4621450E-05  0.1399805E+04  0.7818609E-02  0.8953960E-01
        2   -1    0    0  501    0  0.00000000000E+00  0.00000000000E+00  0.14273496291E+04  0.14273496291E+04  0.25500000920E-02 0.  1.
       -2   -1    0    0    0  501  0.00000000000E+00  0.00000000000E+00 -0.34319799311E+03  0.34319799312E+03  0.25500000920E-02 0. -1.
    10030    2    1    2    0    0  0.00000000000E+00  0.00000000000E+00  0.10841516360E+04  0.17705476222E+04  0.13998050267E+04 0.  0.
        5    1    3    3  502    0 -0.60265501573E+03  0.32872270110E+03  0.36962037407E+03  0.77967492786E+03  0.46999998093E+01 0.  1.
       -5    1    3    3    0  502  0.60265501573E+03 -0.32872270110E+03  0.71453126194E+03  0.99087269439E+03  0.46999998093E+01 0. -1.
</event>
<event>
 5   0  0.1661000E-05  0.1398738E+04  0.7818609E-02  0.8954733E-01
        3   -1    0    0  501    0  0.00000000000E+00  0.00000000000E+00  0.43870415124E+03  0.43870416286E+03  0.10100000352E+00 0.  1.
       -3   -1    0    0    0  501  0.00000000000E+00  0.00000000000E+00 -0.11149130052E+04  0.11149130098E+04  0.10100000352E+00 0. -1.
    10030    2    1    2    0    0  0.00000000000E+00  0.00000000000E+00 -0.67620885400E+03  0.15536171727E+04  0.13987379687E+04 0.  0.
        4    1    3    3  502    0 -0.45663707809E+03  0.52643924060E+03 -0.27277258917E+03  0.74837303093E+03  0.12699999809E+01 0.  1.
       -4    1    3    3    0  502  0.45663707809E+03 -0.52643924060E+03 -0.40343626484E+03  0.80524414175E+03  0.12699999809E+01 0. -1.
</event>
<event>
 5   0  0.4527503E-05  0.1399377E+04  0.7818609E-02  0.8954270E-01
        2   -1    0    0  501    0  0.00000000000E+00  0.00000000000E+00  0.36926791959E+03  0.36926791960E+03  0.25500000920E-02 0. -1.
       -2   -1    0    0    0  501  0.00000000000E+00  0.00000000000E+00 -0.13257684687E+04  0.13257684687E+04  0.25500000920E-02 0.  1.
    10030    2    1    2    0    0  0.00000000000E+00  0.00000000000E+00 -0.95650054909E+03  0.16950363883E+04  0.13993766674E+04 0.  0.
        4    1    3    3  502    0 -0.39536736787E+03  0.27794617401E+03 -0.10911059398E+04  0.11933495783E+04  0.12699999809E+01 0.  1.
       -4    1    3    3    0  502  0.39536736787E+03 -0.27794617401E+03  0.13460539070E+03  0.50168681000E+03  0.12699999809E+01 0. -1.
</event>
<event>
 5   0  0.2427569E-05  0.1400831E+04  0.7818609E-02  0.8953217E-01
       -1   -1    0    0    0  501  0.00000000000E+00  0.00000000000E+00  0.70096688271E+03  0.70096688272E+03  0.50400001928E-02 0. -1.
        1   -1    0    0  501    0  0.00000000000E+00  0.00000000000E+00 -0.69986487119E+03  0.69986487121E+03  0.50400001928E-02 0.  1.
    10030    2    1    2    0    0  0.00000000000E+00  0.00000000000E+00  0.11020115117E+01  0.14008317539E+04  0.14008313205E+04 0.  0.
        1    1    3    3  502    0  0.23234220231E+03 -0.10244659849E+03 -0.65221553464E+03  0.69990235617E+03  0.50400001928E-02 0.  1.
       -1    1    3    3    0  502 -0.23234220231E+03  0.10244659849E+03  0.65331754615E+03  0.70092939777E+03  0.50400001928E-02 0. -1.
</event>
<event>
 5   0  0.2428507E-05  0.1399830E+04  0.7818609E-02  0.8953942E-01
       -1   -1    0    0    0  501  0.00000000000E+00  0.00000000000E+00  0.89986149677E+03  0.89986149679E+03  0.50400001928E-02 0. -1.
        1   -1    0    0  501    0  0.00000000000E+00  0.00000000000E+00 -0.54439594188E+03  0.54439594191E+03  0.50400001928E-02 0.  1.
    10030    2    1    2    0    0  0.00000000000E+00  0.00000000000E+00  0.35546555489E+03  0.14442574387E+04  0.13998299141E+04 0.  0.
        4    1    3    3  502    0  0.65417571167E+03  0.72535019946E+02 -0.67881813041E+02  0.66167722063E+03  0.12699999809E+01 0.  1.
       -4    1    3    3    0  502 -0.65417571167E+03 -0.72535019946E+02  0.42334736793E+03  0.78258021806E+03  0.12699999809E+01 0. -1.
</event>
<event>
 5   0  0.2428507E-05  0.1398672E+04  0.7818609E-02  0.8954781E-01
        1   -1    0    0  501    0  0.00000000000E+00  0.00000000000E+00  0.19456015832E+04  0.19456015832E+04  0.50400001928E-02 0.  1.
       -1   -1    0    0    0  501  0.00000000000E+00  0.00000000000E+00 -0.25137239246E+03  0.25137239252E+03  0.50400001928E-02 0. -1.
    10030    2    1    2    0    0  0.00000000000E+00  0.00000000000E+00  0.16942291908E+04  0.21969739757E+04  0.13986715480E+04 0.  0.
        4    1    3    3  502    0  0.16736541606E+03 -0.14198935347E+02  0.19134451445E+04  0.19208036668E+04  0.12699999809E+01 0.  1.
       -4    1    3    3    0  502 -0.16736541606E+03  0.14198935347E+02 -0.21921595378E+03  0.27617030896E+03  0.12699999809E+01 0. -1.
</event>
<event>
 5   0  0.2428507E-05  0.1398401E+04  0.7818609E-02  0.8954977E-01
        1   -1    0    0  501    0  0.00000000000E+00  0.00000000000E+00  0.14712435420E+04  0.14712435420E+04  0.50400001928E-02 0. -1.
       -1   -1    0    0    0  501  0.00000000000E+00  0.00000000000E+00 -0.33229108255E+03  0.33229108259E+03  0.50400001928E-02 0.  1.
    10030    2    1    2    0    0  0.00000000000E+00  0.00000000000E+00  0.11389524594E+04  0.18035346246E+04  0.13984006712E+04 0.  0.
        4    1    3    3  502    0  0.15803301628E+03  0.54609423623E+03  0.44504447321E+02  0.57024170999E+03  0.12699999809E+01 0.  1.
       -4    1    3    3    0  502 -0.15803301628E+03 -0.54609423623E+03  0.10944480121E+04  0.12332929146E+04  0.12699999809E+01 0. -1.
</event>
<event>
 5   0  0.2427569E-05  0.1401081E+04  0.7818609E-02  0.8953036E-01
       -1   -1    0    0    0  501  0.00000000000E+00  0.00000000000E+00  0.52381943999E+03  0.52381944002E+03  0.50400001928E-02 0.  1.
        1   -1    0    0  501    0  0.00000000000E+00  0.00000000000E+00 -0.93688195433E+03  0.93688195434E+03  0.50400001928E-02 0. -1.
    10030    2    1    2    0    0  0.00000000000E+00  0.00000000000E+00 -0.41306251434E+03  0.14607013944E+04  0.14010809836E+04 0.  0.
        1    1    3    3  502    0 -0.54498600475E+02  0.51748520788E+03 -0.69552752116E+03  0.86863085977E+03  0.50400001928E-02 0. -1.
       -1    1    3    3    0  502  0.54498600475E+02 -0.51748520788E+03  0.28246500682E+03  0.59207053459E+03  0.50400001928E-02 0.  1.
</event>
<event>
 5   0  0.2316714E-05  0.1400125E+04  0.7818609E-02  0.8953728E-01
        1   -1    0    0  501    0  0.00000000000E+00  0.00000000000E+00  0.17782872425E+04  0.17782872425E+04  0.50400001928E-02 0.  1.
       -1   -1    0    0    0  501  0.00000000000E+00  0.00000000000E+00 -0.27559510039E+03  0.27559510043E+03  0.50400001928E-02 0. -1.
    10030    2    1    2    0    0  0.00000000000E+00  0.00000000000E+00  0.15026921421E+04  0.20538823429E+04  0.14001246390E+04 0.  0.
        5    1    3    3  502    0 -0.61357318595E+03  0.10328314322E+02  0.12455211442E+04  0.13884969352E+04  0.46999998093E+01 0.  1.
       -5    1    3    3    0  502  0.61357318595E+03 -0.10328314322E+02  0.25717099793E+03  0.66538540769E+03  0.46999998093E+01 0. -1.
</event>
<event>
 5   0  0.4527503E-05  0.1400162E+04  0.7818609E-02  0.8953702E-01
        2   -1    0    0  501    0  0.00000000000E+00  0.00000000000E+00  0.94863975028E+03  0.94863975029E+03  0.25500000920E-02 0.  1.
       -2   -1    0    0    0  501  0.00000000000E+00  0.00000000000E+00 -0.51664831485E+03  0.51664831486E+03  0.25500000920E-02 0. -1.
    10030    2    1    2    0    0  0.00000000000E+00  0.00000000000E+00  0.43199143543E+03  0.14652880651E+04  0.14001616027E+04 0.  0.
        4    1    3    3  502    0  0.46552188709E+03 -0.44253234943E+03 -0.75465361445E+02  0.64671643038E+03  0.12699999809E+01 0. -1.
       -4    1    3    3    0  502 -0.46552188709E+03  0.44253234943E+03  0.50745679688E+03  0.81857163476E+03  0.12699999809E+01 0.  1.
</event>
<event>
 5   0  0.2316714E-05  0.1400066E+04  0.7818609E-02  0.8953771E-01
        1   -1    0    0  501    0  0.00000000000E+00  0.00000000000E+00  0.92800086127E+03  0.92800086128E+03  0.50400001928E-02 0.  1.
       -1   -1    0    0    0  501  0.00000000000E+00  0.00000000000E+00 -0.52806630312E+03  0.52806630314E+03  0.50400001928E-02 0. -1.
    10030    2    1    2    0    0  0.00000000000E+00  0.00000000000E+00  0.39993455815E+03  0.14560671644E+04  0.14000656901E+04 0.  0.
        5    1    3    3  502    0 -0.58409804256E+03 -0.13321555186E+03  0.57653744930E+03  0.83146522899E+03  0.46999998093E+01 0.  1.
       -5    1    3    3    0  502  0.58409804256E+03  0.13321555186E+03 -0.17660289115E+03  0.62460193543E+03  0.46999998093E+01 0. -1.
</event>
<event>
 5   0  0.4527503E-05  0.1401446E+04  0.7818609E-02  0.8952773E-01
        2   -1    0    0  501    0  0.00000000000E+00  0.00000000000E+00  0.11016447315E+04  0.11016447315E+04  0.25500000920E-02 0.  1.
       -2   -1    0    0    0  501  0.00000000000E+00  0.00000000000E+00 -0.44570851848E+03  0.44570851849E+03  0.25500000920E-02 0. -1.
    10030    2    1    2    0    0  0.00000000000E+00  0.00000000000E+00  0.65593621304E+03  0.15473532500E+04  0.14014455982E+04 0.  0.
        4    1    3    3  502    0 -0.32129348982E+03  0.54143339768E+03 -0.11680936807E+02  0.62969650460E+03  0.12699999809E+01 0. -1.
       -4    1    3    3    0  502  0.32129348982E+03 -0.54143339768E+03  0.66761714984E+03  0.91765674541E+03  0.12699999809E+01 0.  1.
</event>
<event>
 5   0  0.2427569E-05  0.1399997E+04  0.7818609E-02  0.8953821E-01
        1   -1    0    0  501    0  0.00000000000E+00  0.00000000000E+00  0.45497590281E+03  0.45497590283E+03  0.50400001928E-02 0.  1.
       -1   -1    0    0    0  501  0.00000000000E+00  0.00000000000E+00 -0.10769756235E+04  0.10769756235E+04  0.50400001928E-02 0. -1.
    10030    2    1    2    0    0  0.00000000000E+00  0.00000000000E+00 -0.62199972070E+03  0.15319515264E+04  0.13999970809E+04 0.  0.
        1    1    3    3  502    0  0.66290432942E+03  0.16647187663E+03 -0.14561577649E+03  0.69882686702E+03  0.50400001928E-02 0. -1.
       -1    1    3    3    0  502 -0.66290432942E+03 -0.16647187663E+03 -0.47638394421E+03  0.83312465934E+03  0.50400001928E-02 0.  1.
</event>
<event>
 5   0  0.4460282E-05  0.1400930E+04  0.7818609E-02  0.8953146E-01
       -2   -1    0    0    0  501  0.00000000000E+00  0.00000000000E+00  0.29188885936E+03  0.29188885937E+03  0.25500000920E-02 0. -1.
        2   -1    0    0  501    0  0.00000000000E+00  0.00000000000E+00 -0.16809525811E+04  0.16809525811E+04  0.25500000920E-02 0.  1.
    10030    2    1    2    0    0  0.00000000000E+00  0.00000000000E+00 -0.13890637217E+04  0.19728414405E+04  0.14009301646E+04 0.  0.
        1    1    3    3  502    0 -0.35426678432E+03 -0.55348308259E+03 -0.10360194300E+04  0.12268597053E+04  0.50400001928E-02 0. -1.
       -1    1    3    3    0  502  0.35426678432E+03  0.55348308259E+03 -0.35304429171E+03  0.74598173511E+03  0.50400001928E-02 0.  1.
</event>
<event>
 5   0  0.2467303E-05  0.1400148E+04  0.7818609E-02  0.8953711E-01
       -1   -1    0    0    0  501  0.00000000000E+00  0.00000000000E+00  0.47720193945E+03  0.47720193947E+03  0.50400001928E-02 0. -1.
        1   -1    0    0  501    0  0.00000000000E+00  0.00000000000E+00 -0.10270359651E+04  0.10270359651E+04  0.50400001928E-02 0.  1.
    10030    2    1    2    0    0  0.00000000000E+00  0.00000000000E+00 -0.54983402566E+03  0.15042379046E+04  0.14001479271E+04 0.  0.
        3    1    3    3  502    0 -0.47158452235E+03 -0.34185503947E+03  0.14234661927E+03  0.59959936620E+03  0.10100000352E+00 0. -1.
       -3    1    3    3    0  502  0.47158452235E+03  0.34185503947E+03 -0.69218064493E+03  0.90463853839E+03  0.10100000352E+00 0.  1.
</event>
<event>
 5   0  0.4243281E-05  0.1399957E+04  0.7818609E-02  0.8953849E-01
       -2   -1    0    0    0  501  0.00000000000E+00  0.00000000000E+00  0.86514512698E+03  0.86514512698E+03  0.25500000920E-02 0. -1.
        2   -1    0    0  501    0  0.00000000000E+00  0.00000000000E+00 -0.56634454119E+03  0.56634454120E+03  0.25500000920E-02 0.  1.
    10030    2    1    2    0    0  0.00000000000E+00  0.00000000000E+00  0.29880058578E+03  0.14314896682E+04  0.13999574565E+04 0.  0.
        2    1    3    3  502    0  0.23088882046E+03 -0.94868903198E+02 -0.51928678558E+03  0.57616709546E+03  0.25500000920E-02 0.  1.
       -2    1    3    3    0  502 -0.23088882046E+03  0.94868903198E+02  0.81808737137E+03  0.85532257272E+03  0.25500000920E-02 0. -1.
</event>
<event>
 5   0  0.2427569E-05  0.1400361E+04  0.7818609E-02  0.8953557E-01
        1   -1    0    0  501    0  0.00000000000E+00  0.00000000000E+00  0.14249345917E+04  0.14249345917E+04  0.50400001928E-02 0. -1.
       -1   -1    0    0    0  501  0.00000000000E+00  0.00000000000E+00 -0.34405300832E+03  0.34405300836E+03  0.50400001928E-02 0.  1.
    10030    2    1    2    0    0  0.00000000000E+00  0.00000000000E+00  0.10808815834E+04  0.17689876001E+04  0.14003614290E+04 0.  0.
        1    1    3    3  502    0  0.38774499036E+03 -0.42847010900E+03  0.40990548672E+02  0.57932118635E+03  0.50400001928E-02 0.  1.
       -1    1    3    3    0  502 -0.38774499036E+03  0.42847010900E+03  0.10398910347E+04  0.11896664138E+04  0.50400001928E-02 0. -1.
</event>
<event>
 5   0  0.2467303E-05  0.1400155E+04  0.7818609E-02  0.8953707E-01
        1   -1    0    0  501    0  0.00000000000E+00  0.00000000000E+00  0.46722524710E+03  0.46722524712E+03  0.50400001928E-02 0.  1.
       -1   -1    0    0    0  501  0.00000000000E+00  0.00000000000E+00 -0.10489762335E+04  0.10489762335E+04  0.50400001928E-02 0. -1.
    10030    2    1    2    0    0  0.00000000000E+00  0.00000000000E+00 -0.58175098637E+03  0.15162014806E+04  0.14001545342E+04 0.  0.
        3    1    3    3  502    0 -0.41762168856E+03  0.48975333534E+03 -0.58909478529E+03  0.87252442974E+03  0.10100000352E+00 0. -1.
       -3    1    3    3    0  502  0.41762168856E+03 -0.48975333534E+03  0.73437989169E+01  0.64367705087E+03  0.10100000352E+00 0.  1.
</event>
<event>
 5   0  0.2427569E-05  0.1399321E+04  0.7818609E-02  0.8954310E-01
        1   -1    0    0  501    0  0.00000000000E+00  0.00000000000E+00  0.81595388297E+03  0.81595388299E+03  0.50400001928E-02 0. -1.
       -1   -1    0    0    0  501  0.00000000000E+00  0.00000000000E+00 -0.59994188846E+03  0.59994188849E+03  0.50400001928E-02 0.  1.
    10030    2    1    2    0    0  0.00000000000E+00  0.00000000000E+00  0.21601199451E+03  0.14158957715E+04  0.13993211404E+04 0.  0.
        1    1    3    3  502    0 -0.33412898128E+03  0.39220297663E+03 -0.37095001713E+03  0.63487736315E+03  0.50400001928E-02 0.  1.
       -1    1    3    3    0  502  0.33412898128E+03 -0.39220297663E+03  0.58696201164E+03  0.78101840832E+03  0.50400001928E-02 0. -1.
</event>
<event>
 5   0  0.4621450E-05  0.1400752E+04  0.7818609E-02  0.8953275E-01
        2   -1    0    0  501    0  0.00000000000E+00  0.00000000000E+00  0.56400272874E+03  0.56400272875E+03  0.25500000920E-02 0. -1.
       -2   -1    0    0    0  501  0.00000000000E+00  0.00000000000E+00 -0.86972312605E+03  0.86972312605E+03  0.25500000920E-02 0.  1.
    10030    2    1    2    0    0  0.00000000000E+00  0.00000000000E+00 -0.30572039731E+03  0.14337258548E+04  0.14007515359E+04 0.  0.
        5    1    3    3  502    0 -0.15478824636E+03 -0.58327541008E+03 -0.51666299171E+03  0.79443838164E+03  0.46999998093E+01 0.  1.
       -5    1    3    3    0  502  0.15478824636E+03  0.58327541008E+03  0.21094259440E+03  0.63928747317E+03  0.46999998093E+01 0. -1.
</event>
<event>
 5   0  0.4441253E-05  0.1398694E+04  0.7818609E-02  0.8954765E-01
       -2   -1    0    0    0  501  0.00000000000E+00  0.00000000000E+00  0.38609656606E+03  0.38609656607E+03  0.25500000920E-02 0. -1.
        2   -1    0    0  501    0  0.00000000000E+00  0.00000000000E+00 -0.12667453764E+04  0.12667453764E+04  0.25500000920E-02 0.  1.
    10030    2    1    2    0    0  0.00000000000E+00  0.00000000000E+00 -0.88064881033E+03  0.16528419425E+04  0.13986937333E+04 0.  0.
        3    1    3    3  502    0  0.25020532544E+03 -0.20214527246E+03  0.29349436552E+03  0.43543583781E+03  0.10100000352E+00 0. -1.
       -3    1    3    3    0  502 -0.25020532544E+03  0.20214527246E+03 -0.11741431759E+04  0.12174061047E+04  0.10100000352E+00 0.  1.
</event>
<event>
 5   0  0.4460282E-05  0.1399020E+04  0.7818609E-02  0.8954529E-01
        2   -1    0    0  501    0  0.00000000000E+00  0.00000000000E+00  0.57126372900E+03  0.57126372900E+03  0.25500000920E-02 0.  1.
       -2   -1    0    0    0  501  0.00000000000E+00  0.00000000000E+00 -0.85654641220E+03  0.85654641220E+03  0.25500000920E-02 0. -1.
    10030    2    1    2    0    0  0.00000000000E+00  0.00000000000E+00 -0.28528268320E+03  0.14278101412E+04  0.13990195102E+04 0.  0.
        1    1    3    3  502    0  0.54713715777E+03 -0.22045863624E+03 -0.52634763850E+03  0.79057125946E+03  0.50400001928E-02 0. -1.
       -1    1    3    3    0  502 -0.54713715777E+03  0.22045863624E+03  0.24106495530E+03  0.63723888174E+03  0.50400001928E-02 0.  1.
</event>
<event>
 5   0  0.2363419E-05  0.1400129E+04  0.7818609E-02  0.8953725E-01
        1   -1    0    0  501    0  0.00000000000E+00  0.00000000000E+00  0.70450382269E+03  0.70450382271E+03  0.50400001928E-02 0. -1.
       -1   -1    0    0    0  501  0.00000000000E+00  0.00000000000E+00 -0.69565298450E+03  0.69565298452E+03  0.50400001928E-02 0.  1.
    10030    2    1    2    0    0  0.00000000000E+00  0.00000000000E+00  0.88508381900E+01  0.14001568072E+04  0.14001288325E+04 0.  0.
        2    1    3    3  502    0  0.36713171198E+03  0.42010147653E+03  0.42730411101E+03  0.70275155483E+03  0.25500000920E-02 0. -1.
       -2    1    3    3    0  502 -0.36713171198E+03 -0.42010147653E+03 -0.41845327282E+03  0.69740525239E+03  0.25500000920E-02 0.  1.
</event>
<event>
 5   0  0.2427569E-05  0.1399366E+04  0.7818609E-02  0.8954277E-01
        1   -1    0    0  501    0  0.00000000000E+00  0.00000000000E+00  0.88540560177E+03  0.88540560179E+03  0.50400001928E-02 0.  1.
       -1   -1    0    0    0  501  0.00000000000E+00  0.00000000000E+00 -0.55291780452E+03  0.55291780455E+03  0.50400001928E-02 0. -1.
    10030    2    1    2    0    0  0.00000000000E+00  0.00000000000E+00  0.33248779725E+03  0.14383234063E+04  0.13993663158E+04 0.  0.
        1    1    3    3  502    0 -0.52293372024E+03  0.45601582755E+03  0.25901405377E+03  0.74060677206E+03  0.50400001928E-02 0.  1.
       -1    1    3    3    0  502  0.52293372024E+03 -0.45601582755E+03  0.73473743482E+02  0.69771663428E+03  0.50400001928E-02 0. -1.
</event>
<event>
 5   0  0.4621450E-05  0.1400751E+04  0.7818609E-02  0.8953275E-01
       -2   -1    0    0    0  501  0.00000000000E+00  0.00000000000E+00  0.35649851625E+03  0.35649851626E+03  0.25500000920E-02 0. -1.
        2   -1    0    0  501    0  0.00000000000E+00  0.00000000000E+00 -0.13759544079E+04  0.13759544079E+04  0.25500000920E-02 0.  1.
    10030    2    1    2    0    0  0.00000000000E+00  0.00000000000E+00 -0.10194558916E+04  0.17324529241E+04  0.14007508056E+04 0.  0.
        5    1    3    3  502    0  0.24755893730E+02  0.67851207920E+03 -0.29725640965E+03  0.74119832634E+03  0.46999998093E+01 0. -1.
       -5    1    3    3    0  502 -0.24755893730E+02 -0.67851207920E+03 -0.72219948196E+03  0.99125459779E+03  0.46999998093E+01 0.  1.
</event>
<event>
 5   0  0.2316714E-05  0.1400235E+04  0.7818609E-02  0.8953648E-01
        1   -1    0    0  501    0  0.00000000000E+00  0.00000000000E+00  0.48610301693E+03  0.48610301696E+03  0.50400001928E-02 0.  1.
       -1   -1    0    0    0  501  0.00000000000E+00  0.00000000000E+00 -0.10083557671E+04  0.10083557671E+04  0.50400001928E-02 0. -1.
    10030    2    1    2    0    0  0.00000000000E+00  0.00000000000E+00 -0.52225275018E+03  0.14944587841E+04  0.14002353810E+04 0.  0.
        5    1    3    3  502    0 -0.40557084188E+03 -0.44526028926E+03  0.11982069616E+03  0.61410383665E+03  0.46999998093E+01 0.  1.
       -5    1    3    3    0  502  0.40557084188E+03  0.44526028926E+03 -0.64207344634E+03  0.88035494742E+03  0.46999998093E+01 0. -1.
</event>
<event>
 5   0  0.2428507E-05  0.1399706E+04  0.7818609E-02  0.8954031E-01
       -1   -1    0    0    0  501  0.00000000000E+00  0.00000000000E+00  0.34000757202E+03  0.34000757205E+03  0.50400001928E-02 0. -1.
        1   -1    0    0  501    0  0.00000000000E+00  0.00000000000E+00 -0.14405399574E+04  0.14405399574E+04  0.50400001928E-02 0.  1.
    10030    2    1    2    0    0  0.00000000000E+00  0.00000000000E+00 -0.11005323854E+04  0.17805475295E+04  0.13997063883E+04 0.  0.
        4    1    3    3  502    0  0.20747882210E+03 -0.18727355125E+03  0.26592774533E+03  0.38579531264E+03  0.12699999809E+01 0. -1.
       -4    1    3    3    0  502 -0.20747882210E+03  0.18727355125E+03 -0.13664601307E+04  0.13947522168E+04  0.12699999809E+01 0.  1.
</event>
<event>
 5   0  0.4621450E-05  0.1400156E+04  0.7818609E-02  0.8953705E-01
        2   -1    0    0  501    0  0.00000000000E+00  0.00000000000E+00  0.56760543031E+03  0.56760543031E+03  0.25500000920E-02 0. -1.
       -2   -1    0    0    0  501  0.00000000000E+00  0.00000000000E+00 -0.86346843842E+03  0.86346843842E+03  0.25500000920E-02 0.  1.
    10030    2    1    2    0    0  0.00000000000E+00  0.00000000000E+00 -0.29586300811E+03  0.14310738687E+04  0.14001562406E+04 0.  0.
        5    1    3    3  502    0 -0.12867117851E+03  0.22732861790E+03  0.51591240345E+03  0.57829254770E+03  0.46999998093E+01 0. -1.
       -5    1    3    3    0  502  0.12867117851E+03 -0.22732861790E+03 -0.81177541156E+03  0.85278132103E+03  0.46999998093E+01 0.  1.
</event>
<event>
 5   0  0.2316714E-05  0.1400149E+04  0.7818609E-02  0.8953711E-01
       -1   -1    0    0    0  501  0.00000000000E+00  0.00000000000E+00  0.31501481811E+03  0.31501481815E+03  0.50400001928E-02 0. -1.
        1   -1    0    0  501    0  0.00000000000E+00  0.00000000000E+00 -0.15558129309E+04  0.15558129309E+04  0.50400001928E-02 0.  1.
    10030    2    1    2    0    0  0.00000000000E+00  0.00000000000E+00 -0.12407981128E+04  0.18708277490E+04  0.14001487456E+04 0.  0.
        5    1    3    3  502    0 -0.60571592202E+02  0.68856708132E+02 -0.15477311083E+04  0.15504527847E+04  0.46999998093E+01 0.  1.
       -5    1    3    3    0  502  0.60571592202E+02 -0.68856708132E+02  0.30693299552E+03  0.32037496434E+03  0.46999998093E+01 0. -1.
</event>
<event>
 5   0  0.4621450E-05  0.1400323E+04  0.7818609E-02  0.8953585E-01
       -2   -1    0    0    0  501  0.00000000000E+00  0.00000000000E+00  0.63680691544E+03  0.63680691544E+03  0.25500000920E-02 0.  1.
        2   -1    0    0  501    0  0.00000000000E+00  0.00000000000E+00 -0.76981915899E+03  0.76981915900E+03  0.25500000920E-02 0. -1.
    10030    2    1    2    0    0  0.00000000000E+00  0.00000000000E+00 -0.13301224356E+03  0.14066260744E+04  0.14003230543E+04 0.  0.
        5    1    3    3  502    0  0.19445187916E+03  0.51913058908E+03 -0.49609447204E+03  0.74393542530E+03  0.46999998093E+01 0. -1.
       -5    1    3    3    0  502 -0.19445187916E+03 -0.51913058908E+03  0.36308222848E+03  0.66269064914E+03  0.46999998093E+01 0.  1.
</event>
<event>
 5   0  0.4527503E-05  0.1399795E+04  0.7818609E-02  0.8953967E-01
       -2   -1    0    0    0  501  0.00000000000E+00  0.00000000000E+00  0.10383351140E+04  0.10383351140E+04  0.25500000920E-02 0. -1.
        2   -1    0    0  501    0  0.00000000000E+00  0.00000000000E+00 -0.47177124510E+03  0.47177124511E+03  0.25500000920E-02 0.  1.
    10030    2    1    2    0    0  0.00000000000E+00  0.00000000000E+00  0.56656386887E+03  0.15101063591E+04  0.13997951987E+04 0.  0.
        4    1    3    3  502    0  0.60693815402E+03  0.21185333273E+03  0.58185826650E+03  0.86707347588E+03  0.12699999809E+01 0.  1.
       -4    1    3    3    0  502 -0.60693815402E+03 -0.21185333273E+03 -0.15294397623E+02  0.64303288321E+03  0.12699999809E+01 0. -1.
</event>
<event>
 5   0  0.4460282E-05  0.1399737E+04  0.7818609E-02  0.8954009E-01
        2   -1    0    0  501    0  0.00000000000E+00  0.00000000000E+00  0.18295056910E+04  0.18295056910E+04  0.25500000920E-02 0.  1.
       -2   -1    0    0    0  501  0.00000000000E+00  0.00000000000E+00 -0.26773144265E+03  0.26773144266E+03  0.25500000920E-02 0. -1.
    10030    2    1    2    0    0  0.00000000000E+00  0.00000000000E+00  0.15617742483E+04  0.20972371336E+04  0.13997374011E+04 0.  0.
        1    1    3    3  502    0  0.87774502917E+02  0.61917809131E+03  0.12516760697E+04  0.13992065093E+04  0.50400001928E-02 0. -1.
       -1    1    3    3    0  502 -0.87774502917E+02 -0.61917809131E+03  0.31009817860E+03  0.69803062434E+03  0.50400001928E-02 0.  1.
</event>
<event>
 5   0  0.4460282E-05  0.1399722E+04  0.7818609E-02  0.8954020E-01
        2   -1    0    0  501    0  0.00000000000E+00  0.00000000000E+00  0.18872069002E+04  0.18872069002E+04  0.25500000920E-02 0. -1.
       -2   -1    0    0    0  501  0.00000000000E+00  0.00000000000E+00 -0.25953978202E+03  0.25953978203E+03  0.25500000920E-02 0.  1.
    10030    2    1    2    0    0  0.00000000000E+00  0.00000000000E+00  0.16276671182E+04  0.21467466822E+04  0.13997217831E+04 0.  0.
        1    1    3    3  502    0 -0.15811547247E+03  0.56386768934E+03  0.22609000539E+03  0.62774514278E+03  0.50400001928E-02 0.  1.
       -1    1    3    3    0  502  0.15811547247E+03 -0.56386768934E+03  0.14015771128E+04  0.15190015394E+04  0.50400001928E-02 0. -1.
</event>
<event>
 5   0  0.2363419E-05  0.1405638E+04  0.7818609E-02  0.8949748E-01
       -1   -1    0    0    0  501  0.00000000000E+00  0.00000000000E+00  0.55465725663E+03  0.55465725666E+03  0.50400001928E-02 0.  1.
        1   -1    0    0  501    0  0.00000000000E+00  0.00000000000E+00 -0.89055759355E+03  0.89055759357E+03  0.50400001928E-02 0. -1.
    10030    2    1    2    0    0  0.00000000000E+00  0.00000000000E+00 -0.33590033692E+03  0.14452148502E+04  0.14056375518E+04 0.  0.
        2    1    3    3  502    0  0.36711398926E+02 -0.12140626805E+03  0.54279283850E+03  0.55741481346E+03  0.25500000920E-02 0.  1.
       -2    1    3    3    0  502 -0.36711398926E+02  0.12140626805E+03 -0.87869317542E+03  0.88780003676E+03  0.25500000920E-02 0. -1.
</event>
<event>
 5   0  0.4460282E-05  0.1400114E+04  0.7818609E-02  0.8953736E-01
       -2   -1    0    0    0  501  0.00000000000E+00  0.00000000000E+00  0.36782915169E+03  0.36782915170E+03  0.25500000920E-02 0. -1.
        2   -1    0    0  501    0  0.00000000000E+00  0.00000000000E+00 -0.13323564729E+04  0.13323564729E+04  0.25500000920E-02 0.  1.
    10030    2    1    2    0    0  0.00000000000E+00  0.00000000000E+00 -0.96452732122E+03  0.17001856246E+04  0.14001136399E+04 0.  0.
        1    1    3    3  502    0  0.57831719071E+03  0.17226004775E+03 -0.91322786296E+03  0.10945818502E+04  0.50400001928E-02 0.  1.
       -1    1    3    3    0  502 -0.57831719071E+03 -0.17226004775E+03 -0.51299458258E+02  0.60560377439E+03  0.50400001928E-02 0. -1.
</event>
<event>
 5   0  0.2316714E-05  0.1400700E+04  0.7818609E-02  0.8953312E-01
       -1   -1    0    0    0  501  0.00000000000E+00  0.00000000000E+00  0.26205944628E+03  0.26205944633E+03  0.50400001928E-02 0. -1.
        1   -1    0    0  501    0  0.00000000000E+00  0.00000000000E+00 -0.18716740757E+04  0.18716740757E+04  0.50400001928E-02 0.  1.
    10030    2    1    2    0    0  0.00000000000E+00  0.00000000000E+00 -0.16096146294E+04  0.21337335220E+04  0.14006996423E+04 0.  0.
        5    1    3    3  502    0 -0.52629717618E+03 -0.17810095767E+03 -0.14542536344E+04  0.15567865595E+04  0.46999998093E+01 0. -1.
       -5    1    3    3    0  502  0.52629717618E+03  0.17810095767E+03 -0.15536099502E+03  0.57694696251E+03  0.46999998093E+01 0.  1.
</event>
<event>
 5   0  0.2467303E-05  0.1401254E+04  0.7818609E-02  0.8952911E-01
       -1   -1    0    0    0  501  0.00000000000E+00  0.00000000000E+00  0.11111682804E+04  0.11111682804E+04  0.50400001928E-02 0. -1.
        1   -1    0    0  501    0  0.00000000000E+00  0.00000000000E+00 -0.44176761550E+03  0.44176761553E+03  0.50400001928E-02 0.  1.
    10030    2    1    2    0    0  0.00000000000E+00  0.00000000000E+00  0.66940066488E+03  0.15529358959E+04  0.14012539551E+04 0.  0.
        3    1    3    3  502    0 -0.34418643413E+03 -0.61025411132E+03  0.33254860346E+03  0.77554043459E+03  0.10100000352E+00 0. -1.
       -3    1    3    3    0  502  0.34418643413E+03  0.61025411132E+03  0.33685206141E+03  0.77739546133E+03  0.10100000352E+00 0.  1.
</event>
<event>
 5   0  0.4527503E-05  0.1400686E+04  0.7818609E-02  0.8953322E-01
        2   -1    0    0  501    0  0.00000000000E+00  0.00000000000E+00  0.10607148730E+04  0.10607148730E+04  0.25500000920E-02 0. -1.
       -2   -1    0    0    0  501  0.00000000000E+00  0.00000000000E+00 -0.46240543586E+03  0.46240543587E+03  0.25500000920E-02 0.  1.
    10030    2    1    2    0    0  0.00000000000E+00  0.00000000000E+00  0.59830943714E+03  0.15231203089E+04  0.14006860079E+04 0.  0.
        4    1    3    3  502    0 -0.53680457473E+03 -0.32831505345E+03  0.63348480101E+03  0.89289110858E+03  0.12699999809E+01 0. -1.
       -4    1    3    3    0  502  0.53680457473E+03  0.32831505345E+03 -0.35175363867E+02  0.63022920029E+03  0.12699999809E+01 0.  1.
</event>
<event>
 5   0  0.2428507E-05  0.1400177E+04  0.7818609E-02  0.8953691E-01
        1   -1    0    0  501    0  0.00000000000E+00  0.00000000000E+00  0.20214173158E+04  0.20214173158E+04  0.50400001928E-02 0. -1.
       -1   -1    0    0    0  501  0.00000000000E+00  0.00000000000E+00 -0.24246532836E+03  0.24246532842E+03  0.50400001928E-02 0.  1.
    10030    2    1    2    0    0  0.00000000000E+00  0.00000000000E+00  0.17789519874E+04  0.22638826442E+04  0.14001765793E+04 0.  0.
        4    1    3    3  502    0 -0.12671161656E+03  0.27054478072E+03 -0.13422657637E+03  0.32751900533E+03  0.12699999809E+01 0.  1.
       -4    1    3    3    0  502  0.12671161656E+03 -0.27054478072E+03  0.19131785638E+04  0.19363636389E+04  0.12699999809E+01 0. -1.
</event>
<event>
 5   0  0.4441253E-05  0.1400089E+04  0.7818609E-02  0.8953754E-01
       -2   -1    0    0    0  501  0.00000000000E+00  0.00000000000E+00  0.68397769737E+03  0.68397769737E+03  0.25500000920E-02 0.  1.
        2   -1    0    0  501    0  0.00000000000E+00  0.00000000000E+00 -0.71648904142E+03  0.71648904142E+03  0.25500000920E-02 0. -1.
    10030    2    1    2    0    0  0.00000000000E+00  0.00000000000E+00 -0.32511344048E+02  0.14004667388E+04  0.14000893182E+04 0.  0.
        3    1    3    3  502    0 -0.52942911781E+03  0.14276291755E+03 -0.45155808656E+03  0.71033876224E+03  0.10100000352E+00 0.  1.
       -3    1    3    3    0  502  0.52942911781E+03 -0.14276291755E+03  0.41904674251E+03  0.69012797655E+03  0.10100000352E+00 0. -1.
</event>
<event>
 5   0  0.4441253E-05  0.1400095E+04  0.7818609E-02  0.8953750E-01
        2   -1    0    0  501    0  0.00000000000E+00  0.00000000000E+00  0.68930352089E+03  0.68930352090E+03  0.25500000920E-02 0. -1.
       -2   -1    0    0    0  501  0.00000000000E+00  0.00000000000E+00 -0.71095912310E+03  0.71095912310E+03  0.25500000920E-02 0.  1.
    10030    2    1    2    0    0  0.00000000000E+00  0.00000000000E+00 -0.21655602202E+02  0.14002626440E+04  0.14000951779E+04 0.  0.
        3    1    3    3  502    0  0.32531381349E+03  0.48801106924E+03 -0.39308122984E+03  0.70604301880E+03  0.10100000352E+00 0.  1.
       -3    1    3    3    0  502 -0.32531381349E+03 -0.48801106924E+03  0.37142562764E+03  0.69421962520E+03  0.10100000352E+00 0. -1.
</event>
<event>
 5   0  0.4441253E-05  0.1400233E+04  0.7818609E-02  0.8953650E-01
       -2   -1    0    0    0  501  0.00000000000E+00  0.00000000000E+00  0.82489095864E+03  0.82489095864E+03  0.25500000920E-02 0.  1.
        2   -1    0    0  501    0  0.00000000000E+00  0.00000000000E+00 -0.59421571414E+03  0.59421571414E+03  0.25500000920E-02 0. -1.
    10030    2    1    2    0    0  0.00000000000E+00  0.00000000000E+00  0.23067524450E+03  0.14191066728E+04  0.14002330807E+04 0.  0.
        3    1    3    3  502    0  0.61221875634E+03  0.15631338978E+03 -0.19025185783E+03  0.65987988380E+03  0.10100000352E+00 0. -1.
       -3    1    3    3    0  502 -0.61221875634E+03 -0.15631338978E+03  0.42092710233E+03  0.75922678899E+03  0.10100000352E+00 0.  1.
</event>
<event>
 5   0  0.2363419E-05  0.1402230E+04  0.7818609E-02  0.8952206E-01
       -1   -1    0    0    0  501  0.00000000000E+00  0.00000000000E+00  0.81547508058E+03  0.81547508059E+03  0.50400001928E-02 0. -1.
        1   -1    0    0  501    0  0.00000000000E+00  0.00000000000E+00 -0.60279209449E+03  0.60279209451E+03  0.50400001928E-02 0.  1.
    10030    2    1    2    0    0  0.00000000000E+00  0.00000000000E+00  0.21268298609E+03  0.14182671751E+04  0.14022295559E+04 0.  0.
        2    1    3    3  502    0 -0.18128504073E+03 -0.12589368687E+03  0.77942119997E+03  0.81006844980E+03  0.25500000920E-02 0. -1.
       -2    1    3    3    0  502  0.18128504073E+03  0.12589368687E+03 -0.56673821388E+03  0.60819872531E+03  0.25500000920E-02 0.  1.
</event>
<event>
 5   0  0.4621450E-05  0.1398262E+04  0.7818609E-02  0.8955077E-01
       -2   -1    0    0    0  501  0.00000000000E+00  0.00000000000E+00  0.45251101684E+03  0.45251101684E+03  0.25500000920E-02 0.  1.
        2   -1    0    0  501    0  0.00000000000E+00  0.00000000000E+00 -0.10801601499E+04  0.10801601499E+04  0.25500000920E-02 0. -1.
    10030    2    1    2    0    0  0.00000000000E+00  0.00000000000E+00 -0.62764913306E+03  0.15326711667E+04  0.13982623041E+04 0.  0.
        5    1    3    3  502    0  0.50303277017E+03 -0.44325526910E+03 -0.53097111305E+03  0.85525996886E+03  0.46999998093E+01 0. -1.
       -5    1    3    3    0  502 -0.50303277017E+03  0.44325526910E+03 -0.96678020008E+02  0.67741119787E+03  0.46999998093E+01 0.  1.
</event>
<event>
 5   0  0.4621450E-05  0.1399869E+04  0.7818609E-02  0.8953914E-01
        2   -1    0    0  501    0  0.00000000000E+00  0.00000000000E+00  0.65451030711E+03  0.65451030712E+03  0.25500000920E-02 0.  1.
       -2   -1    0    0    0  501  0.00000000000E+00  0.00000000000E+00 -0.74851069183E+03  0.74851069183E+03  0.25500000920E-02 0. -1.
    10030    2    1    2    0    0  0.00000000000E+00  0.00000000000E+00 -0.94000384716E+02  0.14030209990E+04  0.13998685121E+04 0.  0.
        5    1    3    3  502    0 -0.13828475322E+03 -0.93473000363E+02  0.63425548286E+03  0.65586735115E+03  0.46999998093E+01 0.  1.
       -5    1    3    3    0  502  0.13828475322E+03  0.93473000363E+02 -0.72825586757E+03  0.74715364780E+03  0.46999998093E+01 0. -1.
</event>
<event>
 5   0  0.4527503E-05  0.1399948E+04  0.7818609E-02  0.8953856E-01
       -2   -1    0    0    0  501  0.00000000000E+00  0.00000000000E+00  0.48900909459E+03  0.48900909460E+03  0.25500000920E-02 0.  1.
        2   -1    0    0  501    0  0.00000000000E+00  0.00000000000E+00 -0.10019513618E+04  0.10019513618E+04  0.25500000920E-02 0. -1.
    10030    2    1    2    0    0  0.00000000000E+00  0.00000000000E+00 -0.51294226725E+03  0.14909604564E+04  0.13999476109E+04 0.  0.
        4    1    3    3  502    0 -0.48304388750E+03 -0.72772568884E+02 -0.79039627366E+03  0.92916905155E+03  0.12699999809E+01 0. -1.
       -4    1    3    3    0  502  0.48304388750E+03  0.72772568884E+02  0.27745400641E+03  0.56179140489E+03  0.12699999809E+01 0.  1.
</event>
<event>
 5   0  0.4527503E-05  0.1400131E+04  0.7818609E-02  0.8953723E-01
        2   -1    0    0  501    0  0.00000000000E+00  0.00000000000E+00  0.11645301828E+04  0.11645301828E+04  0.25500000920E-02 0. -1.
       -2   -1    0    0    0  501  0.00000000000E+00  0.00000000000E+00 -0.42084956125E+03  0.42084956126E+03  0.25500000920E-02 0.  1.
    10030    2    1    2    0    0  0.00000000000E+00  0.00000000000E+00  0.74368062151E+03  0.15853797440E+04  0.14001314460E+04 0.  0.
        4    1    3    3  502    0  0.51253530220E+03  0.46929047580E+03  0.46768210169E+03  0.83764798563E+03  0.12699999809E+01 0.  1.
       -4    1    3    3    0  502 -0.51253530220E+03 -0.46929047580E+03  0.27599851982E+03  0.74773175840E+03  0.12699999809E+01 0. -1.
</event>
<event>
 5   0  0.2363419E-05  0.1400256E+04  0.7818609E-02  0.8953633E-01
       -1   -1    0    0    0  501  0.00000000000E+00  0.00000000000E+00  0.25762202694E+03  0.25762202698E+03  0.50400001928E-02 0.  1.
        1   -1    0    0  501    0  0.00000000000E+00  0.00000000000E+00 -0.19027061730E+04  0.19027061730E+04  0.50400001928E-02 0. -1.
    10030    2    1    2    0    0  0.00000000000E+00  0.00000000000E+00 -0.16450841461E+04  0.21603282000E+04  0.14002557209E+04 0.  0.
        2    1    3    3  502    0  0.40718385563E+03 -0.52026379440E+03 -0.46500306502E+03  0.80789910170E+03  0.25500000920E-02 0. -1.
       -2    1    3    3    0  502 -0.40718385563E+03  0.52026379440E+03 -0.11800810810E+04  0.13524290983E+04  0.25500000920E-02 0.  1.
</event>
<event>
 5   0  0.4441253E-05  0.1400780E+04  0.7818609E-02  0.8953254E-01
        2   -1    0    0  501    0  0.00000000000E+00  0.00000000000E+00  0.11656907847E+04  0.11656907847E+04  0.25500000920E-02 0. -1.
       -2   -1    0    0    0  501  0.00000000000E+00  0.00000000000E+00 -0.42081984410E+03  0.42081984411E+03  0.25500000920E-02 0.  1.
    10030    2    1    2    0    0  0.00000000000E+00  0.00000000000E+00  0.74487094058E+03  0.15865106288E+04  0.14007795177E+04 0.  0.
        3    1    3    3  502    0 -0.55031204583E+02 -0.36096484124E+03 -0.30449202175E+03  0.47543606469E+03  0.10100000352E+00 0.  1.
       -3    1    3    3    0  502  0.55031204583E+02  0.36096484124E+03  0.10493629623E+04  0.11110745641E+04  0.10100000352E+00 0. -1.
</event>
<event>
 5   0  0.2428507E-05  0.1400231E+04  0.7818609E-02  0.8953652E-01
       -1   -1    0    0    0  501  0.00000000000E+00  0.00000000000E+00  0.11003460588E+04  0.11003460588E+04  0.50400001928E-02 0.  1.
        1   -1    0    0  501    0  0.00000000000E+00  0.00000000000E+00 -0.44546110722E+03  0.44546110725E+03  0.50400001928E-02 0. -1.
    10030    2    1    2    0    0  0.00000000000E+00  0.00000000000E+00  0.65488495158E+03  0.15458071661E+04  0.14002305149E+04 0.  0.
        4    1    3    3  502    0  0.20167382223E+03  0.27567106381E+03  0.10021210999E+04  0.10587328169E+04  0.12699999809E+01 0.  1.
       -4    1    3    3    0  502 -0.20167382223E+03 -0.27567106381E+03 -0.34723614828E+03  0.48707434911E+03  0.12699999809E+01 0. -1.
</event>
<event>
 5   0  0.4460282E-05  0.1400032E+04  0.7818609E-02  0.8953795E-01
        2   -1    0    0  501    0  0.00000000000E+00  0.00000000000E+00  0.15079373333E+04  0.15079373333E+04  0.25500000920E-02 0.  1.
       -2   -1    0    0    0  501  0.00000000000E+00  0.00000000000E+00 -0.32496198399E+03  0.32496198400E+03  0.25500000920E-02 0. -1.
    10030    2    1    2    0    0  0.00000000000E+00  0.00000000000E+00  0.11829753493E+04  0.18328993173E+04  0.14000318676E+04 0.  0.
        1    1    3    3  502    0 -0.52869389644E+03 -0.37582961566E+03  0.24695289959E+03  0.69408275500E+03  0.50400001928E-02 0. -1.
       -1    1    3    3    0  502  0.52869389644E+03  0.37582961566E+03  0.93602244967E+03  0.11388165623E+04  0.50400001928E-02 0.  1.
</event>
<event>
 5   0  0.4243281E-05  0.1400172E+04  0.7818609E-02  0.8953694E-01
        2   -1    0    0  501    0  0.00000000000E+00  0.00000000000E+00  0.67705901705E+03  0.67705901706E+03  0.25500000920E-02 0. -1.
       -2   -1    0    0    0  501  0.00000000000E+00  0.00000000000E+00 -0.72389567556E+03  0.72389567556E+03  0.25500000920E-02 0.  1.
    10030    2    1    2    0    0  0.00000000000E+00  0.00000000000E+00 -0.46836658508E+02  0.14009546926E+04  0.14001715531E+04 0.  0.
        2    1    3    3  502    0  0.92790525439E+02  0.54952476894E+03  0.40053146560E+03  0.68630387455E+03  0.25500000920E-02 0. -1.
       -2    1    3    3    0  502 -0.92790525439E+02 -0.54952476894E+03 -0.44736812411E+03  0.71465081806E+03  0.25500000920E-02 0.  1.
</event>
<event>
 5   0  0.2428507E-05  0.1400761E+04  0.7818609E-02  0.8953268E-01
        1   -1    0    0  501    0  0.00000000000E+00  0.00000000000E+00  0.23329389888E+04  0.23329389888E+04  0.50400001928E-02 0. -1.
       -1   -1    0    0    0  501  0.00000000000E+00  0.00000000000E+00 -0.21026383930E+03  0.21026383936E+03  0.50400001928E-02 0.  1.
    10030    2    1    2    0    0  0.00000000000E+00  0.00000000000E+00  0.21226751495E+04  0.25432028282E+04  0.14007608057E+04 0.  0.
        4    1    3    3  502    0  0.10812958983E+03 -0.68403110953E+03  0.12512424762E+04  0.14301048612E+04  0.12699999809E+01 0.  1.
       -4    1    3    3    0  502 -0.10812958983E+03  0.68403110953E+03  0.87143267339E+03  0.11130979670E+04  0.12699999809E+01 0. -1.
</event>
<event>
 5   0  0.2363419E-05  0.1399771E+04  0.7818609E-02  0.8953984E-01
       -1   -1    0    0    0  501  0.00000000000E+00  0.00000000000E+00  0.60847656116E+03  0.60847656118E+03  0.50400001928E-02 0.  1.
        1   -1    0    0  501    0  0.00000000000E+00  0.00000000000E+00 -0.80502654622E+03  0.80502654623E+03  0.50400001928E-02 0. -1.
    10030    2    1    2    0    0  0.00000000000E+00  0.00000000000E+00 -0.19654998506E+03  0.14135031074E+04  0.13997711020E+04 0.  0.
        2    1    3    3  502    0 -0.40254277187E+03  0.57110241808E+03 -0.57366718599E+02  0.70106318940E+03  0.25500000920E-02 0.  1.
       -2    1    3    3    0  502  0.40254277187E+03 -0.57110241808E+03 -0.13918326646E+03  0.71243991802E+03  0.25500000920E-02 0. -1.
</event>
<event>
 5   0  0.4527503E-05  0.1401230E+04  0.7818609E-02  0.8952928E-01
        2   -1    0    0  501    0  0.00000000000E+00  0.00000000000E+00  0.13701266422E+04  0.13701266422E+04  0.25500000920E-02 0. -1.
       -2   -1    0    0    0  501  0.00000000000E+00  0.00000000000E+00 -0.35826002819E+03  0.35826002819E+03  0.25500000920E-02 0.  1.
    10030    2    1    2    0    0  0.00000000000E+00  0.00000000000E+00  0.10118666140E+04  0.17283866704E+04  0.14012303300E+04 0.  0.
        4    1    3    3  502    0 -0.59323167486E+02  0.66214885412E+03  0.23317105382E+03  0.70450741405E+03  0.12699999809E+01 0.  1.
       -4    1    3    3    0  502  0.59323167486E+02 -0.66214885412E+03  0.77869556019E+03  0.10238792563E+04  0.12699999809E+01 0. -1.
</event>
<event>
 5   0  0.4527503E-05  0.1395145E+04  0.7818609E-02  0.8957341E-01
       -2   -1    0    0    0  501  0.00000000000E+00  0.00000000000E+00  0.24161680561E+03  0.24161680562E+03  0.25500000920E-02 0. -1.
        2   -1    0    0  501    0  0.00000000000E+00  0.00000000000E+00 -0.20139623751E+04  0.20139623751E+04  0.25500000920E-02 0.  1.
    10030    2    1    2    0    0  0.00000000000E+00  0.00000000000E+00 -0.17723455695E+04  0.22555791807E+04  0.13951446602E+04 0.  0.
        4    1    3    3  502    0  0.51763256656E+03  0.33284023080E+03 -0.14171895064E+04  0.15450416833E+04  0.12699999809E+01 0.  1.
       -4    1    3    3    0  502 -0.51763256656E+03 -0.33284023080E+03 -0.35515606313E+03  0.71053749745E+03  0.12699999809E+01 0. -1.
</event>
<event>
 5   0  0.2428507E-05  0.1399659E+04  0.7818609E-02  0.8954065E-01
        1   -1    0    0  501    0  0.00000000000E+00  0.00000000000E+00  0.52045258118E+03  0.52045258120E+03  0.50400001928E-02 0. -1.
       -1   -1    0    0    0  501  0.00000000000E+00  0.00000000000E+00 -0.94102983088E+03  0.94102983089E+03  0.50400001928E-02 0.  1.
    10030    2    1    2    0    0  0.00000000000E+00  0.00000000000E+00 -0.42057724970E+03  0.14614824121E+04  0.13996591077E+04 0.  0.
        4    1    3    3  502    0  0.20683444866E+02  0.66155261114E+02  0.51685842940E+03  0.52148688614E+03  0.12699999809E+01 0. -1.
       -4    1    3    3    0  502 -0.20683444866E+02 -0.66155261114E+02 -0.93743567910E+03  0.93999552596E+03  0.12699999809E+01 0.  1.
</event>
<event>
 5   0  0.2363419E-05  0.1396254E+04  0.7818609E-02  0.8956535E-01
       -1   -1    0    0    0  501  0.00000000000E+00  0.00000000000E+00  0.12920384674E+04  0.12920384674E+04  0.50400001928E-02 0. -1.
        1   -1    0    0  501    0  0.00000000000E+00  0.00000000000E+00 -0.37721867252E+03  0.37721867255E+03  0.50400001928E-02 0.  1.
    10030    2    1    2    0    0  0.00000000000E+00  0.00000000000E+00  0.91481979484E+03  0.16692571399E+04  0.13962536095E+04 0.  0.
        2    1    3    3  502    0  0.68607918849E+02  0.34241241614E+03  0.11801126046E+04  0.12306986100E+04  0.25500000920E-02 0. -1.
       -2    1    3    3    0  502 -0.68607918849E+02 -0.34241241614E+03 -0.26529280972E+03  0.43855852990E+03  0.25500000920E-02 0.  1.
</event>
<event>
 5   0  0.4621450E-05  0.1398811E+04  0.7818609E-02  0.8954680E-01
        2   -1    0    0  501    0  0.00000000000E+00  0.00000000000E+00  0.87445621091E+03  0.87445621091E+03  0.25500000920E-02 0.  1.
       -2   -1    0    0    0  501  0.00000000000E+00  0.00000000000E+00 -0.55939698569E+03  0.55939698570E+03  0.25500000920E-02 0. -1.
    10030    2    1    2    0    0  0.00000000000E+00  0.00000000000E+00  0.31505922521E+03  0.14338531966E+04  0.13988111645E+04 0.  0.
        5    1    3    3  502    0 -0.56958074715E+02  0.48246792775E+02  0.87034508259E+03  0.87355287652E+03  0.46999998093E+01 0.  1.
       -5    1    3    3    0  502  0.56958074715E+02 -0.48246792775E+02 -0.55528585738E+03  0.56030032009E+03  0.46999998093E+01 0. -1.
</event>
<event>
 5   0  0.1661000E-05  0.1401080E+04  0.7818609E-02  0.8953037E-01
        4   -1    0    0  501    0  0.00000000000E+00  0.00000000000E+00  0.81700588789E+03  0.81700687497E+03  0.12699999809E+01 0. -1.
       -4   -1    0    0    0  501  0.00000000000E+00  0.00000000000E+00 -0.60067446637E+03  0.60067580895E+03  0.12699999809E+01 0.  1.
    10030    2    1    2    0    0  0.00000000000E+00  0.00000000000E+00  0.21633142152E+03  0.14176826839E+04  0.14010799079E+04 0.  0.
        2    1    3    3  502    0  0.10287202726E+03  0.45567480648E+03 -0.42006848195E+03  0.62823539600E+03  0.25500000920E-02 0.  1.
       -2    1    3    3    0  502 -0.10287202726E+03 -0.45567480648E+03  0.63639990347E+03  0.78944728792E+03  0.25500000920E-02 0. -1.
</event>
<event>
 5   0  0.2316714E-05  0.1400329E+04  0.7818609E-02  0.8953580E-01
        1   -1    0    0  501    0  0.00000000000E+00  0.00000000000E+00  0.10739232546E+04  0.10739232546E+04  0.50400001928E-02 0.  1.
       -1   -1    0    0    0  501  0.00000000000E+00  0.00000000000E+00 -0.45648571862E+03  0.45648571865E+03  0.50400001928E-02 0. -1.
    10030    2    1    2    0    0  0.00000000000E+00  0.00000000000E+00  0.61743753593E+03  0.15304089732E+04  0.14003294307E+04 0.  0.
        5    1    3    3  502    0  0.38531641740E+03 -0.50993791067E+03  0.62110840549E+03  0.89123686842E+03  0.46999998093E+01 0.  1.
       -5    1    3    3    0  502 -0.38531641740E+03  0.50993791067E+03 -0.36708695611E+01  0.63917210479E+03  0.46999998093E+01 0. -1.
</event>
<event>
 5   0  0.4243281E-05  0.1400092E+04  0.7818609E-02  0.8953752E-01
       -2   -1    0    0    0  501  0.00000000000E+00  0.00000000000E+00  0.37468556022E+03  0.37468556023E+03  0.25500000920E-02 0.  1.
        2   -1    0    0  501    0  0.00000000000E+00  0.00000000000E+00 -0.13079343886E+04  0.13079343886E+04  0.25500000920E-02 0. -1.
    10030    2    1    2    0    0  0.00000000000E+00  0.00000000000E+00 -0.93324882835E+03  0.16826199488E+04  0.14000916100E+04 0.  0.
        2    1    3    3  502    0  0.60006599508E+02  0.69253906193E+03 -0.56611213144E+03  0.89648987147E+03  0.25500000920E-02 0.  1.
       -2    1    3    3    0  502 -0.60006599508E+02 -0.69253906193E+03 -0.36713669691E+03  0.78613007734E+03  0.25500000920E-02 0. -1.
</event>
<event>
 5   0  0.2428507E-05  0.1399536E+04  0.7818609E-02  0.8954154E-01
        1   -1    0    0  501    0  0.00000000000E+00  0.00000000000E+00  0.74989125384E+03  0.74989125386E+03  0.50400001928E-02 0.  1.
       -1   -1    0    0    0  501  0.00000000000E+00  0.00000000000E+00 -0.65299532018E+03  0.65299532020E+03  0.50400001928E-02 0. -1.
    10030    2    1    2    0    0  0.00000000000E+00  0.00000000000E+00  0.96895933664E+02  0.14028865741E+04  0.13995363224E+04 0.  0.
        4    1    3    3  502    0 -0.65588223090E+03  0.11616845201E+02 -0.19576902246E+03  0.68457547061E+03  0.12699999809E+01 0. -1.
       -4    1    3    3    0  502  0.65588223090E+03 -0.11616845201E+02  0.29266495613E+03  0.71831110345E+03  0.12699999809E+01 0.  1.
</event>
<event>
 5   0  0.4441253E-05  0.1398205E+04  0.7818609E-02  0.8955119E-01
       -2   -1    0    0    0  501  0.00000000000E+00  0.00000000000E+00  0.11348204465E+04  0.11348204465E+04  0.25500000920E-02 0.  1.
        2   -1    0    0  501    0  0.00000000000E+00  0.00000000000E+00 -0.43068009455E+03  0.43068009455E+03  0.25500000920E-02 0. -1.
    10030    2    1    2    0    0  0.00000000000E+00  0.00000000000E+00  0.70414035195E+03  0.15655005411E+04  0.13982053886E+04 0.  0.
        3    1    3    3  502    0 -0.35950680005E+03  0.27737407268E+03 -0.24309832257E+03  0.51505176449E+03  0.10100000352E+00 0. -1.
       -3    1    3    3    0  502  0.35950680005E+03 -0.27737407268E+03  0.94723867452E+03  0.10504487766E+04  0.10100000352E+00 0.  1.
</event>
<event>
 5   0  0.1661000E-05  0.1401526E+04  0.7818609E-02  0.8952715E-01
        4   -1    0    0  501    0  0.00000000000E+00  0.00000000000E+00  0.55411432244E+03  0.55411577783E+03  0.12699999809E+01 0. -1.
       -4   -1    0    0    0  501  0.00000000000E+00  0.00000000000E+00 -0.88621956104E+03  0.88622047102E+03  0.12699999809E+01 0.  1.
    10030    2    1    2    0    0  0.00000000000E+00  0.00000000000E+00 -0.33210523859E+03  0.14403362489E+04  0.14015258186E+04 0.  0.
        1    1    3    3  502    0 -0.22218771497E+03  0.42447449872E+03 -0.69160676026E+03  0.84134766394E+03  0.50400001928E-02 0.  1.
       -1    1    3    3    0  502  0.22218771497E+03 -0.42447449872E+03  0.35950152167E+03  0.59898858491E+03  0.50400001928E-02 0. -1.
</event>
<event>
 5   0  0.4243281E-05  0.1399672E+04  0.7818609E-02  0.8954056E-01
        2   -1    0    0  501    0  0.00000000000E+00  0.00000000000E+00  0.37385591263E+03  0.37385591264E+03  0.25500000920E-02 0.  1.
       -2   -1    0    0    0  501  0.00000000000E+00  0.00000000000E+00 -0.13100509297E+04  0.13100509297E+04  0.25500000920E-02 0. -1.
    10030    2    1    2    0    0  0.00000000000E+00  0.00000000000E+00 -0.93619501707E+03  0.16839068423E+04  0.13996717986E+04 0.  0.
        2    1    3    3  502    0 -0.13411277534E+03 -0.72250113786E+02  0.35366712872E+03  0.38508019086E+03  0.25500000920E-02 0.  1.
       -2    1    3    3    0  502  0.13411277534E+03  0.72250113786E+02 -0.12898621458E+04  0.12988266515E+04  0.25500000920E-02 0. -1.
</event>
<event>
 5   0  0.2467303E-05  0.1399692E+04  0.7818609E-02  0.8954041E-01
       -1   -1    0    0    0  501  0.00000000000E+00  0.00000000000E+00  0.13299485188E+04  0.13299485188E+04  0.50400001928E-02 0. -1.
        1   -1    0    0  501    0  0.00000000000E+00  0.00000000000E+00 -0.36827330786E+03  0.36827330789E+03  0.50400001928E-02 0.  1.
    10030    2    1    2    0    0  0.00000000000E+00  0.00000000000E+00  0.96167521097E+03  0.16982218267E+04  0.13996921666E+04 0.  0.
        3    1    3    3  502    0  0.21217367429E+02 -0.63410168924E+03  0.12245814298E+03  0.64616649244E+03  0.10100000352E+00 0.  1.
       -3    1    3    3    0  502 -0.21217367429E+02  0.63410168924E+03  0.83921706800E+03  0.10520553343E+04  0.10100000352E+00 0. -1.
</event>
<event>
 5   0  0.4243281E-05  0.1399512E+04  0.7818609E-02  0.8954172E-01
       -2   -1    0    0    0  501  0.00000000000E+00  0.00000000000E+00  0.79098666029E+03  0.79098666030E+03  0.25500000920E-02 0. -1.
        2   -1    0    0  501    0  0.00000000000E+00  0.00000000000E+00 -0.61904731331E+03  0.61904731332E+03  0.25500000920E-02 0.  1.
    10030    2    1    2    0    0  0.00000000000E+00  0.00000000000E+00  0.17193934698E+03  0.14100339736E+04  0.13995115818E+04 0.  0.
        2    1    3    3  502    0 -0.17099679806E+03  0.10634646037E+02  0.76952867151E+03  0.78837007613E+03  0.25500000920E-02 0. -1.
       -2    1    3    3    0  502  0.17099679806E+03 -0.10634646037E+02 -0.59758932453E+03  0.62166389749E+03  0.25500000920E-02 0.  1.
</event>
<event>
 5   0  0.2316714E-05  0.1399365E+04  0.7818609E-02  0.8954278E-01
        1   -1    0    0  501    0  0.00000000000E+00  0.00000000000E+00  0.52136604085E+03  0.52136604087E+03  0.50400001928E-02 0. -1.
       -1   -1    0    0    0  501  0.00000000000E+00  0.00000000000E+00 -0.93898621857E+03  0.93898621858E+03  0.50400001928E-02 0.  1.
    10030    2    1    2    0    0  0.00000000000E+00  0.00000000000E+00 -0.41762017772E+03  0.14603522595E+04  0.13993648948E+04 0.  0.
        5    1    3    3  502    0 -0.40006812415E+03 -0.53144731586E+03 -0.43515602265E+03  0.79490477892E+03  0.46999998093E+01 0.  1.
       -5    1    3    3    0  502  0.40006812415E+03  0.53144731586E+03  0.17535844935E+02  0.66544748053E+03  0.46999998093E+01 0. -1.
</event>
<event>
 5   0  0.2428507E-05  0.1400026E+04  0.7818609E-02  0.8953800E-01
        1   -1    0    0  501    0  0.00000000000E+00  0.00000000000E+00  0.55967751833E+03  0.55967751835E+03  0.50400001928E-02 0. -1.
       -1   -1    0    0    0  501  0.00000000000E+00  0.00000000000E+00 -0.87553633358E+03  0.87553633359E+03  0.50400001928E-02 0.  1.
    10030    2    1    2    0    0  0.00000000000E+00  0.00000000000E+00 -0.31585881525E+03  0.14352138519E+04  0.14000257175E+04 0.  0.
        4    1    3    3  502    0  0.58869720115E+03 -0.33391504006E+03  0.25316659594E+02  0.67727852083E+03  0.12699999809E+01 0.  1.
       -4    1    3    3    0  502 -0.58869720115E+03  0.33391504006E+03 -0.34117547484E+03  0.75793533112E+03  0.12699999809E+01 0. -1.
</event>
<event>
 5   0  0.4441253E-05  0.1399930E+04  0.7818609E-02  0.8953869E-01
        2   -1    0    0  501    0  0.00000000000E+00  0.00000000000E+00  0.16433973033E+04  0.16433973033E+04  0.25500000920E-02 0. -1.
       -2   -1    0    0    0  501  0.00000000000E+00  0.00000000000E+00 -0.29813285689E+03  0.29813285690E+03  0.25500000920E-02 0.  1.
    10030    2    1    2    0    0  0.00000000000E+00  0.00000000000E+00  0.13452644464E+04  0.19415301602E+04  0.13999296169E+04 0.  0.
        3    1    3    3  502    0 -0.66001156380E+03  0.17056921581E+03  0.89297376780E+03  0.11234372621E+04  0.10100000352E+00 0. -1.
       -3    1    3    3    0  502  0.66001156380E+03 -0.17056921581E+03  0.45229067860E+03  0.81809289807E+03  0.10100000352E+00 0.  1.
</event>
<event>
 5   0  0.2467303E-05  0.1400184E+04  0.7818609E-02  0.8953686E-01
        1   -1    0    0  501    0  0.00000000000E+00  0.00000000000E+00  0.85097733015E+03  0.85097733017E+03  0.50400001928E-02 0. -1.
       -1   -1    0    0    0  501  0.00000000000E+00  0.00000000000E+00 -0.57595963459E+03  0.57595963461E+03  0.50400001928E-02 0.  1.
    10030    2    1    2    0    0  0.00000000000E+00  0.00000000000E+00  0.27501769556E+03  0.14269369648E+04  0.14001836910E+04 0.  0.
        3    1    3    3  502    0  0.30558240723E+03 -0.52226235188E+03 -0.22134129343E+03  0.64430625496E+03  0.10100000352E+00 0.  1.
       -3    1    3    3    0  502 -0.30558240723E+03  0.52226235188E+03  0.49635898899E+03  0.78263070982E+03  0.10100000352E+00 0. -1.
</event>
<event>
 5   0  0.2363419E-05  0.1400070E+04  0.7818609E-02  0.8953768E-01
        1   -1    0    0  501    0  0.00000000000E+00  0.00000000000E+00  0.11773176684E+04  0.11773176684E+04  0.50400001928E-02 0. -1.
       -1   -1    0    0    0  501  0.00000000000E+00  0.00000000000E+00 -0.41624209356E+03  0.41624209359E+03  0.50400001928E-02 0.  1.
    10030    2    1    2    0    0  0.00000000000E+00  0.00000000000E+00  0.76107557481E+03  0.15935597620E+04  0.14000702427E+04 0.  0.
        2    1    3    3  502    0 -0.41014584193E+02  0.68676248175E+03  0.52773246188E+03  0.86707926615E+03  0.25500000920E-02 0. -1.
       -2    1    3    3    0  502  0.41014584193E+02 -0.68676248175E+03  0.23334311293E+03  0.72648049582E+03  0.25500000920E-02 0.  1.
</event>
<event>
 5   0  0.2363419E-05  0.1399998E+04  0.7818609E-02  0.8953820E-01
       -1   -1    0    0    0  501  0.00000000000E+00  0.00000000000E+00  0.30376650420E+03  0.30376650424E+03  0.50400001928E-02 0.  1.
        1   -1    0    0  501    0  0.00000000000E+00  0.00000000000E+00 -0.16130754308E+04  0.16130754308E+04  0.50400001928E-02 0. -1.
    10030    2    1    2    0    0  0.00000000000E+00  0.00000000000E+00 -0.13093089266E+04  0.19168419350E+04  0.13999975495E+04 0.  0.
        2    1    3    3  502    0 -0.23969176975E+03 -0.48653686157E+03 -0.48760750982E+02  0.54456209287E+03  0.25500000920E-02 0.  1.
       -2    1    3    3    0  502  0.23969176975E+03  0.48653686157E+03 -0.12605481756E+04  0.13722798421E+04  0.25500000920E-02 0. -1.
</event>
<event>
 5   0  0.4527503E-05  0.1399895E+04  0.7818609E-02  0.8953894E-01
        2   -1    0    0  501    0  0.00000000000E+00  0.00000000000E+00  0.14151737581E+04  0.14151737581E+04  0.25500000920E-02 0.  1.
       -2   -1    0    0    0  501  0.00000000000E+00  0.00000000000E+00 -0.34619550854E+03  0.34619550855E+03  0.25500000920E-02 0. -1.
    10030    2    1    2    0    0  0.00000000000E+00  0.00000000000E+00  0.10689782495E+04  0.17613692666E+04  0.13998954230E+04 0.  0.
        4    1    3    3  502    0  0.28044696468E+03  0.62956500522E+03  0.38078804223E+03  0.78740316344E+03  0.12699999809E+01 0.  1.
       -4    1    3    3    0  502 -0.28044696468E+03 -0.62956500522E+03  0.68819020729E+03  0.97396610316E+03  0.12699999809E+01 0. -1.
</event>
<event>
 5   0  0.2427569E-05  0.1400196E+04  0.7818609E-02  0.8953677E-01
       -1   -1    0    0    0  501  0.00000000000E+00  0.00000000000E+00  0.29715421796E+03  0.29715421800E+03  0.50400001928E-02 0.  1.
        1   -1    0    0  501    0  0.00000000000E+00  0.00000000000E+00 -0.16494365624E+04  0.16494365624E+04  0.50400001928E-02 0. -1.
    10030    2    1    2    0    0  0.00000000000E+00  0.00000000000E+00 -0.13522823444E+04  0.19465907804E+04  0.14001957461E+04 0.  0.
        1    1    3    3  502    0  0.47983292546E+02 -0.65419693286E+03 -0.33600100356E+03  0.73700250864E+03  0.50400001928E-02 0. -1.
       -1    1    3    3    0  502 -0.47983292546E+02  0.65419693286E+03 -0.10162813409E+04  0.12095882717E+04  0.50400001928E-02 0.  1.
</event>
<event>
 5   0  0.2427569E-05  0.1399936E+04  0.7818609E-02  0.8953865E-01
        1   -1    0    0  501    0  0.00000000000E+00  0.00000000000E+00  0.10504334102E+04  0.10504334102E+04  0.50400001928E-02 0. -1.
       -1   -1    0    0    0  501  0.00000000000E+00  0.00000000000E+00 -0.46643151059E+03  0.46643151061E+03  0.50400001928E-02 0.  1.
    10030    2    1    2    0    0  0.00000000000E+00  0.00000000000E+00  0.58400189959E+03  0.15168649208E+04  0.13999360590E+04 0.  0.
        1    1    3    3  502    0  0.25091900860E+03 -0.17550911513E+03 -0.39000985339E+03  0.49585429729E+03  0.50400001928E-02 0.  1.
       -1    1    3    3    0  502 -0.25091900860E+03  0.17550911513E+03  0.97401175298E+03  0.10210106235E+04  0.50400001928E-02 0. -1.
</event>
<event>
 5   0  0.4621450E-05  0.1399398E+04  0.7818609E-02  0.8954254E-01
       -2   -1    0    0    0  501  0.00000000000E+00  0.00000000000E+00  0.56104859081E+03  0.56104859081E+03  0.25500000920E-02 0. -1.
        2   -1    0    0  501    0  0.00000000000E+00  0.00000000000E+00 -0.87261384177E+03  0.87261384178E+03  0.25500000920E-02 0.  1.
    10030    2    1    2    0    0  0.00000000000E+00  0.00000000000E+00 -0.31156525097E+03  0.14336624326E+04  0.13993981081E+04 0.  0.
        5    1    3    3  502    0  0.40889782837E+01 -0.10330495060E+03  0.55316401835E+03  0.56276207562E+03  0.46999998093E+01 0. -1.
       -5    1    3    3    0  502 -0.40889782837E+01  0.10330495060E+03 -0.86472926932E+03  0.87090035697E+03  0.46999998093E+01 0.  1.
</event>
<event>
 5   0  0.4460282E-05  0.1400746E+04  0.7818609E-02  0.8953279E-01
        2   -1    0    0  501    0  0.00000000000E+00  0.00000000000E+00  0.21658216289E+04  0.21658216289E+04  0.25500000920E-02 0. -1.
       -2   -1    0    0    0  501  0.00000000000E+00  0.00000000000E+00 -0.22648316230E+03  0.22648316232E+03  0.25500000920E-02 0.  1.
    10030    2    1    2    0    0  0.00000000000E+00  0.00000000000E+00  0.19393384666E+04  0.23923047912E+04  0.14007457036E+04 0.  0.
        1    1    3    3  502    0 -0.67709514967E+03 -0.66289837199E+02  0.12537627853E+04  0.14264548033E+04  0.50400001928E-02 0. -1.
       -1    1    3    3    0  502  0.67709514967E+03  0.66289837199E+02  0.68557568132E+03  0.96584998787E+03  0.50400001928E-02 0.  1.
</event>
<event>
 5   0  0.4460282E-05  0.1399985E+04  0.7818609E-02  0.8953829E-01
       -2   -1    0    0    0  501  0.00000000000E+00  0.00000000000E+00  0.13190906909E+04  0.13190906909E+04  0.25500000920E-02 0.  1.
        2   -1    0    0  501    0  0.00000000000E+00  0.00000000000E+00 -0.37146016582E+03  0.37146016583E+03  0.25500000920E-02 0. -1.
    10030    2    1    2    0    0  0.00000000000E+00  0.00000000000E+00  0.94763052507E+03  0.16905508567E+04  0.13999852096E+04 0.  0.
        1    1    3    3  502    0 -0.18787464327E+03  0.46926305069E+02  0.12861024729E+04  0.13005992967E+04  0.50400001928E-02 0.  1.
       -1    1    3    3    0  502  0.18787464327E+03 -0.46926305069E+02 -0.33847194783E+03  0.38995156005E+03  0.50400001928E-02 0. -1.
</event>
<event>
 5   0  0.2467303E-05  0.1402929E+04  0.7818609E-02  0.8951701E-01
       -1   -1    0    0    0  501  0.00000000000E+00  0.00000000000E+00  0.46158438691E+03  0.46158438693E+03  0.50400001928E-02 0. -1.
        1   -1    0    0  501    0  0.00000000000E+00  0.00000000000E+00 -0.10660073544E+04  0.10660073544E+04  0.50400001928E-02 0.  1.
    10030    2    1    2    0    0  0.00000000000E+00  0.00000000000E+00 -0.60442296749E+03  0.15275917413E+04  0.14029288665E+04 0.  0.
        3    1    3    3  502    0 -0.45391287600E+03 -0.40341729509E+03  0.80084927843E+02  0.61253246351E+03  0.10100000352E+00 0. -1.
       -3    1    3    3    0  502  0.45391287600E+03  0.40341729509E+03 -0.68450789534E+03  0.91505927784E+03  0.10100000352E+00 0.  1.
</event>
<event>
 5   0  0.4621450E-05  0.1399471E+04  0.7818609E-02  0.8954202E-01
       -2   -1    0    0    0  501  0.00000000000E+00  0.00000000000E+00  0.69755602215E+03  0.69755602216E+03  0.25500000920E-02 0.  1.
        2   -1    0    0  501    0  0.00000000000E+00  0.00000000000E+00 -0.70192162235E+03  0.70192162235E+03  0.25500000920E-02 0. -1.
    10030    2    1    2    0    0  0.00000000000E+00  0.00000000000E+00 -0.43656001947E+01  0.13994776445E+04  0.13994708354E+04 0.  0.
        5    1    3    3  502    0  0.38176730824E+03 -0.53635798861E+03  0.23484450187E+03  0.69899942750E+03  0.46999998093E+01 0.  1.
       -5    1    3    3    0  502 -0.38176730824E+03  0.53635798861E+03 -0.23921010207E+03  0.70047821701E+03  0.46999998093E+01 0. -1.
</event>
<event>
 5   0  0.4243281E-05  0.1400131E+04  0.7818609E-02  0.8953724E-01
        2   -1    0    0  501    0  0.00000000000E+00  0.00000000000E+00  0.13536187587E+04  0.13536187587E+04  0.25500000920E-02 0. -1.
       -2   -1    0    0    0  501  0.00000000000E+00  0.00000000000E+00 -0.36206040017E+03  0.36206040018E+03  0.25500000920E-02 0.  1.
    10030    2    1    2    0    0  0.00000000000E+00  0.00000000000E+00  0.99155835854E+03  0.17156791589E+04  0.14001310645E+04 0.  0.
        2    1    3    3  502    0 -0.32937133026E+03 -0.26214747979E+03 -0.18964550187E+03  0.46170574043E+03  0.25500000920E-02 0.  1.
       -2    1    3    3    0  502  0.32937133026E+03  0.26214747979E+03  0.11812038604E+04  0.12539734185E+04  0.25500000920E-02 0. -1.
</event>
<event>
 5   0  0.2316714E-05  0.1397620E+04  0.7818609E-02  0.8955543E-01
       -1   -1    0    0    0  501  0.00000000000E+00  0.00000000000E+00  0.42775618792E+03  0.42775618795E+03  0.50400001928E-02 0. -1.
        1   -1    0    0  501    0  0.00000000000E+00  0.00000000000E+00 -0.11416208507E+04  0.11416208507E+04  0.50400001928E-02 0.  1.
    10030    2    1    2    0    0  0.00000000000E+00  0.00000000000E+00 -0.71386466276E+03  0.15693770386E+04  0.13976199529E+04 0.  0.
        5    1    3    3  502    0 -0.37555278938E+03 -0.58077096531E+03 -0.46910070643E+03  0.83571070026E+03  0.46999998093E+01 0.  1.
       -5    1    3    3    0  502  0.37555278938E+03  0.58077096531E+03 -0.24476395633E+03  0.73366633838E+03  0.46999998093E+01 0. -1.
</event>
<event>
 5   0  0.4460282E-05  0.1398896E+04  0.7818609E-02  0.8954618E-01
        2   -1    0    0  501    0  0.00000000000E+00  0.00000000000E+00  0.20904753050E+04  0.20904753050E+04  0.25500000920E-02 0. -1.
       -2   -1    0    0    0  501  0.00000000000E+00  0.00000000000E+00 -0.23402690615E+03  0.23402690616E+03  0.25500000920E-02 0.  1.
    10030    2    1    2    0    0  0.00000000000E+00  0.00000000000E+00  0.18564483989E+04  0.23245022112E+04  0.13988959476E+04 0.  0.
        1    1    3    3  502    0 -0.49046390822E+03 -0.49092332894E+03  0.10737214119E+04  0.12784514971E+04  0.50400001928E-02 0. -1.
       -1    1    3    3    0  502  0.49046390822E+03  0.49092332894E+03  0.78272698697E+03  0.10460507140E+04  0.50400001928E-02 0.  1.
</event>
<event>
 5   0  0.4527503E-05  0.1400484E+04  0.7818609E-02  0.8953468E-01
        2   -1    0    0  501    0  0.00000000000E+00  0.00000000000E+00  0.81285002775E+03  0.81285002776E+03  0.25500000920E-02 0.  1.
       -2   -1    0    0    0  501  0.00000000000E+00  0.00000000000E+00 -0.60323438305E+03  0.60323438306E+03  0.25500000920E-02 0. -1.
    10030    2    1    2    0    0  0.00000000000E+00  0.00000000000E+00  0.20961564470E+03  0.14160844108E+04  0.14004843234E+04 0.  0.
        4    1    3    3  502    0  0.56503953025E+03 -0.37586041148E+03 -0.69732332277E+02  0.68220592986E+03  0.12699999809E+01 0. -1.
       -4    1    3    3    0  502 -0.56503953025E+03  0.37586041148E+03  0.27934797698E+03  0.73387848096E+03  0.12699999809E+01 0.  1.
</event>
<event>
 5   0  0.4460282E-05  0.1399782E+04  0.7818609E-02  0.8953977E-01
       -2   -1    0    0    0  501  0.00000000000E+00  0.00000000000E+00  0.30184703264E+03  0.30184703265E+03  0.25500000920E-02 0.  1.
        2   -1    0    0  501    0  0.00000000000E+00  0.00000000000E+00 -0.16228326287E+04  0.16228326287E+04  0.25500000920E-02 0. -1.
    10030    2    1    2    0    0  0.00000000000E+00  0.00000000000E+00 -0.13209855960E+04  0.19246796613E+04  0.13997817165E+04 0.  0.
        1    1    3    3  502    0  0.24835517116E+02  0.28204509864E+01  0.30123314611E+03  0.30226836783E+03  0.50400001928E-02 0.  1.
       -1    1    3    3    0  502 -0.24835517116E+02 -0.28204509864E+01 -0.16222187422E+04  0.16224112935E+04  0.50400001928E-02 0. -1.
</event>
<event>
 5   0  0.4243281E-05  0.1400251E+04  0.7818609E-02  0.8953637E-01
       -2   -1    0    0    0  501  0.00000000000E+00  0.00000000000E+00  0.97955304343E+03  0.97955304343E+03  0.25500000920E-02 0.  1.
        2   -1    0    0  501    0  0.00000000000E+00  0.00000000000E+00 -0.50040777344E+03  0.50040777344E+03  0.25500000920E-02 0. -1.
    10030    2    1    2    0    0  0.00000000000E+00  0.00000000000E+00  0.47914526999E+03  0.14799608169E+04  0.14002513452E+04 0.  0.
        2    1    3    3  502    0 -0.92190485230E+02  0.53647441046E+03  0.70494635232E+03  0.89064765104E+03  0.25500000920E-02 0.  1.
       -2    1    3    3    0  502  0.92190485230E+02 -0.53647441046E+03 -0.22580108233E+03  0.58931316584E+03  0.25500000920E-02 0. -1.
</event>
<event>
 5   0  0.2363419E-05  0.1398688E+04  0.7818609E-02  0.8954769E-01
       -1   -1    0    0    0  501  0.00000000000E+00  0.00000000000E+00  0.43938372688E+03  0.43938372691E+03  0.50400001928E-02 0.  1.
        1   -1    0    0  501    0  0.00000000000E+00  0.00000000000E+00 -0.11131091106E+04  0.11131091106E+04  0.50400001928E-02 0. -1.
    10030    2    1    2    0    0  0.00000000000E+00  0.00000000000E+00 -0.67372538374E+03  0.15524928375E+04  0.13986879988E+04 0.  0.
        2    1    3    3  502    0 -0.57703745480E+03  0.36073431181E+03 -0.15795334786E+03  0.69860627543E+03  0.25500000920E-02 0.  1.
       -2    1    3    3    0  502  0.57703745480E+03 -0.36073431181E+03 -0.51577203588E+03  0.85388656212E+03  0.25500000920E-02 0. -1.
</event>
<event>
 5   0  0.2363419E-05  0.1399962E+04  0.7818609E-02  0.8953846E-01
       -1   -1    0    0    0  501  0.00000000000E+00  0.00000000000E+00  0.12642430807E+04  0.12642430807E+04  0.50400001928E-02 0.  1.
        1   -1    0    0  501    0  0.00000000000E+00  0.00000000000E+00 -0.38756251906E+03  0.38756251909E+03  0.50400001928E-02 0. -1.
    10030    2    1    2    0    0  0.00000000000E+00  0.00000000000E+00  0.87668056166E+03  0.16518055998E+04  0.13999617611E+04 0.  0.
        2    1    3    3  502    0  0.29991637808E+03  0.46945352430E+03 -0.61740772833E+02  0.56048940075E+03  0.25500000920E-02 0. -1.
       -2    1    3    3    0  502 -0.29991637808E+03 -0.46945352430E+03  0.93842133449E+03  0.10913161991E+04  0.25500000920E-02 0.  1.
</event>
<event>
 5   0  0.4460282E-05  0.1401880E+04  0.7818609E-02  0.8952459E-01
       -2   -1    0    0    0  501  0.00000000000E+00  0.00000000000E+00  0.23865476794E+03  0.23865476796E+03  0.25500000920E-02 0.  1.
        2   -1    0    0  501    0  0.00000000000E+00  0.00000000000E+00 -0.20586917653E+04  0.20586917653E+04  0.25500000920E-02 0. -1.
    10030    2    1    2    0    0  0.00000000000E+00  0.00000000000E+00 -0.18200369973E+04  0.22973465332E+04  0.14018796033E+04 0.  0.
        1    1    3    3  502    0  0.21545878573E+03  0.50564345707E+03 -0.16228681599E+04  0.17134173042E+04  0.50400001928E-02 0. -1.
       -1    1    3    3    0  502 -0.21545878573E+03 -0.50564345707E+03 -0.19716883747E+03  0.58392922903E+03  0.50400001928E-02 0.  1.
</event>
<event>
 5   0  0.2427569E-05  0.1400138E+04  0.7818609E-02  0.8953719E-01
       -1   -1    0    0    0  501  0.00000000000E+00  0.00000000000E+00  0.11371161055E+04  0.11371161055E+04  0.50400001928E-02 0. -1.
        1   -1    0    0  501    0  0.00000000000E+00  0.00000000000E+00 -0.43099959933E+03  0.43099959936E+03  0.50400001928E-02 0.  1.
    10030    2    1    2    0    0  0.00000000000E+00  0.00000000000E+00  0.70611650613E+03  0.15681157048E+04  0.14001379730E+04 0.  0.
        1    1    3    3  502    0 -0.22616126667E+03 -0.46695065298E+02  0.10932296485E+04  0.11173542017E+04  0.50400001928E-02 0. -1.
       -1    1    3    3    0  502  0.22616126667E+03  0.46695065298E+02 -0.38711314239E+03  0.45076150312E+03  0.50400001928E-02 0.  1.
</event>
<event>
 5   0  0.2316714E-05  0.1400282E+04  0.7818609E-02  0.8953614E-01
        1   -1    0    0  501    0  0.00000000000E+00  0.00000000000E+00  0.52148470212E+03  0.52148470214E+03  0.50400001928E-02 0. -1.
       -1   -1    0    0    0  501  0.00000000000E+00  0.00000000000E+00 -0.94000398963E+03  0.94000398964E+03  0.50400001928E-02 0.  1.
    10030    2    1    2    0    0  0.00000000000E+00  0.00000000000E+00 -0.41851928751E+03  0.14614886918E+04  0.14002824009E+04 0.  0.
        5    1    3    3  502    0  0.50779262427E+03 -0.22991318179E+03  0.23288697749E+03  0.60412900502E+03  0.46999998093E+01 0. -1.
       -5    1    3    3    0  502 -0.50779262427E+03  0.22991318179E+03 -0.65140626500E+03  0.85735968677E+03  0.46999998093E+01 0.  1.
</event>
<event>
 5   0  0.4460282E-05  0.1403587E+04  0.7818609E-02  0.8951226E-01
       -2   -1    0    0    0  501  0.00000000000E+00  0.00000000000E+00  0.39358102481E+03  0.39358102482E+03  0.25500000920E-02 0.  1.
        2   -1    0    0  501    0  0.00000000000E+00  0.00000000000E+00 -0.12513667676E+04  0.12513667676E+04  0.25500000920E-02 0. -1.
    10030    2    1    2    0    0  0.00000000000E+00  0.00000000000E+00 -0.85778574277E+03  0.16449477924E+04  0.14035871399E+04 0.  0.
        1    1    3    3  502    0 -0.69751697273E+03 -0.10277208126E+02 -0.33903582252E+03  0.77561642403E+03  0.50400001928E-02 0.  1.
       -1    1    3    3    0  502  0.69751697273E+03  0.10277208126E+02 -0.51874992026E+03  0.86933136838E+03  0.50400001928E-02 0. -1.
</event>
<event>
 5   0  0.2428507E-05  0.1399986E+04  0.7818609E-02  0.8953828E-01
        1   -1    0    0  501    0  0.00000000000E+00  0.00000000000E+00  0.50965306584E+03  0.50965306587E+03  0.50400001928E-02 0.  1.
       -1   -1    0    0    0  501  0.00000000000E+00  0.00000000000E+00 -0.96141962903E+03  0.96141962904E+03  0.50400001928E-02 0. -1.
    10030    2    1    2    0    0  0.00000000000E+00  0.00000000000E+00 -0.45176656318E+03  0.14710726949E+04  0.13999863735E+04 0.  0.
        4    1    3    3  502    0 -0.22360966474E+03  0.60023514701E+03  0.70773322500E+02  0.64443307639E+03  0.12699999809E+01 0.  1.
       -4    1    3    3    0  502  0.22360966474E+03 -0.60023514701E+03 -0.52253988568E+03  0.82663961851E+03  0.12699999809E+01 0. -1.
</event>
<event>
 5   0  0.4243281E-05  0.1400078E+04  0.7818609E-02  0.8953762E-01
       -2   -1    0    0    0  501  0.00000000000E+00  0.00000000000E+00  0.25271084229E+03  0.25271084230E+03  0.25500000920E-02 0.  1.
        2   -1    0    0  501    0  0.00000000000E+00  0.00000000000E+00 -0.19391920480E+04  0.19391920480E+04  0.25500000920E-02 0. -1.
    10030    2    1    2    0    0  0.00000000000E+00  0.00000000000E+00 -0.16864812057E+04  0.21919028903E+04  0.14000783633E+04 0.  0.
        2    1    3    3  502    0 -0.46434992627E+02  0.69738908640E+03 -0.78166204917E+03  0.10485720316E+04  0.25500000920E-02 0.  1.
       -2    1    3    3    0  502  0.46434992627E+02 -0.69738908640E+03 -0.90481915656E+03  0.11433308587E+04  0.25500000920E-02 0. -1.
</event>
<event>
 5   0  0.2428507E-05  0.1397128E+04  0.7818609E-02  0.8955900E-01
       -1   -1    0    0    0  501  0.00000000000E+00  0.00000000000E+00  0.49465014058E+03  0.49465014060E+03  0.50400001928E-02 0. -1.
        1   -1    0    0  501    0  0.00000000000E+00  0.00000000000E+00 -0.98653926101E+03  0.98653926103E+03  0.50400001928E-02 0.  1.
    10030    2    1    2    0    0  0.00000000000E+00  0.00000000000E+00 -0.49188912044E+03  0.14811894016E+04  0.13971281748E+04 0.  0.
        4    1    3    3  502    0 -0.38534561792E+03 -0.23498253246E+03  0.31931657923E+03  0.55287677332E+03  0.12699999809E+01 0. -1.
       -4    1    3    3    0  502  0.38534561792E+03  0.23498253246E+03 -0.81120569967E+03  0.92831262831E+03  0.12699999809E+01 0.  1.
</event>
<event>
 5   0  0.2427569E-05  0.1398515E+04  0.7818609E-02  0.8954894E-01
        1   -1    0    0  501    0  0.00000000000E+00  0.00000000000E+00  0.47636652905E+03  0.47636652908E+03  0.50400001928E-02 0.  1.
       -1   -1    0    0    0  501  0.00000000000E+00  0.00000000000E+00 -0.10264389420E+04  0.10264389420E+04  0.50400001928E-02 0. -1.
    10030    2    1    2    0    0  0.00000000000E+00  0.00000000000E+00 -0.55007241290E+03  0.15028054710E+04  0.13985151499E+04 0.  0.
        1    1    3    3  502    0 -0.89820761839E+02 -0.65373991496E+02  0.46682310790E+03  0.47985971087E+03  0.50400001928E-02 0.  1.
       -1    1    3    3    0  502  0.89820761839E+02  0.65373991496E+02 -0.10168955208E+04  0.10229457602E+04  0.50400001928E-02 0. -1.
</event>
<event>
 5   0  0.4621450E-05  0.1398585E+04  0.7818609E-02  0.8954843E-01
       -2   -1    0    0    0  501  0.00000000000E+00  0.00000000000E+00  0.98899121029E+03  0.98899121030E+03  0.25500000920E-02 0.  1.
        2   -1    0    0  501    0  0.00000000000E+00  0.00000000000E+00 -0.49445354202E+03  0.49445354203E+03  0.25500000920E-02 0. -1.
    10030    2    1    2    0    0  0.00000000000E+00  0.00000000000E+00  0.49453766827E+03  0.14834447523E+04  0.13985852952E+04 0.  0.
        5    1    3    3  502    0  0.93831217727E+01 -0.59548063713E+03 -0.14144060740E+03  0.61213786649E+03  0.46999998093E+01 0. -1.
       -5    1    3    3    0  502 -0.93831217727E+01  0.59548063713E+03  0.63597827567E+03  0.87130688583E+03  0.46999998093E+01 0.  1.
</event>
<event>
 5   0  0.2467303E-05  0.1400647E+04  0.7818609E-02  0.8953351E-01
        1   -1    0    0  501    0  0.00000000000E+00  0.00000000000E+00  0.23341352383E+04  0.23341352383E+04  0.50400001928E-02 0.  1.
       -1   -1    0    0    0  501  0.00000000000E+00  0.00000000000E+00 -0.21012183643E+03  0.21012183649E+03  0.50400001928E-02 0. -1.
    10030    2    1    2    0    0  0.00000000000E+00  0.00000000000E+00  0.21240134019E+04  0.25442570748E+04  0.14006466833E+04 0.  0.
        3    1    3    3  502    0 -0.41749666919E+03  0.56049146312E+03  0.98079887152E+03  0.12043340839E+04  0.10100000352E+00 0.  1.
       -3    1    3    3    0  502  0.41749666919E+03 -0.56049146312E+03  0.11432145304E+04  0.13399229910E+04  0.10100000352E+00 0. -1.
</event>
<event>
 5   0  0.2467303E-05  0.1400311E+04  0.7818609E-02  0.8953593E-01
        1   -1    0    0  501    0  0.00000000000E+00  0.00000000000E+00  0.99685629561E+03  0.99685629563E+03  0.50400001928E-02 0. -1.
       -1   -1    0    0    0  501  0.00000000000E+00  0.00000000000E+00 -0.49176399016E+03  0.49176399018E+03  0.50400001928E-02 0.  1.
    10030    2    1    2    0    0  0.00000000000E+00  0.00000000000E+00  0.50509230546E+03  0.14886202858E+04  0.14003114362E+04 0.  0.
        3    1    3    3  502    0 -0.14797452469E+03  0.19022243338E+03  0.95137369994E+03  0.98142394574E+03  0.10100000352E+00 0. -1.
       -3    1    3    3    0  502  0.14797452469E+03 -0.19022243338E+03 -0.44628139448E+03  0.50719634007E+03  0.10100000352E+00 0.  1.
</event>
<event>
 5   0  0.4243281E-05  0.1398824E+04  0.7818609E-02  0.8954670E-01
        2   -1    0    0  501    0  0.00000000000E+00  0.00000000000E+00  0.82097979131E+03  0.82097979131E+03  0.25500000920E-02 0.  1.
       -2   -1    0    0    0  501  0.00000000000E+00  0.00000000000E+00 -0.59584523057E+03  0.59584523058E+03  0.25500000920E-02 0. -1.
    10030    2    1    2    0    0  0.00000000000E+00  0.00000000000E+00  0.22513456074E+03  0.14168250219E+04  0.13988236387E+04 0.  0.
        2    1    3    3  502    0  0.15705167668E+03 -0.67661589383E+03  0.19549023736E+03  0.72158903113E+03  0.25500000920E-02 0. -1.
       -2    1    3    3    0  502 -0.15705167668E+03  0.67661589383E+03  0.29644323374E+02  0.69523599076E+03  0.25500000920E-02 0.  1.
</event>
<event>
 5   0  0.4527503E-05  0.1399469E+04  0.7818609E-02  0.8954203E-01
       -2   -1    0    0    0  501  0.00000000000E+00  0.00000000000E+00  0.67566276079E+03  0.67566276079E+03  0.25500000920E-02 0. -1.
        2   -1    0    0  501    0  0.00000000000E+00  0.00000000000E+00 -0.72466336401E+03  0.72466336402E+03  0.25500000920E-02 0.  1.
    10030    2    1    2    0    0  0.00000000000E+00  0.00000000000E+00 -0.49000603223E+02  0.14003261248E+04  0.13994685408E+04 0.  0.
        4    1    3    3  502    0  0.69950712138E+03 -0.17049687271E+02 -0.19444327062E+02  0.69998614233E+03  0.12699999809E+01 0.  1.
       -4    1    3    3    0  502 -0.69950712138E+03  0.17049687271E+02 -0.29556276161E+02  0.70033998248E+03  0.12699999809E+01 0. -1.
</event>
<event>
 5   0  0.2467303E-05  0.1399865E+04  0.7818609E-02  0.8953917E-01
        1   -1    0    0  501    0  0.00000000000E+00  0.00000000000E+00  0.10853459304E+04  0.10853459304E+04  0.50400001928E-02 0.  1.
       -1   -1    0    0    0  501  0.00000000000E+00  0.00000000000E+00 -0.45138165321E+03  0.45138165324E+03  0.50400001928E-02 0. -1.
    10030    2    1    2    0    0  0.00000000000E+00  0.00000000000E+00  0.63396427719E+03  0.15367275836E+04  0.13998646226E+04 0.  0.
        3    1    3    3  502    0  0.93727288374E+02 -0.29965320889E+03 -0.36974074741E+03  0.48506193488E+03  0.10100000352E+00 0. -1.
       -3    1    3    3    0  502 -0.93727288374E+02  0.29965320889E+03  0.10037050246E+04  0.10516656488E+04  0.10100000352E+00 0.  1.
</event>
<event>
 5   0  0.4243281E-05  0.1399467E+04  0.7818609E-02  0.8954204E-01
        2   -1    0    0  501    0  0.00000000000E+00  0.00000000000E+00  0.98450531808E+03  0.98450531809E+03  0.25500000920E-02 0.  1.
       -2   -1    0    0    0  501  0.00000000000E+00  0.00000000000E+00 -0.49733310959E+03  0.49733310959E+03  0.25500000920E-02 0. -1.
    10030    2    1    2    0    0  0.00000000000E+00  0.00000000000E+00  0.48717220850E+03  0.14818384277E+04  0.13994671718E+04 0.  0.
        2    1    3    3  502    0 -0.21636689984E+03  0.16051807873E+03 -0.44021583329E+03  0.51611110125E+03  0.25500000920E-02 0. -1.
       -2    1    3    3    0  502  0.21636689984E+03 -0.16051807873E+03  0.92738804179E+03  0.96572732643E+03  0.25500000920E-02 0.  1.
</event>
<event>
 5   0  0.4527503E-05  0.1400127E+04  0.7818609E-02  0.8953727E-01
        2   -1    0    0  501    0  0.00000000000E+00  0.00000000000E+00  0.60137418481E+03  0.60137418482E+03  0.25500000920E-02 0.  1.
       -2   -1    0    0    0  501  0.00000000000E+00  0.00000000000E+00 -0.81494834165E+03  0.81494834165E+03  0.25500000920E-02 0. -1.
    10030    2    1    2    0    0  0.00000000000E+00  0.00000000000E+00 -0.21357415683E+03  0.14163225265E+04  0.14001269866E+04 0.  0.
        4    1    3    3  502    0 -0.14610691654E+03  0.65960441019E+03  0.78807447740E+02  0.68017456268E+03  0.12699999809E+01 0.  1.
       -4    1    3    3    0  502  0.14610691654E+03 -0.65960441019E+03 -0.29238160457E+03  0.73614796379E+03  0.12699999809E+01 0. -1.
</event>
<event>
 5   0  0.4441253E-05  0.1399880E+04  0.7818609E-02  0.8953905E-01
        2   -1    0    0  501    0  0.00000000000E+00  0.00000000000E+00  0.88093078447E+03  0.88093078448E+03  0.25500000920E-02 0.  1.
       -2   -1    0    0    0  501  0.00000000000E+00  0.00000000000E+00 -0.55613478212E+03  0.55613478213E+03  0.25500000920E-02 0. -1.
    10030    2    1    2    0    0  0.00000000000E+00  0.00000000000E+00  0.32479600235E+03  0.14370655666E+04  0.13998803519E+04 0.  0.
        3    1    3    3  502    0 -0.51292271228E+03 -0.55632819495E+02 -0.32316909796E+03  0.60878813676E+03  0.10100000352E+00 0. -1.
       -3    1    3    3    0  502  0.51292271228E+03  0.55632819495E+02  0.64796510031E+03  0.82827742985E+03  0.10100000352E+00 0.  1.
</event>
<event>
 5   0  0.2467303E-05  0.1397252E+04  0.7818609E-02  0.8955810E-01
       -1   -1    0    0    0  501  0.00000000000E+00  0.00000000000E+00  0.49987589321E+03  0.49987589323E+03  0.50400001928E-02 0.  1.
        1   -1    0    0  501    0  0.00000000000E+00  0.00000000000E+00 -0.97639931434E+03  0.97639931435E+03  0.50400001928E-02 0. -1.
    10030    2    1    2    0    0  0.00000000000E+00  0.00000000000E+00 -0.47652342113E+03  0.14762752076E+04  0.13972522742E+04 0.  0.
        3    1    3    3  502    0 -0.52556879177E+03 -0.48404881058E+02  0.24535117790E+03  0.58203333074E+03  0.10100000352E+00 0.  1.
       -3    1    3    3    0  502  0.52556879177E+03  0.48404881058E+02 -0.72187459903E+03  0.89424187685E+03  0.10100000352E+00 0. -1.
</event>
<event>
 5   0  0.4243281E-05  0.1400418E+04  0.7818609E-02  0.8953516E-01
        2   -1    0    0  501    0  0.00000000000E+00  0.00000000000E+00  0.10278250665E+04  0.10278250665E+04  0.25500000920E-02 0.  1.
       -2   -1    0    0    0  501  0.00000000000E+00  0.00000000000E+00 -0.47701985106E+03  0.47701985107E+03  0.25500000920E-02 0. -1.
    10030    2    1    2    0    0  0.00000000000E+00  0.00000000000E+00  0.55080521547E+03  0.15048449176E+04  0.14004184520E+04 0.  0.
        2    1    3    3  502    0  0.28401446470E+03 -0.63035116888E+03  0.15629437232E+03  0.70882631377E+03  0.25500000920E-02 0.  1.
       -2    1    3    3    0  502 -0.28401446470E+03  0.63035116888E+03  0.39451084315E+03  0.79601860383E+03  0.25500000920E-02 0. -1.
</event>
<event>
 5   0  0.1661000E-05  0.1399968E+04  0.7818609E-02  0.8953842E-01
       -3   -1    0    0    0  501  0.00000000000E+00  0.00000000000E+00  0.50265578090E+03  0.50265579105E+03  0.10100000352E+00 0.  1.
        3   -1    0    0  501    0  0.00000000000E+00  0.00000000000E+00 -0.97477704661E+03  0.97477705184E+03  0.10100000352E+00 0. -1.
    10030    2    1    2    0    0  0.00000000000E+00  0.00000000000E+00 -0.47212126571E+03  0.14774328429E+04  0.13999676124E+04 0.  0.
        2    1    3    3  502    0  0.67635504389E+02 -0.22201961150E+03 -0.93298847152E+03  0.96142329769E+03  0.25500000920E-02 0. -1.
       -2    1    3    3    0  502 -0.67635504389E+02  0.22201961150E+03  0.46086720581E+03  0.51600954521E+03  0.25500000920E-02 0.  1.
</event>
<event>
 5   0  0.2428507E-05  0.1399371E+04  0.7818609E-02  0.8954274E-01
        1   -1    0    0  501    0  0.00000000000E+00  0.00000000000E+00  0.88162582370E+03  0.88162582371E+03  0.50400001928E-02 0. -1.
       -1   -1    0    0    0  501  0.00000000000E+00  0.00000000000E+00 -0.55529231887E+03  0.55529231890E+03  0.50400001928E-02 0.  1.
    10030    2    1    2    0    0  0.00000000000E+00  0.00000000000E+00  0.32633350482E+03  0.14369181426E+04  0.13993713561E+04 0.  0.
        4    1    3    3  502    0  0.88145224259E+02  0.67161185366E+03  0.34315937075E+03  0.75933657173E+03  0.12699999809E+01 0. -1.
       -4    1    3    3    0  502 -0.88145224259E+02 -0.67161185366E+03 -0.16825865926E+02  0.67758157088E+03  0.12699999809E+01 0.  1.
</event>
<event>
 5   0  0.4243281E-05  0.1399364E+04  0.7818609E-02  0.8954279E-01
       -2   -1    0    0    0  501  0.00000000000E+00  0.00000000000E+00  0.40037692851E+03  0.40037692852E+03  0.25500000920E-02 0.  1.
        2   -1    0    0  501    0  0.00000000000E+00  0.00000000000E+00 -0.12227345236E+04  0.12227345236E+04  0.25500000920E-02 0. -1.
    10030    2    1    2    0    0  0.00000000000E+00  0.00000000000E+00 -0.82235759508E+03  0.16231114521E+04  0.13993637025E+04 0.  0.
        2    1    3    3  502    0  0.66132156712E+03 -0.96043190605E+02 -0.17070261044E+03  0.68971725425E+03  0.25500000920E-02 0. -1.
       -2    1    3    3    0  502 -0.66132156712E+03  0.96043190605E+02 -0.65165498465E+03  0.93339419787E+03  0.25500000920E-02 0.  1.
</event>
<event>
 5   0  0.2316714E-05  0.1400106E+04  0.7818609E-02  0.8953742E-01
       -1   -1    0    0    0  501  0.00000000000E+00  0.00000000000E+00  0.69143731981E+03  0.69143731982E+03  0.50400001928E-02 0. -1.
        1   -1    0    0  501    0  0.00000000000E+00  0.00000000000E+00 -0.70877567792E+03  0.70877567794E+03  0.50400001928E-02 0.  1.
    10030    2    1    2    0    0  0.00000000000E+00  0.00000000000E+00 -0.17338358119E+02  0.14002129978E+04  0.14001056462E+04 0.  0.
        5    1    3    3  502    0  0.35197711384E+03 -0.66353817613E+02 -0.61018112803E+03  0.70755481539E+03  0.46999998093E+01 0.  1.
       -5    1    3    3    0  502 -0.35197711384E+03  0.66353817613E+02  0.59284276991E+03  0.69265818238E+03  0.46999998093E+01 0. -1.
</event>
<event>
 5   0  0.2316714E-05  0.1399374E+04  0.7818609E-02  0.8954272E-01
        1   -1    0    0  501    0  0.00000000000E+00  0.00000000000E+00  0.58953557579E+03  0.58953557582E+03  0.50400001928E-02 0.  1.
       -1   -1    0    0    0  501  0.00000000000E+00  0.00000000000E+00 -0.83042002466E+03  0.83042002468E+03  0.50400001928E-02 0. -1.
    10030    2    1    2    0    0  0.00000000000E+00  0.00000000000E+00 -0.24088444887E+03  0.14199556005E+04  0.13993743565E+04 0.  0.
        5    1    3    3  502    0  0.26767522956E+03 -0.51062334422E+03  0.28181452288E+03  0.64173806455E+03  0.46999998093E+01 0.  1.
       -5    1    3    3    0  502 -0.26767522956E+03  0.51062334422E+03 -0.52269897175E+03  0.77821753595E+03  0.46999998093E+01 0. -1.
</event>
<event>
 5   0  0.2467303E-05  0.1399946E+04  0.7818609E-02  0.8953858E-01
        1   -1    0    0  501    0  0.00000000000E+00  0.00000000000E+00  0.53187086030E+03  0.53187086032E+03  0.50400001928E-02 0. -1.
       -1   -1    0    0    0  501  0.00000000000E+00  0.00000000000E+00 -0.92120506101E+03  0.92120506103E+03  0.50400001928E-02 0.  1.
    10030    2    1    2    0    0  0.00000000000E+00  0.00000000000E+00 -0.38933420071E+03  0.14530759213E+04  0.13999458966E+04 0.  0.
        3    1    3    3  502    0  0.84287081994E+02 -0.18500493026E+03 -0.88988618459E+03  0.91281354511E+03  0.10100000352E+00 0.  1.
       -3    1    3    3    0  502 -0.84287081994E+02  0.18500493026E+03  0.50055198388E+03  0.54026237624E+03  0.10100000352E+00 0. -1.
</event>
<event>
 5   0  0.2363419E-05  0.1398966E+04  0.7818609E-02  0.8954568E-01
        1   -1    0    0  501    0  0.00000000000E+00  0.00000000000E+00  0.68360926203E+03  0.68360926204E+03  0.50400001928E-02 0.  1.
       -1   -1    0    0    0  501  0.00000000000E+00  0.00000000000E+00 -0.71572499051E+03  0.71572499053E+03  0.50400001928E-02 0. -1.
    10030    2    1    2    0    0  0.00000000000E+00  0.00000000000E+00 -0.32115728486E+02  0.13993342526E+04  0.13989656645E+04 0.  0.
        2    1    3    3  502    0  0.30279147112E+03  0.23317321656E+03 -0.60206528070E+03  0.71311641836E+03  0.25500000920E-02 0. -1.
       -2    1    3    3    0  502 -0.30279147112E+03 -0.23317321656E+03  0.56994955222E+03  0.68621783421E+03  0.25500000920E-02 0.  1.
</event>
<event>
 5   0  0.4621450E-05  0.1400138E+04  0.7818609E-02  0.8953719E-01
        2   -1    0    0  501    0  0.00000000000E+00  0.00000000000E+00  0.15626107483E+04  0.15626107483E+04  0.25500000920E-02 0. -1.
       -2   -1    0    0    0  501  0.00000000000E+00  0.00000000000E+00 -0.31363949235E+03  0.31363949236E+03  0.25500000920E-02 0.  1.
    10030    2    1    2    0    0  0.00000000000E+00  0.00000000000E+00  0.12489712560E+04  0.18762502407E+04  0.14001377673E+04 0.  0.
        5    1    3    3  502    0 -0.99088817994E+02  0.37844606091E+03  0.14024452650E+04  0.14559927288E+04  0.46999998093E+01 0. -1.
       -5    1    3    3    0  502  0.99088817994E+02 -0.37844606091E+03 -0.15347400905E+03  0.42025751191E+03  0.46999998093E+01 0.  1.
</event>
<event>
 5   0  0.2428507E-05  0.1400523E+04  0.7818609E-02  0.8953440E-01
        1   -1    0    0  501    0  0.00000000000E+00  0.00000000000E+00  0.47669481042E+03  0.47669481045E+03  0.50400001928E-02 0.  1.
       -1   -1    0    0    0  501  0.00000000000E+00  0.00000000000E+00 -0.10286795207E+04  0.10286795207E+04  0.50400001928E-02 0. -1.
    10030    2    1    2    0    0  0.00000000000E+00  0.00000000000E+00 -0.55198471030E+03  0.15053743312E+04  0.14005230296E+04 0.  0.
        4    1    3    3  502    0 -0.10725888193E+03 -0.37638357569E+03 -0.90015122258E+03  0.98155127233E+03  0.12699999809E+01 0. -1.
       -4    1    3    3    0  502  0.10725888193E+03  0.37638357569E+03  0.34816651228E+03  0.52382305885E+03  0.12699999809E+01 0.  1.
</event>
<event>
 5   0  0.2316714E-05  0.1399589E+04  0.7818609E-02  0.8954116E-01
        1   -1    0    0  501    0  0.00000000000E+00  0.00000000000E+00  0.71698931085E+03  0.71698931087E+03  0.50400001928E-02 0. -1.
       -1   -1    0    0    0  501  0.00000000000E+00  0.00000000000E+00 -0.68301157311E+03  0.68301157312E+03  0.50400001928E-02 0.  1.
    10030    2    1    2    0    0  0.00000000000E+00  0.00000000000E+00  0.33977737747E+02  0.14000008840E+04  0.13995885069E+04 0.  0.
        5    1    3    3  502    0  0.51290225554E+03 -0.30868479005E+02 -0.45819669760E+03  0.68846778459E+03  0.46999998093E+01 0.  1.
       -5    1    3    3    0  502 -0.51290225554E+03  0.30868479005E+02  0.49217443535E+03  0.71153309940E+03  0.46999998093E+01 0. -1.
</event>
<event>
 5   0  0.4243281E-05  0.1399584E+04  0.7818609E-02  0.8954119E-01
       -2   -1    0    0    0  501  0.00000000000E+00  0.00000000000E+00  0.57949452476E+03  0.57949452477E+03  0.25500000920E-02 0. -1.
        2   -1    0    0  501    0  0.00000000000E+00  0.00000000000E+00 -0.84506260637E+03  0.84506260637E+03  0.25500000920E-02 0.  1.
    10030    2    1    2    0    0  0.00000000000E+00  0.00000000000E+00 -0.26556808161E+03  0.14245571311E+04  0.13995844433E+04 0.  0.
        2    1    3    3  502    0  0.59493581472E+03  0.32971214463E+03 -0.30018882422E+03  0.74348641692E+03  0.25500000920E-02 0.  1.
       -2    1    3    3    0  502 -0.59493581472E+03 -0.32971214463E+03  0.34620742609E+02  0.68107071422E+03  0.25500000920E-02 0. -1.
</event>
<event>
 5   0  0.2363419E-05  0.1400810E+04  0.7818609E-02  0.8953232E-01
        1   -1    0    0  501    0  0.00000000000E+00  0.00000000000E+00  0.49791976564E+03  0.49791976567E+03  0.50400001928E-02 0. -1.
       -1   -1    0    0    0  501  0.00000000000E+00  0.00000000000E+00 -0.98523394417E+03  0.98523394418E+03  0.50400001928E-02 0.  1.
    10030    2    1    2    0    0  0.00000000000E+00  0.00000000000E+00 -0.48731417852E+03  0.14831537098E+04  0.14008104149E+04 0.  0.
        2    1    3    3  502    0 -0.24026747274E+03  0.60728870909E+03 -0.51159273492E+03  0.82961145187E+03  0.25500000920E-02 0.  1.
       -2    1    3    3    0  502  0.24026747274E+03 -0.60728870909E+03  0.24278556400E+02  0.65354225797E+03  0.25500000920E-02 0. -1.
</event>
<event>
 5   0  0.4621450E-05  0.1401315E+04  0.7818609E-02  0.8952867E-01
       -2   -1    0    0    0  501  0.00000000000E+00  0.00000000000E+00  0.50076367256E+03  0.50076367257E+03  0.25500000920E-02 0.  1.
        2   -1    0    0  501    0  0.00000000000E+00  0.00000000000E+00 -0.98034506008E+03  0.98034506009E+03  0.25500000920E-02 0. -1.
    10030    2    1    2    0    0  0.00000000000E+00  0.00000000000E+00 -0.47958138752E+03  0.14811087327E+04  0.14013153716E+04 0.  0.
        5    1    3    3  502    0 -0.21475359702E+03  0.27284897435E+01  0.46509718886E+03  0.51231244097E+03  0.46999998093E+01 0.  1.
       -5    1    3    3    0  502  0.21475359702E+03 -0.27284897435E+01 -0.94467857639E+03  0.96879629168E+03  0.46999998093E+01 0. -1.
</event>
<event>
 5   0  0.2427569E-05  0.1402040E+04  0.7818609E-02  0.8952343E-01
        1   -1    0    0  501    0  0.00000000000E+00  0.00000000000E+00  0.78773349758E+03  0.78773349759E+03  0.50400001928E-02 0.  1.
       -1   -1    0    0    0  501  0.00000000000E+00  0.00000000000E+00 -0.62385175185E+03  0.62385175187E+03  0.50400001928E-02 0. -1.
    10030    2    1    2    0    0  0.00000000000E+00  0.00000000000E+00  0.16388174572E+03  0.14115852495E+04  0.14020398318E+04 0.  0.
        1    1    3    3  502    0 -0.15287215711E+03  0.49620248116E+03 -0.39226700720E+03  0.65073819905E+03  0.50400001928E-02 0. -1.
       -1    1    3    3    0  502  0.15287215711E+03 -0.49620248116E+03  0.55614875292E+03  0.76084705042E+03  0.50400001928E-02 0.  1.
</event>
<event>
 5   0  0.4441253E-05  0.1400401E+04  0.7818609E-02  0.8953528E-01
       -2   -1    0    0    0  501  0.00000000000E+00  0.00000000000E+00  0.32805364419E+03  0.32805364420E+03  0.25500000920E-02 0. -1.
        2   -1    0    0  501    0  0.00000000000E+00  0.00000000000E+00 -0.14945143224E+04  0.14945143224E+04  0.25500000920E-02 0.  1.
    10030    2    1    2    0    0  0.00000000000E+00  0.00000000000E+00 -0.11664606782E+04  0.18225679666E+04  0.14004011850E+04 0.  0.
        3    1    3    3  502    0 -0.29881249034E+03  0.13947506977E+03  0.22066690227E+03  0.39678217126E+03  0.10100000352E+00 0. -1.
       -3    1    3    3    0  502  0.29881249034E+03 -0.13947506977E+03 -0.13871275805E+04  0.14257857953E+04  0.10100000352E+00 0.  1.
</event>
<event>
 5   0  0.4621450E-05  0.1400452E+04  0.7818609E-02  0.8953491E-01
       -2   -1    0    0    0  501  0.00000000000E+00  0.00000000000E+00  0.31504755189E+03  0.31504755190E+03  0.25500000920E-02 0.  1.
        2   -1    0    0  501    0  0.00000000000E+00  0.00000000000E+00 -0.15563252731E+04  0.15563252731E+04  0.25500000920E-02 0. -1.
    10030    2    1    2    0    0  0.00000000000E+00  0.00000000000E+00 -0.12412777212E+04  0.18713728250E+04  0.14004520231E+04 0.  0.
        5    1    3    3  502    0 -0.33146270466E+03  0.29021554270E+03 -0.13478925343E+04  0.14180722689E+04  0.46999998093E+01 0. -1.
       -5    1    3    3    0  502  0.33146270466E+03 -0.29021554270E+03  0.10661481308E+03  0.45330055611E+03  0.46999998093E+01 0.  1.
</event>
<event>
 5   0  0.2427569E-05  0.1400263E+04  0.7818609E-02  0.8953628E-01
       -1   -1    0    0    0  501  0.00000000000E+00  0.00000000000E+00  0.97894066312E+03  0.97894066314E+03  0.50400001928E-02 0. -1.
        1   -1    0    0  501    0  0.00000000000E+00  0.00000000000E+00 -0.50072894033E+03  0.50072894035E+03  0.50400001928E-02 0.  1.
    10030    2    1    2    0    0  0.00000000000E+00  0.00000000000E+00  0.47821172280E+03  0.14796696035E+04  0.14002627195E+04 0.  0.
        1    1    3    3  502    0  0.22028800155E+03  0.64795311981E+03  0.39517664255E+03  0.79027503310E+03  0.50400001928E-02 0. -1.
       -1    1    3    3    0  502 -0.22028800155E+03 -0.64795311981E+03  0.83035080244E+02  0.68939457038E+03  0.50400001928E-02 0.  1.
</event>
<event>
 5   0  0.4243281E-05  0.1400553E+04  0.7818609E-02  0.8953418E-01
        2   -1    0    0  501    0  0.00000000000E+00  0.00000000000E+00  0.18372697001E+04  0.18372697001E+04  0.25500000920E-02 0.  1.
       -2   -1    0    0    0  501  0.00000000000E+00  0.00000000000E+00 -0.26691080212E+03  0.26691080213E+03  0.25500000920E-02 0. -1.
    10030    2    1    2    0    0  0.00000000000E+00  0.00000000000E+00  0.15703588980E+04  0.21041805023E+04  0.14005529328E+04 0.  0.
        2    1    3    3  502    0  0.22075959702E+03 -0.50007960610E+03  0.14427620208E+04  0.15428469337E+04  0.25500000920E-02 0.  1.
       -2    1    3    3    0  502 -0.22075959702E+03  0.50007960610E+03  0.12759687719E+03  0.56133356855E+03  0.25500000920E-02 0. -1.
</event>
<event>
 5   0  0.4621450E-05  0.1398199E+04  0.7818609E-02  0.8955123E-01
        2   -1    0    0  501    0  0.00000000000E+00  0.00000000000E+00  0.94546749483E+03  0.94546749483E+03  0.25500000920E-02 0. -1.
       -2   -1    0    0    0  501  0.00000000000E+00  0.00000000000E+00 -0.51692952227E+03  0.51692952227E+03  0.25500000920E-02 0.  1.
    10030    2    1    2    0    0  0.00000000000E+00  0.00000000000E+00  0.42853797256E+03  0.14623970171E+04  0.13981989278E+04 0.  0.
        5    1    3    3  502    0 -0.56725076795E+03  0.17479852630E+03 -0.17199801801E+03  0.61800757822E+03  0.46999998093E+01 0.  1.
       -5    1    3    3    0  502  0.56725076795E+03 -0.17479852630E+03  0.60053599057E+03  0.84438943889E+03  0.46999998093E+01 0. -1.
</event>
<event>
 5   0  0.2363419E-05  0.1400460E+04  0.7818609E-02  0.8953485E-01
        1   -1    0    0  501    0  0.00000000000E+00  0.00000000000E+00  0.75189773005E+03  0.75189773007E+03  0.50400001928E-02 0.  1.
       -1   -1    0    0    0  501  0.00000000000E+00  0.00000000000E+00 -0.65211293326E+03  0.65211293328E+03  0.50400001928E-02 0. -1.
    10030    2    1    2    0    0  0.00000000000E+00  0.00000000000E+00  0.99784796795E+02  0.14040106633E+04  0.14004602590E+04 0.  0.
        2    1    3    3  502    0 -0.39871128966E+00  0.42717530100E+03 -0.50635052175E+03  0.66247245047E+03  0.25500000920E-02 0. -1.
       -2    1    3    3    0  502  0.39871128966E+00 -0.42717530100E+03  0.60613531855E+03  0.74153821287E+03  0.25500000920E-02 0.  1.
</event>
<event>
 5   0  0.4621450E-05  0.1400342E+04  0.7818609E-02  0.8953571E-01
        2   -1    0    0  501    0  0.00000000000E+00  0.00000000000E+00  0.10687172082E+04  0.10687172082E+04  0.25500000920E-02 0.  1.
       -2   -1    0    0    0  501  0.00000000000E+00  0.00000000000E+00 -0.45871761128E+03  0.45871761128E+03  0.25500000920E-02 0. -1.
    10030    2    1    2    0    0  0.00000000000E+00  0.00000000000E+00  0.60999959690E+03  0.15274348195E+04  0.14003419652E+04 0.  0.
        5    1    3    3  502    0  0.38090127293E+03  0.13625384469E+03 -0.31832491873E+03  0.51478513362E+03  0.46999998093E+01 0. -1.
       -5    1    3    3    0  502 -0.38090127293E+03 -0.13625384469E+03  0.92832451563E+03  0.10126496858E+04  0.46999998093E+01 0.  1.
</event>
<event>
 5   0  0.2428507E-05  0.1399183E+04  0.7818609E-02  0.8954410E-01
       -1   -1    0    0    0  501  0.00000000000E+00  0.00000000000E+00  0.10238725511E+04  0.10238725512E+04  0.50400001928E-02 0.  1.
        1   -1    0    0  501    0  0.00000000000E+00  0.00000000000E+00 -0.47801712389E+03  0.47801712391E+03  0.50400001928E-02 0. -1.
    10030    2    1    2    0    0  0.00000000000E+00  0.00000000000E+00  0.54585542725E+03  0.15018896751E+04  0.13991834935E+04 0.  0.
        4    1    3    3  502    0  0.65386006212E+03 -0.13088805973E+03  0.45826360689E+02  0.66840581480E+03  0.12699999809E+01 0. -1.
       -4    1    3    3    0  502 -0.65386006212E+03  0.13088805973E+03  0.50002906656E+03  0.83348386027E+03  0.12699999809E+01 0.  1.
</event>
<event>
 5   0  0.2316714E-05  0.1400326E+04  0.7818609E-02  0.8953583E-01
        1   -1    0    0  501    0  0.00000000000E+00  0.00000000000E+00  0.52981504646E+03  0.52981504648E+03  0.50400001928E-02 0. -1.
       -1   -1    0    0    0  501  0.00000000000E+00  0.00000000000E+00 -0.92528170169E+03  0.92528170170E+03  0.50400001928E-02 0.  1.
    10030    2    1    2    0    0  0.00000000000E+00  0.00000000000E+00 -0.39546665523E+03  0.14550967482E+04  0.14003259161E+04 0.  0.
        5    1    3    3  502    0 -0.57519530263E+03 -0.11525844173E+03 -0.59487561449E+03  0.83548383064E+03  0.46999998093E+01 0.  1.
       -5    1    3    3    0  502  0.57519530263E+03  0.11525844173E+03  0.19940895926E+03  0.61961291754E+03  0.46999998093E+01 0. -1.
</event>
<event>
 5   0  0.2316714E-05  0.1401841E+04  0.7818609E-02  0.8952487E-01
       -1   -1    0    0    0  501  0.00000000000E+00  0.00000000000E+00  0.53918716370E+03  0.53918716373E+03  0.50400001928E-02 0. -1.
        1   -1    0    0  501    0  0.00000000000E+00  0.00000000000E+00 -0.91116635030E+03  0.91116635031E+03  0.50400001928E-02 0.  1.
    10030    2    1    2    0    0  0.00000000000E+00  0.00000000000E+00 -0.37197918659E+03  0.14503535140E+04  0.14018405046E+04 0.  0.
        5    1    3    3  502    0  0.51583245288E+03 -0.85144661833E+02  0.29700040568E+03  0.60130197393E+03  0.46999998093E+01 0.  1.
       -5    1    3    3    0  502 -0.51583245288E+03  0.85144661833E+02 -0.66897959227E+03  0.84905154011E+03  0.46999998093E+01 0. -1.
</event>
<event>
 5   0  0.1661000E-05  0.1400652E+04  0.7818609E-02  0.8953346E-01
        3   -1    0    0  501    0  0.00000000000E+00  0.00000000000E+00  0.90643758512E+03  0.90643759075E+03  0.10100000352E+00 0. -1.
       -3   -1    0    0    0  501  0.00000000000E+00  0.00000000000E+00 -0.54108172582E+03  0.54108173525E+03  0.10100000352E+00 0.  1.
    10030    2    1    2    0    0  0.00000000000E+00  0.00000000000E+00  0.36535585930E+03  0.14475193260E+04  0.14006524534E+04 0.  0.
        2    1    3    3  502    0 -0.36403440930E+03  0.16916740176E+03 -0.41038643084E+03  0.57406940660E+03  0.25500000920E-02 0.  1.
       -2    1    3    3    0  502  0.36403440930E+03 -0.16916740176E+03  0.77574229014E+03  0.87344991939E+03  0.25500000920E-02 0. -1.
</event>
<event>
 5   0  0.4441253E-05  0.1400113E+04  0.7818609E-02  0.8953737E-01
        2   -1    0    0  501    0  0.00000000000E+00  0.00000000000E+00  0.16033049777E+04  0.16033049777E+04  0.25500000920E-02 0. -1.
       -2   -1    0    0    0  501  0.00000000000E+00  0.00000000000E+00 -0.30566818800E+03  0.30566818801E+03  0.25500000920E-02 0.  1.
    10030    2    1    2    0    0  0.00000000000E+00  0.00000000000E+00  0.12976367897E+04  0.19089731657E+04  0.14001133202E+04 0.  0.
        3    1    3    3  502    0  0.24105658393E+03  0.50344191289E+02  0.15423010271E+04  0.15618371498E+04  0.10100000352E+00 0. -1.
       -3    1    3    3    0  502 -0.24105658393E+03 -0.50344191289E+02 -0.24466423739E+03  0.34713601587E+03  0.10100000352E+00 0.  1.
</event>
<event>
 5   0  0.2316714E-05  0.1393599E+04  0.7818609E-02  0.8958465E-01
       -1   -1    0    0    0  501  0.00000000000E+00  0.00000000000E+00  0.58805349382E+03  0.58805349384E+03  0.50400001928E-02 0.  1.
        1   -1    0    0  501    0  0.00000000000E+00  0.00000000000E+00 -0.82565580161E+03  0.82565580162E+03  0.50400001928E-02 0. -1.
    10030    2    1    2    0    0  0.00000000000E+00  0.00000000000E+00 -0.23760230779E+03  0.14137092955E+04  0.13935993382E+04 0.  0.
        5    1    3    3  502    0 -0.32001905895E+03  0.53656434704E+03  0.19418664558E+03  0.65425074698E+03  0.46999998093E+01 0.  1.
       -5    1    3    3    0  502  0.32001905895E+03 -0.53656434704E+03 -0.43178895337E+03  0.75945854848E+03  0.46999998093E+01 0. -1.
</event>
<event>
 5   0  0.2316714E-05  0.1400180E+04  0.7818609E-02  0.8953688E-01
       -1   -1    0    0    0  501  0.00000000000E+00  0.00000000000E+00  0.18851211371E+03  0.18851211378E+03  0.50400001928E-02 0.  1.
        1   -1    0    0  501    0  0.00000000000E+00  0.00000000000E+00 -0.25999709493E+04  0.25999709493E+04  0.50400001928E-02 0. -1.
    10030    2    1    2    0    0  0.00000000000E+00  0.00000000000E+00 -0.24114588356E+04  0.27884830631E+04  0.14001800161E+04 0.  0.
        5    1    3    3  502    0  0.37061145924E+03 -0.54813046497E+03 -0.16611911296E+04  0.17881213380E+04  0.46999998093E+01 0. -1.
       -5    1    3    3    0  502 -0.37061145924E+03  0.54813046497E+03 -0.75026770592E+03  0.10003617250E+04  0.46999998093E+01 0.  1.
</event>
<event>
 5   0  0.4441253E-05  0.1398940E+04  0.7818609E-02  0.8954586E-01
        2   -1    0    0  501    0  0.00000000000E+00  0.00000000000E+00  0.98296153178E+03  0.98296153178E+03  0.25500000920E-02 0. -1.
       -2   -1    0    0    0  501  0.00000000000E+00  0.00000000000E+00 -0.49773897808E+03  0.49773897809E+03  0.25500000920E-02 0.  1.
    10030    2    1    2    0    0  0.00000000000E+00  0.00000000000E+00  0.48522255370E+03  0.14807005099E+04  0.13989399820E+04 0.  0.
        3    1    3    3  502    0  0.12886502255E+03  0.32465747344E+03 -0.39881803540E+03  0.53015517036E+03  0.10100000352E+00 0.  1.
       -3    1    3    3    0  502 -0.12886502255E+03 -0.32465747344E+03  0.88404058909E+03  0.95054533951E+03  0.10100000352E+00 0. -1.
</event>
<event>
 5   0  0.4460282E-05  0.1401835E+04  0.7818609E-02  0.8952491E-01
        2   -1    0    0  501    0  0.00000000000E+00  0.00000000000E+00  0.72193478267E+03  0.72193478267E+03  0.25500000920E-02 0. -1.
       -2   -1    0    0    0  501  0.00000000000E+00  0.00000000000E+00 -0.68051191659E+03  0.68051191659E+03  0.25500000920E-02 0.  1.
    10030    2    1    2    0    0  0.00000000000E+00  0.00000000000E+00  0.41422866080E+02  0.14024466993E+04  0.14018348299E+04 0.  0.
        1    1    3    3  502    0  0.41276560489E+03 -0.41829325671E+03 -0.36147694551E+03  0.68993497908E+03  0.50400001928E-02 0. -1.
       -1    1    3    3    0  502 -0.41276560489E+03  0.41829325671E+03  0.40289981159E+03  0.71251172018E+03  0.50400001928E-02 0.  1.
</event>
<event>
 5   0  0.4527503E-05  0.1399738E+04  0.7818609E-02  0.8954008E-01
        2   -1    0    0  501    0  0.00000000000E+00  0.00000000000E+00  0.15494770387E+04  0.15494770387E+04  0.25500000920E-02 0. -1.
       -2   -1    0    0    0  501  0.00000000000E+00  0.00000000000E+00 -0.31611734626E+03  0.31611734627E+03  0.25500000920E-02 0.  1.
    10030    2    1    2    0    0  0.00000000000E+00  0.00000000000E+00  0.12333596924E+04  0.18655943850E+04  0.13997379320E+04 0.  0.
        4    1    3    3  502    0 -0.49329791939E+03 -0.13968586280E+03 -0.18278352854E+02  0.51302113858E+03  0.12699999809E+01 0.  1.
       -4    1    3    3    0  502  0.49329791939E+03  0.13968586280E+03  0.12516380453E+04  0.13525732464E+04  0.12699999809E+01 0. -1.
</event>
<event>
 5   0  0.2363419E-05  0.1398952E+04  0.7818609E-02  0.8954578E-01
        1   -1    0    0  501    0  0.00000000000E+00  0.00000000000E+00  0.81912658895E+03  0.81912658897E+03  0.50400001928E-02 0. -1.
       -1   -1    0    0    0  501  0.00000000000E+00  0.00000000000E+00 -0.59730273327E+03  0.59730273329E+03  0.50400001928E-02 0.  1.
    10030    2    1    2    0    0  0.00000000000E+00  0.00000000000E+00  0.22182385568E+03  0.14164293223E+04  0.13989518226E+04 0.  0.
        2    1    3    3  502    0  0.27829010873E+03  0.15989192644E+03  0.74017119798E+03  0.80676156024E+03  0.25500000920E-02 0. -1.
       -2    1    3    3    0  502 -0.27829010873E+03 -0.15989192644E+03 -0.51834734230E+03  0.60966776201E+03  0.25500000920E-02 0.  1.
</event>
<event>
 5   0  0.4621450E-05  0.1400078E+04  0.7818609E-02  0.8953762E-01
       -2   -1    0    0    0  501  0.00000000000E+00  0.00000000000E+00  0.96251759457E+03  0.96251759457E+03  0.25500000920E-02 0. -1.
        2   -1    0    0  501    0  0.00000000000E+00  0.00000000000E+00 -0.50913868180E+03  0.50913868181E+03  0.25500000920E-02 0.  1.
    10030    2    1    2    0    0  0.00000000000E+00  0.00000000000E+00  0.45337891277E+03  0.14716562764E+04  0.14000784825E+04 0.  0.
        5    1    3    3  502    0 -0.25564018179E+03  0.29384227073E+03 -0.38471581790E+03  0.54747012079E+03  0.46999998093E+01 0.  1.
       -5    1    3    3    0  502  0.25564018179E+03 -0.29384227073E+03  0.83809473067E+03  0.92418615559E+03  0.46999998093E+01 0. -1.
</event>
<event>
 5   0  0.2428507E-05  0.1400077E+04  0.7818609E-02  0.8953763E-01
        1   -1    0    0  501    0  0.00000000000E+00  0.00000000000E+00  0.59906167342E+03  0.59906167345E+03  0.50400001928E-02 0. -1.
       -1   -1    0    0    0  501  0.00000000000E+00  0.00000000000E+00 -0.81803624385E+03  0.81803624386E+03  0.50400001928E-02 0.  1.
    10030    2    1    2    0    0  0.00000000000E+00  0.00000000000E+00 -0.21897457042E+03  0.14170979173E+04  0.14000773710E+04 0.  0.
        4    1    3    3  502    0  0.28611388778E+02 -0.30879641385E+03 -0.74471447311E+03  0.80670632583E+03  0.12699999809E+01 0.  1.
       -4    1    3    3    0  502 -0.28611388778E+02  0.30879641385E+03  0.52573990269E+03  0.61039159148E+03  0.12699999809E+01 0. -1.
</event>
<event>
 5   0  0.4460282E-05  0.1400510E+04  0.7818609E-02  0.8953449E-01
        2   -1    0    0  501    0  0.00000000000E+00  0.00000000000E+00  0.19652080163E+04  0.19652080163E+04  0.25500000920E-02 0.  1.
       -2   -1    0    0    0  501  0.00000000000E+00  0.00000000000E+00 -0.24951920896E+03  0.24951920897E+03  0.25500000920E-02 0. -1.
    10030    2    1    2    0    0  0.00000000000E+00  0.00000000000E+00  0.17156888073E+04  0.22147272252E+04  0.14005101209E+04 0.  0.
        1    1    3    3  502    0 -0.29163562026E+03 -0.63142380879E+03  0.98641088831E+03  0.12069605635E+04  0.50400001928E-02 0.  1.
       -1    1    3    3    0  502  0.29163562026E+03  0.63142380879E+03  0.72927791901E+03  0.10077666617E+04  0.50400001928E-02 0. -1.
</event>
<event>
 5   0  0.1661000E-05  0.1399662E+04  0.7818609E-02  0.8954063E-01
        4   -1    0    0  501    0  0.00000000000E+00  0.00000000000E+00  0.16209334844E+04  0.16209339820E+04  0.12699999809E+01 0. -1.
       -4   -1    0    0    0  501  0.00000000000E+00  0.00000000000E+00 -0.30214708075E+03  0.30214974980E+03  0.12699999809E+01 0.  1.
    10030    2    1    2    0    0  0.00000000000E+00  0.00000000000E+00  0.13187864037E+04  0.19230837318E+04  0.13996619095E+04 0.  0.
        2    1    3    3  502    0  0.13811810474E+03  0.59755048460E+03  0.19626335258E+03  0.64394292921E+03  0.25500000920E-02 0.  1.
       -2    1    3    3    0  502 -0.13811810474E+03 -0.59755048460E+03  0.11225230511E+04  0.12791408026E+04  0.25500000920E-02 0. -1.
</event>
<event>
 5   0  0.4243281E-05  0.1400012E+04  0.7818609E-02  0.8953810E-01
       -2   -1    0    0    0  501  0.00000000000E+00  0.00000000000E+00  0.93668930193E+03  0.93668930193E+03  0.25500000920E-02 0.  1.
        2   -1    0    0  501    0  0.00000000000E+00  0.00000000000E+00 -0.52312775822E+03  0.52312775822E+03  0.25500000920E-02 0. -1.
    10030    2    1    2    0    0  0.00000000000E+00  0.00000000000E+00  0.41356154371E+03  0.14598170602E+04  0.14000116781E+04 0.  0.
        2    1    3    3  502    0 -0.23385944569E+03 -0.35311254458E+01  0.89474179926E+03  0.92480570745E+03  0.25500000920E-02 0.  1.
       -2    1    3    3    0  502  0.23385944569E+03  0.35311254458E+01 -0.48118025555E+03  0.53501135270E+03  0.25500000920E-02 0. -1.
</event>
<event>
 5   0  0.2427569E-05  0.1399818E+04  0.7818609E-02  0.8953950E-01
       -1   -1    0    0    0  501  0.00000000000E+00  0.00000000000E+00  0.30934767119E+03  0.30934767123E+03  0.50400001928E-02 0. -1.
        1   -1    0    0  501    0  0.00000000000E+00  0.00000000000E+00 -0.15835661416E+04  0.15835661416E+04  0.50400001928E-02 0.  1.
    10030    2    1    2    0    0  0.00000000000E+00  0.00000000000E+00 -0.12742184704E+04  0.18929138128E+04  0.13998178426E+04 0.  0.
        1    1    3    3  502    0  0.12397613450E+03 -0.35183828515E+03 -0.14379289854E+04  0.14855302177E+04  0.50400001928E-02 0.  1.
       -1    1    3    3    0  502 -0.12397613450E+03  0.35183828515E+03  0.16371051496E+03  0.40738359510E+03  0.50400001928E-02 0. -1.
</event>
<event>
 5   0  0.2428507E-05  0.1399444E+04  0.7818609E-02  0.8954221E-01
        1   -1    0    0  501    0  0.00000000000E+00  0.00000000000E+00  0.48947041096E+03  0.48947041099E+03  0.50400001928E-02 0. -1.
       -1   -1    0    0    0  501  0.00000000000E+00  0.00000000000E+00 -0.10002871910E+04  0.10002871910E+04  0.50400001928E-02 0.  1.
    10030    2    1    2    0    0  0.00000000000E+00  0.00000000000E+00 -0.51081678000E+03  0.14897576020E+04  0.13994441503E+04 0.  0.
        4    1    3    3  502    0  0.32201496815E+03 -0.36980518828E+03  0.27596410636E+03  0.56267869862E+03  0.12699999809E+01 0. -1.
       -4    1    3    3    0  502 -0.32201496815E+03  0.36980518828E+03 -0.78678088635E+03  0.92707890334E+03  0.12699999809E+01 0.  1.
</event>
<event>
 5   0  0.4243281E-05  0.1398600E+04  0.7818609E-02  0.8954833E-01
        2   -1    0    0  501    0  0.00000000000E+00  0.00000000000E+00  0.57686484824E+03  0.57686484824E+03  0.25500000920E-02 0.  1.
       -2   -1    0    0    0  501  0.00000000000E+00  0.00000000000E+00 -0.84772107232E+03  0.84772107232E+03  0.25500000920E-02 0. -1.
    10030    2    1    2    0    0  0.00000000000E+00  0.00000000000E+00 -0.27085622408E+03  0.14245859206E+04  0.13985999968E+04 0.  0.
        2    1    3    3  502    0 -0.55864730161E+03  0.40722406991E+03 -0.24275298234E+03  0.73269861550E+03  0.25500000920E-02 0.  1.
       -2    1    3    3    0  502  0.55864730161E+03 -0.40722406991E+03 -0.28103241740E+02  0.69188730507E+03  0.25500000920E-02 0. -1.
</event>
<event>
 5   0  0.4621450E-05  0.1399806E+04  0.7818609E-02  0.8953959E-01
        2   -1    0    0  501    0  0.00000000000E+00  0.00000000000E+00  0.21706908374E+04  0.21706908374E+04  0.25500000920E-02 0.  1.
       -2   -1    0    0    0  501  0.00000000000E+00  0.00000000000E+00 -0.22567206083E+03  0.22567206084E+03  0.25500000920E-02 0. -1.
    10030    2    1    2    0    0  0.00000000000E+00  0.00000000000E+00  0.19450187766E+04  0.23963628982E+04  0.13998060933E+04 0.  0.
        5    1    3    3  502    0 -0.31258803291E+03 -0.41400322371E+03  0.16821027516E+03  0.54536843898E+03  0.46999998093E+01 0. -1.
       -5    1    3    3    0  502  0.31258803291E+03  0.41400322371E+03  0.17768085014E+04  0.18509944592E+04  0.46999998093E+01 0.  1.
</event>
<event>
 5   0  0.2428507E-05  0.1399953E+04  0.7818609E-02  0.8953853E-01
        1   -1    0    0  501    0  0.00000000000E+00  0.00000000000E+00  0.43870369433E+03  0.43870369436E+03  0.50400001928E-02 0. -1.
       -1   -1    0    0    0  501  0.00000000000E+00  0.00000000000E+00 -0.11168515296E+04  0.11168515296E+04  0.50400001928E-02 0.  1.
    10030    2    1    2    0    0  0.00000000000E+00  0.00000000000E+00 -0.67814783524E+03  0.15555552239E+04  0.13999527022E+04 0.  0.
        4    1    3    3  502    0  0.53577088228E+03  0.25925914068E+03  0.70244471610E+02  0.59933432992E+03  0.12699999809E+01 0.  1.
       -4    1    3    3    0  502 -0.53577088228E+03 -0.25925914068E+03 -0.74839230685E+03  0.95622089403E+03  0.12699999809E+01 0. -1.
</event>
<event>
 5   0  0.2363419E-05  0.1399634E+04  0.7818609E-02  0.8954084E-01
        1   -1    0    0  501    0  0.00000000000E+00  0.00000000000E+00  0.22943161637E+04  0.22943161637E+04  0.50400001928E-02 0.  1.
       -1   -1    0    0    0  501  0.00000000000E+00  0.00000000000E+00 -0.21345961637E+03  0.21345961643E+03  0.50400001928E-02 0. -1.
    10030    2    1    2    0    0  0.00000000000E+00  0.00000000000E+00  0.20808565474E+04  0.25077757802E+04  0.13996340210E+04 0.  0.
        2    1    3    3  502    0 -0.36760853999E+03  0.57534272816E+03  0.76524319644E+03  0.10255498248E+04  0.25500000920E-02 0.  1.
       -2    1    3    3    0  502  0.36760853999E+03 -0.57534272816E+03  0.13156133509E+04  0.14822259553E+04  0.25500000920E-02 0. -1.
</event>
<event>
 5   0  0.4527503E-05  0.1400035E+04  0.7818609E-02  0.8953793E-01
       -2   -1    0    0    0  501  0.00000000000E+00  0.00000000000E+00  0.34751231786E+03  0.34751231787E+03  0.25500000920E-02 0. -1.
        2   -1    0    0  501    0  0.00000000000E+00  0.00000000000E+00 -0.14100930344E+04  0.14100930344E+04  0.25500000920E-02 0.  1.
    10030    2    1    2    0    0  0.00000000000E+00  0.00000000000E+00 -0.10625807165E+04  0.17576053522E+04  0.14000352835E+04 0.  0.
        4    1    3    3  502    0 -0.50584991346E+03  0.33915814947E+03 -0.98021200293E+02  0.61686477765E+03  0.12699999809E+01 0. -1.
       -4    1    3    3    0  502  0.50584991346E+03 -0.33915814947E+03 -0.96455951622E+03  0.11407405746E+04  0.12699999809E+01 0.  1.
</event>
<event>
 5   0  0.2316714E-05  0.1400116E+04  0.7818609E-02  0.8953734E-01
        1   -1    0    0  501    0  0.00000000000E+00  0.00000000000E+00  0.66486162679E+03  0.66486162681E+03  0.50400001928E-02 0. -1.
       -1   -1    0    0    0  501  0.00000000000E+00  0.00000000000E+00 -0.73711777674E+03  0.73711777676E+03  0.50400001928E-02 0.  1.
    10030    2    1    2    0    0  0.00000000000E+00  0.00000000000E+00 -0.72256149953E+02  0.14019794036E+04  0.14001161726E+04 0.  0.
        5    1    3    3  502    0  0.27914359668E+03 -0.26540272768E+03 -0.62145664077E+03  0.73115675596E+03  0.46999998093E+01 0.  1.
       -5    1    3    3    0  502 -0.27914359668E+03  0.26540272768E+03  0.54920049082E+03  0.67082264761E+03  0.46999998093E+01 0. -1.
</event>
<event>
 5   0  0.4527503E-05  0.1400380E+04  0.7818609E-02  0.8953543E-01
       -2   -1    0    0    0  501  0.00000000000E+00  0.00000000000E+00  0.25425129234E+03  0.25425129235E+03  0.25500000920E-02 0.  1.
        2   -1    0    0  501    0  0.00000000000E+00  0.00000000000E+00 -0.19282746758E+04  0.19282746758E+04  0.25500000920E-02 0. -1.
    10030    2    1    2    0    0  0.00000000000E+00  0.00000000000E+00 -0.16740233835E+04  0.21825259682E+04  0.14003804174E+04 0.  0.
        4    1    3    3  502    0  0.58616476469E+03  0.36381709607E+03 -0.65055660086E+03  0.94824971109E+03  0.12699999809E+01 0. -1.
       -4    1    3    3    0  502 -0.58616476469E+03 -0.36381709607E+03 -0.10234667826E+04  0.12342762571E+04  0.12699999809E+01 0.  1.
</event>
<event>
 5   0  0.4527503E-05  0.1400222E+04  0.7818609E-02  0.8953658E-01
       -2   -1    0    0    0  501  0.00000000000E+00  0.00000000000E+00  0.12404316541E+04  0.12404316541E+04  0.25500000920E-02 0. -1.
        2   -1    0    0  501    0  0.00000000000E+00  0.00000000000E+00 -0.39514924305E+03  0.39514924306E+03  0.25500000920E-02 0.  1.
    10030    2    1    2    0    0  0.00000000000E+00  0.00000000000E+00  0.84528241106E+03  0.16355808972E+04  0.14002223098E+04 0.  0.
        4    1    3    3  502    0 -0.14739687129E+03 -0.22927946656E+03  0.11759068214E+04  0.12070846602E+04  0.12699999809E+01 0. -1.
       -4    1    3    3    0  502  0.14739687129E+03  0.22927946656E+03 -0.33062441034E+03  0.42849623693E+03  0.12699999809E+01 0.  1.
</event>
<event>
 5   0  0.4441253E-05  0.1399828E+04  0.7818609E-02  0.8953943E-01
       -2   -1    0    0    0  501  0.00000000000E+00  0.00000000000E+00  0.34896844546E+03  0.34896844547E+03  0.25500000920E-02 0. -1.
        2   -1    0    0  501    0  0.00000000000E+00  0.00000000000E+00 -0.14037929524E+04  0.14037929524E+04  0.25500000920E-02 0.  1.
    10030    2    1    2    0    0  0.00000000000E+00  0.00000000000E+00 -0.10548245069E+04  0.17527613979E+04  0.13998277671E+04 0.  0.
        3    1    3    3  502    0  0.32538497472E+03 -0.48562437243E+03 -0.45428095245E+02  0.58631914083E+03  0.10100000352E+00 0.  1.
       -3    1    3    3    0  502 -0.32538497472E+03  0.48562437243E+03 -0.10093964117E+04  0.11664422570E+04  0.10100000352E+00 0. -1.
</event>
<event>
 5   0  0.2363419E-05  0.1400997E+04  0.7818609E-02  0.8953098E-01
        1   -1    0    0  501    0  0.00000000000E+00  0.00000000000E+00  0.59601366172E+03  0.59601366174E+03  0.50400001928E-02 0. -1.
       -1   -1    0    0    0  501  0.00000000000E+00  0.00000000000E+00 -0.82329962937E+03  0.82329962939E+03  0.50400001928E-02 0.  1.
    10030    2    1    2    0    0  0.00000000000E+00  0.00000000000E+00 -0.22728596765E+03  0.14193132911E+04  0.14009965408E+04 0.  0.
        2    1    3    3  502    0  0.61451668064E+03 -0.19681129865E+03  0.16256119921E+03  0.66542586480E+03  0.25500000920E-02 0.  1.
       -2    1    3    3    0  502 -0.61451668064E+03  0.19681129865E+03 -0.38984716686E+03  0.75388742633E+03  0.25500000920E-02 0. -1.
</event>
<event>
 5   0  0.2427569E-05  0.1399982E+04  0.7818609E-02  0.8953832E-01
       -1   -1    0    0    0  501  0.00000000000E+00  0.00000000000E+00  0.67598764462E+03  0.67598764464E+03  0.50400001928E-02 0. -1.
        1   -1    0    0  501    0  0.00000000000E+00  0.00000000000E+00 -0.72484674718E+03  0.72484674719E+03  0.50400001928E-02 0.  1.
    10030    2    1    2    0    0  0.00000000000E+00  0.00000000000E+00 -0.48859102559E+02  0.14008343918E+04  0.13999820647E+04 0.  0.
        1    1    3    3  502    0 -0.41934203081E+03 -0.55129036657E+03  0.76719272354E+02  0.69688926943E+03  0.50400001928E-02 0.  1.
       -1    1    3    3    0  502  0.41934203081E+03  0.55129036657E+03 -0.12557837491E+03  0.70394512240E+03  0.50400001928E-02 0. -1.
</event>
<event>
 5   0  0.2316714E-05  0.1399870E+04  0.7818609E-02  0.8953913E-01
        1   -1    0    0  501    0  0.00000000000E+00  0.00000000000E+00  0.77180825243E+03  0.77180825245E+03  0.50400001928E-02 0.  1.
       -1   -1    0    0    0  501  0.00000000000E+00  0.00000000000E+00 -0.63475479735E+03  0.63475479737E+03  0.50400001928E-02 0. -1.
    10030    2    1    2    0    0  0.00000000000E+00  0.00000000000E+00  0.13705345508E+03  0.14065630498E+04  0.13998699810E+04 0.  0.
        5    1    3    3  502    0  0.33052006297E+03  0.24825060894E+02  0.68793755205E+03  0.76363601355E+03  0.46999998093E+01 0.  1.
       -5    1    3    3    0  502 -0.33052006297E+03 -0.24825060894E+02 -0.55088409697E+03  0.64292703627E+03  0.46999998093E+01 0. -1.
</event>
<event>
 5   0  0.4460282E-05  0.1400234E+04  0.7818609E-02  0.8953649E-01
       -2   -1    0    0    0  501  0.00000000000E+00  0.00000000000E+00  0.33729086949E+03  0.33729086950E+03  0.25500000920E-02 0. -1.
        2   -1    0    0  501    0  0.00000000000E+00  0.00000000000E+00 -0.14532379762E+04  0.14532379762E+04  0.25500000920E-02 0.  1.
    10030    2    1    2    0    0  0.00000000000E+00  0.00000000000E+00 -0.11159471067E+04  0.17905288457E+04  0.14002341241E+04 0.  0.
        1    1    3    3  502    0  0.23855709144E+03 -0.64869843484E+03 -0.70062423308E+03  0.98417145927E+03  0.50400001928E-02 0.  1.
       -1    1    3    3    0  502 -0.23855709144E+03  0.64869843484E+03 -0.41532287359E+03  0.80635738639E+03  0.50400001928E-02 0. -1.
</event>
<event>
 5   0  0.4621450E-05  0.1399979E+04  0.7818609E-02  0.8953834E-01
       -2   -1    0    0    0  501  0.00000000000E+00  0.00000000000E+00  0.37682813559E+03  0.37682813559E+03  0.25500000920E-02 0.  1.
        2   -1    0    0  501    0  0.00000000000E+00  0.00000000000E+00 -0.13002881286E+04  0.13002881286E+04  0.25500000920E-02 0. -1.
    10030    2    1    2    0    0  0.00000000000E+00  0.00000000000E+00 -0.92345999306E+03  0.16771162642E+04  0.13999787873E+04 0.  0.
        5    1    3    3  502    0  0.34272197242E+03 -0.24124541296E+03  0.20988070892E+03  0.46875334839E+03  0.46999998093E+01 0.  1.
       -5    1    3    3    0  502 -0.34272197242E+03  0.24124541296E+03 -0.11333407020E+04  0.12083629158E+04  0.46999998093E+01 0. -1.
</event>
<event>
 5   0  0.4527503E-05  0.1400053E+04  0.7818609E-02  0.8953780E-01
        2   -1    0    0  501    0  0.00000000000E+00  0.00000000000E+00  0.11482082121E+04  0.11482082121E+04  0.25500000920E-02 0. -1.
       -2   -1    0    0    0  501  0.00000000000E+00  0.00000000000E+00 -0.42678446084E+03  0.42678446085E+03  0.25500000920E-02 0.  1.
    10030    2    1    2    0    0  0.00000000000E+00  0.00000000000E+00  0.72142375124E+03  0.15749926729E+04  0.14000534600E+04 0.  0.
        4    1    3    3  502    0  0.44668235714E+03 -0.51993044477E+03  0.52053033212E+03  0.86070101379E+03  0.12699999809E+01 0. -1.
       -4    1    3    3    0  502 -0.44668235714E+03  0.51993044477E+03  0.20089341912E+03  0.71429165915E+03  0.12699999809E+01 0.  1.
</event>
<event>
 5   0  0.2316714E-05  0.1399989E+04  0.7818609E-02  0.8953827E-01
       -1   -1    0    0    0  501  0.00000000000E+00  0.00000000000E+00  0.29553344939E+03  0.29553344943E+03  0.50400001928E-02 0. -1.
        1   -1    0    0  501    0  0.00000000000E+00  0.00000000000E+00 -0.16579919791E+04  0.16579919791E+04  0.50400001928E-02 0.  1.
    10030    2    1    2    0    0  0.00000000000E+00  0.00000000000E+00 -0.13624585297E+04  0.19535254285E+04  0.13999886981E+04 0.  0.
        5    1    3    3  502    0 -0.61015213438E+03 -0.12573899230E+03 -0.11266048269E+04  0.12873835664E+04  0.46999998093E+01 0.  1.
       -5    1    3    3    0  502  0.61015213438E+03  0.12573899230E+03 -0.23585370284E+03  0.66614186208E+03  0.46999998093E+01 0. -1.
</event>
<event>
 5   0  0.2427569E-05  0.1400809E+04  0.7818609E-02  0.8953233E-01
       -1   -1    0    0    0  501  0.00000000000E+00  0.00000000000E+00  0.91991256970E+03  0.91991256971E+03  0.50400001928E-02 0. -1.
        1   -1    0    0  501    0  0.00000000000E+00  0.00000000000E+00 -0.53327532869E+03  0.53327532872E+03  0.50400001928E-02 0.  1.
    10030    2    1    2    0    0  0.00000000000E+00  0.00000000000E+00  0.38663724101E+03  0.14531878984E+04  0.14008093061E+04 0.  0.
        1    1    3    3  502    0  0.64069866808E+03 -0.90955897953E+02 -0.84653799541E+02  0.65263621142E+03  0.50400001928E-02 0.  1.
       -1    1    3    3    0  502 -0.64069866808E+03  0.90955897953E+02  0.47129104055E+03  0.80055168701E+03  0.50400001928E-02 0. -1.
</event>
<event>
 5   0  0.2363419E-05  0.1401007E+04  0.7818609E-02  0.8953090E-01
        1   -1    0    0  501    0  0.00000000000E+00  0.00000000000E+00  0.10372699521E+04  0.10372699521E+04  0.50400001928E-02 0.  1.
       -1   -1    0    0    0  501  0.00000000000E+00  0.00000000000E+00 -0.47307347053E+03  0.47307347055E+03  0.50400001928E-02 0. -1.
    10030    2    1    2    0    0  0.00000000000E+00  0.00000000000E+00  0.56419648156E+03  0.15103434227E+04  0.14010066326E+04 0.  0.
        2    1    3    3  502    0  0.39417533474E+03  0.29314127287E+03 -0.25627415058E+03  0.55405996123E+03  0.25500000920E-02 0. -1.
       -2    1    3    3    0  502 -0.39417533474E+03 -0.29314127287E+03  0.82047063214E+03  0.95628346142E+03  0.25500000920E-02 0.  1.
</event>
<event>
 5   0  0.2363419E-05  0.1400137E+04  0.7818609E-02  0.8953719E-01
       -1   -1    0    0    0  501  0.00000000000E+00  0.00000000000E+00  0.39108348995E+03  0.39108348999E+03  0.50400001928E-02 0.  1.
        1   -1    0    0  501    0  0.00000000000E+00  0.00000000000E+00 -0.12531748265E+04  0.12531748265E+04  0.50400001928E-02 0. -1.
    10030    2    1    2    0    0  0.00000000000E+00  0.00000000000E+00 -0.86209133658E+03  0.16442583165E+04  0.14001371143E+04 0.  0.
        2    1    3    3  502    0 -0.17571918374E+03  0.58243885812E+03 -0.24264669537E+02  0.60885222277E+03  0.25500000920E-02 0.  1.
       -2    1    3    3    0  502  0.17571918374E+03 -0.58243885812E+03 -0.83782666704E+03  0.10354060938E+04  0.25500000920E-02 0. -1.
</event>
<event>
 5   0  0.2316714E-05  0.1399100E+04  0.7818609E-02  0.8954470E-01
        1   -1    0    0  501    0  0.00000000000E+00  0.00000000000E+00  0.98413039978E+03  0.98413039979E+03  0.50400001928E-02 0.  1.
       -1   -1    0    0    0  501  0.00000000000E+00  0.00000000000E+00 -0.49726143867E+03  0.49726143869E+03  0.50400001928E-02 0. -1.
    10030    2    1    2    0    0  0.00000000000E+00  0.00000000000E+00  0.48686896111E+03  0.14813918385E+04  0.13990998513E+04 0.  0.
        5    1    3    3  502    0 -0.21928527260E+03 -0.48483391399E+03  0.72423343865E+03  0.89871359097E+03  0.46999998093E+01 0.  1.
       -5    1    3    3    0  502  0.21928527260E+03  0.48483391399E+03 -0.23736447754E+03  0.58267824751E+03  0.46999998093E+01 0. -1.
</event>
<event>
 5   0  0.4460282E-05  0.1399653E+04  0.7818609E-02  0.8954070E-01
       -2   -1    0    0    0  501  0.00000000000E+00  0.00000000000E+00  0.10478629834E+04  0.10478629834E+04  0.25500000920E-02 0.  1.
        2   -1    0    0  501    0  0.00000000000E+00  0.00000000000E+00 -0.46738659421E+03  0.46738659421E+03  0.25500000920E-02 0. -1.
    10030    2    1    2    0    0  0.00000000000E+00  0.00000000000E+00  0.58047638915E+03  0.15152495776E+04  0.13996529727E+04 0.  0.
        1    1    3    3  502    0  0.40708270541E+03 -0.56403672374E+03  0.20705927119E+03  0.72575980640E+03  0.50400001928E-02 0.  1.
       -1    1    3    3    0  502 -0.40708270541E+03  0.56403672374E+03  0.37341711796E+03  0.78948977117E+03  0.50400001928E-02 0. -1.
</event>
<event>
 5   0  0.2363419E-05  0.1399980E+04  0.7818609E-02  0.8953833E-01
        1   -1    0    0  501    0  0.00000000000E+00  0.00000000000E+00  0.48301519125E+03  0.48301519127E+03  0.50400001928E-02 0.  1.
       -1   -1    0    0    0  501  0.00000000000E+00  0.00000000000E+00 -0.10144323468E+04  0.10144323468E+04  0.50400001928E-02 0. -1.
    10030    2    1    2    0    0  0.00000000000E+00  0.00000000000E+00 -0.53141715559E+03  0.14974475381E+04  0.13999803342E+04 0.  0.
        2    1    3    3  502    0  0.37557008294E+03  0.28893622465E+03 -0.81679586869E+03  0.94429472107E+03  0.25500000920E-02 0. -1.
       -2    1    3    3    0  502 -0.37557008294E+03 -0.28893622465E+03  0.28537871310E+03  0.55315281706E+03  0.25500000920E-02 0.  1.
</event>
<event>
 5   0  0.2427569E-05  0.1400028E+04  0.7818609E-02  0.8953798E-01
        1   -1    0    0  501    0  0.00000000000E+00  0.00000000000E+00  0.11845068959E+04  0.11845068959E+04  0.50400001928E-02 0.  1.
       -1   -1    0    0    0  501  0.00000000000E+00  0.00000000000E+00 -0.41369063928E+03  0.41369063931E+03  0.50400001928E-02 0. -1.
    10030    2    1    2    0    0  0.00000000000E+00  0.00000000000E+00  0.77081625657E+03  0.15981975352E+04  0.14000277354E+04 0.  0.
        1    1    3    3  502    0 -0.37718404140E+03 -0.29333015284E+03 -0.19857886626E+03  0.51743979921E+03  0.50400001928E-02 0. -1.
       -1    1    3    3    0  502  0.37718404140E+03  0.29333015284E+03  0.96939512283E+03  0.10807577360E+04  0.50400001928E-02 0.  1.
</event>
<event>
 5   0  0.4527503E-05  0.1401160E+04  0.7818609E-02  0.8952979E-01
        2   -1    0    0  501    0  0.00000000000E+00  0.00000000000E+00  0.72687552946E+03  0.72687552947E+03  0.25500000920E-02 0. -1.
       -2   -1    0    0    0  501  0.00000000000E+00  0.00000000000E+00 -0.67523618482E+03  0.67523618482E+03  0.25500000920E-02 0.  1.
    10030    2    1    2    0    0  0.00000000000E+00  0.00000000000E+00  0.51639344647E+02  0.14021117143E+04  0.14011604610E+04 0.  0.
        4    1    3    3  502    0  0.11438343535E+03 -0.54165294441E+03 -0.40381964926E+03  0.68523237263E+03  0.12699999809E+01 0.  1.
       -4    1    3    3    0  502 -0.11438343535E+03  0.54165294441E+03  0.45545899390E+03  0.71687934166E+03  0.12699999809E+01 0. -1.
</event>
<event>
 5   0  0.2316714E-05  0.1400698E+04  0.7818609E-02  0.8953313E-01
        1   -1    0    0  501    0  0.00000000000E+00  0.00000000000E+00  0.16712294045E+04  0.16712294046E+04  0.50400001928E-02 0.  1.
       -1   -1    0    0    0  501  0.00000000000E+00  0.00000000000E+00 -0.29348978894E+03  0.29348978898E+03  0.50400001928E-02 0. -1.
    10030    2    1    2    0    0  0.00000000000E+00  0.00000000000E+00  0.13777396156E+04  0.19647191935E+04  0.14006980621E+04 0.  0.
        5    1    3    3  502    0  0.24015868217E+03  0.85399845560E+02 -0.22609499834E+03  0.34074970949E+03  0.46999998093E+01 0. -1.
       -5    1    3    3    0  502 -0.24015868217E+03 -0.85399845560E+02  0.16038346139E+04  0.16239694841E+04  0.46999998093E+01 0.  1.
</event>
<event>
 5   0  0.2316714E-05  0.1397194E+04  0.7818609E-02  0.8955852E-01
        1   -1    0    0  501    0  0.00000000000E+00  0.00000000000E+00  0.10734353036E+04  0.10734353036E+04  0.50400001928E-02 0. -1.
       -1   -1    0    0    0  501  0.00000000000E+00  0.00000000000E+00 -0.45465039429E+03  0.45465039432E+03  0.50400001928E-02 0.  1.
    10030    2    1    2    0    0  0.00000000000E+00  0.00000000000E+00  0.61878490930E+03  0.15280856979E+04  0.13971940224E+04 0.  0.
        5    1    3    3  502    0  0.61823647321E+02 -0.62186146396E+03 -0.32077796561E+02  0.62576746381E+03  0.46999998093E+01 0.  1.
       -5    1    3    3    0  502 -0.61823647321E+02  0.62186146396E+03  0.65086270586E+03  0.90231823411E+03  0.46999998093E+01 0. -1.
</event>
<event>
 5   0  0.2363419E-05  0.1400607E+04  0.7818609E-02  0.8953379E-01
       -1   -1    0    0    0  501  0.00000000000E+00  0.00000000000E+00  0.35270133762E+03  0.35270133765E+03  0.50400001928E-02 0. -1.
        1   -1    0    0  501    0  0.00000000000E+00  0.00000000000E+00 -0.13904820206E+04  0.13904820206E+04  0.50400001928E-02 0.  1.
    10030    2    1    2    0    0  0.00000000000E+00  0.00000000000E+00 -0.10377806830E+04  0.17431833583E+04  0.14006068237E+04 0.  0.
        2    1    3    3  502    0  0.51163037960E+03  0.22291862993E+03  0.76270427829E+01  0.55813666130E+03  0.25500000920E-02 0. -1.
       -2    1    3    3    0  502 -0.51163037960E+03 -0.22291862993E+03 -0.10454077258E+04  0.11850466970E+04  0.25500000920E-02 0.  1.
</event>
<event>
 5   0  0.4460282E-05  0.1400821E+04  0.7818609E-02  0.8953225E-01
        2   -1    0    0  501    0  0.00000000000E+00  0.00000000000E+00  0.11287647637E+04  0.11287647637E+04  0.25500000920E-02 0. -1.
       -2   -1    0    0    0  501  0.00000000000E+00  0.00000000000E+00 -0.43461185006E+03  0.43461185007E+03  0.25500000920E-02 0.  1.
    10030    2    1    2    0    0  0.00000000000E+00  0.00000000000E+00  0.69415291363E+03  0.15633766138E+04  0.14008205342E+04 0.  0.
        1    1    3    3  502    0  0.10199372866E+03 -0.48930414817E+02 -0.42434909615E+03  0.43916860271E+03  0.50400001928E-02 0.  1.
       -1    1    3    3    0  502 -0.10199372866E+03  0.48930414817E+02  0.11185020098E+04  0.11242080110E+04  0.50400001928E-02 0. -1.
</event>
<event>
 5   0  0.2363419E-05  0.1399735E+04  0.7818609E-02  0.8954010E-01
       -1   -1    0    0    0  501  0.00000000000E+00  0.00000000000E+00  0.80240401381E+03  0.80240401382E+03  0.50400001928E-02 0. -1.
        1   -1    0    0  501    0  0.00000000000E+00  0.00000000000E+00 -0.61043378154E+03  0.61043378156E+03  0.50400001928E-02 0.  1.
    10030    2    1    2    0    0  0.00000000000E+00  0.00000000000E+00  0.19197023227E+03  0.14128377954E+04  0.13997349985E+04 0.  0.
        2    1    3    3  502    0 -0.60503340388E+03  0.34172593977E+03  0.18026813499E+03  0.71787090638E+03  0.25500000920E-02 0. -1.
       -2    1    3    3    0  502  0.60503340388E+03 -0.34172593977E+03  0.11702097280E+02  0.69496688900E+03  0.25500000920E-02 0.  1.
</event>
<event>
 5   0  0.4460282E-05  0.1400627E+04  0.7818609E-02  0.8953365E-01
       -2   -1    0    0    0  501  0.00000000000E+00  0.00000000000E+00  0.50861167725E+03  0.50861167726E+03  0.25500000920E-02 0. -1.
        2   -1    0    0  501    0  0.00000000000E+00  0.00000000000E+00 -0.96426991061E+03  0.96426991062E+03  0.25500000920E-02 0.  1.
    10030    2    1    2    0    0  0.00000000000E+00  0.00000000000E+00 -0.45565823336E+03  0.14728815879E+04  0.14006269119E+04 0.  0.
        1    1    3    3  502    0 -0.25129193339E+03  0.40386772476E+03 -0.76833087515E+03  0.90365320152E+03  0.50400001928E-02 0.  1.
       -1    1    3    3    0  502  0.25129193339E+03 -0.40386772476E+03  0.31267264179E+03  0.56922838636E+03  0.50400001928E-02 0. -1.
</event>
<event>
 5   0  0.4441253E-05  0.1400117E+04  0.7818609E-02  0.8953734E-01
       -2   -1    0    0    0  501  0.00000000000E+00  0.00000000000E+00  0.88573142350E+03  0.88573142351E+03  0.25500000920E-02 0.  1.
        2   -1    0    0  501    0  0.00000000000E+00  0.00000000000E+00 -0.55330731084E+03  0.55330731084E+03  0.25500000920E-02 0. -1.
    10030    2    1    2    0    0  0.00000000000E+00  0.00000000000E+00  0.33242411267E+03  0.14390387344E+04  0.14001166695E+04 0.  0.
        3    1    3    3  502    0  0.34134634870E+00  0.16873273398E+03  0.86451881085E+03  0.88083121911E+03  0.10100000352E+00 0.  1.
       -3    1    3    3    0  502 -0.34134634870E+00 -0.16873273398E+03 -0.53209469819E+03  0.55820751524E+03  0.10100000352E+00 0. -1.
</event>
<event>
 5   0  0.4441253E-05  0.1401890E+04  0.7818609E-02  0.8952452E-01
        2   -1    0    0  501    0  0.00000000000E+00  0.00000000000E+00  0.54030553650E+03  0.54030553650E+03  0.25500000920E-02 0.  1.
       -2   -1    0    0    0  501  0.00000000000E+00  0.00000000000E+00 -0.90934408621E+03  0.90934408621E+03  0.25500000920E-02 0. -1.
    10030    2    1    2    0    0  0.00000000000E+00  0.00000000000E+00 -0.36903854971E+03  0.14496496227E+04  0.14018896453E+04 0.  0.
        3    1    3    3  502    0 -0.48162676712E+03  0.49851161441E+03 -0.29220874514E+03  0.75223941231E+03  0.10100000352E+00 0. -1.
       -3    1    3    3    0  502  0.48162676712E+03 -0.49851161441E+03 -0.76829804577E+02  0.69741021040E+03  0.10100000352E+00 0.  1.
</event>
<event>
 5   0  0.2427569E-05  0.1399751E+04  0.7818609E-02  0.8953999E-01
        1   -1    0    0  501    0  0.00000000000E+00  0.00000000000E+00  0.31799115485E+03  0.31799115489E+03  0.50400001928E-02 0.  1.
       -1   -1    0    0    0  501  0.00000000000E+00  0.00000000000E+00 -0.15403744424E+04  0.15403744424E+04  0.50400001928E-02 0. -1.
    10030    2    1    2    0    0  0.00000000000E+00  0.00000000000E+00 -0.12223832876E+04  0.18583655973E+04  0.13997506176E+04 0.  0.
        1    1    3    3  502    0  0.26859252410E+02  0.69786237889E+03 -0.67191764353E+03  0.96912674043E+03  0.50400001928E-02 0. -1.
       -1    1    3    3    0  502 -0.26859252410E+02 -0.69786237889E+03 -0.55046564403E+03  0.88923885688E+03  0.50400001928E-02 0.  1.
</event>
<event>
 5   0  0.2316714E-05  0.1400763E+04  0.7818609E-02  0.8953266E-01
        1   -1    0    0  501    0  0.00000000000E+00  0.00000000000E+00  0.10210103798E+04  0.10210103798E+04  0.50400001928E-02 0.  1.
       -1   -1    0    0    0  501  0.00000000000E+00  0.00000000000E+00 -0.48044015633E+03  0.48044015636E+03  0.50400001928E-02 0. -1.
    10030    2    1    2    0    0  0.00000000000E+00  0.00000000000E+00  0.54057022348E+03  0.15014505362E+04  0.14007632013E+04 0.  0.
        5    1    3    3  502    0  0.15898801748E+03  0.99342978562E+02 -0.45302850925E+03  0.49030922619E+03  0.46999998093E+01 0. -1.
       -5    1    3    3    0  502 -0.15898801748E+03 -0.99342978562E+02  0.99359873273E+03  0.10111413100E+04  0.46999998093E+01 0.  1.
</event>
<event>
 5   0  0.4441253E-05  0.1400563E+04  0.7818609E-02  0.8953411E-01
        2   -1    0    0  501    0  0.00000000000E+00  0.00000000000E+00  0.10174107369E+04  0.10174107369E+04  0.25500000920E-02 0.  1.
       -2   -1    0    0    0  501  0.00000000000E+00  0.00000000000E+00 -0.48200220127E+03  0.48200220128E+03  0.25500000920E-02 0. -1.
    10030    2    1    2    0    0  0.00000000000E+00  0.00000000000E+00  0.53540853562E+03  0.14994129382E+04  0.14005630508E+04 0.  0.
        3    1    3    3  502    0  0.21673708218E+03 -0.66587282083E+03  0.26158899825E+03  0.74752283612E+03  0.10100000352E+00 0. -1.
       -3    1    3    3    0  502 -0.21673708218E+03  0.66587282083E+03  0.27381953737E+03  0.75189010205E+03  0.10100000352E+00 0.  1.
</event>
<event>
 5   0  0.2316714E-05  0.1400249E+04  0.7818609E-02  0.8953639E-01
       -1   -1    0    0    0  501  0.00000000000E+00  0.00000000000E+00  0.76644472949E+03  0.76644472951E+03  0.50400001928E-02 0. -1.
        1   -1    0    0  501    0  0.00000000000E+00  0.00000000000E+00 -0.63954256523E+03  0.63954256525E+03  0.50400001928E-02 0.  1.
    10030    2    1    2    0    0  0.00000000000E+00  0.00000000000E+00  0.12690216426E+03  0.14059872948E+04  0.14002485900E+04 0.  0.
        5    1    3    3  502    0  0.80653724928E+02  0.67319146107E+03 -0.11179262296E+03  0.68717643087E+03  0.46999998093E+01 0.  1.
       -5    1    3    3    0  502 -0.80653724928E+02 -0.67319146107E+03  0.23869478722E+03  0.71881086389E+03  0.46999998093E+01 0. -1.
</event>
<event>
 5   0  0.4243281E-05  0.1399926E+04  0.7818609E-02  0.8953872E-01
       -2   -1    0    0    0  501  0.00000000000E+00  0.00000000000E+00  0.35930563614E+03  0.35930563615E+03  0.25500000920E-02 0. -1.
        2   -1    0    0  501    0  0.00000000000E+00  0.00000000000E+00 -0.13635975062E+04  0.13635975062E+04  0.25500000920E-02 0.  1.
    10030    2    1    2    0    0  0.00000000000E+00  0.00000000000E+00 -0.10042918701E+04  0.17229031424E+04  0.13999260972E+04 0.  0.
        2    1    3    3  502    0 -0.54510773474E+03  0.14708653554E+03  0.70340534618E+01  0.56464711929E+03  0.25500000920E-02 0. -1.
       -2    1    3    3    0  502  0.54510773474E+03 -0.14708653554E+03 -0.10113259236E+04  0.11582560231E+04  0.25500000920E-02 0.  1.
</event>
<event>
 5   0  0.2467303E-05  0.1399946E+04  0.7818609E-02  0.8953858E-01
       -1   -1    0    0    0  501  0.00000000000E+00  0.00000000000E+00  0.68530996399E+03  0.68530996401E+03  0.50400001928E-02 0.  1.
        1   -1    0    0  501    0  0.00000000000E+00  0.00000000000E+00 -0.71494979834E+03  0.71494979836E+03  0.50400001928E-02 0. -1.
    10030    2    1    2    0    0  0.00000000000E+00  0.00000000000E+00 -0.29639834348E+02  0.14002597624E+04  0.13999460284E+04 0.  0.
        3    1    3    3  502    0 -0.49839416887E+03 -0.75236558795E+02 -0.50062921054E+03  0.71041319244E+03  0.10100000352E+00 0. -1.
       -3    1    3    3    0  502  0.49839416887E+03  0.75236558795E+02  0.47098937620E+03  0.68984656992E+03  0.10100000352E+00 0.  1.
</event>
<event>
 5   0  0.2427569E-05  0.1399148E+04  0.7818609E-02  0.8954436E-01
        1   -1    0    0  501    0  0.00000000000E+00  0.00000000000E+00  0.14138877149E+04  0.14138877149E+04  0.50400001928E-02 0.  1.
       -1   -1    0    0    0  501  0.00000000000E+00  0.00000000000E+00 -0.34614036402E+03  0.34614036406E+03  0.50400001928E-02 0. -1.
    10030    2    1    2    0    0  0.00000000000E+00  0.00000000000E+00  0.10677473509E+04  0.17600280790E+04  0.13991477525E+04 0.  0.
        1    1    3    3  502    0 -0.23485684795E+02  0.51472482452E+03  0.11291150851E+04  0.12411261410E+04  0.50400001928E-02 0.  1.
       -1    1    3    3    0  502  0.23485684795E+02 -0.51472482452E+03 -0.61367734279E+02  0.51890193795E+03  0.50400001928E-02 0. -1.
</event>
<event>
 5   0  0.2428507E-05  0.1400031E+04  0.7818609E-02  0.8953796E-01
       -1   -1    0    0    0  501  0.00000000000E+00  0.00000000000E+00  0.63750272299E+03  0.63750272301E+03  0.50400001928E-02 0.  1.
        1   -1    0    0  501    0  0.00000000000E+00  0.00000000000E+00 -0.76865830731E+03  0.76865830733E+03  0.50400001928E-02 0. -1.
    10030    2    1    2    0    0  0.00000000000E+00  0.00000000000E+00 -0.13115558432E+03  0.14061610303E+04  0.14000310911E+04 0.  0.
        4    1    3    3  502    0  0.61871639969E+02  0.69536465156E+03 -0.11737931072E+03  0.70791215130E+03  0.12699999809E+01 0. -1.
       -4    1    3    3    0  502 -0.61871639969E+02 -0.69536465156E+03 -0.13776273603E+02  0.69824887904E+03  0.12699999809E+01 0.  1.
</event>
<event>
 5   0  0.4527503E-05  0.1401253E+04  0.7818609E-02  0.8952912E-01
       -2   -1    0    0    0  501  0.00000000000E+00  0.00000000000E+00  0.33098810204E+03  0.33098810205E+03  0.25500000920E-02 0.  1.
        2   -1    0    0  501    0  0.00000000000E+00  0.00000000000E+00 -0.14830666609E+04  0.14830666609E+04  0.25500000920E-02 0. -1.
    10030    2    1    2    0    0  0.00000000000E+00  0.00000000000E+00 -0.11520785588E+04  0.18140547629E+04  0.14012528955E+04 0.  0.
        4    1    3    3  502    0  0.37512826998E+03 -0.61020279334E+02 -0.13380170733E+04  0.13909478763E+04  0.12699999809E+01 0. -1.
       -4    1    3    3    0  502 -0.37512826998E+03  0.61020279334E+02  0.18593851443E+03  0.42310688659E+03  0.12699999809E+01 0.  1.
</event>
<event>
 5   0  0.2467303E-05  0.1399831E+04  0.7818609E-02  0.8953941E-01
        1   -1    0    0  501    0  0.00000000000E+00  0.00000000000E+00  0.22372981408E+04  0.22372981408E+04  0.50400001928E-02 0.  1.
       -1   -1    0    0    0  501  0.00000000000E+00  0.00000000000E+00 -0.21896120772E+03  0.21896120778E+03  0.50400001928E-02 0. -1.
    10030    2    1    2    0    0  0.00000000000E+00  0.00000000000E+00  0.20183369331E+04  0.24562593486E+04  0.13998307084E+04 0.  0.
        3    1    3    3  502    0  0.27609128169E+03  0.59861599954E+03  0.14218510746E+04  0.15672357829E+04  0.10100000352E+00 0. -1.
       -3    1    3    3    0  502 -0.27609128169E+03 -0.59861599954E+03  0.59648585848E+03  0.88902356566E+03  0.10100000352E+00 0.  1.
</event>
<event>
 5   0  0.2316714E-05  0.1400219E+04  0.7818609E-02  0.8953660E-01
       -1   -1    0    0    0  501  0.00000000000E+00  0.00000000000E+00  0.41493391358E+03  0.41493391361E+03  0.50400001928E-02 0.  1.
        1   -1    0    0  501    0  0.00000000000E+00  0.00000000000E+00 -0.11812797856E+04  0.11812797856E+04  0.50400001928E-02 0. -1.
    10030    2    1    2    0    0  0.00000000000E+00  0.00000000000E+00 -0.76634587201E+03  0.15962136992E+04  0.14002186179E+04 0.  0.
        5    1    3    3  502    0 -0.64917125614E+03 -0.21996950732E+02 -0.85415209712E+02  0.65515267968E+03  0.46999998093E+01 0.  1.
       -5    1    3    3    0  502  0.64917125614E+03  0.21996950732E+02 -0.68093066230E+03  0.94106101954E+03  0.46999998093E+01 0. -1.
</event>
<event>
 5   0  0.2428507E-05  0.1400194E+04  0.7818609E-02  0.8953678E-01
        1   -1    0    0  501    0  0.00000000000E+00  0.00000000000E+00  0.52652535765E+03  0.52652535768E+03  0.50400001928E-02 0. -1.
       -1   -1    0    0    0  501  0.00000000000E+00  0.00000000000E+00 -0.93088700084E+03  0.93088700085E+03  0.50400001928E-02 0.  1.
    10030    2    1    2    0    0  0.00000000000E+00  0.00000000000E+00 -0.40436164318E+03  0.14574123585E+04  0.14001937167E+04 0.  0.
        4    1    3    3  502    0 -0.40212217556E+03 -0.52720918523E+03  0.31683292404E+02  0.66382016614E+03  0.12699999809E+01 0. -1.
       -4    1    3    3    0  502  0.40212217556E+03  0.52720918523E+03 -0.43604493559E+03  0.79359219238E+03  0.12699999809E+01 0.  1.
</event>
<event>
 5   0  0.4243281E-05  0.1400296E+04  0.7818609E-02  0.8953604E-01
       -2   -1    0    0    0  501  0.00000000000E+00  0.00000000000E+00  0.34727662295E+03  0.34727662296E+03  0.25500000920E-02 0. -1.
        2   -1    0    0  501    0  0.00000000000E+00  0.00000000000E+00 -0.14115765936E+04  0.14115765936E+04  0.25500000920E-02 0.  1.
    10030    2    1    2    0    0  0.00000000000E+00  0.00000000000E+00 -0.10642999706E+04  0.17588532166E+04  0.14002964721E+04 0.  0.
        2    1    3    3  502    0  0.38907671086E+03  0.41783610857E+03 -0.23113542865E+02  0.57140347954E+03  0.25500000920E-02 0. -1.
       -2    1    3    3    0  502 -0.38907671086E+03 -0.41783610857E+03 -0.10411864278E+04  0.11874497370E+04  0.25500000920E-02 0.  1.
</event>
<event>
 5   0  0.4527503E-05  0.1399816E+04  0.7818609E-02  0.8953952E-01
        2   -1    0    0  501    0  0.00000000000E+00  0.00000000000E+00  0.55274898468E+03  0.55274898468E+03  0.25500000920E-02 0.  1.
       -2   -1    0    0    0  501  0.00000000000E+00  0.00000000000E+00 -0.88624554446E+03  0.88624554446E+03  0.25500000920E-02 0. -1.
    10030    2    1    2    0    0  0.00000000000E+00  0.00000000000E+00 -0.33349655978E+03  0.14389945291E+04  0.13998161663E+04 0.  0.
        4    1    3    3  502    0 -0.61814820231E+03 -0.23066691368E+03  0.73359681255E+02  0.66385064647E+03  0.12699999809E+01 0.  1.
       -4    1    3    3    0  502  0.61814820231E+03  0.23066691368E+03 -0.40685624104E+03  0.77514388268E+03  0.12699999809E+01 0. -1.
</event>
<event>
 5   0  0.4527503E-05  0.1399928E+04  0.7818609E-02  0.8953871E-01
       -2   -1    0    0    0  501  0.00000000000E+00  0.00000000000E+00  0.34441864155E+03  0.34441864156E+03  0.25500000920E-02 0.  1.
        2   -1    0    0  501    0  0.00000000000E+00  0.00000000000E+00 -0.14225398816E+04  0.14225398816E+04  0.25500000920E-02 0. -1.
    10030    2    1    2    0    0  0.00000000000E+00  0.00000000000E+00 -0.10781212400E+04  0.17669585231E+04  0.13999275032E+04 0.  0.
        4    1    3    3  502    0 -0.12257042660E+03 -0.34629040512E+03 -0.12910978144E+04  0.13423396490E+04  0.12699999809E+01 0. -1.
       -4    1    3    3    0  502  0.12257042660E+03  0.34629040512E+03  0.21297657433E+03  0.42461887413E+03  0.12699999809E+01 0.  1.
</event>
<event>
 5   0  0.2428507E-05  0.1399766E+04  0.7818609E-02  0.8953988E-01
        1   -1    0    0  501    0  0.00000000000E+00  0.00000000000E+00  0.17416287421E+04  0.17416287421E+04  0.50400001928E-02 0.  1.
       -1   -1    0    0    0  501  0.00000000000E+00  0.00000000000E+00 -0.28125185030E+03  0.28125185034E+03  0.50400001928E-02 0. -1.
    10030    2    1    2    0    0  0.00000000000E+00  0.00000000000E+00  0.14603768918E+04  0.20228805925E+04  0.13997661323E+04 0.  0.
        4    1    3    3  502    0  0.28396187493E+03 -0.59303074301E+03  0.38360733167E+03  0.76123321418E+03  0.12699999809E+01 0.  1.
       -4    1    3    3    0  502 -0.28396187493E+03  0.59303074301E+03  0.10767695601E+04  0.12616473783E+04  0.12699999809E+01 0. -1.
</event>
<event>
 5   0  0.4243281E-05  0.1399743E+04  0.7818609E-02  0.8954005E-01
       -2   -1    0    0    0  501  0.00000000000E+00  0.00000000000E+00  0.34731483097E+03  0.34731483098E+03  0.25500000920E-02 0.  1.
        2   -1    0    0  501    0  0.00000000000E+00  0.00000000000E+00 -0.14103048757E+04  0.14103048757E+04  0.25500000920E-02 0. -1.
    10030    2    1    2    0    0  0.00000000000E+00  0.00000000000E+00 -0.10629900447E+04  0.17576197067E+04  0.13997425471E+04 0.  0.
        2    1    3    3  502    0 -0.28894887978E+03  0.19709215772E+03  0.22969903892E+03  0.41844763382E+03  0.25500000920E-02 0.  1.
       -2    1    3    3    0  502  0.28894887978E+03 -0.19709215772E+03 -0.12926890836E+04  0.13391720728E+04  0.25500000920E-02 0. -1.
</event>
<event>
 5   0  0.4527503E-05  0.1397402E+04  0.7818609E-02  0.8955701E-01
       -2   -1    0    0    0  501  0.00000000000E+00  0.00000000000E+00  0.89130448148E+03  0.89130448149E+03  0.25500000920E-02 0. -1.
        2   -1    0    0  501    0  0.00000000000E+00  0.00000000000E+00 -0.54771786368E+03  0.54771786369E+03  0.25500000920E-02 0.  1.
    10030    2    1    2    0    0  0.00000000000E+00  0.00000000000E+00  0.34358661780E+03  0.14390223452E+04  0.13974024281E+04 0.  0.
        4    1    3    3  502    0 -0.37781966164E+03 -0.29780000325E+03  0.69358916198E+03  0.84409719652E+03  0.12699999809E+01 0. -1.
       -4    1    3    3    0  502  0.37781966164E+03  0.29780000325E+03 -0.35000254418E+03  0.59492514865E+03  0.12699999809E+01 0.  1.
</event>
<event>
 5   0  0.4621450E-05  0.1400043E+04  0.7818609E-02  0.8953787E-01
       -2   -1    0    0    0  501  0.00000000000E+00  0.00000000000E+00  0.23443392761E+04  0.23443392761E+04  0.25500000920E-02 0. -1.
        2   -1    0    0  501    0  0.00000000000E+00  0.00000000000E+00 -0.20902707808E+03  0.20902707809E+03  0.25500000920E-02 0.  1.
    10030    2    1    2    0    0  0.00000000000E+00  0.00000000000E+00  0.21353121981E+04  0.25533663542E+04  0.14000434121E+04 0.  0.
        5    1    3    3  502    0 -0.62372280194E+03  0.31209093702E+03  0.95857333664E+03  0.11854601716E+04  0.46999998093E+01 0. -1.
       -5    1    3    3    0  502  0.62372280194E+03 -0.31209093702E+03  0.11767388614E+04  0.13679061827E+04  0.46999998093E+01 0.  1.
</event>
<event>
 5   0  0.1661000E-05  0.1399792E+04  0.7818609E-02  0.8953969E-01
        4   -1    0    0  501    0  0.00000000000E+00  0.00000000000E+00  0.15179196115E+04  0.15179201428E+04  0.12699999809E+01 0.  1.
       -4   -1    0    0    0  501  0.00000000000E+00  0.00000000000E+00 -0.32271249843E+03  0.32271499740E+03  0.12699999809E+01 0. -1.
    10030    2    1    2    0    0  0.00000000000E+00  0.00000000000E+00  0.11952071131E+04  0.18406351402E+04  0.13997920118E+04 0.  0.
        5    1    3    3  502    0 -0.39069946704E+03 -0.26677593035E+02 -0.16514310627E+03  0.42503188476E+03  0.46999998093E+01 0. -1.
       -5    1    3    3    0  502  0.39069946704E+03  0.26677593035E+02  0.13603502194E+04  0.14156032555E+04  0.46999998093E+01 0.  1.
</event>
<event>
 5   0  0.4621450E-05  0.1401244E+04  0.7818609E-02  0.8952919E-01
        2   -1    0    0  501    0  0.00000000000E+00  0.00000000000E+00  0.82067287428E+03  0.82067287428E+03  0.25500000920E-02 0. -1.
       -2   -1    0    0    0  501  0.00000000000E+00  0.00000000000E+00 -0.59813229376E+03  0.59813229376E+03  0.25500000920E-02 0.  1.
    10030    2    1    2    0    0  0.00000000000E+00  0.00000000000E+00  0.22254058052E+03  0.14188051680E+04  0.14012436601E+04 0.  0.
        5    1    3    3  502    0 -0.66793885118E+03  0.20978487101E+03  0.13799919453E+03  0.71359503131E+03  0.46999998093E+01 0.  1.
       -5    1    3    3    0  502  0.66793885118E+03 -0.20978487101E+03  0.84541385987E+02  0.70521013674E+03  0.46999998093E+01 0. -1.
</event>
<event>
 5   0  0.2316714E-05  0.1400017E+04  0.7818609E-02  0.8953806E-01
       -1   -1    0    0    0  501  0.00000000000E+00  0.00000000000E+00  0.42625464940E+03  0.42625464943E+03  0.50400001928E-02 0.  1.
        1   -1    0    0  501    0  0.00000000000E+00  0.00000000000E+00 -0.11495755234E+04  0.11495755234E+04  0.50400001928E-02 0. -1.
    10030    2    1    2    0    0  0.00000000000E+00  0.00000000000E+00 -0.72332087399E+03  0.15758301728E+04  0.14000170166E+04 0.  0.
        5    1    3    3  502    0  0.26125651747E+03  0.49781964254E+03  0.10773508909E+03  0.57245812409E+03  0.46999998093E+01 0.  1.
       -5    1    3    3    0  502 -0.26125651747E+03 -0.49781964254E+03 -0.83105596308E+03  0.10033720487E+04  0.46999998093E+01 0. -1.
</event>
<event>
 5   0  0.2363419E-05  0.1399778E+04  0.7818609E-02  0.8953979E-01
        1   -1    0    0  501    0  0.00000000000E+00  0.00000000000E+00  0.95905530061E+03  0.95905530062E+03  0.50400001928E-02 0.  1.
       -1   -1    0    0    0  501  0.00000000000E+00  0.00000000000E+00 -0.51075721450E+03  0.51075721452E+03  0.50400001928E-02 0. -1.
    10030    2    1    2    0    0  0.00000000000E+00  0.00000000000E+00  0.44829808611E+03  0.14698125151E+04  0.13997777165E+04 0.  0.
        2    1    3    3  502    0 -0.39932719141E+02 -0.55131831202E+02  0.95557077359E+03  0.95799250739E+03  0.25500000920E-02 0.  1.
       -2    1    3    3    0  502  0.39932719141E+02  0.55131831202E+02 -0.50727268748E+03  0.51182000776E+03  0.25500000920E-02 0. -1.
</event>
<event>
 5   0  0.4460282E-05  0.1400055E+04  0.7818609E-02  0.8953779E-01
       -2   -1    0    0    0  501  0.00000000000E+00  0.00000000000E+00  0.18597766962E+03  0.18597766963E+03  0.25500000920E-02 0.  1.
        2   -1    0    0  501    0  0.00000000000E+00  0.00000000000E+00 -0.26349313542E+04  0.26349313542E+04  0.25500000920E-02 0. -1.
    10030    2    1    2    0    0  0.00000000000E+00  0.00000000000E+00 -0.24489536846E+04  0.28209090238E+04  0.14000548459E+04 0.  0.
        1    1    3    3  502    0  0.18851903366E+03 -0.55488944193E+03 -0.45302985099E+03  0.74072786145E+03  0.50400001928E-02 0.  1.
       -1    1    3    3    0  502 -0.18851903366E+03  0.55488944193E+03 -0.19959238336E+04  0.20801811624E+04  0.50400001928E-02 0. -1.
</event>
<event>
 5   0  0.2428507E-05  0.1398860E+04  0.7818609E-02  0.8954644E-01
        1   -1    0    0  501    0  0.00000000000E+00  0.00000000000E+00  0.10339486976E+04  0.10339486976E+04  0.50400001928E-02 0.  1.
       -1   -1    0    0    0  501  0.00000000000E+00  0.00000000000E+00 -0.47313983648E+03  0.47313983650E+03  0.50400001928E-02 0. -1.
    10030    2    1    2    0    0  0.00000000000E+00  0.00000000000E+00  0.56080886112E+03  0.15070885341E+04  0.13988599898E+04 0.  0.
        4    1    3    3  502    0  0.28776959114E+03 -0.46988621609E+03  0.74454463282E+03  0.92625737073E+03  0.12699999809E+01 0.  1.
       -4    1    3    3    0  502 -0.28776959114E+03  0.46988621609E+03 -0.18373577170E+03  0.58083116339E+03  0.12699999809E+01 0. -1.
</event>
<event>
 5   0  0.4441253E-05  0.1399448E+04  0.7818609E-02  0.8954218E-01
       -2   -1    0    0    0  501  0.00000000000E+00  0.00000000000E+00  0.10015349126E+04  0.10015349126E+04  0.25500000920E-02 0. -1.
        2   -1    0    0  501    0  0.00000000000E+00  0.00000000000E+00 -0.48886349991E+03  0.48886349992E+03  0.25500000920E-02 0.  1.
    10030    2    1    2    0    0  0.00000000000E+00  0.00000000000E+00  0.51267141266E+03  0.14903984125E+04  0.13994482665E+04 0.  0.
        3    1    3    3  502    0  0.62248517871E+03 -0.31566480015E+03  0.20328050937E+03  0.72694913127E+03  0.10100000352E+00 0.  1.
       -3    1    3    3    0  502 -0.62248517871E+03  0.31566480015E+03  0.30939090329E+03  0.76344928123E+03  0.10100000352E+00 0. -1.
</event>
<event>
 5   0  0.2316714E-05  0.1400032E+04  0.7818609E-02  0.8953795E-01
       -1   -1    0    0    0  501  0.00000000000E+00  0.00000000000E+00  0.62860313159E+03  0.62860313161E+03  0.50400001928E-02 0.  1.
        1   -1    0    0  501    0  0.00000000000E+00  0.00000000000E+00 -0.77954175173E+03  0.77954175175E+03  0.50400001928E-02 0. -1.
    10030    2    1    2    0    0  0.00000000000E+00  0.00000000000E+00 -0.15093862014E+03  0.14081448834E+04  0.14000319802E+04 0.  0.
        5    1    3    3  502    0  0.25033919679E+03  0.54202176247E+03  0.29208365988E+03  0.66467455105E+03  0.46999998093E+01 0.  1.
       -5    1    3    3    0  502 -0.25033919679E+03 -0.54202176247E+03 -0.44302228002E+03  0.74347033232E+03  0.46999998093E+01 0. -1.
</event>
<event>
 5   0  0.2467303E-05  0.1400307E+04  0.7818609E-02  0.8953597E-01
        1   -1    0    0  501    0  0.00000000000E+00  0.00000000000E+00  0.14133654786E+04  0.14133654786E+04  0.50400001928E-02 0. -1.
       -1   -1    0    0    0  501  0.00000000000E+00  0.00000000000E+00 -0.34684213703E+03  0.34684213707E+03  0.50400001928E-02 0.  1.
    10030    2    1    2    0    0  0.00000000000E+00  0.00000000000E+00  0.10665233415E+04  0.17602076157E+04  0.14003066850E+04 0.  0.
        3    1    3    3  502    0 -0.48270457949E+03 -0.48929312007E+03  0.36553965749E+03  0.77847974913E+03  0.10100000352E+00 0.  1.
       -3    1    3    3    0  502  0.48270457949E+03  0.48929312007E+03  0.70098368405E+03  0.98172786652E+03  0.10100000352E+00 0. -1.
</event>
<event>
 5   0  0.1661000E-05  0.1399672E+04  0.7818609E-02  0.8954056E-01
        3   -1    0    0  501    0  0.00000000000E+00  0.00000000000E+00  0.98421347886E+03  0.98421348404E+03  0.10100000352E+00 0.  1.
       -3   -1    0    0    0  501  0.00000000000E+00  0.00000000000E+00 -0.49762601199E+03  0.49762602224E+03  0.10100000352E+00 0. -1.
    10030    2    1    2    0    0  0.00000000000E+00  0.00000000000E+00  0.48658746688E+03  0.14818395063E+04  0.13996717327E+04 0.  0.
        2    1    3    3  502    0 -0.30237664160E+03  0.10815324617E+03  0.90160183597E+03  0.95708653144E+03  0.25500000920E-02 0.  1.
       -2    1    3    3    0  502  0.30237664160E+03 -0.10815324617E+03 -0.41501436909E+03  0.52475297484E+03  0.25500000920E-02 0. -1.
</event>
<event>
 5   0  0.4243281E-05  0.1400768E+04  0.7818609E-02  0.8953263E-01
       -2   -1    0    0    0  501  0.00000000000E+00  0.00000000000E+00  0.21147296562E+03  0.21147296564E+03  0.25500000920E-02 0.  1.
        2   -1    0    0  501    0  0.00000000000E+00  0.00000000000E+00 -0.23196252852E+04  0.23196252852E+04  0.25500000920E-02 0. -1.
    10030    2    1    2    0    0  0.00000000000E+00  0.00000000000E+00 -0.21081523196E+04  0.25310982509E+04  0.14007684151E+04 0.  0.
        2    1    3    3  502    0 -0.36642550400E+03 -0.47166143667E+03 -0.39310842761E+03  0.71502894814E+03  0.25500000920E-02 0.  1.
       -2    1    3    3    0  502  0.36642550400E+03  0.47166143667E+03 -0.17150438920E+04  0.18160693027E+04  0.25500000920E-02 0. -1.
</event>
<event>
 5   0  0.4621450E-05  0.1400136E+04  0.7818609E-02  0.8953720E-01
       -2   -1    0    0    0  501  0.00000000000E+00  0.00000000000E+00  0.91970783590E+03  0.91970783590E+03  0.25500000920E-02 0. -1.
        2   -1    0    0  501    0  0.00000000000E+00  0.00000000000E+00 -0.53288176932E+03  0.53288176932E+03  0.25500000920E-02 0.  1.
    10030    2    1    2    0    0  0.00000000000E+00  0.00000000000E+00  0.38682606658E+03  0.14525896052E+04  0.14001364774E+04 0.  0.
        5    1    3    3  502    0  0.12235254265E+03  0.19210201287E+03  0.88017906798E+03  0.90918128542E+03  0.46999998093E+01 0. -1.
       -5    1    3    3    0  502 -0.12235254265E+03 -0.19210201287E+03 -0.49335300140E+03  0.54340831980E+03  0.46999998093E+01 0.  1.
</event>
<event>
 5   0  0.2428507E-05  0.1400461E+04  0.7818609E-02  0.8953485E-01
       -1   -1    0    0    0  501  0.00000000000E+00  0.00000000000E+00  0.63119600093E+03  0.63119600095E+03  0.50400001928E-02 0.  1.
        1   -1    0    0  501    0  0.00000000000E+00  0.00000000000E+00 -0.77681552655E+03  0.77681552656E+03  0.50400001928E-02 0. -1.
    10030    2    1    2    0    0  0.00000000000E+00  0.00000000000E+00 -0.14561952562E+03  0.14080115275E+04  0.14004611438E+04 0.  0.
        4    1    3    3  502    0 -0.64815961617E+03  0.15773504987E+03 -0.28686607524E+03  0.72614391963E+03  0.12699999809E+01 0. -1.
       -4    1    3    3    0  502  0.64815961617E+03 -0.15773504987E+03  0.14124654963E+03  0.68186760788E+03  0.12699999809E+01 0.  1.
</event>
<event>
 5   0  0.4527503E-05  0.1401140E+04  0.7818609E-02  0.8952994E-01
       -2   -1    0    0    0  501  0.00000000000E+00  0.00000000000E+00  0.20282605523E+03  0.20282605525E+03  0.25500000920E-02 0.  1.
        2   -1    0    0  501    0  0.00000000000E+00  0.00000000000E+00 -0.24198000825E+04  0.24198000825E+04  0.25500000920E-02 0. -1.
    10030    2    1    2    0    0  0.00000000000E+00  0.00000000000E+00 -0.22169740272E+04  0.26226261377E+04  0.14011402574E+04 0.  0.
        4    1    3    3  502    0  0.51797153050E+03 -0.18808858508E+03 -0.19181807167E+04  0.19957681972E+04  0.12699999809E+01 0. -1.
       -4    1    3    3    0  502 -0.51797153050E+03  0.18808858508E+03 -0.29879331056E+03  0.62685794051E+03  0.12699999809E+01 0.  1.
</event>
<event>
 5   0  0.2316714E-05  0.1400119E+04  0.7818609E-02  0.8953733E-01
        1   -1    0    0  501    0  0.00000000000E+00  0.00000000000E+00  0.57370976934E+03  0.57370976936E+03  0.50400001928E-02 0.  1.
       -1   -1    0    0    0  501  0.00000000000E+00  0.00000000000E+00 -0.85423544056E+03  0.85423544057E+03  0.50400001928E-02 0. -1.
    10030    2    1    2    0    0  0.00000000000E+00  0.00000000000E+00 -0.28052567122E+03  0.14279452099E+04  0.14001188772E+04 0.  0.
        5    1    3    3  502    0  0.41465253686E+03 -0.39296685964E+03 -0.55290432657E+03  0.79503771196E+03  0.46999998093E+01 0. -1.
       -5    1    3    3    0  502 -0.41465253686E+03  0.39296685964E+03  0.27237865535E+03  0.63290749797E+03  0.46999998093E+01 0.  1.
</event>
<event>
 5   0  0.4243281E-05  0.1400355E+04  0.7818609E-02  0.8953562E-01
        2   -1    0    0  501    0  0.00000000000E+00  0.00000000000E+00  0.12752752794E+04  0.12752752794E+04  0.25500000920E-02 0.  1.
       -2   -1    0    0    0  501  0.00000000000E+00  0.00000000000E+00 -0.38442547067E+03  0.38442547068E+03  0.25500000920E-02 0. -1.
    10030    2    1    2    0    0  0.00000000000E+00  0.00000000000E+00  0.89084980869E+03  0.16597007500E+04  0.14003546687E+04 0.  0.
        2    1    3    3  502    0  0.40674808378E+03 -0.27998650522E+02 -0.22922413202E+03  0.46773029708E+03  0.25500000920E-02 0. -1.
       -2    1    3    3    0  502 -0.40674808378E+03  0.27998650522E+02  0.11200739407E+04  0.11919704530E+04  0.25500000920E-02 0.  1.
</event>
<event>
 5   0  0.4441253E-05  0.1399749E+04  0.7818609E-02  0.8954000E-01
       -2   -1    0    0    0  501  0.00000000000E+00  0.00000000000E+00  0.38139421175E+03  0.38139421176E+03  0.25500000920E-02 0.  1.
        2   -1    0    0  501    0  0.00000000000E+00  0.00000000000E+00 -0.12842991643E+04  0.12842991643E+04  0.25500000920E-02 0. -1.
    10030    2    1    2    0    0  0.00000000000E+00  0.00000000000E+00 -0.90290495255E+03  0.16656933761E+04  0.13997489310E+04 0.  0.
        3    1    3    3  502    0  0.53170597882E+03 -0.43672560996E+03 -0.29913435210E+03  0.75028119869E+03  0.10100000352E+00 0. -1.
       -3    1    3    3    0  502 -0.53170597882E+03  0.43672560996E+03 -0.60377060045E+03  0.91541217737E+03  0.10100000352E+00 0.  1.
</event>
<event>
 5   0  0.2363419E-05  0.1400190E+04  0.7818609E-02  0.8953681E-01
        1   -1    0    0  501    0  0.00000000000E+00  0.00000000000E+00  0.53209622226E+03  0.53209622228E+03  0.50400001928E-02 0. -1.
       -1   -1    0    0    0  501  0.00000000000E+00  0.00000000000E+00 -0.92113542451E+03  0.92113542452E+03  0.50400001928E-02 0.  1.
    10030    2    1    2    0    0  0.00000000000E+00  0.00000000000E+00 -0.38903920225E+03  0.14532316468E+04  0.14001895295E+04 0.  0.
        2    1    3    3  502    0 -0.62993689410E+03  0.21223311824E+03  0.33505936367E+02  0.66557196065E+03  0.25500000920E-02 0.  1.
       -2    1    3    3    0  502  0.62993689410E+03 -0.21223311824E+03 -0.42254513862E+03  0.78765968616E+03  0.25500000920E-02 0. -1.
</event>
<event>
 5   0  0.2316714E-05  0.1397943E+04  0.7818609E-02  0.8955309E-01
        1   -1    0    0  501    0  0.00000000000E+00  0.00000000000E+00  0.90129264216E+03  0.90129264217E+03  0.50400001928E-02 0. -1.
       -1   -1    0    0    0  501  0.00000000000E+00  0.00000000000E+00 -0.54206723858E+03  0.54206723861E+03  0.50400001928E-02 0.  1.
    10030    2    1    2    0    0  0.00000000000E+00  0.00000000000E+00  0.35922540357E+03  0.14433598808E+04  0.13979430800E+04 0.  0.
        5    1    3    3  502    0 -0.27191689275E+03  0.59737502076E+03  0.42771818425E+03  0.78342877604E+03  0.46999998093E+01 0.  1.
       -5    1    3    3    0  502  0.27191689275E+03 -0.59737502076E+03 -0.68492780681E+02  0.65993110474E+03  0.46999998093E+01 0. -1.
</event>
<event>
 5   0  0.4441253E-05  0.1402410E+04  0.7818609E-02  0.8952076E-01
       -2   -1    0    0    0  501  0.00000000000E+00  0.00000000000E+00  0.15785040868E+04  0.15785040868E+04  0.25500000920E-02 0.  1.
        2   -1    0    0  501    0  0.00000000000E+00  0.00000000000E+00 -0.31149017100E+03  0.31149017101E+03  0.25500000920E-02 0. -1.
    10030    2    1    2    0    0  0.00000000000E+00  0.00000000000E+00  0.12670139158E+04  0.18899942578E+04  0.14024100797E+04 0.  0.
        3    1    3    3  502    0  0.61469408462E+03 -0.32628096049E+03  0.51772900997E+03  0.86738193480E+03  0.10100000352E+00 0.  1.
       -3    1    3    3    0  502 -0.61469408462E+03  0.32628096049E+03  0.74928490582E+03  0.10226123230E+04  0.10100000352E+00 0. -1.
</event>
<event>
 5   0  0.4441253E-05  0.1400204E+04  0.7818609E-02  0.8953671E-01
        2   -1    0    0  501    0  0.00000000000E+00  0.00000000000E+00  0.53462063300E+03  0.53462063301E+03  0.25500000920E-02 0.  1.
       -2   -1    0    0    0  501  0.00000000000E+00  0.00000000000E+00 -0.91680512762E+03  0.91680512762E+03  0.25500000920E-02 0. -1.
    10030    2    1    2    0    0  0.00000000000E+00  0.00000000000E+00 -0.38218449462E+03  0.14514257606E+04  0.14002041818E+04 0.  0.
        3    1    3    3  502    0 -0.36901159593E+03  0.19303568243E+03 -0.77444970261E+03  0.87932058130E+03  0.10100000352E+00 0. -1.
       -3    1    3    3    0  502  0.36901159593E+03 -0.19303568243E+03  0.39226520799E+03  0.57210517934E+03  0.10100000352E+00 0.  1.
</event>
<event>
 5   0  0.4243281E-05  0.1400380E+04  0.7818609E-02  0.8953543E-01
        2   -1    0    0  501    0  0.00000000000E+00  0.00000000000E+00  0.18790386600E+04  0.18790386600E+04  0.25500000920E-02 0. -1.
       -2   -1    0    0    0  501  0.00000000000E+00  0.00000000000E+00 -0.26091327009E+03  0.26091327011E+03  0.25500000920E-02 0.  1.
    10030    2    1    2    0    0  0.00000000000E+00  0.00000000000E+00  0.16181253899E+04  0.21399519301E+04  0.14003801219E+04 0.  0.
        2    1    3    3  502    0  0.66248032026E+03  0.22209104595E+03  0.73967999029E+03  0.10175122090E+04  0.25500000920E-02 0. -1.
       -2    1    3    3    0  502 -0.66248032026E+03 -0.22209104595E+03  0.87844539964E+03  0.11224397211E+04  0.25500000920E-02 0.  1.
</event>
<event>
 5   0  0.2427569E-05  0.1400124E+04  0.7818609E-02  0.8953729E-01
        1   -1    0    0  501    0  0.00000000000E+00  0.00000000000E+00  0.22154009745E+04  0.22154009745E+04  0.50400001928E-02 0.  1.
       -1   -1    0    0    0  501  0.00000000000E+00  0.00000000000E+00 -0.22121811078E+03  0.22121811084E+03  0.50400001928E-02 0. -1.
    10030    2    1    2    0    0  0.00000000000E+00  0.00000000000E+00  0.19941828637E+04  0.24366190853E+04  0.14001240206E+04 0.  0.
        1    1    3    3  502    0 -0.42033081322E+03 -0.48311025247E+03  0.14893601656E+04  0.16211931444E+04  0.50400001928E-02 0.  1.
       -1    1    3    3    0  502  0.42033081322E+03  0.48311025247E+03  0.50482269811E+03  0.81542594092E+03  0.50400001928E-02 0. -1.
</event>
<event>
 5   0  0.4527503E-05  0.1400148E+04  0.7818609E-02  0.8953711E-01
       -2   -1    0    0    0  501  0.00000000000E+00  0.00000000000E+00  0.42370937245E+03  0.42370937246E+03  0.25500000920E-02 0. -1.
        2   -1    0    0  501    0  0.00000000000E+00  0.00000000000E+00 -0.11566975473E+04  0.11566975473E+04  0.25500000920E-02 0.  1.
    10030    2    1    2    0    0  0.00000000000E+00  0.00000000000E+00 -0.73298817489E+03  0.15804069198E+04  0.14001479806E+04 0.  0.
        4    1    3    3  502    0  0.37171535573E+02 -0.65926358333E+03 -0.62901302343E+03  0.91195898587E+03  0.12699999809E+01 0.  1.
       -4    1    3    3    0  502 -0.37171535573E+02  0.65926358333E+03 -0.10397515146E+03  0.66844793394E+03  0.12699999809E+01 0. -1.
</event>
<event>
 5   0  0.4441253E-05  0.1407100E+04  0.7818609E-02  0.8948695E-01
        2   -1    0    0  501    0  0.00000000000E+00  0.00000000000E+00  0.13889161839E+04  0.13889161839E+04  0.25500000920E-02 0.  1.
       -2   -1    0    0    0  501  0.00000000000E+00  0.00000000000E+00 -0.35638059248E+03  0.35638059249E+03  0.25500000920E-02 0. -1.
    10030    2    1    2    0    0  0.00000000000E+00  0.00000000000E+00  0.10325355914E+04  0.17452967764E+04  0.14071002417E+04 0.  0.
        3    1    3    3  502    0 -0.50160358775E+03  0.37935779573E+03  0.12508676220E+03  0.64122165021E+03  0.10100000352E+00 0. -1.
       -3    1    3    3    0  502  0.50160358775E+03 -0.37935779573E+03  0.90744882924E+03  0.11040751262E+04  0.10100000352E+00 0.  1.
</event>
<event>
 5   0  0.2363419E-05  0.1400035E+04  0.7818609E-02  0.8953793E-01
        1   -1    0    0  501    0  0.00000000000E+00  0.00000000000E+00  0.88651290650E+03  0.88651290651E+03  0.50400001928E-02 0. -1.
       -1   -1    0    0    0  501  0.00000000000E+00  0.00000000000E+00 -0.55275531073E+03  0.55275531075E+03  0.50400001928E-02 0.  1.
    10030    2    1    2    0    0  0.00000000000E+00  0.00000000000E+00  0.33375759577E+03  0.14392682173E+04  0.14000353097E+04 0.  0.
        2    1    3    3  502    0  0.67689502473E+03  0.50206874492E+02  0.34289933503E+03  0.76045220673E+03  0.25500000920E-02 0. -1.
       -2    1    3    3    0  502 -0.67689502473E+03 -0.50206874492E+02 -0.91417392533E+01  0.67881601053E+03  0.25500000920E-02 0.  1.
</event>
<event>
 5   0  0.2427569E-05  0.1399775E+04  0.7818609E-02  0.8953981E-01
       -1   -1    0    0    0  501  0.00000000000E+00  0.00000000000E+00  0.48117735868E+03  0.48117735871E+03  0.50400001928E-02 0. -1.
        1   -1    0    0  501    0  0.00000000000E+00  0.00000000000E+00 -0.10180087362E+04  0.10180087362E+04  0.50400001928E-02 0.  1.
    10030    2    1    2    0    0  0.00000000000E+00  0.00000000000E+00 -0.53683137754E+03  0.14991860949E+04  0.13997753460E+04 0.  0.
        1    1    3    3  502    0 -0.58236398116E+03 -0.63230665640E+02  0.14179556597E+03  0.60270382958E+03  0.50400001928E-02 0. -1.
       -1    1    3    3    0  502  0.58236398116E+03  0.63230665640E+02 -0.67862694350E+03  0.89648226536E+03  0.50400001928E-02 0.  1.
</event>
<event>
 5   0  0.4460282E-05  0.1400581E+04  0.7818609E-02  0.8953398E-01
       -2   -1    0    0    0  501  0.00000000000E+00  0.00000000000E+00  0.20649269212E+03  0.20649269214E+03  0.25500000920E-02 0. -1.
        2   -1    0    0  501    0  0.00000000000E+00  0.00000000000E+00 -0.23749368615E+04  0.23749368615E+04  0.25500000920E-02 0.  1.
    10030    2    1    2    0    0  0.00000000000E+00  0.00000000000E+00 -0.21684441694E+04  0.25814295537E+04  0.14005814595E+04 0.  0.
        1    1    3    3  502    0  0.53595364169E+02  0.27427522727E+03  0.99262621629E+02  0.29656775184E+03  0.50400001928E-02 0. -1.
       -1    1    3    3    0  502 -0.53595364169E+02 -0.27427522727E+03 -0.22677067910E+04  0.22848618018E+04  0.50400001928E-02 0.  1.
</event>
<event>
 5   0  0.2316714E-05  0.1402436E+04  0.7818609E-02  0.8952057E-01
        1   -1    0    0  501    0  0.00000000000E+00  0.00000000000E+00  0.11835003415E+04  0.11835003415E+04  0.50400001928E-02 0.  1.
       -1   -1    0    0    0  501  0.00000000000E+00  0.00000000000E+00 -0.41546826655E+03  0.41546826658E+03  0.50400001928E-02 0. -1.
    10030    2    1    2    0    0  0.00000000000E+00  0.00000000000E+00  0.76803207498E+03  0.15989686081E+04  0.14024362166E+04 0.  0.
        5    1    3    3  502    0 -0.21342898551E+03  0.21120834031E+03 -0.33844177664E+03  0.45246637559E+03  0.46999998093E+01 0. -1.
       -5    1    3    3    0  502  0.21342898551E+03 -0.21120834031E+03  0.11064738516E+04  0.11465022325E+04  0.46999998093E+01 0.  1.
</event>
<event>
 5   0  0.2427569E-05  0.1399042E+04  0.7818609E-02  0.8954512E-01
       -1   -1    0    0    0  501  0.00000000000E+00  0.00000000000E+00  0.11571371166E+04  0.11571371166E+04  0.50400001928E-02 0. -1.
        1   -1    0    0  501    0  0.00000000000E+00  0.00000000000E+00 -0.42287945311E+03  0.42287945314E+03  0.50400001928E-02 0.  1.
    10030    2    1    2    0    0  0.00000000000E+00  0.00000000000E+00  0.73425766345E+03  0.15800165697E+04  0.13990418308E+04 0.  0.
        1    1    3    3  502    0  0.55270666982E+03 -0.17235472020E+03  0.81051974185E+03  0.99605876553E+03  0.50400001928E-02 0. -1.
       -1    1    3    3    0  502 -0.55270666982E+03  0.17235472020E+03 -0.76262078395E+02  0.58395780418E+03  0.50400001928E-02 0.  1.
</event>
<event>
 5   0  0.4441253E-05  0.1400136E+04  0.7818609E-02  0.8953720E-01
        2   -1    0    0  501    0  0.00000000000E+00  0.00000000000E+00  0.10549740094E+04  0.10549740094E+04  0.25500000920E-02 0. -1.
       -2   -1    0    0    0  501  0.00000000000E+00  0.00000000000E+00 -0.46455698065E+03  0.46455698066E+03  0.25500000920E-02 0.  1.
    10030    2    1    2    0    0  0.00000000000E+00  0.00000000000E+00  0.59041702871E+03  0.15195309900E+04  0.14001364797E+04 0.  0.
        3    1    3    3  502    0  0.45568728178E+03  0.35481302905E+03  0.72461537667E+03  0.92661245333E+03  0.10100000352E+00 0. -1.
       -3    1    3    3    0  502 -0.45568728178E+03 -0.35481302905E+03 -0.13419834796E+03  0.59291853670E+03  0.10100000352E+00 0.  1.
</event>
<event>
 5   0  0.2427569E-05  0.1399938E+04  0.7818609E-02  0.8953864E-01
        1   -1    0    0  501    0  0.00000000000E+00  0.00000000000E+00  0.66970789570E+03  0.66970789572E+03  0.50400001928E-02 0.  1.
       -1   -1    0    0    0  501  0.00000000000E+00  0.00000000000E+00 -0.73159700921E+03  0.73159700923E+03  0.50400001928E-02 0. -1.
    10030    2    1    2    0    0  0.00000000000E+00  0.00000000000E+00 -0.61889113509E+02  0.14013049049E+04  0.13999375608E+04 0.  0.
        1    1    3    3  502    0 -0.76491545472E+02 -0.62205847533E+03  0.28104655929E+03  0.68687325743E+03  0.50400001928E-02 0. -1.
       -1    1    3    3    0  502  0.76491545472E+02  0.62205847533E+03 -0.34293567280E+03  0.71443164751E+03  0.50400001928E-02 0.  1.
</event>
<event>
 5   0  0.2427569E-05  0.1400326E+04  0.7818609E-02  0.8953583E-01
        1   -1    0    0  501    0  0.00000000000E+00  0.00000000000E+00  0.13552353338E+04  0.13552353338E+04  0.50400001928E-02 0. -1.
       -1   -1    0    0    0  501  0.00000000000E+00  0.00000000000E+00 -0.36172926608E+03  0.36172926612E+03  0.50400001928E-02 0.  1.
    10030    2    1    2    0    0  0.00000000000E+00  0.00000000000E+00  0.99350606774E+03  0.17169645999E+04  0.14003260802E+04 0.  0.
        1    1    3    3  502    0 -0.59900724306E+03 -0.17509447762E+03  0.88595711353E+03  0.10836917276E+04  0.50400001928E-02 0.  1.
       -1    1    3    3    0  502  0.59900724306E+03  0.17509447762E+03  0.10754895421E+03  0.63327287239E+03  0.50400001928E-02 0. -1.
</event>
<event>
 5   0  0.2363419E-05  0.1401666E+04  0.7818609E-02  0.8952613E-01
       -1   -1    0    0    0  501  0.00000000000E+00  0.00000000000E+00  0.72359111012E+03  0.72359111014E+03  0.50400001928E-02 0. -1.
        1   -1    0    0  501    0  0.00000000000E+00  0.00000000000E+00 -0.67879092477E+03  0.67879092479E+03  0.50400001928E-02 0.  1.
    10030    2    1    2    0    0  0.00000000000E+00  0.00000000000E+00  0.44800185343E+02  0.14023820349E+04  0.14016662639E+04 0.  0.
        2    1    3    3  502    0  0.11242528357E+03 -0.18177093826E+03  0.69018902557E+03  0.72252405455E+03  0.25500000920E-02 0. -1.
       -2    1    3    3    0  502 -0.11242528357E+03  0.18177093826E+03 -0.64538884023E+03  0.67985798038E+03  0.25500000920E-02 0.  1.
</event>
<event>
 5   0  0.4460282E-05  0.1400055E+04  0.7818609E-02  0.8953779E-01
       -2   -1    0    0    0  501  0.00000000000E+00  0.00000000000E+00  0.54424272884E+03  0.54424272884E+03  0.25500000920E-02 0.  1.
        2   -1    0    0  501    0  0.00000000000E+00  0.00000000000E+00 -0.90040375945E+03  0.90040375945E+03  0.25500000920E-02 0. -1.
    10030    2    1    2    0    0  0.00000000000E+00  0.00000000000E+00 -0.35616103061E+03  0.14446464883E+04  0.14000545691E+04 0.  0.
        1    1    3    3  502    0 -0.45325868331E+03  0.42348005963E+03  0.15668990431E+03  0.63978943492E+03  0.50400001928E-02 0. -1.
       -1    1    3    3    0  502  0.45325868331E+03 -0.42348005963E+03 -0.51285093492E+03  0.80485705338E+03  0.50400001928E-02 0.  1.
</event>
<event>
 5   0  0.1661000E-05  0.1399910E+04  0.7818609E-02  0.8953883E-01
       -3   -1    0    0    0  501  0.00000000000E+00  0.00000000000E+00  0.52037359336E+03  0.52037360316E+03  0.10100000352E+00 0. -1.
        3   -1    0    0  501    0  0.00000000000E+00  0.00000000000E+00 -0.94151073902E+03  0.94151074443E+03  0.10100000352E+00 0.  1.
    10030    2    1    2    0    0  0.00000000000E+00  0.00000000000E+00 -0.42113714566E+03  0.14618843476E+04  0.13999104794E+04 0.  0.
        2    1    3    3  502    0 -0.37494130126E+03  0.25511084709E+03  0.34620926929E+03  0.57054656413E+03  0.25500000920E-02 0. -1.
       -2    1    3    3    0  502  0.37494130126E+03 -0.25511084709E+03 -0.76734641495E+03  0.89133778346E+03  0.25500000920E-02 0.  1.
</event>
<event>
 5   0  0.4441253E-05  0.1399892E+04  0.7818609E-02  0.8953897E-01
        2   -1    0    0  501    0  0.00000000000E+00  0.00000000000E+00  0.18171673220E+04  0.18171673220E+04  0.25500000920E-02 0. -1.
       -2   -1    0    0    0  501  0.00000000000E+00  0.00000000000E+00 -0.26960873044E+03  0.26960873045E+03  0.25500000920E-02 0.  1.
    10030    2    1    2    0    0  0.00000000000E+00  0.00000000000E+00  0.15475585915E+04  0.20867760524E+04  0.13998916739E+04 0.  0.
        3    1    3    3  502    0 -0.10753166010E+03  0.30447181274E+03  0.16995055873E+04  0.17299090710E+04  0.10100000352E+00 0. -1.
       -3    1    3    3    0  502  0.10753166010E+03 -0.30447181274E+03 -0.15194699575E+03  0.35686698138E+03  0.10100000352E+00 0.  1.
</event>
<event>
 5   0  0.4243281E-05  0.1399822E+04  0.7818609E-02  0.8953948E-01
        2   -1    0    0  501    0  0.00000000000E+00  0.00000000000E+00  0.45546735045E+03  0.45546735046E+03  0.25500000920E-02 0.  1.
       -2   -1    0    0    0  501  0.00000000000E+00  0.00000000000E+00 -0.10755441165E+04  0.10755441165E+04  0.25500000920E-02 0. -1.
    10030    2    1    2    0    0  0.00000000000E+00  0.00000000000E+00 -0.62007676603E+03  0.15310114669E+04  0.13998217444E+04 0.  0.
        2    1    3    3  502    0 -0.42888277083E+03 -0.15706100914E+03  0.27001079883E+03  0.53057932790E+03  0.25500000920E-02 0.  1.
       -2    1    3    3    0  502  0.42888277083E+03  0.15706100914E+03 -0.89008756486E+03  0.10004321390E+04  0.25500000920E-02 0. -1.
</event>
<event>
 5   0  0.4527503E-05  0.1392906E+04  0.7818609E-02  0.8958969E-01
        2   -1    0    0  501    0  0.00000000000E+00  0.00000000000E+00  0.14502764018E+04  0.14502764018E+04  0.25500000920E-02 0. -1.
       -2   -1    0    0    0  501  0.00000000000E+00  0.00000000000E+00 -0.33445133944E+03  0.33445133945E+03  0.25500000920E-02 0.  1.
    10030    2    1    2    0    0  0.00000000000E+00  0.00000000000E+00  0.11158250624E+04  0.17847277413E+04  0.13929061493E+04 0.  0.
        4    1    3    3  502    0 -0.18446031429E+02 -0.29561282922E+03  0.13655552422E+04  0.13973081025E+04  0.12699999809E+01 0. -1.
       -4    1    3    3    0  502  0.18446031429E+02  0.29561282922E+03 -0.24973017984E+03  0.38741963876E+03  0.12699999809E+01 0.  1.
</event>
<event>
 5   0  0.4441253E-05  0.1400444E+04  0.7818609E-02  0.8953497E-01
       -2   -1    0    0    0  501  0.00000000000E+00  0.00000000000E+00  0.44614465936E+03  0.44614465937E+03  0.25500000920E-02 0. -1.
        2   -1    0    0  501    0  0.00000000000E+00  0.00000000000E+00 -0.10989950201E+04  0.10989950201E+04  0.25500000920E-02 0.  1.
    10030    2    1    2    0    0  0.00000000000E+00  0.00000000000E+00 -0.65285036073E+03  0.15451396795E+04  0.14004438709E+04 0.  0.
        3    1    3    3  502    0  0.34234340764E+03  0.23911178410E+03 -0.94658337353E+03  0.10345982541E+04  0.10100000352E+00 0.  1.
       -3    1    3    3    0  502 -0.34234340764E+03 -0.23911178410E+03  0.29373301280E+03  0.51054142541E+03  0.10100000352E+00 0. -1.
</event>
<event>
 5   0  0.2427569E-05  0.1399814E+04  0.7818609E-02  0.8953954E-01
       -1   -1    0    0    0  501  0.00000000000E+00  0.00000000000E+00  0.37656487807E+03  0.37656487810E+03  0.50400001928E-02 0. -1.
        1   -1    0    0  501    0  0.00000000000E+00  0.00000000000E+00 -0.13008899391E+04  0.13008899391E+04  0.50400001928E-02 0.  1.
    10030    2    1    2    0    0  0.00000000000E+00  0.00000000000E+00 -0.92432506105E+03  0.16774548172E+04  0.13998135038E+04 0.  0.
        1    1    3    3  502    0 -0.23615888304E+03  0.59770795369E+03 -0.12997400120E+03  0.65568213104E+03  0.50400001928E-02 0. -1.
       -1    1    3    3    0  502  0.23615888304E+03 -0.59770795369E+03 -0.79435105985E+03  0.10217726862E+04  0.50400001928E-02 0.  1.
</event>
<event>
 5   0  0.1661000E-05  0.1397432E+04  0.7818609E-02  0.8955680E-01
       -3   -1    0    0    0  501  0.00000000000E+00  0.00000000000E+00  0.42406159995E+03  0.42406161198E+03  0.10100000352E+00 0. -1.
        3   -1    0    0  501    0  0.00000000000E+00  0.00000000000E+00 -0.11512566537E+04  0.11512566581E+04  0.10100000352E+00 0.  1.
    10030    2    1    2    0    0  0.00000000000E+00  0.00000000000E+00 -0.72719505371E+03  0.15753182701E+04  0.13974315747E+04 0.  0.
        2    1    3    3  502    0 -0.82925890508E+02  0.19966745232E+03 -0.11126002837E+04  0.11334121872E+04  0.25500000920E-02 0.  1.
       -2    1    3    3    0  502  0.82925890508E+02 -0.19966745232E+03  0.38540522994E+03  0.44190608290E+03  0.25500000920E-02 0. -1.
</event>
<event>
 5   0  0.1661000E-05  0.1400109E+04  0.7818609E-02  0.8953740E-01
       -3   -1    0    0    0  501  0.00000000000E+00  0.00000000000E+00  0.33175647119E+03  0.33175648656E+03  0.10100000352E+00 0.  1.
        3   -1    0    0  501    0  0.00000000000E+00  0.00000000000E+00 -0.14772170623E+04  0.14772170658E+04  0.10100000352E+00 0. -1.
    10030    2    1    2    0    0  0.00000000000E+00  0.00000000000E+00 -0.11454605911E+04  0.18089735523E+04  0.14001090483E+04 0.  0.
        1    1    3    3  502    0 -0.47129799608E+03 -0.30265513449E+03 -0.30150632654E+02  0.56091977343E+03  0.50400001928E-02 0.  1.
       -1    1    3    3    0  502  0.47129799608E+03  0.30265513449E+03 -0.11153099585E+04  0.12480537789E+04  0.50400001928E-02 0. -1.
</event>
<event>
 5   0  0.4527503E-05  0.1399483E+04  0.7818609E-02  0.8954193E-01
       -2   -1    0    0    0  501  0.00000000000E+00  0.00000000000E+00  0.40528014429E+03  0.40528014430E+03  0.25500000920E-02 0.  1.
        2   -1    0    0  501    0  0.00000000000E+00  0.00000000000E+00 -0.12081466737E+04  0.12081466737E+04  0.25500000920E-02 0. -1.
    10030    2    1    2    0    0  0.00000000000E+00  0.00000000000E+00 -0.80286652943E+03  0.16134268180E+04  0.13994825590E+04 0.  0.
        4    1    3    3  502    0 -0.31889959739E+03 -0.46776039380E+03 -0.87557076972E+03  0.10426516796E+04  0.12699999809E+01 0. -1.
       -4    1    3    3    0  502  0.31889959739E+03  0.46776039380E+03  0.72704240287E+02  0.57077513846E+03  0.12699999809E+01 0.  1.
</event>
<event>
 5   0  0.4243281E-05  0.1399552E+04  0.7818609E-02  0.8954143E-01
       -2   -1    0    0    0  501  0.00000000000E+00  0.00000000000E+00  0.72156463078E+03  0.72156463078E+03  0.25500000920E-02 0.  1.
        2   -1    0    0  501    0  0.00000000000E+00  0.00000000000E+00 -0.67864542438E+03  0.67864542439E+03  0.25500000920E-02 0. -1.
    10030    2    1    2    0    0  0.00000000000E+00  0.00000000000E+00  0.42919206391E+02  0.14002100552E+04  0.13995521213E+04 0.  0.
        2    1    3    3  502    0 -0.72540514708E+02 -0.28601942930E+03 -0.61335999885E+03  0.68064655175E+03  0.25500000920E-02 0. -1.
       -2    1    3    3    0  502  0.72540514708E+02  0.28601942930E+03  0.65627920524E+03  0.71956350342E+03  0.25500000920E-02 0.  1.
</event>
<event>
 5   0  0.2363419E-05  0.1399469E+04  0.7818609E-02  0.8954203E-01
       -1   -1    0    0    0  501  0.00000000000E+00  0.00000000000E+00  0.63450166870E+03  0.63450166872E+03  0.50400001928E-02 0.  1.
        1   -1    0    0  501    0  0.00000000000E+00  0.00000000000E+00 -0.77167440431E+03  0.77167440433E+03  0.50400001928E-02 0. -1.
    10030    2    1    2    0    0  0.00000000000E+00  0.00000000000E+00 -0.13717273562E+03  0.14061760730E+04  0.13994694670E+04 0.  0.
        2    1    3    3  502    0  0.36578361244E+03  0.51963300372E+03 -0.36292805508E+03  0.73180112248E+03  0.25500000920E-02 0. -1.
       -2    1    3    3    0  502 -0.36578361244E+03 -0.51963300372E+03  0.22575531947E+03  0.67437495057E+03  0.25500000920E-02 0.  1.
</event>
<event>
 5   0  0.1661000E-05  0.1400540E+04  0.7818609E-02  0.8953428E-01
       -4   -1    0    0    0  501  0.00000000000E+00  0.00000000000E+00  0.14677370847E+04  0.14677376342E+04  0.12699999809E+01 0.  1.
        4   -1    0    0  501    0  0.00000000000E+00  0.00000000000E+00 -0.33410283746E+03  0.33410525123E+03  0.12699999809E+01 0. -1.
    10030    2    1    2    0    0  0.00000000000E+00  0.00000000000E+00  0.11336342473E+04  0.18018428854E+04  0.14005396021E+04 0.  0.
        5    1    3    3  502    0 -0.26284793386E+03 -0.59109506107E+03  0.91172674439E+03  0.11179222486E+04  0.46999998093E+01 0.  1.
       -5    1    3    3    0  502  0.26284793386E+03  0.59109506107E+03  0.22190750287E+03  0.68392063676E+03  0.46999998093E+01 0. -1.
</event>
<event>
 5   0  0.4460282E-05  0.1399516E+04  0.7818609E-02  0.8954169E-01
       -2   -1    0    0    0  501  0.00000000000E+00  0.00000000000E+00  0.12245158258E+04  0.12245158258E+04  0.25500000920E-02 0.  1.
        2   -1    0    0  501    0  0.00000000000E+00  0.00000000000E+00 -0.39988151536E+03  0.39988151537E+03  0.25500000920E-02 0. -1.
    10030    2    1    2    0    0  0.00000000000E+00  0.00000000000E+00  0.82463431039E+03  0.16243973411E+04  0.13995159792E+04 0.  0.
        1    1    3    3  502    0 -0.26601279573E+03  0.47224679151E+03  0.92601886713E+03  0.10729821909E+04  0.50400001928E-02 0.  1.
       -1    1    3    3    0  502  0.26601279573E+03 -0.47224679151E+03 -0.10138455674E+03  0.55141515028E+03  0.50400001928E-02 0. -1.
</event>
<event>
 5   0  0.2427569E-05  0.1400169E+04  0.7818609E-02  0.8953696E-01
        1   -1    0    0  501    0  0.00000000000E+00  0.00000000000E+00  0.11352326831E+04  0.11352326831E+04  0.50400001928E-02 0.  1.
       -1   -1    0    0    0  501  0.00000000000E+00  0.00000000000E+00 -0.43173386480E+03  0.43173386483E+03  0.50400001928E-02 0. -1.
    10030    2    1    2    0    0  0.00000000000E+00  0.00000000000E+00  0.70349881828E+03  0.15669665479E+04  0.14001691237E+04 0.  0.
        1    1    3    3  502    0  0.56221654402E+03 -0.28625119598E+03  0.12133282492E+02  0.63101062284E+03  0.50400001928E-02 0. -1.
       -1    1    3    3    0  502 -0.56221654402E+03  0.28625119598E+03  0.69136553579E+03  0.93595592507E+03  0.50400001928E-02 0.  1.
</event>
<event>
 5   0  0.2316714E-05  0.1399709E+04  0.7818609E-02  0.8954029E-01
       -1   -1    0    0    0  501  0.00000000000E+00  0.00000000000E+00  0.41923341706E+03  0.41923341709E+03  0.50400001928E-02 0.  1.
        1   -1    0    0  501    0  0.00000000000E+00  0.00000000000E+00 -0.11683137167E+04  0.11683137167E+04  0.50400001928E-02 0. -1.
    10030    2    1    2    0    0  0.00000000000E+00  0.00000000000E+00 -0.74908029960E+03  0.15875471338E+04  0.13997087578E+04 0.  0.
        5    1    3    3  502    0  0.31318943688E+03  0.56277412029E+02 -0.10815008012E+04  0.11273512512E+04  0.46999998093E+01 0. -1.
       -5    1    3    3    0  502 -0.31318943688E+03 -0.56277412029E+02  0.33242050161E+03  0.46019588260E+03  0.46999998093E+01 0.  1.
</event>
<event>
 5   0  0.2427569E-05  0.1401038E+04  0.7818609E-02  0.8953068E-01
       -1   -1    0    0    0  501  0.00000000000E+00  0.00000000000E+00  0.57593183176E+03  0.57593183178E+03  0.50400001928E-02 0. -1.
        1   -1    0    0  501    0  0.00000000000E+00  0.00000000000E+00 -0.85205726246E+03  0.85205726247E+03  0.50400001928E-02 0.  1.
    10030    2    1    2    0    0  0.00000000000E+00  0.00000000000E+00 -0.27612543070E+03  0.14279890943E+04  0.14010380437E+04 0.  0.
        1    1    3    3  502    0  0.16202341533E+03 -0.30525879838E+03  0.48299645659E+03  0.59390243155E+03  0.50400001928E-02 0. -1.
       -1    1    3    3    0  502 -0.16202341533E+03  0.30525879838E+03 -0.75912188729E+03  0.83408666270E+03  0.50400001928E-02 0.  1.
</event>
<event>
 5   0  0.2467303E-05  0.1399749E+04  0.7818609E-02  0.8954000E-01
        1   -1    0    0  501    0  0.00000000000E+00  0.00000000000E+00  0.13417489597E+04  0.13417489597E+04  0.50400001928E-02 0. -1.
       -1   -1    0    0    0  501  0.00000000000E+00  0.00000000000E+00 -0.36506424276E+03  0.36506424280E+03  0.50400001928E-02 0.  1.
    10030    2    1    2    0    0  0.00000000000E+00  0.00000000000E+00  0.97668471690E+03  0.17068132025E+04  0.13997493604E+04 0.  0.
        3    1    3    3  502    0 -0.57678950001E+03 -0.38056460229E+03  0.35305807446E+03  0.77599327187E+03  0.10100000352E+00 0.  1.
       -3    1    3    3    0  502  0.57678950001E+03  0.38056460229E+03  0.62362664244E+03  0.93081993060E+03  0.10100000352E+00 0. -1.
</event>
<event>
 5   0  0.4441253E-05  0.1399480E+04  0.7818609E-02  0.8954195E-01
       -2   -1    0    0    0  501  0.00000000000E+00  0.00000000000E+00  0.28453838290E+03  0.28453838292E+03  0.25500000920E-02 0.  1.
        2   -1    0    0  501    0  0.00000000000E+00  0.00000000000E+00 -0.17208080805E+04  0.17208080805E+04  0.25500000920E-02 0. -1.
    10030    2    1    2    0    0  0.00000000000E+00  0.00000000000E+00 -0.14362696976E+04  0.20053464634E+04  0.13994798298E+04 0.  0.
        3    1    3    3  502    0 -0.28369397374E+03  0.41295276971E+03 -0.18164666325E+02  0.50134042930E+03  0.10100000352E+00 0.  1.
       -3    1    3    3    0  502  0.28369397374E+03 -0.41295276971E+03 -0.14181050313E+04  0.15040060341E+04  0.10100000352E+00 0. -1.
</event>
<event>
 5   0  0.4460282E-05  0.1398327E+04  0.7818609E-02  0.8955031E-01
       -2   -1    0    0    0  501  0.00000000000E+00  0.00000000000E+00  0.91183933840E+03  0.91183933840E+03  0.25500000920E-02 0. -1.
        2   -1    0    0  501    0  0.00000000000E+00  0.00000000000E+00 -0.53609145775E+03  0.53609145776E+03  0.25500000920E-02 0.  1.
    10030    2    1    2    0    0  0.00000000000E+00  0.00000000000E+00  0.37574788065E+03  0.14479307962E+04  0.13983265429E+04 0.  0.
        1    1    3    3  502    0 -0.34435426859E+03 -0.19920791285E+03  0.78321803340E+03  0.87846123574E+03  0.50400001928E-02 0. -1.
       -1    1    3    3    0  502  0.34435426859E+03  0.19920791285E+03 -0.40747015275E+03  0.56946956042E+03  0.50400001928E-02 0.  1.
</event>
<event>
 5   0  0.1661000E-05  0.1400256E+04  0.7818609E-02  0.8953633E-01
        3   -1    0    0  501    0  0.00000000000E+00  0.00000000000E+00  0.84192973157E+03  0.84192973763E+03  0.10100000352E+00 0. -1.
       -3   -1    0    0    0  501  0.00000000000E+00  0.00000000000E+00 -0.58220895871E+03  0.58220896747E+03  0.10100000352E+00 0.  1.
    10030    2    1    2    0    0  0.00000000000E+00  0.00000000000E+00  0.25972077286E+03  0.14241387051E+04  0.14002557522E+04 0.  0.
        4    1    3    3  502    0 -0.21425675053E+02  0.45250983110E+03 -0.41305445169E+03  0.61305774585E+03  0.12699999809E+01 0.  1.
       -4    1    3    3    0  502  0.21425675053E+02 -0.45250983110E+03  0.67277522454E+03  0.81108095925E+03  0.12699999809E+01 0. -1.
</event>
<event>
 5   0  0.4527503E-05  0.1399904E+04  0.7818609E-02  0.8953888E-01
       -2   -1    0    0    0  501  0.00000000000E+00  0.00000000000E+00  0.70456003485E+03  0.70456003486E+03  0.25500000920E-02 0. -1.
        2   -1    0    0  501    0  0.00000000000E+00  0.00000000000E+00 -0.69537439108E+03  0.69537439109E+03  0.25500000920E-02 0.  1.
    10030    2    1    2    0    0  0.00000000000E+00  0.00000000000E+00  0.91856437685E+01  0.13999344259E+04  0.13999042899E+04 0.  0.
        4    1    3    3  502    0 -0.31226820508E+03  0.62302748553E+03 -0.60652070398E+02  0.69953910982E+03  0.12699999809E+01 0.  1.
       -4    1    3    3    0  502  0.31226820508E+03 -0.62302748553E+03  0.69837714167E+02  0.70039531612E+03  0.12699999809E+01 0. -1.
</event>
<event>
 5   0  0.2363419E-05  0.1388998E+04  0.7818609E-02  0.8961821E-01
        1   -1    0    0  501    0  0.00000000000E+00  0.00000000000E+00  0.46662350543E+03  0.46662350545E+03  0.50400001928E-02 0.  1.
       -1   -1    0    0    0  501  0.00000000000E+00  0.00000000000E+00 -0.10336576573E+04  0.10336576573E+04  0.50400001928E-02 0. -1.
    10030    2    1    2    0    0  0.00000000000E+00  0.00000000000E+00 -0.56703415188E+03  0.15002811628E+04  0.13889981418E+04 0.  0.
        2    1    3    3  502    0 -0.87729462716E+02  0.68515063760E+03 -0.36141372715E+03  0.77958177058E+03  0.25500000920E-02 0. -1.
       -2    1    3    3    0  502  0.87729462716E+02 -0.68515063760E+03 -0.20562042473E+03  0.72069939219E+03  0.25500000920E-02 0.  1.
</event>
<event>
 5   0  0.4621450E-05  0.1399703E+04  0.7818609E-02  0.8954034E-01
        2   -1    0    0  501    0  0.00000000000E+00  0.00000000000E+00  0.17566052745E+04  0.17566052745E+04  0.25500000920E-02 0. -1.
       -2   -1    0    0    0  501  0.00000000000E+00  0.00000000000E+00 -0.27882878086E+03  0.27882878087E+03  0.25500000920E-02 0.  1.
    10030    2    1    2    0    0  0.00000000000E+00  0.00000000000E+00  0.14777764937E+04  0.20354340554E+04  0.13997029787E+04 0.  0.
        5    1    3    3  502    0  0.50708406028E+03 -0.43110678874E+03  0.42435697135E+03  0.78935938369E+03  0.46999998093E+01 0. -1.
       -5    1    3    3    0  502 -0.50708406028E+03  0.43110678874E+03  0.10534195223E+04  0.12460746717E+04  0.46999998093E+01 0.  1.
</event>
<event>
 5   0  0.4621450E-05  0.1398930E+04  0.7818609E-02  0.8954593E-01
       -2   -1    0    0    0  501  0.00000000000E+00  0.00000000000E+00  0.40985293071E+03  0.40985293072E+03  0.25500000920E-02 0.  1.
        2   -1    0    0  501    0  0.00000000000E+00  0.00000000000E+00 -0.11937241499E+04  0.11937241499E+04  0.25500000920E-02 0. -1.
    10030    2    1    2    0    0  0.00000000000E+00  0.00000000000E+00 -0.78387121915E+03  0.16035770806E+04  0.13989300787E+04 0.  0.
        5    1    3    3  502    0 -0.16639810920E+03  0.65974254459E+03 -0.20610713639E+03  0.71095062948E+03  0.46999998093E+01 0.  1.
       -5    1    3    3    0  502  0.16639810920E+03 -0.65974254459E+03 -0.57776408276E+03  0.89262645111E+03  0.46999998093E+01 0. -1.
</event>
<event>
 5   0  0.4441253E-05  0.1400254E+04  0.7818609E-02  0.8953634E-01
       -2   -1    0    0    0  501  0.00000000000E+00  0.00000000000E+00  0.62986700757E+03  0.62986700757E+03  0.25500000920E-02 0. -1.
        2   -1    0    0  501    0  0.00000000000E+00  0.00000000000E+00 -0.77822468811E+03  0.77822468811E+03  0.25500000920E-02 0.  1.
    10030    2    1    2    0    0  0.00000000000E+00  0.00000000000E+00 -0.14835768054E+03  0.14080916957E+04  0.14002543419E+04 0.  0.
        3    1    3    3  502    0 -0.13482011580E+03  0.55867665552E+03 -0.47626929470E+03  0.74641042351E+03  0.10100000352E+00 0.  1.
       -3    1    3    3    0  502  0.13482011580E+03 -0.55867665552E+03  0.32791161416E+03  0.66168127218E+03  0.10100000352E+00 0. -1.
</event>
<event>
 5   0  0.4621450E-05  0.1399788E+04  0.7818609E-02  0.8953972E-01
       -2   -1    0    0    0  501  0.00000000000E+00  0.00000000000E+00  0.39807509429E+03  0.39807509429E+03  0.25500000920E-02 0.  1.
        2   -1    0    0  501    0  0.00000000000E+00  0.00000000000E+00 -0.12305503413E+04  0.12305503413E+04  0.25500000920E-02 0. -1.
    10030    2    1    2    0    0  0.00000000000E+00  0.00000000000E+00 -0.83247524704E+03  0.16286254356E+04  0.13997877598E+04 0.  0.
        5    1    3    3  502    0 -0.10853876099E+03  0.89270203392E+01  0.38813797279E+03  0.40315447442E+03  0.46999998093E+01 0.  1.
       -5    1    3    3    0  502  0.10853876099E+03 -0.89270203392E+01 -0.12206132198E+04  0.12254709612E+04  0.46999998093E+01 0. -1.
</event>
<event>
 5   0  0.4243281E-05  0.1400089E+04  0.7818609E-02  0.8953754E-01
        2   -1    0    0  501    0  0.00000000000E+00  0.00000000000E+00  0.15062550027E+04  0.15062550027E+04  0.25500000920E-02 0. -1.
       -2   -1    0    0    0  501  0.00000000000E+00  0.00000000000E+00 -0.32535149336E+03  0.32535149337E+03  0.25500000920E-02 0.  1.
    10030    2    1    2    0    0  0.00000000000E+00  0.00000000000E+00  0.11809035093E+04  0.18316064960E+04  0.14000890179E+04 0.  0.
        2    1    3    3  502    0  0.44196012558E+03  0.15735673266E+03  0.12701814233E+04  0.13540497561E+04  0.25500000920E-02 0. -1.
       -2    1    3    3    0  502 -0.44196012558E+03 -0.15735673266E+03 -0.89277913996E+02  0.47755673993E+03  0.25500000920E-02 0.  1.
</event>
<event>
 5   0  0.4621450E-05  0.1400139E+04  0.7818609E-02  0.8953718E-01
        2   -1    0    0  501    0  0.00000000000E+00  0.00000000000E+00  0.47233363245E+03  0.47233363246E+03  0.25500000920E-02 0.  1.
       -2   -1    0    0    0  501  0.00000000000E+00  0.00000000000E+00 -0.10376083027E+04  0.10376083027E+04  0.25500000920E-02 0. -1.
    10030    2    1    2    0    0  0.00000000000E+00  0.00000000000E+00 -0.56527467027E+03  0.15099419352E+04  0.14001389912E+04 0.  0.
        5    1    3    3  502    0 -0.43266911427E+03  0.46626385639E+03 -0.59791821354E+03  0.87300219146E+03  0.46999998093E+01 0. -1.
       -5    1    3    3    0  502  0.43266911427E+03 -0.46626385639E+03  0.32643543267E+02  0.63693974372E+03  0.46999998093E+01 0.  1.
</event>
<event>
 5   0  0.4243281E-05  0.1400512E+04  0.7818609E-02  0.8953448E-01
       -2   -1    0    0    0  501  0.00000000000E+00  0.00000000000E+00  0.17627630958E+03  0.17627630960E+03  0.25500000920E-02 0.  1.
        2   -1    0    0  501    0  0.00000000000E+00  0.00000000000E+00 -0.27817587850E+04  0.27817587850E+04  0.25500000920E-02 0. -1.
    10030    2    1    2    0    0  0.00000000000E+00  0.00000000000E+00 -0.26054824754E+04  0.29580350946E+04  0.14005115820E+04 0.  0.
        2    1    3    3  502    0  0.48547898436E+03 -0.34508034679E+03 -0.52501445127E+03  0.79398391927E+03  0.25500000920E-02 0. -1.
       -2    1    3    3    0  502 -0.48547898436E+03  0.34508034679E+03 -0.20804680242E+04  0.21640511754E+04  0.25500000920E-02 0.  1.
</event>
<event>
 5   0  0.4527503E-05  0.1399403E+04  0.7818609E-02  0.8954251E-01
        2   -1    0    0  501    0  0.00000000000E+00  0.00000000000E+00  0.11039078177E+04  0.11039078177E+04  0.25500000920E-02 0.  1.
       -2   -1    0    0    0  501  0.00000000000E+00  0.00000000000E+00 -0.44349926927E+03  0.44349926927E+03  0.25500000920E-02 0. -1.
    10030    2    1    2    0    0  0.00000000000E+00  0.00000000000E+00  0.66040854839E+03  0.15474070869E+04  0.13994031735E+04 0.  0.
        4    1    3    3  502    0 -0.34355924914E+03 -0.48881844017E+03 -0.72457576838E+02  0.60185391787E+03  0.12699999809E+01 0. -1.
       -4    1    3    3    0  502  0.34355924914E+03  0.48881844017E+03  0.73286612523E+03  0.94555316906E+03  0.12699999809E+01 0.  1.
</event>
<event>
 5   0  0.4460282E-05  0.1399455E+04  0.7818609E-02  0.8954213E-01
       -2   -1    0    0    0  501  0.00000000000E+00  0.00000000000E+00  0.19507107712E+03  0.19507107714E+03  0.25500000920E-02 0.  1.
        2   -1    0    0  501    0  0.00000000000E+00  0.00000000000E+00 -0.25099496066E+04  0.25099496066E+04  0.25500000920E-02 0. -1.
    10030    2    1    2    0    0  0.00000000000E+00  0.00000000000E+00 -0.23148785295E+04  0.27050206838E+04  0.13994549987E+04 0.  0.
        1    1    3    3  502    0 -0.25493147204E+03  0.55659705530E+03 -0.50244725972E+03  0.79198711242E+03  0.50400001928E-02 0. -1.
       -1    1    3    3    0  502  0.25493147204E+03 -0.55659705530E+03 -0.18124312698E+04  0.19130335714E+04  0.50400001928E-02 0.  1.
</event>
<event>
 5   0  0.2427569E-05  0.1399342E+04  0.7818609E-02  0.8954295E-01
        1   -1    0    0  501    0  0.00000000000E+00  0.00000000000E+00  0.41228082333E+03  0.41228082336E+03  0.50400001928E-02 0. -1.
       -1   -1    0    0    0  501  0.00000000000E+00  0.00000000000E+00 -0.11873940280E+04  0.11873940281E+04  0.50400001928E-02 0.  1.
    10030    2    1    2    0    0  0.00000000000E+00  0.00000000000E+00 -0.77511320472E+03  0.15996748514E+04  0.13993423992E+04 0.  0.
        1    1    3    3  502    0 -0.32517194274E+03  0.58822704572E+03 -0.16532423895E+03  0.69215601830E+03  0.50400001928E-02 0.  1.
       -1    1    3    3    0  502  0.32517194274E+03 -0.58822704572E+03 -0.60978896577E+03  0.90751883311E+03  0.50400001928E-02 0. -1.
</event>
<event>
 5   0  0.2316714E-05  0.1400009E+04  0.7818609E-02  0.8953812E-01
       -1   -1    0    0    0  501  0.00000000000E+00  0.00000000000E+00  0.72172827088E+03  0.72172827090E+03  0.50400001928E-02 0.  1.
        1   -1    0    0  501    0  0.00000000000E+00  0.00000000000E+00 -0.67893491532E+03  0.67893491534E+03  0.50400001928E-02 0. -1.
    10030    2    1    2    0    0  0.00000000000E+00  0.00000000000E+00  0.42793355554E+02  0.14006631862E+04  0.14000093178E+04 0.  0.
        5    1    3    3  502    0 -0.61466000490E+02  0.35139645073E+03  0.62394609230E+03  0.71874080926E+03  0.46999998093E+01 0.  1.
       -5    1    3    3    0  502  0.61466000490E+02 -0.35139645073E+03 -0.58115273674E+03  0.68192237698E+03  0.46999998093E+01 0. -1.
</event>
<event>
 5   0  0.2363419E-05  0.1399692E+04  0.7818609E-02  0.8954042E-01
        1   -1    0    0  501    0  0.00000000000E+00  0.00000000000E+00  0.12854974733E+04  0.12854974733E+04  0.50400001928E-02 0.  1.
       -1   -1    0    0    0  501  0.00000000000E+00  0.00000000000E+00 -0.38100749217E+03  0.38100749221E+03  0.50400001928E-02 0. -1.
    10030    2    1    2    0    0  0.00000000000E+00  0.00000000000E+00  0.90448998114E+03  0.16665049655E+04  0.13996916354E+04 0.  0.
        2    1    3    3  502    0 -0.60172628059E+03  0.17480987863E+03  0.81138768570E+02  0.63183582534E+03  0.25500000920E-02 0. -1.
       -2    1    3    3    0  502  0.60172628059E+03 -0.17480987863E+03  0.82335121257E+03  0.10346691402E+04  0.25500000920E-02 0.  1.
</event>
<event>
 5   0  0.2316714E-05  0.1393173E+04  0.7818609E-02  0.8958775E-01
       -1   -1    0    0    0  501  0.00000000000E+00  0.00000000000E+00  0.11381092115E+04  0.11381092115E+04  0.50400001928E-02 0. -1.
        1   -1    0    0  501    0  0.00000000000E+00  0.00000000000E+00 -0.42635017020E+03  0.42635017023E+03  0.50400001928E-02 0.  1.
    10030    2    1    2    0    0  0.00000000000E+00  0.00000000000E+00  0.71175904130E+03  0.15644593817E+04  0.13931734365E+04 0.  0.
        5    1    3    3  502    0 -0.21507234790E+03  0.64387500631E+03  0.53121686351E+03  0.86200033913E+03  0.46999998093E+01 0. -1.
       -5    1    3    3    0  502  0.21507234790E+03 -0.64387500631E+03  0.18054217779E+03  0.70245904261E+03  0.46999998093E+01 0.  1.
</event>
<event>
 5   0  0.4460282E-05  0.1400616E+04  0.7818609E-02  0.8953373E-01
        2   -1    0    0  501    0  0.00000000000E+00  0.00000000000E+00  0.18453947396E+04  0.18453947396E+04  0.25500000920E-02 0. -1.
       -2   -1    0    0    0  501  0.00000000000E+00  0.00000000000E+00 -0.26575960849E+03  0.26575960851E+03  0.25500000920E-02 0.  1.
    10030    2    1    2    0    0  0.00000000000E+00  0.00000000000E+00  0.15796351311E+04  0.21111543481E+04  0.14006161266E+04 0.  0.
        1    1    3    3  502    0  0.59311295230E+03  0.33400162497E+03  0.10379114034E+04  0.12412091448E+04  0.50400001928E-02 0. -1.
       -1    1    3    3    0  502 -0.59311295230E+03 -0.33400162497E+03  0.54172372770E+03  0.86994520336E+03  0.50400001928E-02 0.  1.
</event>
<event>
 5   0  0.4527503E-05  0.1400563E+04  0.7818609E-02  0.8953411E-01
        2   -1    0    0  501    0  0.00000000000E+00  0.00000000000E+00  0.10505832851E+04  0.10505832851E+04  0.25500000920E-02 0. -1.
       -2   -1    0    0    0  501  0.00000000000E+00  0.00000000000E+00 -0.46678289648E+03  0.46678289649E+03  0.25500000920E-02 0.  1.
    10030    2    1    2    0    0  0.00000000000E+00  0.00000000000E+00  0.58380038863E+03  0.15173661816E+04  0.14005631850E+04 0.  0.
        4    1    3    3  502    0  0.45813453819E+03  0.17409201911E+03  0.83381260687E+03  0.96718165950E+03  0.12699999809E+01 0. -1.
       -4    1    3    3    0  502 -0.45813453819E+03 -0.17409201911E+03 -0.25001221824E+03  0.55018452210E+03  0.12699999809E+01 0.  1.
</event>
<event>
 5   0  0.2428507E-05  0.1399948E+04  0.7818609E-02  0.8953856E-01
       -1   -1    0    0    0  501  0.00000000000E+00  0.00000000000E+00  0.36733762531E+03  0.36733762535E+03  0.50400001928E-02 0.  1.
        1   -1    0    0  501    0  0.00000000000E+00  0.00000000000E+00 -0.13338231271E+04  0.13338231271E+04  0.50400001928E-02 0. -1.
    10030    2    1    2    0    0  0.00000000000E+00  0.00000000000E+00 -0.96648550182E+03  0.17011607525E+04  0.13999477421E+04 0.  0.
        4    1    3    3  502    0  0.41877737884E+03 -0.45691827538E+03 -0.87964379263E+02  0.62600970306E+03  0.12699999809E+01 0.  1.
       -4    1    3    3    0  502 -0.41877737884E+03  0.45691827538E+03 -0.87852112255E+03  0.10751510494E+04  0.12699999809E+01 0. -1.
</event>
<event>
 5   0  0.2363419E-05  0.1400051E+04  0.7818609E-02  0.8953782E-01
        1   -1    0    0  501    0  0.00000000000E+00  0.00000000000E+00  0.43471191584E+03  0.43471191587E+03  0.50400001928E-02 0.  1.
       -1   -1    0    0    0  501  0.00000000000E+00  0.00000000000E+00 -0.11272648264E+04  0.11272648264E+04  0.50400001928E-02 0. -1.
    10030    2    1    2    0    0  0.00000000000E+00  0.00000000000E+00 -0.69255291057E+03  0.15619767423E+04  0.14000506453E+04 0.  0.
        2    1    3    3  502    0  0.63140222781E+03 -0.15216886469E+03 -0.54896930833E+02  0.65179583436E+03  0.25500000920E-02 0.  1.
       -2    1    3    3    0  502 -0.63140222781E+03  0.15216886469E+03 -0.63765597973E+03  0.91018090793E+03  0.25500000920E-02 0. -1.
</event>
<event>
 5   0  0.2363419E-05  0.1399999E+04  0.7818609E-02  0.8953819E-01
        1   -1    0    0  501    0  0.00000000000E+00  0.00000000000E+00  0.42954931658E+03  0.42954931661E+03  0.50400001928E-02 0. -1.
       -1   -1    0    0    0  501  0.00000000000E+00  0.00000000000E+00 -0.11407287956E+04  0.11407287956E+04  0.50400001928E-02 0.  1.
    10030    2    1    2    0    0  0.00000000000E+00  0.00000000000E+00 -0.71117947901E+03  0.15702781122E+04  0.13999989637E+04 0.  0.
        2    1    3    3  502    0 -0.22418492213E+03 -0.66249506792E+03 -0.38811076887E+03  0.79986784111E+03  0.25500000920E-02 0.  1.
       -2    1    3    3    0  502  0.22418492213E+03  0.66249506792E+03 -0.32306871014E+03  0.77041027109E+03  0.25500000920E-02 0. -1.
</event>
<event>
 5   0  0.4243281E-05  0.1399544E+04  0.7818609E-02  0.8954148E-01
        2   -1    0    0  501    0  0.00000000000E+00  0.00000000000E+00  0.94161375772E+03  0.94161375772E+03  0.25500000920E-02 0.  1.
       -2   -1    0    0    0  501  0.00000000000E+00  0.00000000000E+00 -0.52004460450E+03  0.52004460451E+03  0.25500000920E-02 0. -1.
    10030    2    1    2    0    0  0.00000000000E+00  0.00000000000E+00  0.42156915322E+03  0.14616583622E+04  0.13995444319E+04 0.  0.
        2    1    3    3  502    0 -0.28475463443E+03  0.10579802298E+03 -0.44759235918E+03  0.54094116454E+03  0.25500000920E-02 0. -1.
       -2    1    3    3    0  502  0.28475463443E+03 -0.10579802298E+03  0.86916151239E+03  0.92071719769E+03  0.25500000920E-02 0.  1.
</event>
<event>
 5   0  0.2427569E-05  0.1399895E+04  0.7818609E-02  0.8953894E-01
        1   -1    0    0  501    0  0.00000000000E+00  0.00000000000E+00  0.23413556222E+04  0.23413556222E+04  0.50400001928E-02 0. -1.
       -1   -1    0    0    0  501  0.00000000000E+00  0.00000000000E+00 -0.20924910394E+03  0.20924910400E+03  0.50400001928E-02 0.  1.
    10030    2    1    2    0    0  0.00000000000E+00  0.00000000000E+00  0.21321065183E+04  0.25506047262E+04  0.13998950904E+04 0.  0.
        1    1    3    3  502    0 -0.36087809789E+03  0.18537354806E+03  0.21052789342E+04  0.21440139330E+04  0.50400001928E-02 0. -1.
       -1    1    3    3    0  502  0.36087809789E+03 -0.18537354806E+03  0.26827584030E+02  0.40659079324E+03  0.50400001928E-02 0.  1.
</event>
<event>
 5   0  0.2363419E-05  0.1402180E+04  0.7818609E-02  0.8952242E-01
        1   -1    0    0  501    0  0.00000000000E+00  0.00000000000E+00  0.87653671992E+03  0.87653671993E+03  0.50400001928E-02 0. -1.
       -1   -1    0    0    0  501  0.00000000000E+00  0.00000000000E+00 -0.56076052237E+03  0.56076052240E+03  0.50400001928E-02 0.  1.
    10030    2    1    2    0    0  0.00000000000E+00  0.00000000000E+00  0.31577619755E+03  0.14372972423E+04  0.14021800012E+04 0.  0.
        2    1    3    3  502    0  0.63196180726E+03 -0.20145416972E+03  0.39066057302E+03  0.76978905659E+03  0.25500000920E-02 0. -1.
       -2    1    3    3    0  502 -0.63196180726E+03  0.20145416972E+03 -0.74884375472E+02  0.66750818574E+03  0.25500000920E-02 0.  1.
</event>
<event>
 5   0  0.2467303E-05  0.1397767E+04  0.7818609E-02  0.8955437E-01
       -1   -1    0    0    0  501  0.00000000000E+00  0.00000000000E+00  0.11942878887E+04  0.11942878887E+04  0.50400001928E-02 0. -1.
        1   -1    0    0  501    0  0.00000000000E+00  0.00000000000E+00 -0.40897837743E+03  0.40897837746E+03  0.50400001928E-02 0.  1.
    10030    2    1    2    0    0  0.00000000000E+00  0.00000000000E+00  0.78530951126E+03  0.16032662662E+04  0.13977666800E+04 0.  0.
        3    1    3    3  502    0  0.40971231727E+03 -0.48607679891E+03  0.72569190476E+03  0.96476089691E+03  0.10100000352E+00 0. -1.
       -3    1    3    3    0  502 -0.40971231727E+03  0.48607679891E+03  0.59617606499E+02  0.63850536925E+03  0.10100000352E+00 0.  1.
</event>
<event>
 5   0  0.2428507E-05  0.1399912E+04  0.7818609E-02  0.8953882E-01
        1   -1    0    0  501    0  0.00000000000E+00  0.00000000000E+00  0.77562088272E+03  0.77562088274E+03  0.50400001928E-02 0. -1.
       -1   -1    0    0    0  501  0.00000000000E+00  0.00000000000E+00 -0.63167275424E+03  0.63167275426E+03  0.50400001928E-02 0.  1.
    10030    2    1    2    0    0  0.00000000000E+00  0.00000000000E+00  0.14394812848E+03  0.14072936370E+04  0.13999122533E+04 0.  0.
        4    1    3    3  502    0 -0.63636220397E+03 -0.11281910834E+03  0.34218861218E+03  0.73128630854E+03  0.12699999809E+01 0. -1.
       -4    1    3    3    0  502  0.63636220397E+03  0.11281910834E+03 -0.19824048370E+03  0.67600732846E+03  0.12699999809E+01 0.  1.
</event>
<event>
 5   0  0.4527503E-05  0.1399666E+04  0.7818609E-02  0.8954061E-01
       -2   -1    0    0    0  501  0.00000000000E+00  0.00000000000E+00  0.30696576073E+03  0.30696576074E+03  0.25500000920E-02 0. -1.
        2   -1    0    0  501    0  0.00000000000E+00  0.00000000000E+00 -0.15955066185E+04  0.15955066185E+04  0.25500000920E-02 0.  1.
    10030    2    1    2    0    0  0.00000000000E+00  0.00000000000E+00 -0.12885408578E+04  0.19024723792E+04  0.13996655356E+04 0.  0.
        4    1    3    3  502    0  0.18368290967E+03  0.54467460724E+02 -0.15591650549E+04  0.15708925479E+04  0.12699999809E+01 0.  1.
       -4    1    3    3    0  502 -0.18368290967E+03 -0.54467460724E+02  0.27062419715E+03  0.33157983137E+03  0.12699999809E+01 0. -1.
</event>
<event>
 5   0  0.4243281E-05  0.1399598E+04  0.7818609E-02  0.8954110E-01
        2   -1    0    0  501    0  0.00000000000E+00  0.00000000000E+00  0.52250013980E+03  0.52250013981E+03  0.25500000920E-02 0.  1.
       -2   -1    0    0    0  501  0.00000000000E+00  0.00000000000E+00 -0.93726019161E+03  0.93726019161E+03  0.25500000920E-02 0. -1.
    10030    2    1    2    0    0  0.00000000000E+00  0.00000000000E+00 -0.41476005181E+03  0.14597603314E+04  0.13995979153E+04 0.  0.
        2    1    3    3  502    0 -0.22641063180E+03  0.52380038371E+03  0.21511274456E+03  0.60983777273E+03  0.25500000920E-02 0.  1.
       -2    1    3    3    0  502  0.22641063180E+03 -0.52380038371E+03 -0.62987279636E+03  0.84992255869E+03  0.25500000920E-02 0. -1.
</event>
<event>
 5   0  0.4621450E-05  0.1400224E+04  0.7818609E-02  0.8953656E-01
        2   -1    0    0  501    0  0.00000000000E+00  0.00000000000E+00  0.10639640940E+04  0.10639640940E+04  0.25500000920E-02 0. -1.
       -2   -1    0    0    0  501  0.00000000000E+00  0.00000000000E+00 -0.46068917439E+03  0.46068917440E+03  0.25500000920E-02 0.  1.
    10030    2    1    2    0    0  0.00000000000E+00  0.00000000000E+00  0.60327491965E+03  0.15246532684E+04  0.14002238965E+04 0.  0.
        5    1    3    3  502    0  0.14609488808E+03 -0.14204828041E+03  0.10309432098E+04  0.10508983881E+04  0.46999998093E+01 0. -1.
       -5    1    3    3    0  502 -0.14609488808E+03  0.14204828041E+03 -0.42766829012E+03  0.47375488036E+03  0.46999998093E+01 0.  1.
</event>
<event>
 5   0  0.4441253E-05  0.1399421E+04  0.7818609E-02  0.8954237E-01
       -2   -1    0    0    0  501  0.00000000000E+00  0.00000000000E+00  0.54003440322E+03  0.54003440323E+03  0.25500000920E-02 0. -1.
        2   -1    0    0  501    0  0.00000000000E+00  0.00000000000E+00 -0.90659981868E+03  0.90659981869E+03  0.25500000920E-02 0.  1.
    10030    2    1    2    0    0  0.00000000000E+00  0.00000000000E+00 -0.36656541546E+03  0.14466342219E+04  0.13994214405E+04 0.  0.
        3    1    3    3  502    0  0.41517057777E+03  0.22725106605E+03  0.34945364254E+03  0.58832602709E+03  0.10100000352E+00 0. -1.
       -3    1    3    3    0  502 -0.41517057777E+03 -0.22725106605E+03 -0.71601905801E+03  0.85830819482E+03  0.10100000352E+00 0.  1.
</event>
<event>
 5   0  0.4460282E-05  0.1399868E+04  0.7818609E-02  0.8953914E-01
       -2   -1    0    0    0  501  0.00000000000E+00  0.00000000000E+00  0.37447921678E+03  0.37447921679E+03  0.25500000920E-02 0. -1.
        2   -1    0    0  501    0  0.00000000000E+00  0.00000000000E+00 -0.13082369684E+04  0.13082369684E+04  0.25500000920E-02 0.  1.
    10030    2    1    2    0    0  0.00000000000E+00  0.00000000000E+00 -0.93375775165E+03  0.16827161852E+04  0.13998679299E+04 0.  0.
        1    1    3    3  502    0  0.13555503792E+03 -0.42566491945E+03  0.18082808266E+03  0.48193836479E+03  0.50400001928E-02 0. -1.
       -1    1    3    3    0  502 -0.13555503792E+03  0.42566491945E+03 -0.11145858343E+04  0.12007778204E+04  0.50400001928E-02 0.  1.
</event>
<event>
 5   0  0.2467303E-05  0.1398219E+04  0.7818609E-02  0.8955109E-01
        1   -1    0    0  501    0  0.00000000000E+00  0.00000000000E+00  0.31721166337E+03  0.31721166341E+03  0.50400001928E-02 0.  1.
       -1   -1    0    0    0  501  0.00000000000E+00  0.00000000000E+00 -0.15407815100E+04  0.15407815100E+04  0.50400001928E-02 0. -1.
    10030    2    1    2    0    0  0.00000000000E+00  0.00000000000E+00 -0.12235698467E+04  0.18579931735E+04  0.13982186749E+04 0.  0.
        3    1    3    3  502    0  0.28439908254E+03 -0.59951783846E+03 -0.90427633728E+03  0.11216149879E+04  0.10100000352E+00 0. -1.
       -3    1    3    3    0  502 -0.28439908254E+03  0.59951783846E+03 -0.31929350939E+03  0.73637818552E+03  0.10100000352E+00 0.  1.
</event>
<event>
 5   0  0.2467303E-05  0.1400511E+04  0.7818609E-02  0.8953448E-01
        1   -1    0    0  501    0  0.00000000000E+00  0.00000000000E+00  0.62795915191E+03  0.62795915193E+03  0.50400001928E-02 0.  1.
       -1   -1    0    0    0  501  0.00000000000E+00  0.00000000000E+00 -0.78087569258E+03  0.78087569259E+03  0.50400001928E-02 0. -1.
    10030    2    1    2    0    0  0.00000000000E+00  0.00000000000E+00 -0.15291654066E+03  0.14088348445E+04  0.14005113890E+04 0.  0.
        3    1    3    3  502    0 -0.16325719746E+03 -0.10895340294E+03  0.59972282372E+03  0.63102395519E+03  0.10100000352E+00 0.  1.
       -3    1    3    3    0  502  0.16325719746E+03  0.10895340294E+03 -0.75263936439E+03  0.77781088933E+03  0.10100000352E+00 0. -1.
</event>
<event>
 5   0  0.4621450E-05  0.1400278E+04  0.7818609E-02  0.8953618E-01
        2   -1    0    0  501    0  0.00000000000E+00  0.00000000000E+00  0.28309030238E+03  0.28309030239E+03  0.25500000920E-02 0.  1.
       -2   -1    0    0    0  501  0.00000000000E+00  0.00000000000E+00 -0.17315827498E+04  0.17315827498E+04  0.25500000920E-02 0. -1.
    10030    2    1    2    0    0  0.00000000000E+00  0.00000000000E+00 -0.14484924474E+04  0.20146730522E+04  0.14002775214E+04 0.  0.
        5    1    3    3  502    0 -0.22194196885E+03 -0.65886109439E+03 -0.84302961750E+03  0.10927383974E+04  0.46999998093E+01 0.  1.
       -5    1    3    3    0  502  0.22194196885E+03  0.65886109439E+03 -0.60546282993E+03  0.92193465477E+03  0.46999998093E+01 0. -1.
</event>
<event>
 5   0  0.2428507E-05  0.1399441E+04  0.7818609E-02  0.8954223E-01
       -1   -1    0    0    0  501  0.00000000000E+00  0.00000000000E+00  0.58140994285E+03  0.58140994287E+03  0.50400001928E-02 0. -1.
        1   -1    0    0  501    0  0.00000000000E+00  0.00000000000E+00 -0.84210580038E+03  0.84210580039E+03  0.50400001928E-02 0.  1.
    10030    2    1    2    0    0  0.00000000000E+00  0.00000000000E+00 -0.26069585753E+03  0.14235157433E+04  0.13994408673E+04 0.  0.
        4    1    3    3  502    0 -0.69685240417E+03 -0.37410593733E+02 -0.78438197393E+02  0.70225137197E+03  0.12699999809E+01 0. -1.
       -4    1    3    3    0  502  0.69685240417E+03  0.37410593733E+02 -0.18225766013E+03  0.72126437129E+03  0.12699999809E+01 0.  1.
</event>
<event>
 5   0  0.4460282E-05  0.1400276E+04  0.7818609E-02  0.8953619E-01
       -2   -1    0    0    0  501  0.00000000000E+00  0.00000000000E+00  0.78688838373E+03  0.78688838374E+03  0.25500000920E-02 0. -1.
        2   -1    0    0  501    0  0.00000000000E+00  0.00000000000E+00 -0.62295161336E+03  0.62295161336E+03  0.25500000920E-02 0.  1.
    10030    2    1    2    0    0  0.00000000000E+00  0.00000000000E+00  0.16393677038E+03  0.14098399971E+04  0.14002762416E+04 0.  0.
        1    1    3    3  502    0 -0.22683078588E+03 -0.25291990300E+03  0.69833638612E+03  0.77659152131E+03  0.50400001928E-02 0. -1.
       -1    1    3    3    0  502  0.22683078588E+03  0.25291990300E+03 -0.53439961575E+03  0.63324847579E+03  0.50400001928E-02 0.  1.
</event>
<event>
 5   0  0.4441253E-05  0.1392413E+04  0.7818609E-02  0.8959329E-01
        2   -1    0    0  501    0  0.00000000000E+00  0.00000000000E+00  0.73348208104E+03  0.73348208105E+03  0.25500000920E-02 0.  1.
       -2   -1    0    0    0  501  0.00000000000E+00  0.00000000000E+00 -0.66082522627E+03  0.66082522628E+03  0.25500000920E-02 0. -1.
    10030    2    1    2    0    0  0.00000000000E+00  0.00000000000E+00  0.72656854772E+02  0.13943073073E+04  0.13924129591E+04 0.  0.
        3    1    3    3  502    0  0.17345757069E+03  0.67040340585E+03 -0.35708282957E+02  0.69339984647E+03  0.10100000352E+00 0. -1.
       -3    1    3    3    0  502 -0.17345757069E+03 -0.67040340585E+03  0.10836513773E+03  0.70090746086E+03  0.10100000352E+00 0.  1.
</event>
<event>
 5   0  0.2427569E-05  0.1400478E+04  0.7818609E-02  0.8953472E-01
        1   -1    0    0  501    0  0.00000000000E+00  0.00000000000E+00  0.32797755190E+03  0.32797755194E+03  0.50400001928E-02 0.  1.
       -1   -1    0    0    0  501  0.00000000000E+00  0.00000000000E+00 -0.14950260528E+04  0.14950260528E+04  0.50400001928E-02 0. -1.
    10030    2    1    2    0    0  0.00000000000E+00  0.00000000000E+00 -0.11670485009E+04  0.18230036048E+04  0.14004784681E+04 0.  0.
        1    1    3    3  502    0 -0.52382518406E+03 -0.12139763241E+03 -0.11674131708E+04  0.12852951879E+04  0.50400001928E-02 0. -1.
       -1    1    3    3    0  502  0.52382518406E+03  0.12139763241E+03  0.36466984515E+00  0.53770841691E+03  0.50400001928E-02 0.  1.
</event>
<event>
 5   0  0.4441253E-05  0.1398081E+04  0.7818609E-02  0.8955209E-01
       -2   -1    0    0    0  501  0.00000000000E+00  0.00000000000E+00  0.52038921247E+03  0.52038921248E+03  0.25500000920E-02 0. -1.
        2   -1    0    0  501    0  0.00000000000E+00  0.00000000000E+00 -0.93902310653E+03  0.93902310653E+03  0.25500000920E-02 0.  1.
    10030    2    1    2    0    0  0.00000000000E+00  0.00000000000E+00 -0.41863389406E+03  0.14594123190E+04  0.13980808201E+04 0.  0.
        3    1    3    3  502    0  0.64931150343E+03 -0.11491487151E+03 -0.45154530664E+03  0.79918960850E+03  0.10100000352E+00 0.  1.
       -3    1    3    3    0  502 -0.64931150343E+03  0.11491487151E+03  0.32911412585E+02  0.66022271050E+03  0.10100000352E+00 0. -1.
</event>
<event>
 5   0  0.4460282E-05  0.1400051E+04  0.7818609E-02  0.8953781E-01
        2   -1    0    0  501    0  0.00000000000E+00  0.00000000000E+00  0.19918647320E+04  0.19918647320E+04  0.25500000920E-02 0.  1.
       -2   -1    0    0    0  501  0.00000000000E+00  0.00000000000E+00 -0.24601863615E+03  0.24601863617E+03  0.25500000920E-02 0. -1.
    10030    2    1    2    0    0  0.00000000000E+00  0.00000000000E+00  0.17458460958E+04  0.22378833682E+04  0.14000512059E+04 0.  0.
        1    1    3    3  502    0 -0.25038655465E+03  0.46343921404E+02  0.19152103069E+04  0.19320641049E+04  0.50400001928E-02 0.  1.
       -1    1    3    3    0  502  0.25038655465E+03 -0.46343921404E+02 -0.16936421102E+03  0.30581926329E+03  0.50400001928E-02 0. -1.
</event>
<event>
 5   0  0.2363419E-05  0.1399854E+04  0.7818609E-02  0.8953924E-01
        1   -1    0    0  501    0  0.00000000000E+00  0.00000000000E+00  0.11838483173E+04  0.11838483173E+04  0.50400001928E-02 0. -1.
       -1   -1    0    0    0  501  0.00000000000E+00  0.00000000000E+00 -0.41381818568E+03  0.41381818571E+03  0.50400001928E-02 0.  1.
    10030    2    1    2    0    0  0.00000000000E+00  0.00000000000E+00  0.77003013160E+03  0.15976665030E+04  0.13998542250E+04 0.  0.
        2    1    3    3  502    0  0.15141874708E+03  0.77102771728E+02  0.11599509748E+04  0.11723304731E+04  0.25500000920E-02 0. -1.
       -2    1    3    3    0  502 -0.15141874708E+03 -0.77102771728E+02 -0.38992084316E+03  0.42533602988E+03  0.25500000920E-02 0.  1.
</event>
<event>
 5   0  0.4527503E-05  0.1399764E+04  0.7818609E-02  0.8953989E-01
        2   -1    0    0  501    0  0.00000000000E+00  0.00000000000E+00  0.16082272505E+04  0.16082272505E+04  0.25500000920E-02 0.  1.
       -2   -1    0    0    0  501  0.00000000000E+00  0.00000000000E+00 -0.30458073176E+03  0.30458073177E+03  0.25500000920E-02 0. -1.
    10030    2    1    2    0    0  0.00000000000E+00  0.00000000000E+00  0.13036465188E+04  0.19128079823E+04  0.13997643128E+04 0.  0.
        4    1    3    3  502    0 -0.33300987835E+03  0.16535098103E+03  0.14621104500E+04  0.15086434658E+04  0.12699999809E+01 0.  1.
       -4    1    3    3    0  502  0.33300987835E+03 -0.16535098103E+03 -0.15846393123E+03  0.40416451651E+03  0.12699999809E+01 0. -1.
</event>
<event>
 5   0  0.4243281E-05  0.1400525E+04  0.7818609E-02  0.8953438E-01
        2   -1    0    0  501    0  0.00000000000E+00  0.00000000000E+00  0.56991515188E+03  0.56991515188E+03  0.25500000920E-02 0. -1.
       -2   -1    0    0    0  501  0.00000000000E+00  0.00000000000E+00 -0.86042257439E+03  0.86042257439E+03  0.25500000920E-02 0.  1.
    10030    2    1    2    0    0  0.00000000000E+00  0.00000000000E+00 -0.29050742251E+03  0.14303377263E+04  0.14005254188E+04 0.  0.
        2    1    3    3  502    0 -0.43963752983E+03  0.53343010722E+03 -0.30892305190E+02  0.69194159541E+03  0.25500000920E-02 0. -1.
       -2    1    3    3    0  502  0.43963752983E+03 -0.53343010722E+03 -0.25961511732E+03  0.73839613087E+03  0.25500000920E-02 0.  1.
</event>
<event>
 5   0  0.2467303E-05  0.1399853E+04  0.7818609E-02  0.8953925E-01
        1   -1    0    0  501    0  0.00000000000E+00  0.00000000000E+00  0.11941863432E+04  0.11941863432E+04  0.50400001928E-02 0.  1.
       -1   -1    0    0    0  501  0.00000000000E+00  0.00000000000E+00 -0.41023526623E+03  0.41023526626E+03  0.50400001928E-02 0. -1.
    10030    2    1    2    0    0  0.00000000000E+00  0.00000000000E+00  0.78395107694E+03  0.16044216094E+04  0.13998533530E+04 0.  0.
        3    1    3    3  502    0 -0.35890109165E+03  0.15275345269E+02  0.10804720280E+04  0.11386233544E+04  0.10100000352E+00 0.  1.
       -3    1    3    3    0  502  0.35890109165E+03 -0.15275345269E+02 -0.29652095105E+03  0.46579825501E+03  0.10100000352E+00 0. -1.
</event>
<event>
 5   0  0.2428507E-05  0.1400113E+04  0.7818609E-02  0.8953737E-01
        1   -1    0    0  501    0  0.00000000000E+00  0.00000000000E+00  0.54713637618E+03  0.54713637620E+03  0.50400001928E-02 0.  1.
       -1   -1    0    0    0  501  0.00000000000E+00  0.00000000000E+00 -0.89571690326E+03  0.89571690328E+03  0.50400001928E-02 0. -1.
    10030    2    1    2    0    0  0.00000000000E+00  0.00000000000E+00 -0.34858052709E+03  0.14428532795E+04  0.14001132819E+04 0.  0.
        4    1    3    3  502    0 -0.17278330212E+03 -0.67836269015E+03 -0.16717449938E+03  0.71970753437E+03  0.12699999809E+01 0. -1.
       -4    1    3    3    0  502  0.17278330212E+03  0.67836269015E+03 -0.18140602771E+03  0.72314574511E+03  0.12699999809E+01 0.  1.
</event>
<event>
 5   0  0.2316714E-05  0.1400178E+04  0.7818609E-02  0.8953690E-01
       -1   -1    0    0    0  501  0.00000000000E+00  0.00000000000E+00  0.39096103482E+03  0.39096103485E+03  0.50400001928E-02 0. -1.
        1   -1    0    0  501    0  0.00000000000E+00  0.00000000000E+00 -0.12536407947E+04  0.12536407947E+04  0.50400001928E-02 0.  1.
    10030    2    1    2    0    0  0.00000000000E+00  0.00000000000E+00 -0.86267975992E+03  0.16446018296E+04  0.14001781350E+04 0.  0.
        5    1    3    3  502    0 -0.17764334875E+03  0.20698498056E+03  0.32596173859E+03  0.42505656865E+03  0.46999998093E+01 0. -1.
       -5    1    3    3    0  502  0.17764334875E+03 -0.20698498056E+03 -0.11886414985E+04  0.12195452609E+04  0.46999998093E+01 0.  1.
</event>
<event>
 5   0  0.2428507E-05  0.1395778E+04  0.7818609E-02  0.8956880E-01
       -1   -1    0    0    0  501  0.00000000000E+00  0.00000000000E+00  0.17440723912E+04  0.17440723912E+04  0.50400001928E-02 0.  1.
        1   -1    0    0  501    0  0.00000000000E+00  0.00000000000E+00 -0.27925967741E+03  0.27925967745E+03  0.50400001928E-02 0. -1.
    10030    2    1    2    0    0  0.00000000000E+00  0.00000000000E+00  0.14648127138E+04  0.20233320687E+04  0.13957780531E+04 0.  0.
        4    1    3    3  502    0 -0.41051478893E+03  0.13709895732E+03  0.15260310209E+04  0.15862190283E+04  0.12699999809E+01 0.  1.
       -4    1    3    3    0  502  0.41051478893E+03 -0.13709895732E+03 -0.61218307126E+02  0.43711304036E+03  0.12699999809E+01 0. -1.
</event>
<event>
 5   0  0.2427569E-05  0.1408229E+04  0.7818609E-02  0.8947883E-01
       -1   -1    0    0    0  501  0.00000000000E+00  0.00000000000E+00  0.38226306976E+03  0.38226306979E+03  0.50400001928E-02 0.  1.
        1   -1    0    0  501    0  0.00000000000E+00  0.00000000000E+00 -0.12969535368E+04  0.12969535368E+04  0.50400001928E-02 0. -1.
    10030    2    1    2    0    0  0.00000000000E+00  0.00000000000E+00 -0.91469046707E+03  0.16792166066E+04  0.14082293000E+04 0.  0.
        1    1    3    3  502    0 -0.26728750307E+03  0.64395660184E+03 -0.57451169675E+03  0.90343035375E+03  0.50400001928E-02 0. -1.
       -1    1    3    3    0  502  0.26728750307E+03 -0.64395660184E+03 -0.34017877032E+03  0.77578625288E+03  0.50400001928E-02 0.  1.
</event>
<event>
 5   0  0.4621450E-05  0.1398134E+04  0.7818609E-02  0.8955171E-01
       -2   -1    0    0    0  501  0.00000000000E+00  0.00000000000E+00  0.37774159438E+03  0.37774159439E+03  0.25500000920E-02 0. -1.
        2   -1    0    0  501    0  0.00000000000E+00  0.00000000000E+00 -0.12937270092E+04  0.12937270092E+04  0.25500000920E-02 0.  1.
    10030    2    1    2    0    0  0.00000000000E+00  0.00000000000E+00 -0.91598541478E+03  0.16714686036E+04  0.13981337606E+04 0.  0.
        5    1    3    3  502    0 -0.55117137099E+03 -0.16403938482E+03 -0.93315478912E+03  0.10961289844E+04  0.46999998093E+01 0.  1.
       -5    1    3    3    0  502  0.55117137099E+03  0.16403938482E+03  0.17169374336E+02  0.57533961917E+03  0.46999998093E+01 0. -1.
</event>
<event>
 5   0  0.2428507E-05  0.1406323E+04  0.7818609E-02  0.8949254E-01
        1   -1    0    0  501    0  0.00000000000E+00  0.00000000000E+00  0.90022183565E+03  0.90022183567E+03  0.50400001928E-02 0. -1.
       -1   -1    0    0    0  501  0.00000000000E+00  0.00000000000E+00 -0.54923834170E+03  0.54923834172E+03  0.50400001928E-02 0.  1.
    10030    2    1    2    0    0  0.00000000000E+00  0.00000000000E+00  0.35098349396E+03  0.14494601774E+04  0.14063233600E+04 0.  0.
        4    1    3    3  502    0  0.37348611632E+03 -0.58920260431E+03  0.84563520215E+02  0.70271202485E+03  0.12699999809E+01 0.  1.
       -4    1    3    3    0  502 -0.37348611632E+03  0.58920260431E+03  0.26641997374E+03  0.74674815254E+03  0.12699999809E+01 0. -1.
</event>
<event>
 5   0  0.1661000E-05  0.1390039E+04  0.7818609E-02  0.8961060E-01
        4   -1    0    0  501    0  0.00000000000E+00  0.00000000000E+00  0.46905111292E+03  0.46905283224E+03  0.12699999809E+01 0. -1.
       -4   -1    0    0    0  501  0.00000000000E+00  0.00000000000E+00 -0.10298462664E+04  0.10298470495E+04  0.12699999809E+01 0.  1.
    10030    2    1    2    0    0  0.00000000000E+00  0.00000000000E+00 -0.56079515350E+03  0.14988998817E+04  0.13900394424E+04 0.  0.
        1    1    3    3  502    0  0.43732998312E+03 -0.53967750643E+03 -0.25526827091E+03  0.74004811684E+03  0.50400001928E-02 0. -1.
       -1    1    3    3    0  502 -0.43732998312E+03  0.53967750643E+03 -0.30552688259E+03  0.75885176490E+03  0.50400001928E-02 0.  1.
</event>
<event>
 5   0  0.4441253E-05  0.1402135E+04  0.7818609E-02  0.8952274E-01
        2   -1    0    0  501    0  0.00000000000E+00  0.00000000000E+00  0.22156961299E+04  0.22156961299E+04  0.25500000920E-02 0. -1.
       -2   -1    0    0    0  501  0.00000000000E+00  0.00000000000E+00 -0.22182452634E+03  0.22182452636E+03  0.25500000920E-02 0.  1.
    10030    2    1    2    0    0  0.00000000000E+00  0.00000000000E+00  0.19938716036E+04  0.24375206563E+04  0.14021351498E+04 0.  0.
        3    1    3    3  502    0  0.54007358385E+03 -0.76776927982E+02  0.17624821305E+04  0.18449708515E+04  0.10100000352E+00 0. -1.
       -3    1    3    3    0  502 -0.54007358385E+03  0.76776927982E+02  0.23138947314E+03  0.59254980476E+03  0.10100000352E+00 0.  1.
</event>
<event>
 5   0  0.4441253E-05  0.1399413E+04  0.7818609E-02  0.8954244E-01
        2   -1    0    0  501    0  0.00000000000E+00  0.00000000000E+00  0.73661813096E+03  0.73661813096E+03  0.25500000920E-02 0.  1.
       -2   -1    0    0    0  501  0.00000000000E+00  0.00000000000E+00 -0.66464451514E+03  0.66464451515E+03  0.25500000920E-02 0. -1.
    10030    2    1    2    0    0  0.00000000000E+00  0.00000000000E+00  0.71973615814E+02  0.14012626461E+04  0.13994130205E+04 0.  0.
        3    1    3    3  502    0  0.43693903211E+03 -0.33856538927E+03 -0.39358715145E+03  0.67856694333E+03  0.10100000352E+00 0. -1.
       -3    1    3    3    0  502 -0.43693903211E+03  0.33856538927E+03  0.46556076727E+03  0.72269570278E+03  0.10100000352E+00 0.  1.
</event>
<event>
 5   0  0.2316714E-05  0.1399827E+04  0.7818609E-02  0.8953944E-01
        1   -1    0    0  501    0  0.00000000000E+00  0.00000000000E+00  0.10339538559E+04  0.10339538559E+04  0.50400001928E-02 0. -1.
       -1   -1    0    0    0  501  0.00000000000E+00  0.00000000000E+00 -0.47379210853E+03  0.47379210856E+03  0.50400001928E-02 0.  1.
    10030    2    1    2    0    0  0.00000000000E+00  0.00000000000E+00  0.56016174737E+03  0.15077459645E+04  0.13998273858E+04 0.  0.
        5    1    3    3  502    0  0.46419855322E+03  0.19501437765E+03 -0.24355330451E+03  0.55933103475E+03  0.46999998093E+01 0.  1.
       -5    1    3    3    0  502 -0.46419855322E+03 -0.19501437765E+03  0.80371505188E+03  0.94841492972E+03  0.46999998093E+01 0. -1.
</event>
<event>
 5   0  0.4621450E-05  0.1399807E+04  0.7818609E-02  0.8953959E-01
       -2   -1    0    0    0  501  0.00000000000E+00  0.00000000000E+00  0.60134319866E+03  0.60134319867E+03  0.25500000920E-02 0.  1.
        2   -1    0    0  501    0  0.00000000000E+00  0.00000000000E+00 -0.81461740832E+03  0.81461740833E+03  0.25500000920E-02 0. -1.
    10030    2    1    2    0    0  0.00000000000E+00  0.00000000000E+00 -0.21327420966E+03  0.14159606070E+04  0.13998066124E+04 0.  0.
        5    1    3    3  502    0  0.11642637548E+03  0.34206672596E+03 -0.71295211939E+03  0.79930442289E+03  0.46999998093E+01 0. -1.
       -5    1    3    3    0  502 -0.11642637548E+03 -0.34206672596E+03  0.49967790973E+03  0.61665618410E+03  0.46999998093E+01 0.  1.
</event>
<event>
 5   0  0.4441253E-05  0.1401088E+04  0.7818609E-02  0.8953031E-01
       -2   -1    0    0    0  501  0.00000000000E+00  0.00000000000E+00  0.20207117503E+03  0.20207117505E+03  0.25500000920E-02 0. -1.
        2   -1    0    0  501    0  0.00000000000E+00  0.00000000000E+00 -0.24286582774E+04  0.24286582774E+04  0.25500000920E-02 0.  1.
    10030    2    1    2    0    0  0.00000000000E+00  0.00000000000E+00 -0.22265871024E+04  0.26307294525E+04  0.14010879086E+04 0.  0.
        3    1    3    3  502    0 -0.35595073096E+03 -0.24388110236E+03 -0.77045885231E+02  0.43830924425E+03  0.10100000352E+00 0. -1.
       -3    1    3    3    0  502  0.35595073096E+03  0.24388110236E+03 -0.21495412172E+04  0.21924202082E+04  0.10100000352E+00 0.  1.
</event>
<event>
 5   0  0.2467303E-05  0.1401389E+04  0.7818609E-02  0.8952814E-01
        1   -1    0    0  501    0  0.00000000000E+00  0.00000000000E+00  0.65893049187E+03  0.65893049189E+03  0.50400001928E-02 0. -1.
       -1   -1    0    0    0  501  0.00000000000E+00  0.00000000000E+00 -0.74510571775E+03  0.74510571777E+03  0.50400001928E-02 0.  1.
    10030    2    1    2    0    0  0.00000000000E+00  0.00000000000E+00 -0.86175225875E+02  0.14040362097E+04  0.14013891353E+04 0.  0.
        3    1    3    3  502    0 -0.11520208103E+03 -0.17410392513E+03  0.62704737917E+03  0.66088737479E+03  0.10100000352E+00 0. -1.
       -3    1    3    3    0  502  0.11520208103E+03  0.17410392513E+03 -0.71322260505E+03  0.74314883487E+03  0.10100000352E+00 0.  1.
</event>
<event>
 5   0  0.2467303E-05  0.1400894E+04  0.7818609E-02  0.8953172E-01
       -1   -1    0    0    0  501  0.00000000000E+00  0.00000000000E+00  0.71909815812E+03  0.71909815814E+03  0.50400001928E-02 0.  1.
        1   -1    0    0  501    0  0.00000000000E+00  0.00000000000E+00 -0.68227948597E+03  0.68227948599E+03  0.50400001928E-02 0. -1.
    10030    2    1    2    0    0  0.00000000000E+00  0.00000000000E+00  0.36818672149E+02  0.14013776441E+04  0.14008938885E+04 0.  0.
        3    1    3    3  502    0  0.63441101873E+03 -0.16395762518E+03  0.26601545121E+03  0.70719422652E+03  0.10100000352E+00 0.  1.
       -3    1    3    3    0  502 -0.63441101873E+03  0.16395762518E+03 -0.22919677906E+03  0.69418341760E+03  0.10100000352E+00 0. -1.
</event>
<event>
 5   0  0.2428507E-05  0.1400628E+04  0.7818609E-02  0.8953364E-01
        1   -1    0    0  501    0  0.00000000000E+00  0.00000000000E+00  0.50866588867E+03  0.50866588870E+03  0.50400001928E-02 0. -1.
       -1   -1    0    0    0  501  0.00000000000E+00  0.00000000000E+00 -0.96416898957E+03  0.96416898959E+03  0.50400001928E-02 0.  1.
    10030    2    1    2    0    0  0.00000000000E+00  0.00000000000E+00 -0.45550310090E+03  0.14728348783E+04  0.14006282532E+04 0.  0.
        4    1    3    3  502    0  0.29814220413E+02  0.12711085025E+03 -0.95125687185E+03  0.96017566369E+03  0.12699999809E+01 0.  1.
       -4    1    3    3    0  502 -0.29814220413E+02 -0.12711085025E+03  0.49575377095E+03  0.51265921459E+03  0.12699999809E+01 0. -1.
</event>
<event>
 5   0  0.4460282E-05  0.1399896E+04  0.7818609E-02  0.8953893E-01
       -2   -1    0    0    0  501  0.00000000000E+00  0.00000000000E+00  0.29641151606E+03  0.29641151607E+03  0.25500000920E-02 0. -1.
        2   -1    0    0  501    0  0.00000000000E+00  0.00000000000E+00 -0.16528626569E+04  0.16528626569E+04  0.25500000920E-02 0.  1.
    10030    2    1    2    0    0  0.00000000000E+00  0.00000000000E+00 -0.13564511408E+04  0.19492741730E+04  0.13998964619E+04 0.  0.
        1    1    3    3  502    0 -0.60513590850E+03  0.64453334900E+02 -0.19670678537E+03  0.63956020793E+03  0.50400001928E-02 0. -1.
       -1    1    3    3    0  502  0.60513590850E+03 -0.64453334900E+02 -0.11597443555E+04  0.13097139650E+04  0.50400001928E-02 0.  1.
</event>
<event>
 5   0  0.1661000E-05  0.1400956E+04  0.7818609E-02  0.8953126E-01
        4   -1    0    0  501    0  0.00000000000E+00  0.00000000000E+00  0.38869005832E+03  0.38869213311E+03  0.12699999809E+01 0. -1.
       -4   -1    0    0    0  501  0.00000000000E+00  0.00000000000E+00 -0.12623619075E+04  0.12623625464E+04  0.12699999809E+01 0.  1.
    10030    2    1    2    0    0  0.00000000000E+00  0.00000000000E+00 -0.87367184922E+03  0.16510546795E+04  0.14009564785E+04 0.  0.
        4    1    3    3  502    0 -0.22099551019E+03  0.57338266929E+03 -0.83310856403E+03  0.10352189108E+04  0.12699999809E+01 0.  1.
       -4    1    3    3    0  502  0.22099551019E+03 -0.57338266929E+03 -0.40563285189E+02  0.61583576867E+03  0.12699999809E+01 0. -1.
</event>
<event>
 5   0  0.4243281E-05  0.1400713E+04  0.7818609E-02  0.8953302E-01
        2   -1    0    0  501    0  0.00000000000E+00  0.00000000000E+00  0.12953424912E+04  0.12953424912E+04  0.25500000920E-02 0. -1.
       -2   -1    0    0    0  501  0.00000000000E+00  0.00000000000E+00 -0.37866389593E+03  0.37866389594E+03  0.25500000920E-02 0.  1.
    10030    2    1    2    0    0  0.00000000000E+00  0.00000000000E+00  0.91667859528E+03  0.16740063872E+04  0.14007132959E+04 0.  0.
        2    1    3    3  502    0  0.59041794679E+02 -0.37339867274E+02 -0.37448962668E+03  0.38094970758E+03  0.25500000920E-02 0.  1.
       -2    1    3    3    0  502 -0.59041794679E+02  0.37339867274E+02  0.12911682220E+04  0.12930566796E+04  0.25500000920E-02 0. -1.
</event>
<event>
 5   0  0.4441253E-05  0.1400096E+04  0.7818609E-02  0.8953749E-01
        2   -1    0    0  501    0  0.00000000000E+00  0.00000000000E+00  0.52992293850E+03  0.52992293850E+03  0.25500000920E-02 0.  1.
       -2   -1    0    0    0  501  0.00000000000E+00  0.00000000000E+00 -0.92478948802E+03  0.92478948802E+03  0.25500000920E-02 0. -1.
    10030    2    1    2    0    0  0.00000000000E+00  0.00000000000E+00 -0.39486654953E+03  0.14547124265E+04  0.14000959438E+04 0.  0.
        3    1    3    3  502    0 -0.49932934173E+02 -0.41397088003E+03  0.38682064366E+03  0.56876656722E+03  0.10100000352E+00 0.  1.
       -3    1    3    3    0  502  0.49932934173E+02  0.41397088003E+03 -0.78168719318E+03  0.88594585930E+03  0.10100000352E+00 0. -1.
</event>
<event>
 5   0  0.2363419E-05  0.1399803E+04  0.7818609E-02  0.8953961E-01
        1   -1    0    0  501    0  0.00000000000E+00  0.00000000000E+00  0.57065287400E+03  0.57065287402E+03  0.50400001928E-02 0.  1.
       -1   -1    0    0    0  501  0.00000000000E+00  0.00000000000E+00 -0.85842411874E+03  0.85842411875E+03  0.50400001928E-02 0. -1.
    10030    2    1    2    0    0  0.00000000000E+00  0.00000000000E+00 -0.28777124474E+03  0.14290769928E+04  0.13998031154E+04 0.  0.
        2    1    3    3  502    0 -0.68360573677E+02  0.66030269344E+03  0.82539351386E+02  0.66894361461E+03  0.25500000920E-02 0. -1.
       -2    1    3    3    0  502  0.68360573677E+02 -0.66030269344E+03 -0.37031059613E+03  0.76013337817E+03  0.25500000920E-02 0.  1.
</event>
<event>
 5   0  0.2427569E-05  0.1400266E+04  0.7818609E-02  0.8953626E-01
        1   -1    0    0  501    0  0.00000000000E+00  0.00000000000E+00  0.16473348933E+04  0.16473348934E+04  0.50400001928E-02 0.  1.
       -1   -1    0    0    0  501  0.00000000000E+00  0.00000000000E+00 -0.29756332587E+03  0.29756332592E+03  0.50400001928E-02 0. -1.
    10030    2    1    2    0    0  0.00000000000E+00  0.00000000000E+00  0.13497715675E+04  0.19448982193E+04  0.14002663314E+04 0.  0.
        1    1    3    3  502    0  0.48001315936E+03  0.47867908892E+03  0.43175964653E+03  0.80371804491E+03  0.50400001928E-02 0. -1.
       -1    1    3    3    0  502 -0.48001315936E+03 -0.47867908892E+03  0.91801192094E+03  0.11411801744E+04  0.50400001928E-02 0.  1.
</event>
<event>
 5   0  0.4441253E-05  0.1399345E+04  0.7818609E-02  0.8954293E-01
        2   -1    0    0  501    0  0.00000000000E+00  0.00000000000E+00  0.68959068442E+03  0.68959068443E+03  0.25500000920E-02 0. -1.
       -2   -1    0    0    0  501  0.00000000000E+00  0.00000000000E+00 -0.70990168435E+03  0.70990168435E+03  0.25500000920E-02 0.  1.
    10030    2    1    2    0    0  0.00000000000E+00  0.00000000000E+00 -0.20310999927E+02  0.13994923688E+04  0.13993449730E+04 0.  0.
        3    1    3    3  502    0 -0.49820068676E+03  0.65085671280E+02 -0.49713749208E+03  0.70681381221E+03  0.10100000352E+00 0.  1.
       -3    1    3    3    0  502  0.49820068676E+03 -0.65085671280E+02  0.47682649216E+03  0.69267855656E+03  0.10100000352E+00 0. -1.
</event>
<event>
 5   0  0.4621450E-05  0.1400026E+04  0.7818609E-02  0.8953800E-01
        2   -1    0    0  501    0  0.00000000000E+00  0.00000000000E+00  0.11384128127E+04  0.11384128127E+04  0.25500000920E-02 0. -1.
       -2   -1    0    0    0  501  0.00000000000E+00  0.00000000000E+00 -0.43043973023E+03  0.43043973024E+03  0.25500000920E-02 0.  1.
    10030    2    1    2    0    0  0.00000000000E+00  0.00000000000E+00  0.70797308251E+03  0.15688525430E+04  0.14000258626E+04 0.  0.
        5    1    3    3  502    0 -0.62814918905E+03 -0.73718865478E+02  0.17828480798E+02  0.63272886733E+03  0.46999998093E+01 0.  1.
       -5    1    3    3    0  502  0.62814918905E+03  0.73718865478E+02  0.69014460171E+03  0.93612367565E+03  0.46999998093E+01 0. -1.
</event>
<event>
 5   0  0.2467303E-05  0.1402293E+04  0.7818609E-02  0.8952160E-01
       -1   -1    0    0    0  501  0.00000000000E+00  0.00000000000E+00  0.59663717716E+03  0.59663717719E+03  0.50400001928E-02 0. -1.
        1   -1    0    0  501    0  0.00000000000E+00  0.00000000000E+00 -0.82396219447E+03  0.82396219449E+03  0.50400001928E-02 0.  1.
    10030    2    1    2    0    0  0.00000000000E+00  0.00000000000E+00 -0.22732501731E+03  0.14205993717E+04  0.14022930904E+04 0.  0.
        3    1    3    3  502    0  0.30140579768E+03  0.37188805094E+03  0.40533422738E+03  0.62724957026E+03  0.10100000352E+00 0. -1.
       -3    1    3    3    0  502 -0.30140579768E+03 -0.37188805094E+03 -0.63265924469E+03  0.79334980141E+03  0.10100000352E+00 0.  1.
</event>
<event>
 5   0  0.2363419E-05  0.1401930E+04  0.7818609E-02  0.8952423E-01
        1   -1    0    0  501    0  0.00000000000E+00  0.00000000000E+00  0.14011745859E+04  0.14011745859E+04  0.50400001928E-02 0. -1.
       -1   -1    0    0    0  501  0.00000000000E+00  0.00000000000E+00 -0.35067158646E+03  0.35067158650E+03  0.50400001928E-02 0.  1.
    10030    2    1    2    0    0  0.00000000000E+00  0.00000000000E+00  0.10505029994E+04  0.17518461724E+04  0.14019302621E+04 0.  0.
        2    1    3    3  502    0  0.36186910175E+03 -0.74201428146E-01  0.12754283774E+04  0.13257702660E+04  0.25500000920E-02 0. -1.
       -2    1    3    3    0  502 -0.36186910175E+03  0.74201428146E-01 -0.22492537801E+03  0.42607590636E+03  0.25500000920E-02 0.  1.
</event>
<event>
 5   0  0.2363419E-05  0.1404156E+04  0.7818609E-02  0.8950816E-01
        1   -1    0    0  501    0  0.00000000000E+00  0.00000000000E+00  0.16896501948E+04  0.16896501948E+04  0.50400001928E-02 0.  1.
       -1   -1    0    0    0  501  0.00000000000E+00  0.00000000000E+00 -0.29172509123E+03  0.29172509128E+03  0.50400001928E-02 0. -1.
    10030    2    1    2    0    0  0.00000000000E+00  0.00000000000E+00  0.13979251036E+04  0.19813752861E+04  0.14041557710E+04 0.  0.
        2    1    3    3  502    0  0.93535104149E+02 -0.20947777656E+02 -0.28244873385E+03  0.29826986498E+03  0.25500000920E-02 0. -1.
       -2    1    3    3    0  502 -0.93535104149E+02  0.20947777656E+02  0.16803738374E+04  0.16831054211E+04  0.25500000920E-02 0.  1.
</event>
<event>
 5   0  0.4527503E-05  0.1400152E+04  0.7818609E-02  0.8953709E-01
        2   -1    0    0  501    0  0.00000000000E+00  0.00000000000E+00  0.71258458615E+03  0.71258458615E+03  0.25500000920E-02 0. -1.
       -2   -1    0    0    0  501  0.00000000000E+00  0.00000000000E+00 -0.68778674026E+03  0.68778674026E+03  0.25500000920E-02 0.  1.
    10030    2    1    2    0    0  0.00000000000E+00  0.00000000000E+00  0.24797845889E+02  0.14003713264E+04  0.14001517485E+04 0.  0.
        4    1    3    3  502    0 -0.18755513430E+03 -0.55653751614E+03 -0.36870372057E+03  0.69343707843E+03  0.12699999809E+01 0.  1.
       -4    1    3    3    0  502  0.18755513430E+03  0.55653751614E+03  0.39350156645E+03  0.70693424799E+03  0.12699999809E+01 0. -1.
</event>
<event>
 5   0  0.2316714E-05  0.1400772E+04  0.7818609E-02  0.8953260E-01
        1   -1    0    0  501    0  0.00000000000E+00  0.00000000000E+00  0.72272178317E+03  0.72272178318E+03  0.50400001928E-02 0.  1.
       -1   -1    0    0    0  501  0.00000000000E+00  0.00000000000E+00 -0.67874016643E+03  0.67874016645E+03  0.50400001928E-02 0. -1.
    10030    2    1    2    0    0  0.00000000000E+00  0.00000000000E+00  0.43981616737E+02  0.14014619496E+04  0.14007716494E+04 0.  0.
        5    1    3    3  502    0  0.99756663264E+02  0.96990132157E+02 -0.66475821804E+03  0.67917895731E+03  0.46999998093E+01 0. -1.
       -5    1    3    3    0  502 -0.99756663264E+02 -0.96990132157E+02  0.70873983478E+03  0.72228299232E+03  0.46999998093E+01 0.  1.
</event>
<event>
 5   0  0.4621450E-05  0.1399974E+04  0.7818609E-02  0.8953837E-01
       -2   -1    0    0    0  501  0.00000000000E+00  0.00000000000E+00  0.63829116012E+03  0.63829116013E+03  0.25500000920E-02 0. -1.
        2   -1    0    0  501    0  0.00000000000E+00  0.00000000000E+00 -0.76764605940E+03  0.76764605940E+03  0.25500000920E-02 0.  1.
    10030    2    1    2    0    0  0.00000000000E+00  0.00000000000E+00 -0.12935489928E+03  0.14059372195E+04  0.13999738481E+04 0.  0.
        5    1    3    3  502    0  0.63897790708E+03 -0.22214619604E+03 -0.24521502672E+03  0.71957918083E+03  0.46999998093E+01 0. -1.
       -5    1    3    3    0  502 -0.63897790708E+03  0.22214619604E+03  0.11586012744E+03  0.68635803870E+03  0.46999998093E+01 0.  1.
</event>
<event>
 5   0  0.2363419E-05  0.1399280E+04  0.7818609E-02  0.8954340E-01
        1   -1    0    0  501    0  0.00000000000E+00  0.00000000000E+00  0.67483544001E+03  0.67483544003E+03  0.50400001928E-02 0.  1.
       -1   -1    0    0    0  501  0.00000000000E+00  0.00000000000E+00 -0.72535589408E+03  0.72535589410E+03  0.50400001928E-02 0. -1.
    10030    2    1    2    0    0  0.00000000000E+00  0.00000000000E+00 -0.50520454068E+02  0.14001913341E+04  0.13992796203E+04 0.  0.
        2    1    3    3  502    0  0.40221001150E+03  0.56996828911E+03 -0.78765806238E+02  0.70202620762E+03  0.25500000920E-02 0.  1.
       -2    1    3    3    0  502 -0.40221001150E+03 -0.56996828911E+03  0.28245352170E+02  0.69816512651E+03  0.25500000920E-02 0. -1.
</event>
<event>
 5   0  0.4460282E-05  0.1399775E+04  0.7818609E-02  0.8953982E-01
       -2   -1    0    0    0  501  0.00000000000E+00  0.00000000000E+00  0.71420229502E+03  0.71420229503E+03  0.25500000920E-02 0.  1.
        2   -1    0    0  501    0  0.00000000000E+00  0.00000000000E+00 -0.68585926843E+03  0.68585926843E+03  0.25500000920E-02 0. -1.
    10030    2    1    2    0    0  0.00000000000E+00  0.00000000000E+00  0.28343026594E+02  0.14000615635E+04  0.13997746441E+04 0.  0.
        1    1    3    3  502    0  0.68801709890E+03 -0.10363639098E+03 -0.61568731139E+02  0.69849748647E+03  0.50400001928E-02 0. -1.
       -1    1    3    3    0  502 -0.68801709890E+03  0.10363639098E+03  0.89911757734E+02  0.70156407699E+03  0.50400001928E-02 0.  1.
</event>
<event>
 5   0  0.2316714E-05  0.1400224E+04  0.7818609E-02  0.8953657E-01
       -1   -1    0    0    0  501  0.00000000000E+00  0.00000000000E+00  0.57117680583E+03  0.57117680585E+03  0.50400001928E-02 0.  1.
        1   -1    0    0  501    0  0.00000000000E+00  0.00000000000E+00 -0.85815197105E+03  0.85815197106E+03  0.50400001928E-02 0. -1.
    10030    2    1    2    0    0  0.00000000000E+00  0.00000000000E+00 -0.28697516522E+03  0.14293287769E+04  0.14002235561E+04 0.  0.
        5    1    3    3  502    0 -0.26029270244E+03 -0.48987525318E+03  0.29247815753E+03  0.62713285455E+03  0.46999998093E+01 0.  1.
       -5    1    3    3    0  502  0.26029270244E+03  0.48987525318E+03 -0.57945332274E+03  0.80219592237E+03  0.46999998093E+01 0. -1.
</event>
<event>
 5   0  0.2363419E-05  0.1399778E+04  0.7818609E-02  0.8953979E-01
       -1   -1    0    0    0  501  0.00000000000E+00  0.00000000000E+00  0.93029572303E+03  0.93029572305E+03  0.50400001928E-02 0. -1.
        1   -1    0    0  501    0  0.00000000000E+00  0.00000000000E+00 -0.52654725039E+03  0.52654725042E+03  0.50400001928E-02 0.  1.
    10030    2    1    2    0    0  0.00000000000E+00  0.00000000000E+00  0.40374847264E+03  0.14568429735E+04  0.13997780610E+04 0.  0.
        2    1    3    3  502    0 -0.75116519549E+02  0.57341406807E+03 -0.20840253632E+03  0.61471766049E+03  0.25500000920E-02 0.  1.
       -2    1    3    3    0  502  0.75116519549E+02 -0.57341406807E+03  0.61215100896E+03  0.84212531297E+03  0.25500000920E-02 0. -1.
</event>
<event>
 5   0  0.4243281E-05  0.1399894E+04  0.7818609E-02  0.8953895E-01
       -2   -1    0    0    0  501  0.00000000000E+00  0.00000000000E+00  0.21942615605E+03  0.21942615606E+03  0.25500000920E-02 0. -1.
        2   -1    0    0  501    0  0.00000000000E+00  0.00000000000E+00 -0.22327609142E+04  0.22327609142E+04  0.25500000920E-02 0.  1.
    10030    2    1    2    0    0  0.00000000000E+00  0.00000000000E+00 -0.20133347582E+04  0.24521870703E+04  0.13998944886E+04 0.  0.
        2    1    3    3  502    0 -0.17074459680E+03 -0.64801796492E+03 -0.65264679571E+03  0.93542976228E+03  0.25500000920E-02 0. -1.
       -2    1    3    3    0  502  0.17074459680E+03  0.64801796492E+03 -0.13606879625E+04  0.15167573080E+04  0.25500000920E-02 0.  1.
</event>
<event>
 5   0  0.4243281E-05  0.1399858E+04  0.7818609E-02  0.8953922E-01
       -2   -1    0    0    0  501  0.00000000000E+00  0.00000000000E+00  0.82129941419E+03  0.82129941419E+03  0.25500000920E-02 0. -1.
        2   -1    0    0  501    0  0.00000000000E+00  0.00000000000E+00 -0.59649425353E+03  0.59649425354E+03  0.25500000920E-02 0.  1.
    10030    2    1    2    0    0  0.00000000000E+00  0.00000000000E+00  0.22480516066E+03  0.14177936677E+04  0.13998576799E+04 0.  0.
        2    1    3    3  502    0  0.17945894510E+03  0.12184276963E+03  0.78639821542E+03  0.81576548512E+03  0.25500000920E-02 0. -1.
       -2    1    3    3    0  502 -0.17945894510E+03 -0.12184276963E+03 -0.56159305476E+03  0.60202818261E+03  0.25500000920E-02 0.  1.
</event>
<event>
 5   0  0.4527503E-05  0.1399965E+04  0.7818609E-02  0.8953844E-01
        2   -1    0    0  501    0  0.00000000000E+00  0.00000000000E+00  0.11049434884E+04  0.11049434884E+04  0.25500000920E-02 0. -1.
       -2   -1    0    0    0  501  0.00000000000E+00  0.00000000000E+00 -0.44343915645E+03  0.44343915645E+03  0.25500000920E-02 0.  1.
    10030    2    1    2    0    0  0.00000000000E+00  0.00000000000E+00  0.66150433199E+03  0.15483826449E+04  0.13999645830E+04 0.  0.
        4    1    3    3  502    0  0.26167887679E+03  0.49959976776E+03  0.78931245985E+03  0.97009872419E+03  0.12699999809E+01 0. -1.
       -4    1    3    3    0  502 -0.26167887679E+03 -0.49959976776E+03 -0.12780812786E+03  0.57828392071E+03  0.12699999809E+01 0.  1.
</event>
<event>
 5   0  0.4243281E-05  0.1400086E+04  0.7818609E-02  0.8953757E-01
        2   -1    0    0  501    0  0.00000000000E+00  0.00000000000E+00  0.61392049289E+03  0.61392049289E+03  0.25500000920E-02 0. -1.
       -2   -1    0    0    0  501  0.00000000000E+00  0.00000000000E+00 -0.79824662022E+03  0.79824662022E+03  0.25500000920E-02 0.  1.
    10030    2    1    2    0    0  0.00000000000E+00  0.00000000000E+00 -0.18432612733E+03  0.14121671131E+04  0.14000856524E+04 0.  0.
        2    1    3    3  502    0 -0.55888731259E+03  0.54801701426E+02  0.32941699363E+03  0.65105591953E+03  0.25500000920E-02 0.  1.
       -2    1    3    3    0  502  0.55888731259E+03 -0.54801701426E+02 -0.51374312096E+03  0.76111119358E+03  0.25500000920E-02 0. -1.
</event>
<event>
 5   0  0.4243281E-05  0.1400484E+04  0.7818609E-02  0.8953468E-01
       -2   -1    0    0    0  501  0.00000000000E+00  0.00000000000E+00  0.11741194772E+04  0.11741194772E+04  0.25500000920E-02 0.  1.
        2   -1    0    0  501    0  0.00000000000E+00  0.00000000000E+00 -0.41762257923E+03  0.41762257924E+03  0.25500000920E-02 0. -1.
    10030    2    1    2    0    0  0.00000000000E+00  0.00000000000E+00  0.75649689794E+03  0.15917420564E+04  0.14004839226E+04 0.  0.
        2    1    3    3  502    0 -0.32466467364E+03  0.46891222212E+03 -0.83500856870E+02  0.57641843783E+03  0.25500000920E-02 0.  1.
       -2    1    3    3    0  502  0.32466467364E+03 -0.46891222212E+03  0.83999775481E+03  0.10153236186E+04  0.25500000920E-02 0. -1.
</event>
<event>
 5   0  0.4441253E-05  0.1399857E+04  0.7818609E-02  0.8953922E-01
       -2   -1    0    0    0  501  0.00000000000E+00  0.00000000000E+00  0.38410515950E+03  0.38410515951E+03  0.25500000920E-02 0. -1.
        2   -1    0    0  501    0  0.00000000000E+00  0.00000000000E+00 -0.12754309665E+04  0.12754309665E+04  0.25500000920E-02 0.  1.
    10030    2    1    2    0    0  0.00000000000E+00  0.00000000000E+00 -0.89132580699E+03  0.16595361260E+04  0.13998565853E+04 0.  0.
        3    1    3    3  502    0 -0.50941236474E+03  0.44760528130E+03 -0.24016277219E+03  0.71939531034E+03  0.10100000352E+00 0. -1.
       -3    1    3    3    0  502  0.50941236474E+03 -0.44760528130E+03 -0.65116303480E+03  0.94014081567E+03  0.10100000352E+00 0.  1.
</event>
<event>
 5   0  0.2428507E-05  0.1400542E+04  0.7818609E-02  0.8953426E-01
        1   -1    0    0  501    0  0.00000000000E+00  0.00000000000E+00  0.76396393705E+03  0.76396393707E+03  0.50400001928E-02 0. -1.
       -1   -1    0    0    0  501  0.00000000000E+00  0.00000000000E+00 -0.64188866489E+03  0.64188866491E+03  0.50400001928E-02 0.  1.
    10030    2    1    2    0    0  0.00000000000E+00  0.00000000000E+00  0.12207527217E+03  0.14058526020E+04  0.14005424543E+04 0.  0.
        4    1    3    3  502    0  0.39138318775E+02 -0.54567625878E+03 -0.37775106493E+03  0.66482468918E+03  0.12699999809E+01 0.  1.
       -4    1    3    3    0  502 -0.39138318775E+02  0.54567625878E+03  0.49982633710E+03  0.74102791280E+03  0.12699999809E+01 0. -1.
</event>
<event>
 5   0  0.2427569E-05  0.1400111E+04  0.7818609E-02  0.8953738E-01
        1   -1    0    0  501    0  0.00000000000E+00  0.00000000000E+00  0.13930327307E+04  0.13930327307E+04  0.50400001928E-02 0. -1.
       -1   -1    0    0    0  501  0.00000000000E+00  0.00000000000E+00 -0.35180642203E+03  0.35180642207E+03  0.50400001928E-02 0.  1.
    10030    2    1    2    0    0  0.00000000000E+00  0.00000000000E+00  0.10412263087E+04  0.17448391528E+04  0.14001112253E+04 0.  0.
        1    1    3    3  502    0  0.27355824252E+03  0.26974813568E+03  0.12499199704E+04  0.13076307205E+04  0.50400001928E-02 0. -1.
       -1    1    3    3    0  502 -0.27355824252E+03 -0.26974813568E+03 -0.20869366175E+03  0.43720843226E+03  0.50400001928E-02 0.  1.
</event>
<event>
 5   0  0.2467303E-05  0.1399550E+04  0.7818609E-02  0.8954144E-01
       -1   -1    0    0    0  501  0.00000000000E+00  0.00000000000E+00  0.68488751206E+03  0.68488751208E+03  0.50400001928E-02 0.  1.
        1   -1    0    0  501    0  0.00000000000E+00  0.00000000000E+00 -0.71498592565E+03  0.71498592567E+03  0.50400001928E-02 0. -1.
    10030    2    1    2    0    0  0.00000000000E+00  0.00000000000E+00 -0.30098413585E+02  0.13998734377E+04  0.13995498302E+04 0.  0.
        3    1    3    3  502    0 -0.50995000227E+03  0.45715911030E+03 -0.15875380418E+03  0.70302648420E+03  0.10100000352E+00 0.  1.
       -3    1    3    3    0  502  0.50995000227E+03 -0.45715911030E+03  0.12865539059E+03  0.69684695355E+03  0.10100000352E+00 0. -1.
</event>
<event>
 5   0  0.2363419E-05  0.1399736E+04  0.7818609E-02  0.8954010E-01
        1   -1    0    0  501    0  0.00000000000E+00  0.00000000000E+00  0.72783245248E+03  0.72783245250E+03  0.50400001928E-02 0.  1.
       -1   -1    0    0    0  501  0.00000000000E+00  0.00000000000E+00 -0.67297763925E+03  0.67297763927E+03  0.50400001928E-02 0. -1.
    10030    2    1    2    0    0  0.00000000000E+00  0.00000000000E+00  0.54854813225E+02  0.14008100918E+04  0.13997356403E+04 0.  0.
        2    1    3    3  502    0 -0.16654188617E+02  0.66880966193E+03  0.23308756057E+03  0.70845856392E+03  0.25500000920E-02 0.  1.
       -2    1    3    3    0  502  0.16654188617E+02 -0.66880966193E+03 -0.17823274734E+03  0.69235152785E+03  0.25500000920E-02 0. -1.
</event>
<event>
 5   0  0.2427569E-05  0.1400236E+04  0.7818609E-02  0.8953648E-01
        1   -1    0    0  501    0  0.00000000000E+00  0.00000000000E+00  0.10791263622E+04  0.10791263622E+04  0.50400001928E-02 0.  1.
       -1   -1    0    0    0  501  0.00000000000E+00  0.00000000000E+00 -0.45422397474E+03  0.45422397477E+03  0.50400001928E-02 0. -1.
    10030    2    1    2    0    0  0.00000000000E+00  0.00000000000E+00  0.62490238747E+03  0.15333503370E+04  0.14002357880E+04 0.  0.
        1    1    3    3  502    0  0.23493655594E+03  0.13715664369E+03  0.10188814792E+04  0.10545741315E+04  0.50400001928E-02 0.  1.
       -1    1    3    3    0  502 -0.23493655594E+03 -0.13715664369E+03 -0.39397909170E+03  0.47877620549E+03  0.50400001928E-02 0. -1.
</event>
<event>
 5   0  0.4527503E-05  0.1399484E+04  0.7818609E-02  0.8954192E-01
       -2   -1    0    0    0  501  0.00000000000E+00  0.00000000000E+00  0.74488197076E+03  0.74488197076E+03  0.25500000920E-02 0. -1.
        2   -1    0    0  501    0  0.00000000000E+00  0.00000000000E+00 -0.65733759150E+03  0.65733759150E+03  0.25500000920E-02 0.  1.
    10030    2    1    2    0    0  0.00000000000E+00  0.00000000000E+00  0.87544379261E+02  0.14022195623E+04  0.13994840772E+04 0.  0.
        4    1    3    3  502    0  0.28130698483E+02  0.47924899172E+03 -0.46630674408E+03  0.66926416663E+03  0.12699999809E+01 0.  1.
       -4    1    3    3    0  502 -0.28130698483E+02 -0.47924899172E+03  0.55385112334E+03  0.73295539564E+03  0.12699999809E+01 0. -1.
</event>
<event>
 5   0  0.4527503E-05  0.1399765E+04  0.7818609E-02  0.8953988E-01
       -2   -1    0    0    0  501  0.00000000000E+00  0.00000000000E+00  0.44986821942E+03  0.44986821943E+03  0.25500000920E-02 0.  1.
        2   -1    0    0  501    0  0.00000000000E+00  0.00000000000E+00 -0.10888426448E+04  0.10888426448E+04  0.25500000920E-02 0. -1.
    10030    2    1    2    0    0  0.00000000000E+00  0.00000000000E+00 -0.63897442542E+03  0.15387108643E+04  0.13997652687E+04 0.  0.
        4    1    3    3  502    0  0.31568181126E+03 -0.32921711500E+03 -0.90302446008E+03  0.10116786561E+04  0.12699999809E+01 0. -1.
       -4    1    3    3    0  502 -0.31568181126E+03  0.32921711500E+03  0.26405003466E+03  0.52703220819E+03  0.12699999809E+01 0.  1.
</event>
<event>
 5   0  0.4243281E-05  0.1399978E+04  0.7818609E-02  0.8953835E-01
       -2   -1    0    0    0  501  0.00000000000E+00  0.00000000000E+00  0.31847776642E+03  0.31847776643E+03  0.25500000920E-02 0. -1.
        2   -1    0    0  501    0  0.00000000000E+00  0.00000000000E+00 -0.15385196780E+04  0.15385196780E+04  0.25500000920E-02 0.  1.
    10030    2    1    2    0    0  0.00000000000E+00  0.00000000000E+00 -0.12200419116E+04  0.18569974444E+04  0.13999775865E+04 0.  0.
        2    1    3    3  502    0 -0.37801973457E+03 -0.53247597616E+03 -0.94441932272E+03  0.11481974752E+04  0.25500000920E-02 0.  1.
       -2    1    3    3    0  502  0.37801973457E+03  0.53247597616E+03 -0.27562258887E+03  0.70879996925E+03  0.25500000920E-02 0. -1.
</event>
<event>
 5   0  0.1661000E-05  0.1400506E+04  0.7818609E-02  0.8953453E-01
        3   -1    0    0  501    0  0.00000000000E+00  0.00000000000E+00  0.38029988174E+03  0.38029989515E+03  0.10100000352E+00 0.  1.
       -3   -1    0    0    0  501  0.00000000000E+00  0.00000000000E+00 -0.12893877563E+04  0.12893877602E+04  0.10100000352E+00 0. -1.
    10030    2    1    2    0    0  0.00000000000E+00  0.00000000000E+00 -0.90908787452E+03  0.16696876554E+04  0.14005056597E+04 0.  0.
        2    1    3    3  502    0 -0.36292602572E+03 -0.34256288746E+02 -0.11673432495E+04  0.12229386966E+04  0.25500000920E-02 0. -1.
       -2    1    3    3    0  502  0.36292602572E+03  0.34256288746E+02  0.25825537497E+03  0.44674895879E+03  0.25500000920E-02 0.  1.
</event>
<event>
 5   0  0.2428507E-05  0.1399252E+04  0.7818609E-02  0.8954360E-01
        1   -1    0    0  501    0  0.00000000000E+00  0.00000000000E+00  0.24168622776E+04  0.24168622776E+04  0.50400001928E-02 0. -1.
       -1   -1    0    0    0  501  0.00000000000E+00  0.00000000000E+00 -0.20252563799E+03  0.20252563805E+03  0.50400001928E-02 0.  1.
    10030    2    1    2    0    0  0.00000000000E+00  0.00000000000E+00  0.22143366396E+04  0.26193879157E+04  0.13992520499E+04 0.  0.
        4    1    3    3  502    0 -0.41435394041E+03  0.18501958273E+03  0.11033764139E+03  0.46700903838E+03  0.12699999809E+01 0.  1.
       -4    1    3    3    0  502  0.41435394041E+03 -0.18501958273E+03  0.21039989982E+04  0.21523788773E+04  0.12699999809E+01 0. -1.
</event>
<event>
 5   0  0.2467303E-05  0.1401612E+04  0.7818609E-02  0.8952652E-01
        1   -1    0    0  501    0  0.00000000000E+00  0.00000000000E+00  0.53400446038E+03  0.53400446040E+03  0.50400001928E-02 0. -1.
       -1   -1    0    0    0  501  0.00000000000E+00  0.00000000000E+00 -0.91971004539E+03  0.91971004541E+03  0.50400001928E-02 0.  1.
    10030    2    1    2    0    0  0.00000000000E+00  0.00000000000E+00 -0.38570558502E+03  0.14537145058E+04  0.14016123095E+04 0.  0.
        3    1    3    3  502    0  0.21493001640E+03 -0.26460828850E+03  0.44221292745E+03  0.55835897208E+03  0.10100000352E+00 0. -1.
       -3    1    3    3    0  502 -0.21493001640E+03  0.26460828850E+03 -0.82791851247E+03  0.89535553373E+03  0.10100000352E+00 0.  1.
</event>
<event>
 5   0  0.2428507E-05  0.1400221E+04  0.7818609E-02  0.8953658E-01
        1   -1    0    0  501    0  0.00000000000E+00  0.00000000000E+00  0.93103506130E+03  0.93103506131E+03  0.50400001928E-02 0.  1.
       -1   -1    0    0    0  501  0.00000000000E+00  0.00000000000E+00 -0.52646224552E+03  0.52646224555E+03  0.50400001928E-02 0. -1.
    10030    2    1    2    0    0  0.00000000000E+00  0.00000000000E+00  0.40457281578E+03  0.14574973069E+04  0.14002211383E+04 0.  0.
        4    1    3    3  502    0 -0.64566575455E+02  0.34015616892E+02 -0.52249102196E+03  0.52756457973E+03  0.12699999809E+01 0. -1.
       -4    1    3    3    0  502  0.64566575455E+02 -0.34015616892E+02  0.92706383773E+03  0.92993272713E+03  0.12699999809E+01 0.  1.
</event>
<event>
 5   0  0.2428507E-05  0.1400256E+04  0.7818609E-02  0.8953634E-01
        1   -1    0    0  501    0  0.00000000000E+00  0.00000000000E+00  0.49330442333E+03  0.49330442335E+03  0.50400001928E-02 0.  1.
       -1   -1    0    0    0  501  0.00000000000E+00  0.00000000000E+00 -0.99366419700E+03  0.99366419701E+03  0.50400001928E-02 0. -1.
    10030    2    1    2    0    0  0.00000000000E+00  0.00000000000E+00 -0.50035977367E+03  0.14869686204E+04  0.14002556105E+04 0.  0.
        4    1    3    3  502    0 -0.28226959326E+03 -0.63548873373E+03 -0.16354804559E+03  0.71433299664E+03  0.12699999809E+01 0.  1.
       -4    1    3    3    0  502  0.28226959326E+03  0.63548873373E+03 -0.33681172808E+03  0.77263562372E+03  0.12699999809E+01 0. -1.
</event>
<event>
 5   0  0.4460282E-05  0.1399903E+04  0.7818609E-02  0.8953888E-01
        2   -1    0    0  501    0  0.00000000000E+00  0.00000000000E+00  0.72931213929E+03  0.72931213929E+03  0.25500000920E-02 0. -1.
       -2   -1    0    0    0  501  0.00000000000E+00  0.00000000000E+00 -0.67177325700E+03  0.67177325700E+03  0.25500000920E-02 0.  1.
    10030    2    1    2    0    0  0.00000000000E+00  0.00000000000E+00  0.57538882292E+02  0.14010853963E+04  0.13999034126E+04 0.  0.
        1    1    3    3  502    0  0.19401068774E+03 -0.59775796139E+03  0.33721411516E+03  0.71320970748E+03  0.50400001928E-02 0. -1.
       -1    1    3    3    0  502 -0.19401068774E+03  0.59775796139E+03 -0.27967523286E+03  0.68787568881E+03  0.50400001928E-02 0.  1.
</event>
<event>
 5   0  0.4243281E-05  0.1399514E+04  0.7818609E-02  0.8954170E-01
       -2   -1    0    0    0  501  0.00000000000E+00  0.00000000000E+00  0.88909680663E+03  0.88909680663E+03  0.25500000920E-02 0.  1.
        2   -1    0    0  501    0  0.00000000000E+00  0.00000000000E+00 -0.55073878315E+03  0.55073878316E+03  0.25500000920E-02 0. -1.
    10030    2    1    2    0    0  0.00000000000E+00  0.00000000000E+00  0.33835802348E+03  0.14398355898E+04  0.13995143349E+04 0.  0.
        2    1    3    3  502    0 -0.14022933761E+03  0.40865635548E+03 -0.39713051034E+03  0.58683637093E+03  0.25500000920E-02 0. -1.
       -2    1    3    3    0  502  0.14022933761E+03 -0.40865635548E+03  0.73548853382E+03  0.85299921886E+03  0.25500000920E-02 0.  1.
</event>
<event>
 5   0  0.4441253E-05  0.1400551E+04  0.7818609E-02  0.8953420E-01
        2   -1    0    0  501    0  0.00000000000E+00  0.00000000000E+00  0.50472743949E+03  0.50472743950E+03  0.25500000920E-02 0. -1.
       -2   -1    0    0    0  501  0.00000000000E+00  0.00000000000E+00 -0.97158551013E+03  0.97158551013E+03  0.25500000920E-02 0.  1.
    10030    2    1    2    0    0  0.00000000000E+00  0.00000000000E+00 -0.46685807064E+03  0.14763129496E+04  0.14005511298E+04 0.  0.
        3    1    3    3  502    0 -0.44564675675E+03  0.30580043898E+03  0.23593409092E+03  0.58972862041E+03  0.10100000352E+00 0. -1.
       -3    1    3    3    0  502  0.44564675675E+03 -0.30580043898E+03 -0.70279216156E+03  0.88658432922E+03  0.10100000352E+00 0.  1.
</event>
<event>
 5   0  0.4621450E-05  0.1399769E+04  0.7818609E-02  0.8953986E-01
        2   -1    0    0  501    0  0.00000000000E+00  0.00000000000E+00  0.11681458574E+04  0.11681458574E+04  0.25500000920E-02 0.  1.
       -2   -1    0    0    0  501  0.00000000000E+00  0.00000000000E+00 -0.41932984107E+03  0.41932984108E+03  0.25500000920E-02 0. -1.
    10030    2    1    2    0    0  0.00000000000E+00  0.00000000000E+00  0.74881601635E+03  0.15874756985E+04  0.13997691477E+04 0.  0.
        5    1    3    3  502    0 -0.32230159559E+03 -0.39927914356E+03 -0.16534908703E+03  0.53913315942E+03  0.46999998093E+01 0. -1.
       -5    1    3    3    0  502  0.32230159559E+03  0.39927914356E+03  0.91416510338E+03  0.10483425391E+04  0.46999998093E+01 0.  1.
</event>
<event>
 5   0  0.2316714E-05  0.1400933E+04  0.7818609E-02  0.8953143E-01
        1   -1    0    0  501    0  0.00000000000E+00  0.00000000000E+00  0.90174836103E+03  0.90174836104E+03  0.50400001928E-02 0. -1.
       -1   -1    0    0    0  501  0.00000000000E+00  0.00000000000E+00 -0.54411348590E+03  0.54411348592E+03  0.50400001928E-02 0.  1.
    10030    2    1    2    0    0  0.00000000000E+00  0.00000000000E+00  0.35763487513E+03  0.14458618470E+04  0.14009331806E+04 0.  0.
        5    1    3    3  502    0 -0.32978921732E+03  0.14916125052E+02  0.81640646579E+03  0.88063898734E+03  0.46999998093E+01 0. -1.
       -5    1    3    3    0  502  0.32978921732E+03 -0.14916125052E+02 -0.45877159066E+03  0.56522285962E+03  0.46999998093E+01 0.  1.
</event>
<event>
 5   0  0.2363419E-05  0.1400914E+04  0.7818609E-02  0.8953157E-01
        1   -1    0    0  501    0  0.00000000000E+00  0.00000000000E+00  0.12452499319E+04  0.12452499319E+04  0.50400001928E-02 0.  1.
       -1   -1    0    0    0  501  0.00000000000E+00  0.00000000000E+00 -0.39400942479E+03  0.39400942483E+03  0.50400001928E-02 0. -1.
    10030    2    1    2    0    0  0.00000000000E+00  0.00000000000E+00  0.85124050711E+03  0.16392593567E+04  0.14009142864E+04 0.  0.
        2    1    3    3  502    0 -0.17330446784E+03  0.67528734057E+03  0.50492037610E+03  0.86080893183E+03  0.25500000920E-02 0.  1.
       -2    1    3    3    0  502  0.17330446784E+03 -0.67528734057E+03  0.34632013101E+03  0.77845042491E+03  0.25500000920E-02 0. -1.
</event>
<event>
 5   0  0.2316714E-05  0.1401078E+04  0.7818609E-02  0.8953039E-01
       -1   -1    0    0    0  501  0.00000000000E+00  0.00000000000E+00  0.57530734468E+03  0.57530734470E+03  0.50400001928E-02 0. -1.
        1   -1    0    0  501    0  0.00000000000E+00  0.00000000000E+00 -0.85303081318E+03  0.85303081320E+03  0.50400001928E-02 0.  1.
    10030    2    1    2    0    0  0.00000000000E+00  0.00000000000E+00 -0.27772346850E+03  0.14283381579E+04  0.14010780022E+04 0.  0.
        5    1    3    3  502    0 -0.45259443588E+03 -0.44266047141E+03 -0.44460147385E+03  0.77361655676E+03  0.46999998093E+01 0.  1.
       -5    1    3    3    0  502  0.45259443588E+03  0.44266047141E+03  0.16687800535E+03  0.65472160114E+03  0.46999998093E+01 0. -1.
</event>
<event>
 5   0  0.4243281E-05  0.1401019E+04  0.7818609E-02  0.8953081E-01
       -2   -1    0    0    0  501  0.00000000000E+00  0.00000000000E+00  0.59454413044E+03  0.59454413044E+03  0.25500000920E-02 0.  1.
        2   -1    0    0  501    0  0.00000000000E+00  0.00000000000E+00 -0.82536117178E+03  0.82536117178E+03  0.25500000920E-02 0. -1.
    10030    2    1    2    0    0  0.00000000000E+00  0.00000000000E+00 -0.23081704134E+03  0.14199053022E+04  0.14010191150E+04 0.  0.
        2    1    3    3  502    0 -0.25637278967E+03 -0.42691913497E+03  0.38390586960E+03  0.62878507601E+03  0.25500000920E-02 0.  1.
       -2    1    3    3    0  502  0.25637278967E+03  0.42691913497E+03 -0.61472291094E+03  0.79112022622E+03  0.25500000920E-02 0. -1.
</event>
<event>
 5   0  0.4460282E-05  0.1399950E+04  0.7818609E-02  0.8953855E-01
        2   -1    0    0  501    0  0.00000000000E+00  0.00000000000E+00  0.17444487545E+04  0.17444487545E+04  0.25500000920E-02 0. -1.
       -2   -1    0    0    0  501  0.00000000000E+00  0.00000000000E+00 -0.28087104223E+03  0.28087104224E+03  0.25500000920E-02 0.  1.
    10030    2    1    2    0    0  0.00000000000E+00  0.00000000000E+00  0.14635777122E+04  0.20253197967E+04  0.13999501988E+04 0.  0.
        1    1    3    3  502    0 -0.22386686135E+03  0.57974824577E+02  0.16875888429E+04  0.17033594907E+04  0.50400001928E-02 0. -1.
       -1    1    3    3    0  502  0.22386686135E+03 -0.57974824577E+02 -0.22401113071E+03  0.32196030594E+03  0.50400001928E-02 0.  1.
</event>
<event>
 5   0  0.4460282E-05  0.1400324E+04  0.7818609E-02  0.8953584E-01
        2   -1    0    0  501    0  0.00000000000E+00  0.00000000000E+00  0.13332719069E+04  0.13332719069E+04  0.25500000920E-02 0.  1.
       -2   -1    0    0    0  501  0.00000000000E+00  0.00000000000E+00 -0.36768691185E+03  0.36768691186E+03  0.25500000920E-02 0. -1.
    10030    2    1    2    0    0  0.00000000000E+00  0.00000000000E+00  0.96558499506E+03  0.17009588188E+04  0.14003237199E+04 0.  0.
        1    1    3    3  502    0 -0.39404179357E+03 -0.13769102820E+03  0.11656154681E+04  0.12380982085E+04  0.50400001928E-02 0.  1.
       -1    1    3    3    0  502  0.39404179357E+03  0.13769102820E+03 -0.20003047309E+03  0.46286061025E+03  0.50400001928E-02 0. -1.
</event>
<event>
 5   0  0.4441253E-05  0.1400023E+04  0.7818609E-02  0.8953802E-01
        2   -1    0    0  501    0  0.00000000000E+00  0.00000000000E+00  0.72455106189E+03  0.72455106189E+03  0.25500000920E-02 0.  1.
       -2   -1    0    0    0  501  0.00000000000E+00  0.00000000000E+00 -0.67630310826E+03  0.67630310826E+03  0.25500000920E-02 0. -1.
    10030    2    1    2    0    0  0.00000000000E+00  0.00000000000E+00  0.48247953631E+02  0.14008541702E+04  0.14000230502E+04 0.  0.
        3    1    3    3  502    0 -0.47213514026E+03 -0.44448279185E+03 -0.23973615776E+03  0.69133926437E+03  0.10100000352E+00 0. -1.
       -3    1    3    3    0  502  0.47213514026E+03  0.44448279185E+03  0.28798411139E+03  0.70951490579E+03  0.10100000352E+00 0.  1.
</event>
<event>
 5   0  0.2428507E-05  0.1399606E+04  0.7818609E-02  0.8954104E-01
       -1   -1    0    0    0  501  0.00000000000E+00  0.00000000000E+00  0.29617057889E+03  0.29617057893E+03  0.50400001928E-02 0.  1.
        1   -1    0    0  501    0  0.00000000000E+00  0.00000000000E+00 -0.16535198600E+04  0.16535198600E+04  0.50400001928E-02 0. -1.
    10030    2    1    2    0    0  0.00000000000E+00  0.00000000000E+00 -0.13573492811E+04  0.19496904390E+04  0.13996055647E+04 0.  0.
        4    1    3    3  502    0  0.47725785648E+03 -0.44168153142E+03 -0.10388868269E+04  0.12256202874E+04  0.12699999809E+01 0. -1.
       -4    1    3    3    0  502 -0.47725785648E+03  0.44168153142E+03 -0.31846245420E+03  0.72407015158E+03  0.12699999809E+01 0.  1.
</event>
<event>
 5   0  0.4441253E-05  0.1400100E+04  0.7818609E-02  0.8953746E-01
       -2   -1    0    0    0  501  0.00000000000E+00  0.00000000000E+00  0.29065356867E+03  0.29065356868E+03  0.25500000920E-02 0.  1.
        2   -1    0    0  501    0  0.00000000000E+00  0.00000000000E+00 -0.16860977698E+04  0.16860977698E+04  0.25500000920E-02 0. -1.
    10030    2    1    2    0    0  0.00000000000E+00  0.00000000000E+00 -0.13954442011E+04  0.19767513385E+04  0.14001004734E+04 0.  0.
        3    1    3    3  502    0 -0.35221543265E+03  0.58264968408E+03 -0.92770410817E+03  0.11507264175E+04  0.10100000352E+00 0. -1.
       -3    1    3    3    0  502  0.35221543265E+03 -0.58264968408E+03 -0.46774009296E+03  0.82602492100E+03  0.10100000352E+00 0.  1.
</event>
<event>
 5   0  0.2363419E-05  0.1399971E+04  0.7818609E-02  0.8953839E-01
        1   -1    0    0  501    0  0.00000000000E+00  0.00000000000E+00  0.12474035585E+04  0.12474035586E+04  0.50400001928E-02 0.  1.
       -1   -1    0    0    0  501  0.00000000000E+00  0.00000000000E+00 -0.39279975401E+03  0.39279975404E+03  0.50400001928E-02 0. -1.
    10030    2    1    2    0    0  0.00000000000E+00  0.00000000000E+00  0.85460380454E+03  0.16402033126E+04  0.13999711582E+04 0.  0.
        2    1    3    3  502    0  0.49541232644E+03  0.46127933073E+03  0.63612199342E+03  0.92890429253E+03  0.25500000920E-02 0.  1.
       -2    1    3    3    0  502 -0.49541232644E+03 -0.46127933073E+03  0.21848181112E+03  0.71129902007E+03  0.25500000920E-02 0. -1.
</event>
<event>
 5   0  0.1661000E-05  0.1399413E+04  0.7818609E-02  0.8954243E-01
       -4   -1    0    0    0  501  0.00000000000E+00  0.00000000000E+00  0.11741722915E+04  0.11741729783E+04  0.12699999809E+01 0.  1.
        4   -1    0    0  501    0  0.00000000000E+00  0.00000000000E+00 -0.41696365762E+03  0.41696559172E+03  0.12699999809E+01 0. -1.
    10030    2    1    2    0    0  0.00000000000E+00  0.00000000000E+00  0.75720863388E+03  0.15911385700E+04  0.13994131034E+04 0.  0.
        2    1    3    3  502    0  0.47304006802E+03 -0.42288080641E+03  0.43247486034E+02  0.63597596451E+03  0.25500000920E-02 0. -1.
       -2    1    3    3    0  502 -0.47304006802E+03  0.42288080641E+03  0.71396114785E+03  0.95516260554E+03  0.25500000920E-02 0.  1.
</event>
<event>
 5   0  0.4441253E-05  0.1399766E+04  0.7818609E-02  0.8953988E-01
       -2   -1    0    0    0  501  0.00000000000E+00  0.00000000000E+00  0.34615713913E+03  0.34615713914E+03  0.25500000920E-02 0. -1.
        2   -1    0    0  501    0  0.00000000000E+00  0.00000000000E+00 -0.14150694290E+04  0.14150694290E+04  0.25500000920E-02 0.  1.
    10030    2    1    2    0    0  0.00000000000E+00  0.00000000000E+00 -0.10689122898E+04  0.17612265681E+04  0.13997662451E+04 0.  0.
        3    1    3    3  502    0  0.30500679704E+03 -0.52145512137E+03 -0.97911469589E+03  0.11504825891E+04  0.10100000352E+00 0.  1.
       -3    1    3    3    0  502 -0.30500679704E+03  0.52145512137E+03 -0.89797593941E+02  0.61074397903E+03  0.10100000352E+00 0. -1.
</event>
<event>
 5   0  0.2363419E-05  0.1403213E+04  0.7818609E-02  0.8951496E-01
       -1   -1    0    0    0  501  0.00000000000E+00  0.00000000000E+00  0.24290470436E+03  0.24290470441E+03  0.50400001928E-02 0. -1.
        1   -1    0    0  501    0  0.00000000000E+00  0.00000000000E+00 -0.20265229562E+04  0.20265229562E+04  0.50400001928E-02 0.  1.
    10030    2    1    2    0    0  0.00000000000E+00  0.00000000000E+00 -0.17836182519E+04  0.22694276606E+04  0.14032133973E+04 0.  0.
        2    1    3    3  502    0 -0.27663953874E+03 -0.90694475119E+02 -0.19242254177E+04  0.19461239376E+04  0.25500000920E-02 0.  1.
       -2    1    3    3    0  502  0.27663953874E+03  0.90694475119E+02  0.14060716589E+03  0.32330372302E+03  0.25500000920E-02 0. -1.
</event>
<event>
 5   0  0.2363419E-05  0.1399766E+04  0.7818609E-02  0.8953988E-01
        1   -1    0    0  501    0  0.00000000000E+00  0.00000000000E+00  0.15168184677E+04  0.15168184677E+04  0.50400001928E-02 0. -1.
       -1   -1    0    0    0  501  0.00000000000E+00  0.00000000000E+00 -0.32293651906E+03  0.32293651910E+03  0.50400001928E-02 0.  1.
    10030    2    1    2    0    0  0.00000000000E+00  0.00000000000E+00  0.11938819487E+04  0.18397549868E+04  0.13997658033E+04 0.  0.
        2    1    3    3  502    0  0.95386711799E+02 -0.66243000260E+03  0.32782735947E+03  0.74524016985E+03  0.25500000920E-02 0. -1.
       -2    1    3    3    0  502 -0.95386711799E+02  0.66243000260E+03  0.86605458921E+03  0.10945148170E+04  0.25500000920E-02 0.  1.
</event>
<event>
 5   0  0.2316714E-05  0.1400167E+04  0.7818609E-02  0.8953698E-01
       -1   -1    0    0    0  501  0.00000000000E+00  0.00000000000E+00  0.98990853914E+03  0.98990853916E+03  0.50400001928E-02 0. -1.
        1   -1    0    0  501    0  0.00000000000E+00  0.00000000000E+00 -0.49511326196E+03  0.49511326198E+03  0.50400001928E-02 0.  1.
    10030    2    1    2    0    0  0.00000000000E+00  0.00000000000E+00  0.49479527719E+03  0.14850218011E+04  0.14001669127E+04 0.  0.
        5    1    3    3  502    0  0.24284806221E+03  0.18392995427E+03  0.91590543799E+03  0.96525140286E+03  0.46999998093E+01 0. -1.
       -5    1    3    3    0  502 -0.24284806221E+03 -0.18392995427E+03 -0.42111016080E+03  0.51977039827E+03  0.46999998093E+01 0.  1.
</event>
<event>
 5   0  0.4243281E-05  0.1399554E+04  0.7818609E-02  0.8954142E-01
        2   -1    0    0  501    0  0.00000000000E+00  0.00000000000E+00  0.34635288340E+03  0.34635288341E+03  0.25500000920E-02 0.  1.
       -2   -1    0    0    0  501  0.00000000000E+00  0.00000000000E+00 -0.14138400241E+04  0.14138400241E+04  0.25500000920E-02 0. -1.
    10030    2    1    2    0    0  0.00000000000E+00  0.00000000000E+00 -0.10674871407E+04  0.17601929075E+04  0.13995535989E+04 0.  0.
        2    1    3    3  502    0 -0.60617074032E+03  0.25145658151E+03 -0.83927012134E+03  0.10653861813E+04  0.25500000920E-02 0. -1.
       -2    1    3    3    0  502  0.60617074032E+03 -0.25145658151E+03 -0.22821701937E+03  0.69480672618E+03  0.25500000920E-02 0.  1.
</event>
<event>
 5   0  0.4243281E-05  0.1401018E+04  0.7818609E-02  0.8953082E-01
        2   -1    0    0  501    0  0.00000000000E+00  0.00000000000E+00  0.14597322780E+04  0.14597322780E+04  0.25500000920E-02 0. -1.
       -2   -1    0    0    0  501  0.00000000000E+00  0.00000000000E+00 -0.33616628991E+03  0.33616628992E+03  0.25500000920E-02 0.  1.
    10030    2    1    2    0    0  0.00000000000E+00  0.00000000000E+00  0.11235659880E+04  0.17958985679E+04  0.14010178930E+04 0.  0.
        2    1    3    3  502    0 -0.69349158829E+03 -0.18378273400E+02  0.43720933169E+03  0.82001240459E+03  0.25500000920E-02 0.  1.
       -2    1    3    3    0  502  0.69349158829E+03  0.18378273400E+02  0.68635665636E+03  0.97588616329E+03  0.25500000920E-02 0. -1.
</event>
<event>
 5   0  0.2467303E-05  0.1400278E+04  0.7818609E-02  0.8953617E-01
        1   -1    0    0  501    0  0.00000000000E+00  0.00000000000E+00  0.10296405013E+04  0.10296405013E+04  0.50400001928E-02 0.  1.
       -1   -1    0    0    0  501  0.00000000000E+00  0.00000000000E+00 -0.47608319537E+03  0.47608319540E+03  0.50400001928E-02 0. -1.
    10030    2    1    2    0    0  0.00000000000E+00  0.00000000000E+00  0.55355730590E+03  0.15057236967E+04  0.14002778866E+04 0.  0.
        3    1    3    3  502    0  0.11778675680E+03 -0.49634332550E+02  0.10169884286E+04  0.10249891517E+04  0.10100000352E+00 0.  1.
       -3    1    3    3    0  502 -0.11778675680E+03  0.49634332550E+02 -0.46343112269E+03  0.48073454497E+03  0.10100000352E+00 0. -1.
</event>
<event>
 5   0  0.4527503E-05  0.1400095E+04  0.7818609E-02  0.8953749E-01
        2   -1    0    0  501    0  0.00000000000E+00  0.00000000000E+00  0.46385704007E+03  0.46385704008E+03  0.25500000920E-02 0. -1.
       -2   -1    0    0    0  501  0.00000000000E+00  0.00000000000E+00 -0.10565040008E+04  0.10565040008E+04  0.25500000920E-02 0.  1.
    10030    2    1    2    0    0  0.00000000000E+00  0.00000000000E+00 -0.59264696068E+03  0.15203610408E+04  0.14000954519E+04 0.  0.
        4    1    3    3  502    0  0.11230854953E+03 -0.42917472738E+03 -0.88437622209E+03  0.98940743479E+03  0.12699999809E+01 0.  1.
       -4    1    3    3    0  502 -0.11230854953E+03  0.42917472738E+03  0.29172926141E+03  0.53095360605E+03  0.12699999809E+01 0. -1.
</event>
<event>
 5   0  0.2427569E-05  0.1400204E+04  0.7818609E-02  0.8953671E-01
       -1   -1    0    0    0  501  0.00000000000E+00  0.00000000000E+00  0.23538237475E+03  0.23538237481E+03  0.50400001928E-02 0. -1.
        1   -1    0    0  501    0  0.00000000000E+00  0.00000000000E+00 -0.20823253612E+04  0.20823253612E+04  0.50400001928E-02 0.  1.
    10030    2    1    2    0    0  0.00000000000E+00  0.00000000000E+00 -0.18469429864E+04  0.23177077360E+04  0.14002038260E+04 0.  0.
        1    1    3    3  502    0 -0.57610917497E+03 -0.25604168397E+03 -0.41954316698E+03  0.75728171403E+03  0.50400001928E-02 0. -1.
       -1    1    3    3    0  502  0.57610917497E+03  0.25604168397E+03 -0.14273998194E+04  0.15604260219E+04  0.50400001928E-02 0.  1.
</event>
<event>
 5   0  0.4243281E-05  0.1399645E+04  0.7818609E-02  0.8954075E-01
        2   -1    0    0  501    0  0.00000000000E+00  0.00000000000E+00  0.66147832559E+03  0.66147832560E+03  0.25500000920E-02 0.  1.
       -2   -1    0    0    0  501  0.00000000000E+00  0.00000000000E+00 -0.74038977365E+03  0.74038977366E+03  0.25500000920E-02 0. -1.
    10030    2    1    2    0    0  0.00000000000E+00  0.00000000000E+00 -0.78911448057E+02  0.14018680993E+04  0.13996453662E+04 0.  0.
        2    1    3    3  502    0 -0.30810334389E+03  0.59330002131E+03  0.16780090341E+03  0.68926753079E+03  0.25500000920E-02 0. -1.
       -2    1    3    3    0  502  0.30810334389E+03 -0.59330002131E+03 -0.24671235146E+03  0.71260056847E+03  0.25500000920E-02 0.  1.
</event>
<event>
 5   0  0.2467303E-05  0.1400495E+04  0.7818609E-02  0.8953460E-01
        1   -1    0    0  501    0  0.00000000000E+00  0.00000000000E+00  0.11719965732E+04  0.11719965732E+04  0.50400001928E-02 0.  1.
       -1   -1    0    0    0  501  0.00000000000E+00  0.00000000000E+00 -0.41838558874E+03  0.41838558877E+03  0.50400001928E-02 0. -1.
    10030    2    1    2    0    0  0.00000000000E+00  0.00000000000E+00  0.75361098447E+03  0.15903821620E+04  0.14004948787E+04 0.  0.
        3    1    3    3  502    0  0.86855300203E+02 -0.47146980083E+03 -0.20280941546E+03  0.52053749670E+03  0.10100000352E+00 0. -1.
       -3    1    3    3    0  502 -0.86855300203E+02  0.47146980083E+03  0.95642039993E+03  0.10698446653E+04  0.10100000352E+00 0.  1.
</event>
<event>
 5   0  0.4460282E-05  0.1400951E+04  0.7818609E-02  0.8953130E-01
        2   -1    0    0  501    0  0.00000000000E+00  0.00000000000E+00  0.11704470666E+04  0.11704470666E+04  0.25500000920E-02 0.  1.
       -2   -1    0    0    0  501  0.00000000000E+00  0.00000000000E+00 -0.41921251044E+03  0.41921251045E+03  0.25500000920E-02 0. -1.
    10030    2    1    2    0    0  0.00000000000E+00  0.00000000000E+00  0.75123455612E+03  0.15896595770E+04  0.14009511813E+04 0.  0.
        1    1    3    3  502    0 -0.32734072541E+02  0.40804973678E+03 -0.26935767689E+03  0.49003026980E+03  0.50400001928E-02 0. -1.
       -1    1    3    3    0  502  0.32734072541E+02 -0.40804973678E+03  0.10205922330E+04  0.10996293072E+04  0.50400001928E-02 0.  1.
</event>
<event>
 5   0  0.1661000E-05  0.1400156E+04  0.7818609E-02  0.8953705E-01
       -4   -1    0    0    0  501  0.00000000000E+00  0.00000000000E+00  0.74534680007E+03  0.74534788205E+03  0.12699999809E+01 0.  1.
        4   -1    0    0  501    0  0.00000000000E+00  0.00000000000E+00 -0.65755666435E+03  0.65755789078E+03  0.12699999809E+01 0. -1.
    10030    2    1    2    0    0  0.00000000000E+00  0.00000000000E+00  0.87790135721E+02  0.14029057728E+04  0.14001562411E+04 0.  0.
        4    1    3    3  502    0 -0.10910591111E+03 -0.12589060941E+03  0.72519741124E+03  0.74408698654E+03  0.12699999809E+01 0.  1.
       -4    1    3    3    0  502  0.10910591111E+03  0.12589060941E+03 -0.63740727552E+03  0.65881878628E+03  0.12699999809E+01 0. -1.
</event>
<event>
 5   0  0.2427569E-05  0.1399634E+04  0.7818609E-02  0.8954084E-01
        1   -1    0    0  501    0  0.00000000000E+00  0.00000000000E+00  0.11140098604E+04  0.11140098604E+04  0.50400001928E-02 0. -1.
       -1   -1    0    0    0  501  0.00000000000E+00  0.00000000000E+00 -0.43962236813E+03  0.43962236816E+03  0.50400001928E-02 0.  1.
    10030    2    1    2    0    0  0.00000000000E+00  0.00000000000E+00  0.67438749226E+03  0.15536322286E+04  0.13996337421E+04 0.  0.
        1    1    3    3  502    0 -0.47411457716E+03  0.47563600621E+03  0.11874263406E+03  0.68199270952E+03  0.50400001928E-02 0. -1.
       -1    1    3    3    0  502  0.47411457716E+03 -0.47563600621E+03  0.55564485820E+03  0.87163951904E+03  0.50400001928E-02 0.  1.
</event>
<event>
 5   0  0.2428507E-05  0.1399760E+04  0.7818609E-02  0.8953993E-01
        1   -1    0    0  501    0  0.00000000000E+00  0.00000000000E+00  0.48111653063E+03  0.48111653066E+03  0.50400001928E-02 0.  1.
       -1   -1    0    0    0  501  0.00000000000E+00  0.00000000000E+00 -0.10181145958E+04  0.10181145958E+04  0.50400001928E-02 0. -1.
    10030    2    1    2    0    0  0.00000000000E+00  0.00000000000E+00 -0.53699806517E+03  0.14992311265E+04  0.13997596396E+04 0.  0.
        4    1    3    3  502    0  0.21413550248E+03 -0.52035324167E+03  0.17725973990E+03  0.58995265728E+03  0.12699999809E+01 0.  1.
       -4    1    3    3    0  502 -0.21413550248E+03  0.52035324167E+03 -0.71425780507E+03  0.90927846920E+03  0.12699999809E+01 0. -1.
</event>
<event>
 5   0  0.2428507E-05  0.1400203E+04  0.7818609E-02  0.8953672E-01
        1   -1    0    0  501    0  0.00000000000E+00  0.00000000000E+00  0.97135646787E+03  0.97135646788E+03  0.50400001928E-02 0.  1.
       -1   -1    0    0    0  501  0.00000000000E+00  0.00000000000E+00 -0.50459555825E+03  0.50459555827E+03  0.50400001928E-02 0. -1.
    10030    2    1    2    0    0  0.00000000000E+00  0.00000000000E+00  0.46676090962E+03  0.14759520262E+04  0.14002030698E+04 0.  0.
        4    1    3    3  502    0  0.54903370584E+03 -0.92208688235E+02 -0.21408418609E+03  0.59646802426E+03  0.12699999809E+01 0. -1.
       -4    1    3    3    0  502 -0.54903370584E+03  0.92208688235E+02  0.68084509572E+03  0.87948400190E+03  0.12699999809E+01 0.  1.
</event>
<event>
 5   0  0.4243281E-05  0.1399481E+04  0.7818609E-02  0.8954195E-01
        2   -1    0    0  501    0  0.00000000000E+00  0.00000000000E+00  0.14853641860E+04  0.14853641860E+04  0.25500000920E-02 0. -1.
       -2   -1    0    0    0  501  0.00000000000E+00  0.00000000000E+00 -0.32964069477E+03  0.32964069478E+03  0.25500000920E-02 0.  1.
    10030    2    1    2    0    0  0.00000000000E+00  0.00000000000E+00  0.11557234912E+04  0.18150048807E+04  0.13994805926E+04 0.  0.
        2    1    3    3  502    0  0.30305948107E+03 -0.34044963020E+03 -0.11070694579E+03  0.46904906739E+03  0.25500000920E-02 0.  1.
       -2    1    3    3    0  502 -0.30305948107E+03  0.34044963020E+03  0.12664304370E+04  0.13459558134E+04  0.25500000920E-02 0. -1.
</event>
<event>
 5   0  0.4243281E-05  0.1402436E+04  0.7818609E-02  0.8952057E-01
       -2   -1    0    0    0  501  0.00000000000E+00  0.00000000000E+00  0.60244935939E+03  0.60244935940E+03  0.25500000920E-02 0.  1.
        2   -1    0    0  501    0  0.00000000000E+00  0.00000000000E+00 -0.81617949968E+03  0.81617949968E+03  0.25500000920E-02 0. -1.
    10030    2    1    2    0    0  0.00000000000E+00  0.00000000000E+00 -0.21373014029E+03  0.14186288591E+04  0.14024361900E+04 0.  0.
        2    1    3    3  502    0  0.13496335725E+03 -0.68597792698E+03 -0.52148068174E+02  0.70107078468E+03  0.25500000920E-02 0. -1.
       -2    1    3    3    0  502 -0.13496335725E+03  0.68597792698E+03 -0.16158207211E+03  0.71755807440E+03  0.25500000920E-02 0.  1.
</event>
<event>
 5   0  0.4527503E-05  0.1399613E+04  0.7818609E-02  0.8954099E-01
        2   -1    0    0  501    0  0.00000000000E+00  0.00000000000E+00  0.98176033070E+03  0.98176033070E+03  0.25500000920E-02 0. -1.
       -2   -1    0    0    0  501  0.00000000000E+00  0.00000000000E+00 -0.49882764148E+03  0.49882764149E+03  0.25500000920E-02 0.  1.
    10030    2    1    2    0    0  0.00000000000E+00  0.00000000000E+00  0.48293268921E+03  0.14805879722E+04  0.13996130755E+04 0.  0.
        4    1    3    3  502    0  0.69676564790E+03  0.64547012252E+02  0.23207032178E+03  0.73722922624E+03  0.12699999809E+01 0. -1.
       -4    1    3    3    0  502 -0.69676564790E+03 -0.64547012252E+02  0.25086236743E+03  0.74335874594E+03  0.12699999809E+01 0.  1.
</event>
<event>
 5   0  0.4621450E-05  0.1399677E+04  0.7818609E-02  0.8954053E-01
        2   -1    0    0  501    0  0.00000000000E+00  0.00000000000E+00  0.81281546431E+03  0.81281546431E+03  0.25500000920E-02 0.  1.
       -2   -1    0    0    0  501  0.00000000000E+00  0.00000000000E+00 -0.60256442280E+03  0.60256442280E+03  0.25500000920E-02 0. -1.
    10030    2    1    2    0    0  0.00000000000E+00  0.00000000000E+00  0.21025104151E+03  0.14153798871E+04  0.13996766499E+04 0.  0.
        5    1    3    3  502    0  0.78582952696E+02  0.14692970414E+03  0.79244814090E+03  0.80978995081E+03  0.46999998093E+01 0.  1.
       -5    1    3    3    0  502 -0.78582952696E+02 -0.14692970414E+03 -0.58219709940E+03  0.60558993631E+03  0.46999998093E+01 0. -1.
</event>
<event>
 5   0  0.4243281E-05  0.1403102E+04  0.7818609E-02  0.8951576E-01
       -2   -1    0    0    0  501  0.00000000000E+00  0.00000000000E+00  0.26604139907E+03  0.26604139908E+03  0.25500000920E-02 0. -1.
        2   -1    0    0  501    0  0.00000000000E+00  0.00000000000E+00 -0.18499904205E+04  0.18499904205E+04  0.25500000920E-02 0.  1.
    10030    2    1    2    0    0  0.00000000000E+00  0.00000000000E+00 -0.15839490215E+04  0.21160318196E+04  0.14031023338E+04 0.  0.
        2    1    3    3  502    0 -0.36045169629E+03 -0.49570633749E+03 -0.27717248907E+03  0.67266246148E+03  0.25500000920E-02 0. -1.
       -2    1    3    3    0  502  0.36045169629E+03  0.49570633749E+03 -0.13067765324E+04  0.14433693581E+04  0.25500000920E-02 0.  1.
</event>
<event>
 5   0  0.4460282E-05  0.1400689E+04  0.7818609E-02  0.8953320E-01
        2   -1    0    0  501    0  0.00000000000E+00  0.00000000000E+00  0.87509751260E+03  0.87509751261E+03  0.25500000920E-02 0. -1.
       -2   -1    0    0    0  501  0.00000000000E+00  0.00000000000E+00 -0.56048919434E+03  0.56048919435E+03  0.25500000920E-02 0.  1.
    10030    2    1    2    0    0  0.00000000000E+00  0.00000000000E+00  0.31460831827E+03  0.14355867070E+04  0.14006894014E+04 0.  0.
        1    1    3    3  502    0  0.28453310234E+03  0.35039792303E+03 -0.39152280935E+03  0.59751811776E+03  0.50400001928E-02 0.  1.
       -1    1    3    3    0  502 -0.28453310234E+03 -0.35039792303E+03  0.70613112761E+03  0.83806858919E+03  0.50400001928E-02 0. -1.
</event>
<event>
 5   0  0.4527503E-05  0.1399841E+04  0.7818609E-02  0.8953934E-01
        2   -1    0    0  501    0  0.00000000000E+00  0.00000000000E+00  0.83978674962E+03  0.83978674963E+03  0.25500000920E-02 0. -1.
       -2   -1    0    0    0  501  0.00000000000E+00  0.00000000000E+00 -0.58334897104E+03  0.58334897104E+03  0.25500000920E-02 0.  1.
    10030    2    1    2    0    0  0.00000000000E+00  0.00000000000E+00  0.25643777859E+03  0.14231357207E+04  0.13998410428E+04 0.  0.
        4    1    3    3  502    0  0.65885932386E+03  0.87096460782E+02 -0.94992776988E+02  0.67134688701E+03  0.12699999809E+01 0.  1.
       -4    1    3    3    0  502 -0.65885932386E+03 -0.87096460782E+02  0.35143055558E+03  0.75178883366E+03  0.12699999809E+01 0. -1.
</event>
<event>
 5   0  0.4527503E-05  0.1399937E+04  0.7818609E-02  0.8953864E-01
        2   -1    0    0  501    0  0.00000000000E+00  0.00000000000E+00  0.74638328685E+03  0.74638328685E+03  0.25500000920E-02 0.  1.
       -2   -1    0    0    0  501  0.00000000000E+00  0.00000000000E+00 -0.65644051414E+03  0.65644051414E+03  0.25500000920E-02 0. -1.
    10030    2    1    2    0    0  0.00000000000E+00  0.00000000000E+00  0.89942772709E+02  0.14028238010E+04  0.13999374680E+04 0.  0.
        4    1    3    3  502    0 -0.15021115553E+03  0.47090135695E+02  0.72841404875E+03  0.74523117987E+03  0.12699999809E+01 0.  1.
       -4    1    3    3    0  502  0.15021115553E+03 -0.47090135695E+02 -0.63847127604E+03  0.65759262112E+03  0.12699999809E+01 0. -1.
</event>
<event>
 5   0  0.4621450E-05  0.1400255E+04  0.7818609E-02  0.8953634E-01
       -2   -1    0    0    0  501  0.00000000000E+00  0.00000000000E+00  0.25903038010E+03  0.25903038011E+03  0.25500000920E-02 0.  1.
        2   -1    0    0  501    0  0.00000000000E+00  0.00000000000E+00 -0.18923599342E+04  0.18923599342E+04  0.25500000920E-02 0. -1.
    10030    2    1    2    0    0  0.00000000000E+00  0.00000000000E+00 -0.16333295541E+04  0.21513903143E+04  0.14002552811E+04 0.  0.
        5    1    3    3  502    0 -0.33238125675E+03  0.52923462042E+03 -0.33180077406E+03  0.70758775212E+03  0.46999998093E+01 0. -1.
       -5    1    3    3    0  502  0.33238125675E+03 -0.52923462042E+03 -0.13015287800E+04  0.14438025622E+04  0.46999998093E+01 0.  1.
</event>
<event>
 5   0  0.2428507E-05  0.1400469E+04  0.7818609E-02  0.8953479E-01
       -1   -1    0    0    0  501  0.00000000000E+00  0.00000000000E+00  0.64816868737E+03  0.64816868739E+03  0.50400001928E-02 0.  1.
        1   -1    0    0  501    0  0.00000000000E+00  0.00000000000E+00 -0.75648294247E+03  0.75648294249E+03  0.50400001928E-02 0. -1.
    10030    2    1    2    0    0  0.00000000000E+00  0.00000000000E+00 -0.10831425510E+03  0.14046516299E+04  0.14004692869E+04 0.  0.
        4    1    3    3  502    0 -0.50878408006E+03  0.11952089318E+03  0.41326084983E+03  0.66628269295E+03  0.12699999809E+01 0.  1.
       -4    1    3    3    0  502  0.50878408006E+03 -0.11952089318E+03 -0.52157510494E+03  0.73836893692E+03  0.12699999809E+01 0. -1.
</event>
<event>
 5   0  0.4621450E-05  0.1402731E+04  0.7818609E-02  0.8951844E-01
        2   -1    0    0  501    0  0.00000000000E+00  0.00000000000E+00  0.16924058243E+04  0.16924058243E+04  0.25500000920E-02 0.  1.
       -2   -1    0    0    0  501  0.00000000000E+00  0.00000000000E+00 -0.29065937603E+03  0.29065937604E+03  0.25500000920E-02 0. -1.
    10030    2    1    2    0    0  0.00000000000E+00  0.00000000000E+00  0.14017464482E+04  0.19830652003E+04  0.14027310803E+04 0.  0.
        5    1    3    3  502    0  0.57564886690E+03 -0.10459368916E+03  0.15410981306E+03  0.60504824787E+03  0.46999998093E+01 0. -1.
       -5    1    3    3    0  502 -0.57564886690E+03  0.10459368916E+03  0.12476366352E+04  0.13780169525E+04  0.46999998093E+01 0.  1.
</event>
<event>
 5   0  0.4441253E-05  0.1400081E+04  0.7818609E-02  0.8953760E-01
       -2   -1    0    0    0  501  0.00000000000E+00  0.00000000000E+00  0.77898735575E+03  0.77898735575E+03  0.25500000920E-02 0.  1.
        2   -1    0    0  501    0  0.00000000000E+00  0.00000000000E+00 -0.62909452797E+03  0.62909452798E+03  0.25500000920E-02 0. -1.
    10030    2    1    2    0    0  0.00000000000E+00  0.00000000000E+00  0.14989282777E+03  0.14080818837E+04  0.14000809732E+04 0.  0.
        3    1    3    3  502    0  0.51238035715E+03  0.87826026179E+02 -0.39657141224E+03  0.65384702834E+03  0.10100000352E+00 0. -1.
       -3    1    3    3    0  502 -0.51238035715E+03 -0.87826026179E+02  0.54646424001E+03  0.75423485539E+03  0.10100000352E+00 0.  1.
</event>
<event>
 5   0  0.1661000E-05  0.1399910E+04  0.7818609E-02  0.8953884E-01
       -4   -1    0    0    0  501  0.00000000000E+00  0.00000000000E+00  0.65518135907E+03  0.65518258995E+03  0.12699999809E+01 0.  1.
        4   -1    0    0  501    0  0.00000000000E+00  0.00000000000E+00 -0.74778569050E+03  0.74778676895E+03  0.12699999809E+01 0. -1.
    10030    2    1    2    0    0  0.00000000000E+00  0.00000000000E+00 -0.92604331433E+02  0.14029693589E+04  0.13999098042E+04 0.  0.
        1    1    3    3  502    0 -0.69421490331E+03  0.36477331163E+02 -0.12816261196E+03  0.70688795633E+03  0.50400001928E-02 0. -1.
       -1    1    3    3    0  502  0.69421490331E+03 -0.36477331163E+02  0.35558280524E+02  0.69608140257E+03  0.50400001928E-02 0.  1.
</event>
<event>
 5   0  0.2427569E-05  0.1399804E+04  0.7818609E-02  0.8953961E-01
        1   -1    0    0  501    0  0.00000000000E+00  0.00000000000E+00  0.99869265759E+03  0.99869265761E+03  0.50400001928E-02 0.  1.
       -1   -1    0    0    0  501  0.00000000000E+00  0.00000000000E+00 -0.49050391964E+03  0.49050391967E+03  0.50400001928E-02 0. -1.
    10030    2    1    2    0    0  0.00000000000E+00  0.00000000000E+00  0.50818873795E+03  0.14891965773E+04  0.13998037907E+04 0.  0.
        1    1    3    3  502    0 -0.31356939667E+03 -0.14706487732E+03 -0.39294723551E+03  0.52379516472E+03  0.50400001928E-02 0. -1.
       -1    1    3    3    0  502  0.31356939667E+03  0.14706487732E+03  0.90113597346E+03  0.96540141255E+03  0.50400001928E-02 0.  1.
</event>
<event>
 5   0  0.2316714E-05  0.1400065E+04  0.7818609E-02  0.8953771E-01
       -1   -1    0    0    0  501  0.00000000000E+00  0.00000000000E+00  0.37311276602E+03  0.37311276605E+03  0.50400001928E-02 0.  1.
        1   -1    0    0  501    0  0.00000000000E+00  0.00000000000E+00 -0.13133981226E+04  0.13133981226E+04  0.50400001928E-02 0. -1.
    10030    2    1    2    0    0  0.00000000000E+00  0.00000000000E+00 -0.94028535662E+03  0.16865108887E+04  0.14000651506E+04 0.  0.
        5    1    3    3  502    0 -0.58241684651E+03 -0.27366251083E+03 -0.80205813696E+03  0.10283092424E+04  0.46999998093E+01 0. -1.
       -5    1    3    3    0  502  0.58241684651E+03  0.27366251083E+03 -0.13822721965E+03  0.65820164629E+03  0.46999998093E+01 0.  1.
</event>
<event>
 5   0  0.2316714E-05  0.1400170E+04  0.7818609E-02  0.8953696E-01
       -1   -1    0    0    0  501  0.00000000000E+00  0.00000000000E+00  0.44789981589E+03  0.44789981592E+03  0.50400001928E-02 0.  1.
        1   -1    0    0  501    0  0.00000000000E+00  0.00000000000E+00 -0.10942602667E+04  0.10942602667E+04  0.50400001928E-02 0. -1.
    10030    2    1    2    0    0  0.00000000000E+00  0.00000000000E+00 -0.64636045081E+03  0.15421600826E+04  0.14001699497E+04 0.  0.
        5    1    3    3  502    0 -0.36204828982E+03 -0.57536769265E+03 -0.13897818261E+03  0.69387604884E+03  0.46999998093E+01 0. -1.
       -5    1    3    3    0  502  0.36204828982E+03  0.57536769265E+03 -0.50738226821E+03  0.84828403380E+03  0.46999998093E+01 0.  1.
</event>
<event>
 5   0  0.4460282E-05  0.1400677E+04  0.7818609E-02  0.8953328E-01
       -2   -1    0    0    0  501  0.00000000000E+00  0.00000000000E+00  0.74905686117E+03  0.74905686118E+03  0.25500000920E-02 0.  1.
        2   -1    0    0  501    0  0.00000000000E+00  0.00000000000E+00 -0.65478914300E+03  0.65478914300E+03  0.25500000920E-02 0. -1.
    10030    2    1    2    0    0  0.00000000000E+00  0.00000000000E+00  0.94267718173E+02  0.14038460042E+04  0.14006774078E+04 0.  0.
        1    1    3    3  502    0 -0.42537369060E+03  0.18652000960E+03  0.57247779505E+03  0.73719964494E+03  0.50400001928E-02 0.  1.
       -1    1    3    3    0  502  0.42537369060E+03 -0.18652000960E+03 -0.47821007688E+03  0.66664635924E+03  0.50400001928E-02 0. -1.
</event>
<event>
 5   0  0.4460282E-05  0.1400205E+04  0.7818609E-02  0.8953670E-01
        2   -1    0    0  501    0  0.00000000000E+00  0.00000000000E+00  0.41466533341E+03  0.41466533342E+03  0.25500000920E-02 0.  1.
       -2   -1    0    0    0  501  0.00000000000E+00  0.00000000000E+00 -0.11820214114E+04  0.11820214114E+04  0.25500000920E-02 0. -1.
    10030    2    1    2    0    0  0.00000000000E+00  0.00000000000E+00 -0.76735607798E+03  0.15966867448E+04  0.14002047031E+04 0.  0.
        1    1    3    3  502    0  0.61160407272E+03  0.10762228592E+03 -0.75230647687E+03  0.97550352811E+03  0.50400001928E-02 0. -1.
       -1    1    3    3    0  502 -0.61160407272E+03 -0.10762228592E+03 -0.15049601111E+02  0.62118321670E+03  0.50400001928E-02 0.  1.
</event>
<event>
 5   0  0.2428507E-05  0.1399955E+04  0.7818609E-02  0.8953851E-01
        1   -1    0    0  501    0  0.00000000000E+00  0.00000000000E+00  0.92466314121E+03  0.92466314122E+03  0.50400001928E-02 0. -1.
       -1   -1    0    0    0  501  0.00000000000E+00  0.00000000000E+00 -0.52988868582E+03  0.52988868584E+03  0.50400001928E-02 0.  1.
    10030    2    1    2    0    0  0.00000000000E+00  0.00000000000E+00  0.39477445539E+03  0.14545518271E+04  0.13999550518E+04 0.  0.
        4    1    3    3  502    0  0.38565490138E+03 -0.46469481767E+02  0.80240034640E+03  0.89148025469E+03  0.12699999809E+01 0. -1.
       -4    1    3    3    0  502 -0.38565490138E+03  0.46469481767E+02 -0.40762589101E+03  0.56307157237E+03  0.12699999809E+01 0.  1.
</event>
<event>
 5   0  0.4243281E-05  0.1400624E+04  0.7818609E-02  0.8953367E-01
        2   -1    0    0  501    0  0.00000000000E+00  0.00000000000E+00  0.13187248568E+04  0.13187248568E+04  0.25500000920E-02 0.  1.
       -2   -1    0    0    0  501  0.00000000000E+00  0.00000000000E+00 -0.37190262931E+03  0.37190262932E+03  0.25500000920E-02 0. -1.
    10030    2    1    2    0    0  0.00000000000E+00  0.00000000000E+00  0.94682222753E+03  0.16906274862E+04  0.14006244916E+04 0.  0.
        2    1    3    3  502    0 -0.40175877142E+03  0.43234518794E+03  0.92843116677E+03  0.11001440376E+04  0.25500000920E-02 0.  1.
       -2    1    3    3    0  502  0.40175877142E+03 -0.43234518794E+03  0.18391060759E+02  0.59048344860E+03  0.25500000920E-02 0. -1.
</event>
<event>
 5   0  0.1661000E-05  0.1399217E+04  0.7818609E-02  0.8954385E-01
       -3   -1    0    0    0  501  0.00000000000E+00  0.00000000000E+00  0.88872152503E+03  0.88872153077E+03  0.10100000352E+00 0.  1.
        3   -1    0    0  501    0  0.00000000000E+00  0.00000000000E+00 -0.55073728064E+03  0.55073728990E+03  0.10100000352E+00 0. -1.
    10030    2    1    2    0    0  0.00000000000E+00  0.00000000000E+00  0.33798424439E+03  0.14394588207E+04  0.13992170478E+04 0.  0.
        4    1    3    3  502    0  0.42780199684E+03  0.47878503103E+03  0.45483351041E+03  0.78684483193E+03  0.12699999809E+01 0.  1.
       -4    1    3    3    0  502 -0.42780199684E+03 -0.47878503103E+03 -0.11684926602E+03  0.65261398875E+03  0.12699999809E+01 0. -1.
</event>
<event>
 5   0  0.4621450E-05  0.1398986E+04  0.7818609E-02  0.8954553E-01
        2   -1    0    0  501    0  0.00000000000E+00  0.00000000000E+00  0.50149665888E+03  0.50149665889E+03  0.25500000920E-02 0.  1.
       -2   -1    0    0    0  501  0.00000000000E+00  0.00000000000E+00 -0.97566112081E+03  0.97566112081E+03  0.25500000920E-02 0. -1.
    10030    2    1    2    0    0  0.00000000000E+00  0.00000000000E+00 -0.47416446193E+03  0.14771577797E+04  0.13989864793E+04 0.  0.
        5    1    3    3  502    0  0.63597429176E+03  0.10111992886E+03 -0.52543560108E+03  0.83113969985E+03  0.46999998093E+01 0. -1.
       -5    1    3    3    0  502 -0.63597429176E+03 -0.10111992886E+03  0.51271139145E+02  0.64601807985E+03  0.46999998093E+01 0.  1.
</event>
<event>
 5   0  0.4621450E-05  0.1399590E+04  0.7818609E-02  0.8954115E-01
        2   -1    0    0  501    0  0.00000000000E+00  0.00000000000E+00  0.89071207583E+03  0.89071207584E+03  0.25500000920E-02 0. -1.
       -2   -1    0    0    0  501  0.00000000000E+00  0.00000000000E+00 -0.54979957546E+03  0.54979957547E+03  0.25500000920E-02 0.  1.
    10030    2    1    2    0    0  0.00000000000E+00  0.00000000000E+00  0.34091250037E+03  0.14405116513E+04  0.13995901131E+04 0.  0.
        5    1    3    3  502    0 -0.61714906771E+03  0.14758577632E+03  0.47410158545E+03  0.79211674422E+03  0.46999998093E+01 0. -1.
       -5    1    3    3    0  502  0.61714906771E+03 -0.14758577632E+03 -0.13318908508E+03  0.64839490708E+03  0.46999998093E+01 0.  1.
</event>
<event>
 5   0  0.2427569E-05  0.1399781E+04  0.7818609E-02  0.8953977E-01
        1   -1    0    0  501    0  0.00000000000E+00  0.00000000000E+00  0.11157652188E+04  0.11157652188E+04  0.50400001928E-02 0.  1.
       -1   -1    0    0    0  501  0.00000000000E+00  0.00000000000E+00 -0.43902329466E+03  0.43902329469E+03  0.50400001928E-02 0. -1.
    10030    2    1    2    0    0  0.00000000000E+00  0.00000000000E+00  0.67674192417E+03  0.15547885135E+04  0.13997813007E+04 0.  0.
        1    1    3    3  502    0 -0.58788460632E+03 -0.24368018940E+02 -0.82603846489E+02  0.59415949557E+03  0.50400001928E-02 0. -1.
       -1    1    3    3    0  502  0.58788460632E+03  0.24368018940E+02  0.75934577066E+03  0.96062901796E+03  0.50400001928E-02 0.  1.
</event>
<event>
 5   0  0.2428507E-05  0.1400292E+04  0.7818609E-02  0.8953608E-01
        1   -1    0    0  501    0  0.00000000000E+00  0.00000000000E+00  0.57000820561E+03  0.57000820564E+03  0.50400001928E-02 0. -1.
       -1   -1    0    0    0  501  0.00000000000E+00  0.00000000000E+00 -0.85999478430E+03  0.85999478431E+03  0.50400001928E-02 0.  1.
    10030    2    1    2    0    0  0.00000000000E+00  0.00000000000E+00 -0.28998657868E+03  0.14300029899E+04  0.14002915180E+04 0.  0.
        4    1    3    3  502    0 -0.17120188146E+03 -0.59357605324E+03 -0.48146853291E+03  0.78323443251E+03  0.12699999809E+01 0.  1.
       -4    1    3    3    0  502  0.17120188146E+03  0.59357605324E+03  0.19148195423E+03  0.64676855743E+03  0.12699999809E+01 0. -1.
</event>
<event>
 5   0  0.4441253E-05  0.1399950E+04  0.7818609E-02  0.8953855E-01
       -2   -1    0    0    0  501  0.00000000000E+00  0.00000000000E+00  0.34137981387E+03  0.34137981388E+03  0.25500000920E-02 0.  1.
        2   -1    0    0  501    0  0.00000000000E+00  0.00000000000E+00 -0.14352479552E+04  0.14352479552E+04  0.25500000920E-02 0. -1.
    10030    2    1    2    0    0  0.00000000000E+00  0.00000000000E+00 -0.10938681414E+04  0.17766277691E+04  0.13999495417E+04 0.  0.
        3    1    3    3  502    0  0.24941114739E+03  0.52710201058E+03 -0.55554535751E+02  0.58577194081E+03  0.10100000352E+00 0.  1.
       -3    1    3    3    0  502 -0.24941114739E+03 -0.52710201058E+03 -0.10383136056E+04  0.11908558283E+04  0.10100000352E+00 0. -1.
</event>
<event>
 5   0  0.4460282E-05  0.1399761E+04  0.7818609E-02  0.8953992E-01
        2   -1    0    0  501    0  0.00000000000E+00  0.00000000000E+00  0.54208298363E+03  0.54208298364E+03  0.25500000920E-02 0.  1.
       -2   -1    0    0    0  501  0.00000000000E+00  0.00000000000E+00 -0.90361206912E+03  0.90361206912E+03  0.25500000920E-02 0. -1.
    10030    2    1    2    0    0  0.00000000000E+00  0.00000000000E+00 -0.36152908548E+03  0.14456950528E+04  0.13997610174E+04 0.  0.
        1    1    3    3  502    0 -0.67666246390E+03 -0.17623388873E+03 -0.14974131818E+03  0.71508946012E+03  0.50400001928E-02 0.  1.
       -1    1    3    3    0  502  0.67666246390E+03  0.17623388873E+03 -0.21178776731E+03  0.73060559264E+03  0.50400001928E-02 0. -1.
</event>
<event>
 5   0  0.4621450E-05  0.1399954E+04  0.7818609E-02  0.8953852E-01
        2   -1    0    0  501    0  0.00000000000E+00  0.00000000000E+00  0.15531814818E+04  0.15531814818E+04  0.25500000920E-02 0.  1.
       -2   -1    0    0    0  501  0.00000000000E+00  0.00000000000E+00 -0.31546075189E+03  0.31546075190E+03  0.25500000920E-02 0. -1.
    10030    2    1    2    0    0  0.00000000000E+00  0.00000000000E+00  0.12377207299E+04  0.18686422337E+04  0.13999539965E+04 0.  0.
        5    1    3    3  502    0 -0.67744135126E+03 -0.16730843708E+02  0.38483804462E+03  0.77931323363E+03  0.46999998093E+01 0.  1.
       -5    1    3    3    0  502  0.67744135126E+03  0.16730843708E+02  0.85288268526E+03  0.10893290000E+04  0.46999998093E+01 0. -1.
</event>
<event>
 5   0  0.1661000E-05  0.1399255E+04  0.7818609E-02  0.8954358E-01
       -4   -1    0    0    0  501  0.00000000000E+00  0.00000000000E+00  0.35348971263E+03  0.35349199402E+03  0.12699999809E+01 0.  1.
        4   -1    0    0  501    0  0.00000000000E+00  0.00000000000E+00 -0.13846969989E+04  0.13846975813E+04  0.12699999809E+01 0. -1.
    10030    2    1    2    0    0  0.00000000000E+00  0.00000000000E+00 -0.10312072862E+04  0.17381895753E+04  0.13992549919E+04 0.  0.
        3    1    3    3  502    0 -0.50159711903E+03  0.48645170298E+03 -0.55941200394E+03  0.89508476108E+03  0.10100000352E+00 0. -1.
       -3    1    3    3    0  502  0.50159711903E+03 -0.48645170298E+03 -0.47179528230E+03  0.84310481422E+03  0.10100000352E+00 0.  1.
</event>
<event>
 5   0  0.4441253E-05  0.1400096E+04  0.7818609E-02  0.8953749E-01
        2   -1    0    0  501    0  0.00000000000E+00  0.00000000000E+00  0.46469416760E+03  0.46469416761E+03  0.25500000920E-02 0.  1.
       -2   -1    0    0    0  501  0.00000000000E+00  0.00000000000E+00 -0.10546020817E+04  0.10546020817E+04  0.25500000920E-02 0. -1.
    10030    2    1    2    0    0  0.00000000000E+00  0.00000000000E+00 -0.58990791405E+03  0.15192962493E+04  0.14000963345E+04 0.  0.
        3    1    3    3  502    0  0.11878401144E+03  0.40333722276E+02  0.45239819679E+03  0.46946841127E+03  0.10100000352E+00 0.  1.
       -3    1    3    3    0  502 -0.11878401144E+03 -0.40333722276E+02 -0.10423061108E+04  0.10498278380E+04  0.10100000352E+00 0. -1.
</event>
<event>
 5   0  0.4527503E-05  0.1399667E+04  0.7818609E-02  0.8954059E-01
       -2   -1    0    0    0  501  0.00000000000E+00  0.00000000000E+00  0.64556189230E+03  0.64556189231E+03  0.25500000920E-02 0. -1.
        2   -1    0    0  501    0  0.00000000000E+00  0.00000000000E+00 -0.75866819200E+03  0.75866819200E+03  0.25500000920E-02 0.  1.
    10030    2    1    2    0    0  0.00000000000E+00  0.00000000000E+00 -0.11310629969E+03  0.14042300843E+04  0.13996674943E+04 0.  0.
        4    1    3    3  502    0  0.10344032955E+03  0.13438022183E+03  0.62463564131E+03  0.64724743576E+03  0.12699999809E+01 0. -1.
       -4    1    3    3    0  502 -0.10344032955E+03 -0.13438022183E+03 -0.73774194100E+03  0.75698264855E+03  0.12699999809E+01 0.  1.
</event>
<event>
 5   0  0.2316714E-05  0.1400036E+04  0.7818609E-02  0.8953792E-01
       -1   -1    0    0    0  501  0.00000000000E+00  0.00000000000E+00  0.11938942312E+04  0.11938942312E+04  0.50400001928E-02 0.  1.
        1   -1    0    0  501    0  0.00000000000E+00  0.00000000000E+00 -0.41044277678E+03  0.41044277681E+03  0.50400001928E-02 0. -1.
    10030    2    1    2    0    0  0.00000000000E+00  0.00000000000E+00  0.78345145437E+03  0.16043370080E+04  0.14000360902E+04 0.  0.
        5    1    3    3  502    0  0.33410812325E+03  0.56105380076E+03  0.10274893419E+03  0.66105146459E+03  0.46999998093E+01 0. -1.
       -5    1    3    3    0  502 -0.33410812325E+03 -0.56105380076E+03  0.68070252018E+03  0.94328554338E+03  0.46999998093E+01 0.  1.
</event>
<event>
 5   0  0.4441253E-05  0.1399804E+04  0.7818609E-02  0.8953960E-01
        2   -1    0    0  501    0  0.00000000000E+00  0.00000000000E+00  0.26655054501E+04  0.26655054501E+04  0.25500000920E-02 0. -1.
       -2   -1    0    0    0  501  0.00000000000E+00  0.00000000000E+00 -0.18377868215E+03  0.18377868217E+03  0.25500000920E-02 0.  1.
    10030    2    1    2    0    0  0.00000000000E+00  0.00000000000E+00  0.24817267679E+04  0.28492841322E+04  0.13998043848E+04 0.  0.
        3    1    3    3  502    0  0.27813371402E+03  0.77638052262E+02 -0.56872814710E+02  0.29431370557E+03  0.10100000352E+00 0.  1.
       -3    1    3    3    0  502 -0.27813371402E+03 -0.77638052262E+02  0.25385995826E+04  0.25549704267E+04  0.10100000352E+00 0. -1.
</event>
<event>
 5   0  0.4527503E-05  0.1399326E+04  0.7818609E-02  0.8954307E-01
       -2   -1    0    0    0  501  0.00000000000E+00  0.00000000000E+00  0.19772930309E+03  0.19772930310E+03  0.25500000920E-02 0.  1.
        2   -1    0    0  501    0  0.00000000000E+00  0.00000000000E+00 -0.24757501290E+04  0.24757501290E+04  0.25500000920E-02 0. -1.
    10030    2    1    2    0    0  0.00000000000E+00  0.00000000000E+00 -0.22780208259E+04  0.26734794321E+04  0.13993260487E+04 0.  0.
        4    1    3    3  502    0 -0.53845314350E+03  0.43447271884E+03 -0.13378212920E+04  0.15061426737E+04  0.12699999809E+01 0.  1.
       -4    1    3    3    0  502  0.53845314350E+03 -0.43447271884E+03 -0.94019953388E+03  0.11673367584E+04  0.12699999809E+01 0. -1.
</event>
<event>
 5   0  0.4460282E-05  0.1398787E+04  0.7818609E-02  0.8954697E-01
        2   -1    0    0  501    0  0.00000000000E+00  0.00000000000E+00  0.82577742934E+03  0.82577742934E+03  0.25500000920E-02 0. -1.
       -2   -1    0    0    0  501  0.00000000000E+00  0.00000000000E+00 -0.59235209170E+03  0.59235209171E+03  0.25500000920E-02 0.  1.
    10030    2    1    2    0    0  0.00000000000E+00  0.00000000000E+00  0.23342533763E+03  0.14181295210E+04  0.13987865992E+04 0.  0.
        1    1    3    3  502    0 -0.65492040723E+03  0.22983786623E+03  0.20395377995E+03  0.72342472238E+03  0.50400001928E-02 0. -1.
       -1    1    3    3    0  502  0.65492040723E+03 -0.22983786623E+03  0.29471557685E+02  0.69470479867E+03  0.50400001928E-02 0.  1.
</event>
<event>
 5   0  0.2428507E-05  0.1398381E+04  0.7818609E-02  0.8954991E-01
       -1   -1    0    0    0  501  0.00000000000E+00  0.00000000000E+00  0.82043205128E+03  0.82043205130E+03  0.50400001928E-02 0. -1.
        1   -1    0    0  501    0  0.00000000000E+00  0.00000000000E+00 -0.59586578511E+03  0.59586578513E+03  0.50400001928E-02 0.  1.
    10030    2    1    2    0    0  0.00000000000E+00  0.00000000000E+00  0.22456626617E+03  0.14162978364E+04  0.13983810473E+04 0.  0.
        4    1    3    3  502    0 -0.49846302851E+03  0.31976017261E+03 -0.26416964485E+03  0.64845907576E+03  0.12699999809E+01 0.  1.
       -4    1    3    3    0  502  0.49846302851E+03 -0.31976017261E+03  0.48873591102E+03  0.76783876067E+03  0.12699999809E+01 0. -1.
</event>
<event>
 5   0  0.4441253E-05  0.1399466E+04  0.7818609E-02  0.8954205E-01
       -2   -1    0    0    0  501  0.00000000000E+00  0.00000000000E+00  0.41767541493E+03  0.41767541494E+03  0.25500000920E-02 0. -1.
        2   -1    0    0  501    0  0.00000000000E+00  0.00000000000E+00 -0.11722648624E+04  0.11722648624E+04  0.25500000920E-02 0.  1.
    10030    2    1    2    0    0  0.00000000000E+00  0.00000000000E+00 -0.75458944747E+03  0.15899402774E+04  0.13994659165E+04 0.  0.
        3    1    3    3  502    0  0.32260707180E+03  0.27063055137E+02  0.32747370395E+03  0.46048536210E+03  0.10100000352E+00 0. -1.
       -3    1    3    3    0  502 -0.32260707180E+03 -0.27063055137E+02 -0.10820631514E+04  0.11294549153E+04  0.10100000352E+00 0.  1.
</event>
<event>
 5   0  0.4621450E-05  0.1400933E+04  0.7818609E-02  0.8953144E-01
        2   -1    0    0  501    0  0.00000000000E+00  0.00000000000E+00  0.41403267360E+03  0.41403267360E+03  0.25500000920E-02 0.  1.
       -2   -1    0    0    0  501  0.00000000000E+00  0.00000000000E+00 -0.11850593176E+04  0.11850593176E+04  0.25500000920E-02 0. -1.
    10030    2    1    2    0    0  0.00000000000E+00  0.00000000000E+00 -0.77102664401E+03  0.15990919912E+04  0.14009329429E+04 0.  0.
        5    1    3    3  502    0  0.32990012694E+03  0.52773701423E+03 -0.18664786271E+02  0.62266436721E+03  0.46999998093E+01 0.  1.
       -5    1    3    3    0  502 -0.32990012694E+03 -0.52773701423E+03 -0.75236185774E+03  0.97642762400E+03  0.46999998093E+01 0. -1.
</event>
<event>
 5   0  0.2467303E-05  0.1400065E+04  0.7818609E-02  0.8953771E-01
       -1   -1    0    0    0  501  0.00000000000E+00  0.00000000000E+00  0.10597122655E+04  0.10597122655E+04  0.50400001928E-02 0.  1.
        1   -1    0    0  501    0  0.00000000000E+00  0.00000000000E+00 -0.46243274058E+03  0.46243274060E+03  0.50400001928E-02 0. -1.
    10030    2    1    2    0    0  0.00000000000E+00  0.00000000000E+00  0.59727952495E+03  0.15221450061E+04  0.14000652088E+04 0.  0.
        3    1    3    3  502    0 -0.34927732140E+03  0.35954375362E+03 -0.23261897003E+03  0.55261012787E+03  0.10100000352E+00 0. -1.
       -3    1    3    3    0  502  0.34927732140E+03 -0.35954375362E+03  0.82989849498E+03  0.96953487827E+03  0.10100000352E+00 0.  1.
</event>
<event>
 5   0  0.1661000E-05  0.1399692E+04  0.7818609E-02  0.8954041E-01
       -3   -1    0    0    0  501  0.00000000000E+00  0.00000000000E+00  0.10024895892E+04  0.10024895943E+04  0.10100000352E+00 0. -1.
        3   -1    0    0  501    0  0.00000000000E+00  0.00000000000E+00 -0.48856836792E+03  0.48856837836E+03  0.10100000352E+00 0.  1.
    10030    2    1    2    0    0  0.00000000000E+00  0.00000000000E+00  0.51392122129E+03  0.14910579726E+04  0.13996924148E+04 0.  0.
        5    1    3    3  502    0 -0.23373402562E+03  0.57998781165E+03 -0.77788819112E+02  0.63015128880E+03  0.46999998093E+01 0.  1.
       -5    1    3    3    0  502  0.23373402562E+03 -0.57998781165E+03  0.59171004040E+03  0.86090668385E+03  0.46999998093E+01 0. -1.
</event>
<event>
 5   0  0.2428507E-05  0.1400323E+04  0.7818609E-02  0.8953585E-01
       -1   -1    0    0    0  501  0.00000000000E+00  0.00000000000E+00  0.12339836271E+04  0.12339836271E+04  0.50400001928E-02 0. -1.
        1   -1    0    0  501    0  0.00000000000E+00  0.00000000000E+00 -0.39727111120E+03  0.39727111123E+03  0.50400001928E-02 0.  1.
    10030    2    1    2    0    0  0.00000000000E+00  0.00000000000E+00  0.83671251594E+03  0.16312547384E+04  0.14003228868E+04 0.  0.
        4    1    3    3  502    0  0.23605121622E+03 -0.47983062259E+03  0.94484916504E+03  0.10856791242E+04  0.12699999809E+01 0. -1.
       -4    1    3    3    0  502 -0.23605121622E+03  0.47983062259E+03 -0.10813664910E+03  0.54557561422E+03  0.12699999809E+01 0.  1.
</event>
<event>
 5   0  0.4527503E-05  0.1395363E+04  0.7818609E-02  0.8957182E-01
        2   -1    0    0  501    0  0.00000000000E+00  0.00000000000E+00  0.95385857933E+03  0.95385857933E+03  0.25500000920E-02 0. -1.
       -2   -1    0    0    0  501  0.00000000000E+00  0.00000000000E+00 -0.51030545871E+03  0.51030545872E+03  0.25500000920E-02 0.  1.
    10030    2    1    2    0    0  0.00000000000E+00  0.00000000000E+00  0.44355312062E+03  0.14641640381E+04  0.13953626624E+04 0.  0.
        4    1    3    3  502    0 -0.19837800547E+03 -0.15606445422E+03 -0.46071501823E+03  0.52532836193E+03  0.12699999809E+01 0.  1.
       -4    1    3    3    0  502  0.19837800547E+03  0.15606445422E+03  0.90426813884E+03  0.93883567612E+03  0.12699999809E+01 0. -1.
</event>
<event>
 5   0  0.2467303E-05  0.1399861E+04  0.7818609E-02  0.8953919E-01
        1   -1    0    0  501    0  0.00000000000E+00  0.00000000000E+00  0.16771456626E+04  0.16771456627E+04  0.50400001928E-02 0.  1.
       -1   -1    0    0    0  501  0.00000000000E+00  0.00000000000E+00 -0.29210505279E+03  0.29210505284E+03  0.50400001928E-02 0. -1.
    10030    2    1    2    0    0  0.00000000000E+00  0.00000000000E+00  0.13850406099E+04  0.19692507155E+04  0.13998610251E+04 0.  0.
        3    1    3    3  502    0  0.26414467168E+03  0.15626003582E+03 -0.19240437392E+03  0.36222791123E+03  0.10100000352E+00 0. -1.
       -3    1    3    3    0  502 -0.26414467168E+03 -0.15626003582E+03  0.15774449838E+04  0.16070228043E+04  0.10100000352E+00 0.  1.
</event>
<event>
 5   0  0.4621450E-05  0.1399881E+04  0.7818609E-02  0.8953905E-01
       -2   -1    0    0    0  501  0.00000000000E+00  0.00000000000E+00  0.51437318505E+03  0.51437318505E+03  0.25500000920E-02 0.  1.
        2   -1    0    0  501    0  0.00000000000E+00  0.00000000000E+00 -0.95245354520E+03  0.95245354520E+03  0.25500000920E-02 0. -1.
    10030    2    1    2    0    0  0.00000000000E+00  0.00000000000E+00 -0.43808036015E+03  0.14668267303E+04  0.13998808002E+04 0.  0.
        5    1    3    3  502    0 -0.68640063933E+03 -0.94001804487E+02 -0.32336194022E+03  0.76456995187E+03  0.46999998093E+01 0.  1.
       -5    1    3    3    0  502  0.68640063933E+03  0.94001804487E+02 -0.11471841993E+03  0.70225677839E+03  0.46999998093E+01 0. -1.
</event>
<event>
 5   0  0.4243281E-05  0.1399984E+04  0.7818609E-02  0.8953830E-01
        2   -1    0    0  501    0  0.00000000000E+00  0.00000000000E+00  0.74304502567E+03  0.74304502568E+03  0.25500000920E-02 0.  1.
       -2   -1    0    0    0  501  0.00000000000E+00  0.00000000000E+00 -0.65943325004E+03  0.65943325004E+03  0.25500000920E-02 0. -1.
    10030    2    1    2    0    0  0.00000000000E+00  0.00000000000E+00  0.83611775636E+02  0.14024782757E+04  0.13999837088E+04 0.  0.
        2    1    3    3  502    0 -0.41765128668E+03  0.34096917889E+03  0.48902717943E+03  0.72790120239E+03  0.25500000920E-02 0.  1.
       -2    1    3    3    0  502  0.41765128668E+03 -0.34096917889E+03 -0.40541540379E+03  0.67457707333E+03  0.25500000920E-02 0. -1.
</event>
<event>
 5   0  0.4621450E-05  0.1405831E+04  0.7818609E-02  0.8949608E-01
       -2   -1    0    0    0  501  0.00000000000E+00  0.00000000000E+00  0.39629262663E+03  0.39629262664E+03  0.25500000920E-02 0.  1.
        2   -1    0    0  501    0  0.00000000000E+00  0.00000000000E+00 -0.12467815742E+04  0.12467815742E+04  0.25500000920E-02 0. -1.
    10030    2    1    2    0    0  0.00000000000E+00  0.00000000000E+00 -0.85048894762E+03  0.16430742009E+04  0.14058312059E+04 0.  0.
        5    1    3    3  502    0  0.13949534529E+03 -0.14365914587E+03 -0.12127220965E+04  0.12291516892E+04  0.46999998093E+01 0. -1.
       -5    1    3    3    0  502 -0.13949534529E+03  0.14365914587E+03  0.36223314891E+03  0.41392251173E+03  0.46999998093E+01 0.  1.
</event>
<event>
 5   0  0.2316714E-05  0.1399670E+04  0.7818609E-02  0.8954058E-01
       -1   -1    0    0    0  501  0.00000000000E+00  0.00000000000E+00  0.80876894229E+03  0.80876894231E+03  0.50400001928E-02 0. -1.
        1   -1    0    0  501    0  0.00000000000E+00  0.00000000000E+00 -0.60557312023E+03  0.60557312025E+03  0.50400001928E-02 0.  1.
    10030    2    1    2    0    0  0.00000000000E+00  0.00000000000E+00  0.20319582206E+03  0.14143420626E+04  0.13996695781E+04 0.  0.
        5    1    3    3  502    0 -0.55078925974E+03  0.28917161907E+03 -0.22232071930E+03  0.66063426050E+03  0.46999998093E+01 0.  1.
       -5    1    3    3    0  502  0.55078925974E+03 -0.28917161907E+03  0.42551654137E+03  0.75370780206E+03  0.46999998093E+01 0. -1.
</event>
<event>
 5   0  0.2428507E-05  0.1399423E+04  0.7818609E-02  0.8954236E-01
       -1   -1    0    0    0  501  0.00000000000E+00  0.00000000000E+00  0.35716294796E+03  0.35716294799E+03  0.50400001928E-02 0. -1.
        1   -1    0    0  501    0  0.00000000000E+00  0.00000000000E+00 -0.13707930277E+04  0.13707930278E+04  0.50400001928E-02 0.  1.
    10030    2    1    2    0    0  0.00000000000E+00  0.00000000000E+00 -0.10136300798E+04  0.17279559757E+04  0.13994234225E+04 0.  0.
        4    1    3    3  502    0 -0.48164928745E+03 -0.47953728661E+03 -0.71214543989E+03  0.98442612003E+03  0.12699999809E+01 0.  1.
       -4    1    3    3    0  502  0.48164928745E+03  0.47953728661E+03 -0.30148463989E+03  0.74352985571E+03  0.12699999809E+01 0. -1.
</event>
<event>
 5   0  0.4441253E-05  0.1400218E+04  0.7818609E-02  0.8953661E-01
        2   -1    0    0  501    0  0.00000000000E+00  0.00000000000E+00  0.78582335587E+03  0.78582335588E+03  0.25500000920E-02 0.  1.
       -2   -1    0    0    0  501  0.00000000000E+00  0.00000000000E+00 -0.62374430999E+03  0.62374430999E+03  0.25500000920E-02 0. -1.
    10030    2    1    2    0    0  0.00000000000E+00  0.00000000000E+00  0.16207904589E+03  0.14095676659E+04  0.14002183357E+04 0.  0.
        3    1    3    3  502    0  0.49252844330E+03  0.17957853362E+03 -0.38608479267E+03  0.65107157405E+03  0.10100000352E+00 0. -1.
       -3    1    3    3    0  502 -0.49252844330E+03 -0.17957853362E+03  0.54816383856E+03  0.75849609182E+03  0.10100000352E+00 0.  1.
</event>
<event>
 5   0  0.2363419E-05  0.1400024E+04  0.7818609E-02  0.8953802E-01
       -1   -1    0    0    0  501  0.00000000000E+00  0.00000000000E+00  0.52128205255E+03  0.52128205257E+03  0.50400001928E-02 0.  1.
        1   -1    0    0  501    0  0.00000000000E+00  0.00000000000E+00 -0.94002176113E+03  0.94002176114E+03  0.50400001928E-02 0. -1.
    10030    2    1    2    0    0  0.00000000000E+00  0.00000000000E+00 -0.41873970858E+03  0.14613038137E+04  0.14000235328E+04 0.  0.
        2    1    3    3  502    0  0.31116766714E+03 -0.31348744581E+03 -0.77620258752E+03  0.89307902934E+03  0.25500000920E-02 0. -1.
       -2    1    3    3    0  502 -0.31116766714E+03  0.31348744581E+03  0.35746287894E+03  0.56822478438E+03  0.25500000920E-02 0.  1.
</event>
<event>
 5   0  0.4527503E-05  0.1399823E+04  0.7818609E-02  0.8953947E-01
        2   -1    0    0  501    0  0.00000000000E+00  0.00000000000E+00  0.93307771476E+03  0.93307771476E+03  0.25500000920E-02 0.  1.
       -2   -1    0    0    0  501  0.00000000000E+00  0.00000000000E+00 -0.52501101809E+03  0.52501101809E+03  0.25500000920E-02 0. -1.
    10030    2    1    2    0    0  0.00000000000E+00  0.00000000000E+00  0.40806669667E+03  0.14580887329E+04  0.13998229616E+04 0.  0.
        4    1    3    3  502    0 -0.24824081925E+03  0.10286599535E+03  0.87720721607E+03  0.91744156771E+03  0.12699999809E+01 0.  1.
       -4    1    3    3    0  502  0.24824081925E+03 -0.10286599535E+03 -0.46914051940E+03  0.54064716514E+03  0.12699999809E+01 0. -1.
</event>
<event>
 5   0  0.2428507E-05  0.1399592E+04  0.7818609E-02  0.8954114E-01
       -1   -1    0    0    0  501  0.00000000000E+00  0.00000000000E+00  0.55185182209E+03  0.55185182211E+03  0.50400001928E-02 0. -1.
        1   -1    0    0  501    0  0.00000000000E+00  0.00000000000E+00 -0.88740267489E+03  0.88740267491E+03  0.50400001928E-02 0.  1.
    10030    2    1    2    0    0  0.00000000000E+00  0.00000000000E+00 -0.33555085281E+03  0.14392544970E+04  0.13995924880E+04 0.  0.
        4    1    3    3  502    0 -0.23427818273E+01 -0.15133670621E+03  0.53481736140E+03  0.55582327248E+03  0.12699999809E+01 0. -1.
       -4    1    3    3    0  502  0.23427818273E+01  0.15133670621E+03 -0.87036821421E+03  0.88343122454E+03  0.12699999809E+01 0.  1.
</event>
<event>
 5   0  0.2427569E-05  0.1396791E+04  0.7818609E-02  0.8956145E-01
       -1   -1    0    0    0  501  0.00000000000E+00  0.00000000000E+00  0.51163131086E+03  0.51163131088E+03  0.50400001928E-02 0.  1.
        1   -1    0    0  501    0  0.00000000000E+00  0.00000000000E+00 -0.95333562854E+03  0.95333562855E+03  0.50400001928E-02 0. -1.
    10030    2    1    2    0    0  0.00000000000E+00  0.00000000000E+00 -0.44170431768E+03  0.14649669394E+04  0.13967911187E+04 0.  0.
        1    1    3    3  502    0 -0.24152630400E+03  0.37859509990E+03 -0.78182977960E+03  0.90162465000E+03  0.50400001928E-02 0. -1.
       -1    1    3    3    0  502  0.24152630400E+03 -0.37859509990E+03  0.34012546192E+03  0.56334228943E+03  0.50400001928E-02 0.  1.
</event>
<event>
 5   0  0.2316714E-05  0.1398096E+04  0.7818609E-02  0.8955198E-01
        1   -1    0    0  501    0  0.00000000000E+00  0.00000000000E+00  0.11959942905E+04  0.11959942905E+04  0.50400001928E-02 0. -1.
       -1   -1    0    0    0  501  0.00000000000E+00  0.00000000000E+00 -0.40858724750E+03  0.40858724753E+03  0.50400001928E-02 0.  1.
    10030    2    1    2    0    0  0.00000000000E+00  0.00000000000E+00  0.78740704299E+03  0.16045815380E+04  0.13980958697E+04 0.  0.
        5    1    3    3  502    0 -0.22615407762E+03  0.24896706189E+03  0.10970006837E+04  0.11474157288E+04  0.46999998093E+01 0. -1.
       -5    1    3    3    0  502  0.22615407762E+03 -0.24896706189E+03 -0.30959364071E+03  0.45716580920E+03  0.46999998093E+01 0.  1.
</event>
<event>
 5   0  0.2467303E-05  0.1397794E+04  0.7818609E-02  0.8955417E-01
       -1   -1    0    0    0  501  0.00000000000E+00  0.00000000000E+00  0.42486290913E+03  0.42486290916E+03  0.50400001928E-02 0.  1.
        1   -1    0    0  501    0  0.00000000000E+00  0.00000000000E+00 -0.11496807568E+04  0.11496807568E+04  0.50400001928E-02 0. -1.
    10030    2    1    2    0    0  0.00000000000E+00  0.00000000000E+00 -0.72481784764E+03  0.15745436660E+04  0.13977935626E+04 0.  0.
        3    1    3    3  502    0  0.41860818304E+03 -0.49728658853E+02  0.26553072513E+03  0.49820911935E+03  0.10100000352E+00 0.  1.
       -3    1    3    3    0  502 -0.41860818304E+03  0.49728658853E+02 -0.99034857277E+03  0.10763345466E+04  0.10100000352E+00 0. -1.
</event>
<event>
 5   0  0.4243281E-05  0.1399919E+04  0.7818609E-02  0.8953877E-01
        2   -1    0    0  501    0  0.00000000000E+00  0.00000000000E+00  0.16143379539E+04  0.16143379539E+04  0.25500000920E-02 0.  1.
       -2   -1    0    0    0  501  0.00000000000E+00  0.00000000000E+00 -0.30349506841E+03  0.30349506843E+03  0.25500000920E-02 0. -1.
    10030    2    1    2    0    0  0.00000000000E+00  0.00000000000E+00  0.13108428855E+04  0.19178330224E+04  0.13999194374E+04 0.  0.
        2    1    3    3  502    0  0.66100466356E+03  0.55903024230E+02  0.96142053249E+03  0.11680675296E+04  0.25500000920E-02 0.  1.
       -2    1    3    3    0  502 -0.66100466356E+03 -0.55903024230E+02  0.34942235304E+03  0.74976549279E+03  0.25500000920E-02 0. -1.
</event>
<event>
 5   0  0.2428507E-05  0.1400339E+04  0.7818609E-02  0.8953573E-01
       -1   -1    0    0    0  501  0.00000000000E+00  0.00000000000E+00  0.78797679981E+03  0.78797679983E+03  0.50400001928E-02 0.  1.
        1   -1    0    0  501    0  0.00000000000E+00  0.00000000000E+00 -0.62214729852E+03  0.62214729854E+03  0.50400001928E-02 0. -1.
    10030    2    1    2    0    0  0.00000000000E+00  0.00000000000E+00  0.16582950130E+03  0.14101240984E+04  0.14003394407E+04 0.  0.
        4    1    3    3  502    0  0.41097816304E+03 -0.32985824508E+03 -0.38131243646E+03  0.65046929170E+03  0.12699999809E+01 0. -1.
       -4    1    3    3    0  502 -0.41097816304E+03  0.32985824508E+03  0.54714193776E+03  0.75965480667E+03  0.12699999809E+01 0.  1.
</event>
<event>
 5   0  0.4621450E-05  0.1400337E+04  0.7818609E-02  0.8953575E-01
        2   -1    0    0  501    0  0.00000000000E+00  0.00000000000E+00  0.64803467621E+03  0.64803467622E+03  0.25500000920E-02 0. -1.
       -2   -1    0    0    0  501  0.00000000000E+00  0.00000000000E+00 -0.75649639811E+03  0.75649639812E+03  0.25500000920E-02 0.  1.
    10030    2    1    2    0    0  0.00000000000E+00  0.00000000000E+00 -0.10846172190E+03  0.14045310743E+04  0.14003369572E+04 0.  0.
        5    1    3    3  502    0 -0.26917119764E+03 -0.12647242979E+03 -0.68997895572E+03  0.75135973972E+03  0.46999998093E+01 0.  1.
       -5    1    3    3    0  502  0.26917119764E+03  0.12647242979E+03  0.58151723382E+03  0.65317133462E+03  0.46999998093E+01 0. -1.
</event>
<event>
 5   0  0.1661000E-05  0.1400180E+04  0.7818609E-02  0.8953689E-01
        3   -1    0    0  501    0  0.00000000000E+00  0.00000000000E+00  0.57282143807E+03  0.57282144697E+03  0.10100000352E+00 0. -1.
       -3   -1    0    0    0  501  0.00000000000E+00  0.00000000000E+00 -0.85563435708E+03  0.85563436305E+03  0.10100000352E+00 0.  1.
    10030    2    1    2    0    0  0.00000000000E+00  0.00000000000E+00 -0.28281291902E+03  0.14284558100E+04  0.14001795792E+04 0.  0.
        5    1    3    3  502    0  0.77714725325E+02 -0.54190763471E+03 -0.58656706593E+03  0.80236305742E+03  0.46999998093E+01 0.  1.
       -5    1    3    3    0  502 -0.77714725325E+02  0.54190763471E+03  0.30375414691E+03  0.62609275260E+03  0.46999998093E+01 0. -1.
</event>
<event>
 5   0  0.4527503E-05  0.1399880E+04  0.7818609E-02  0.8953905E-01
        2   -1    0    0  501    0  0.00000000000E+00  0.00000000000E+00  0.71919390464E+03  0.71919390464E+03  0.25500000920E-02 0. -1.
       -2   -1    0    0    0  501  0.00000000000E+00  0.00000000000E+00 -0.68120151980E+03  0.68120151981E+03  0.25500000920E-02 0.  1.
    10030    2    1    2    0    0  0.00000000000E+00  0.00000000000E+00  0.37992384836E+02  0.14003954244E+04  0.13998799675E+04 0.  0.
        4    1    3    3  502    0  0.20244792193E+03 -0.66593063587E+03  0.92953077549E+02  0.70220414440E+03  0.12699999809E+01 0. -1.
       -4    1    3    3    0  502 -0.20244792193E+03  0.66593063587E+03 -0.54960692714E+02  0.69819128005E+03  0.12699999809E+01 0.  1.
</event>
<event>
 5   0  0.2427569E-05  0.1400114E+04  0.7818609E-02  0.8953736E-01
        1   -1    0    0  501    0  0.00000000000E+00  0.00000000000E+00  0.98864292015E+03  0.98864292017E+03  0.50400001928E-02 0.  1.
       -1   -1    0    0    0  501  0.00000000000E+00  0.00000000000E+00 -0.49570937666E+03  0.49570937669E+03  0.50400001928E-02 0. -1.
    10030    2    1    2    0    0  0.00000000000E+00  0.00000000000E+00  0.49293354349E+03  0.14843522969E+04  0.14001136607E+04 0.  0.
        1    1    3    3  502    0 -0.14849385390E+03  0.48883819298E+03  0.75387131930E+03  0.91067841177E+03  0.50400001928E-02 0.  1.
       -1    1    3    3    0  502  0.14849385390E+03 -0.48883819298E+03 -0.26093777581E+03  0.57367388509E+03  0.50400001928E-02 0. -1.
</event>
<event>
 5   0  0.4621450E-05  0.1400580E+04  0.7818609E-02  0.8953399E-01
       -2   -1    0    0    0  501  0.00000000000E+00  0.00000000000E+00  0.28287183580E+03  0.28287183581E+03  0.25500000920E-02 0. -1.
        2   -1    0    0  501    0  0.00000000000E+00  0.00000000000E+00 -0.17336689565E+04  0.17336689565E+04  0.25500000920E-02 0.  1.
    10030    2    1    2    0    0  0.00000000000E+00  0.00000000000E+00 -0.14507971207E+04  0.20165407923E+04  0.14005800518E+04 0.  0.
        5    1    3    3  502    0 -0.37584978392E+03 -0.52093864919E+03 -0.32394785958E+03  0.71944731705E+03  0.46999998093E+01 0. -1.
       -5    1    3    3    0  502  0.37584978392E+03  0.52093864919E+03 -0.11268492611E+04  0.12970934753E+04  0.46999998093E+01 0.  1.
</event>
<event>
 5   0  0.1661000E-05  0.1399812E+04  0.7818609E-02  0.8953955E-01
        3   -1    0    0  501    0  0.00000000000E+00  0.00000000000E+00  0.83455484639E+03  0.83455485250E+03  0.10100000352E+00 0. -1.
       -3   -1    0    0    0  501  0.00000000000E+00  0.00000000000E+00 -0.58698183576E+03  0.58698184445E+03  0.10100000352E+00 0.  1.
    10030    2    1    2    0    0  0.00000000000E+00  0.00000000000E+00  0.24757301064E+03  0.14215366970E+04  0.13998121964E+04 0.  0.
        3    1    3    3  502    0 -0.15413725877E+03 -0.68242792758E+03  0.14415685633E+03  0.71431602272E+03  0.10100000352E+00 0.  1.
       -3    1    3    3    0  502  0.15413725877E+03  0.68242792758E+03  0.10341615431E+03  0.70722067423E+03  0.10100000352E+00 0. -1.
</event>
<event>
 5   0  0.4460282E-05  0.1401016E+04  0.7818609E-02  0.8953083E-01
        2   -1    0    0  501    0  0.00000000000E+00  0.00000000000E+00  0.89017130964E+03  0.89017130965E+03  0.25500000920E-02 0.  1.
       -2   -1    0    0    0  501  0.00000000000E+00  0.00000000000E+00 -0.55125543731E+03  0.55125543732E+03  0.25500000920E-02 0. -1.
    10030    2    1    2    0    0  0.00000000000E+00  0.00000000000E+00  0.33891587233E+03  0.14414267470E+04  0.14010164518E+04 0.  0.
        1    1    3    3  502    0 -0.51607710341E+03 -0.43783343471E+03 -0.16526934106E+02  0.67698362816E+03  0.50400001928E-02 0. -1.
       -1    1    3    3    0  502  0.51607710341E+03  0.43783343471E+03  0.35544280644E+03  0.76444311881E+03  0.50400001928E-02 0.  1.
</event>
<event>
 5   0  0.4441253E-05  0.1400517E+04  0.7818609E-02  0.8953444E-01
        2   -1    0    0  501    0  0.00000000000E+00  0.00000000000E+00  0.62273629692E+03  0.62273629693E+03  0.25500000920E-02 0. -1.
       -2   -1    0    0    0  501  0.00000000000E+00  0.00000000000E+00 -0.78743131439E+03  0.78743131440E+03  0.25500000920E-02 0.  1.
    10030    2    1    2    0    0  0.00000000000E+00  0.00000000000E+00 -0.16469501747E+03  0.14101676113E+04  0.14005171342E+04 0.  0.
        3    1    3    3  502    0  0.33058739831E+03  0.54983062001E+03  0.20022897919E+03  0.67208138862E+03  0.10100000352E+00 0. -1.
       -3    1    3    3    0  502 -0.33058739831E+03 -0.54983062001E+03 -0.36492399666E+03  0.73808622271E+03  0.10100000352E+00 0.  1.
</event>
<event>
 5   0  0.2427569E-05  0.1400291E+04  0.7818609E-02  0.8953608E-01
        1   -1    0    0  501    0  0.00000000000E+00  0.00000000000E+00  0.16215097621E+04  0.16215097621E+04  0.50400001928E-02 0. -1.
       -1   -1    0    0    0  501  0.00000000000E+00  0.00000000000E+00 -0.30231310544E+03  0.30231310548E+03  0.50400001928E-02 0.  1.
    10030    2    1    2    0    0  0.00000000000E+00  0.00000000000E+00  0.13191966567E+04  0.19238228676E+04  0.14002909008E+04 0.  0.
        1    1    3    3  502    0  0.59777701714E+02  0.43412978292E+03  0.14097907594E+04  0.14763305956E+04  0.50400001928E-02 0. -1.
       -1    1    3    3    0  502 -0.59777701714E+02 -0.43412978292E+03 -0.90594102760E+02  0.44749227203E+03  0.50400001928E-02 0.  1.
</event>
<event>
 5   0  0.2363419E-05  0.1399945E+04  0.7818609E-02  0.8953859E-01
       -1   -1    0    0    0  501  0.00000000000E+00  0.00000000000E+00  0.46513665303E+03  0.46513665306E+03  0.50400001928E-02 0. -1.
        1   -1    0    0  501    0  0.00000000000E+00  0.00000000000E+00 -0.10533705639E+04  0.10533705639E+04  0.50400001928E-02 0.  1.
    10030    2    1    2    0    0  0.00000000000E+00  0.00000000000E+00 -0.58823391082E+03  0.15185072169E+04  0.13999446539E+04 0.  0.
        2    1    3    3  502    0  0.62341944382E+03 -0.83319288328E+02  0.39092163078E+02  0.63017624833E+03  0.25500000920E-02 0. -1.
       -2    1    3    3    0  502 -0.62341944382E+03  0.83319288328E+02 -0.62732607390E+03  0.88833096858E+03  0.25500000920E-02 0.  1.
</event>
<event>
 5   0  0.4460282E-05  0.1399715E+04  0.7818609E-02  0.8954025E-01
       -2   -1    0    0    0  501  0.00000000000E+00  0.00000000000E+00  0.50327362071E+03  0.50327362072E+03  0.25500000920E-02 0. -1.
        2   -1    0    0  501    0  0.00000000000E+00  0.00000000000E+00 -0.97322864284E+03  0.97322864285E+03  0.25500000920E-02 0.  1.
    10030    2    1    2    0    0  0.00000000000E+00  0.00000000000E+00 -0.46995502213E+03  0.14765022636E+04  0.13997146893E+04 0.  0.
        1    1    3    3  502    0  0.27029927951E+03  0.43803955307E+03 -0.73518553477E+03  0.89746204439E+03  0.50400001928E-02 0.  1.
       -1    1    3    3    0  502 -0.27029927951E+03 -0.43803955307E+03  0.26523051264E+03  0.57904021918E+03  0.50400001928E-02 0. -1.
</event>
<event>
 5   0  0.4441253E-05  0.1400738E+04  0.7818609E-02  0.8953284E-01
        2   -1    0    0  501    0  0.00000000000E+00  0.00000000000E+00  0.79038537231E+03  0.79038537232E+03  0.25500000920E-02 0.  1.
       -2   -1    0    0    0  501  0.00000000000E+00  0.00000000000E+00 -0.62060476528E+03  0.62060476528E+03  0.25500000920E-02 0. -1.
    10030    2    1    2    0    0  0.00000000000E+00  0.00000000000E+00  0.16978060704E+03  0.14109901376E+04  0.14007382746E+04 0.  0.
        3    1    3    3  502    0  0.53887804577E+03  0.28175846183E+03 -0.26512879308E+03  0.66337822254E+03  0.10100000352E+00 0. -1.
       -3    1    3    3    0  502 -0.53887804577E+03 -0.28175846183E+03  0.43490940011E+03  0.74761191506E+03  0.10100000352E+00 0.  1.
</event>
<event>
 5   0  0.2316714E-05  0.1399904E+04  0.7818609E-02  0.8953888E-01
        1   -1    0    0  501    0  0.00000000000E+00  0.00000000000E+00  0.64384360678E+03  0.64384360680E+03  0.50400001928E-02 0.  1.
       -1   -1    0    0    0  501  0.00000000000E+00  0.00000000000E+00 -0.76094986328E+03  0.76094986329E+03  0.50400001928E-02 0. -1.
    10030    2    1    2    0    0  0.00000000000E+00  0.00000000000E+00 -0.11710625650E+03  0.14047934701E+04  0.13999038604E+04 0.  0.
        5    1    3    3  502    0  0.51281634855E+03 -0.46692630861E+03 -0.15327471551E+03  0.71029290678E+03  0.46999998093E+01 0.  1.
       -5    1    3    3    0  502 -0.51281634855E+03  0.46692630861E+03  0.36168459014E+02  0.69450056331E+03  0.46999998093E+01 0. -1.
</event>
<event>
 5   0  0.4441253E-05  0.1400117E+04  0.7818609E-02  0.8953734E-01
        2   -1    0    0  501    0  0.00000000000E+00  0.00000000000E+00  0.11460355398E+04  0.11460355398E+04  0.25500000920E-02 0.  1.
       -2   -1    0    0    0  501  0.00000000000E+00  0.00000000000E+00 -0.42763217545E+03  0.42763217546E+03  0.25500000920E-02 0. -1.
    10030    2    1    2    0    0  0.00000000000E+00  0.00000000000E+00  0.71840336434E+03  0.15736677152E+04  0.14001166680E+04 0.  0.
        3    1    3    3  502    0  0.66113269486E+03 -0.15467808868E+03  0.16760149104E+03  0.69936544191E+03  0.10100000352E+00 0. -1.
       -3    1    3    3    0  502 -0.66113269486E+03  0.15467808868E+03  0.55080187330E+03  0.87430227334E+03  0.10100000352E+00 0.  1.
</event>
<event>
 5   0  0.2428507E-05  0.1400362E+04  0.7818609E-02  0.8953556E-01
        1   -1    0    0  501    0  0.00000000000E+00  0.00000000000E+00  0.85462146184E+03  0.85462146186E+03  0.50400001928E-02 0.  1.
       -1   -1    0    0    0  501  0.00000000000E+00  0.00000000000E+00 -0.57365004278E+03  0.57365004280E+03  0.50400001928E-02 0. -1.
    10030    2    1    2    0    0  0.00000000000E+00  0.00000000000E+00  0.28097141907E+03  0.14282715047E+04  0.14003622934E+04 0.  0.
        4    1    3    3  502    0  0.69446139619E+03 -0.67608971743E+02  0.19999599311E+03  0.72584269234E+03  0.12699999809E+01 0. -1.
       -4    1    3    3    0  502 -0.69446139619E+03  0.67608971743E+02  0.80975425954E+02  0.70242881232E+03  0.12699999809E+01 0.  1.
</event>
<event>
 5   0  0.2428507E-05  0.1399896E+04  0.7818609E-02  0.8953894E-01
        1   -1    0    0  501    0  0.00000000000E+00  0.00000000000E+00  0.14807889266E+04  0.14807889266E+04  0.50400001928E-02 0. -1.
       -1   -1    0    0    0  501  0.00000000000E+00  0.00000000000E+00 -0.33085566037E+03  0.33085566041E+03  0.50400001928E-02 0.  1.
    10030    2    1    2    0    0  0.00000000000E+00  0.00000000000E+00  0.11499332662E+04  0.18116445870E+04  0.13998962793E+04 0.  0.
        4    1    3    3  502    0  0.44073608615E+03  0.15904130903E+03  0.12478923309E+04  0.13329588583E+04  0.12699999809E+01 0. -1.
       -4    1    3    3    0  502 -0.44073608615E+03 -0.15904130903E+03 -0.97959064650E+02  0.47868572870E+03  0.12699999809E+01 0.  1.
</event>
<event>
 5   0  0.4441253E-05  0.1399770E+04  0.7818609E-02  0.8953985E-01
        2   -1    0    0  501    0  0.00000000000E+00  0.00000000000E+00  0.16273838364E+04  0.16273838364E+04  0.25500000920E-02 0.  1.
       -2   -1    0    0    0  501  0.00000000000E+00  0.00000000000E+00 -0.30099802228E+03  0.30099802230E+03  0.25500000920E-02 0. -1.
    10030    2    1    2    0    0  0.00000000000E+00  0.00000000000E+00  0.13263858142E+04  0.19283818587E+04  0.13997704330E+04 0.  0.
        3    1    3    3  502    0  0.59928396478E+03  0.31228229636E+03  0.41225860425E+03  0.79159248988E+03  0.10100000352E+00 0.  1.
       -3    1    3    3    0  502 -0.59928396478E+03 -0.31228229636E+03  0.91412720992E+03  0.11367893689E+04  0.10100000352E+00 0. -1.
</event>
<event>
 5   0  0.2467303E-05  0.1399975E+04  0.7818609E-02  0.8953837E-01
       -1   -1    0    0    0  501  0.00000000000E+00  0.00000000000E+00  0.11015360052E+04  0.11015360052E+04  0.50400001928E-02 0. -1.
        1   -1    0    0  501    0  0.00000000000E+00  0.00000000000E+00 -0.44481734535E+03  0.44481734538E+03  0.50400001928E-02 0.  1.
    10030    2    1    2    0    0  0.00000000000E+00  0.00000000000E+00  0.65671865983E+03  0.15463533506E+04  0.13999747450E+04 0.  0.
        3    1    3    3  502    0  0.26483056920E+02  0.21947206466E+03  0.10619663071E+04  0.10847312050E+04  0.10100000352E+00 0. -1.
       -3    1    3    3    0  502 -0.26483056920E+02 -0.21947206466E+03 -0.40524764727E+03  0.46162214558E+03  0.10100000352E+00 0.  1.
</event>
<event>
 5   0  0.2427569E-05  0.1399656E+04  0.7818609E-02  0.8954068E-01
        1   -1    0    0  501    0  0.00000000000E+00  0.00000000000E+00  0.13968655249E+04  0.13968655249E+04  0.50400001928E-02 0. -1.
       -1   -1    0    0    0  501  0.00000000000E+00  0.00000000000E+00 -0.35061295681E+03  0.35061295685E+03  0.50400001928E-02 0.  1.
    10030    2    1    2    0    0  0.00000000000E+00  0.00000000000E+00  0.10462525681E+04  0.17474784818E+04  0.13996558891E+04 0.  0.
        1    1    3    3  502    0  0.13109850174E+03  0.67119714963E+03  0.70859021661E+03  0.98478044555E+03  0.50400001928E-02 0.  1.
       -1    1    3    3    0  502 -0.13109850174E+03 -0.67119714963E+03  0.33766235152E+03  0.76269803625E+03  0.50400001928E-02 0. -1.
</event>
<event>
 5   0  0.2428507E-05  0.1400257E+04  0.7818609E-02  0.8953633E-01
        1   -1    0    0  501    0  0.00000000000E+00  0.00000000000E+00  0.10798656610E+04  0.10798656610E+04  0.50400001928E-02 0.  1.
       -1   -1    0    0    0  501  0.00000000000E+00  0.00000000000E+00 -0.45392659048E+03  0.45392659050E+03  0.50400001928E-02 0. -1.
    10030    2    1    2    0    0  0.00000000000E+00  0.00000000000E+00  0.62593907049E+03  0.15337922515E+04  0.14002567446E+04 0.  0.
        4    1    3    3  502    0 -0.16543575779E+03  0.12021583684E+03  0.10464203287E+04  0.10662166546E+04  0.12699999809E+01 0.  1.
       -4    1    3    3    0  502  0.16543575779E+03 -0.12021583684E+03 -0.42048125820E+03  0.46757559686E+03  0.12699999809E+01 0. -1.
</event>
<event>
 5   0  0.4243281E-05  0.1394682E+04  0.7818609E-02  0.8957677E-01
        2   -1    0    0  501    0  0.00000000000E+00  0.00000000000E+00  0.17194454084E+04  0.17194454084E+04  0.25500000920E-02 0.  1.
       -2   -1    0    0    0  501  0.00000000000E+00  0.00000000000E+00 -0.28281484636E+03  0.28281484637E+03  0.25500000920E-02 0. -1.
    10030    2    1    2    0    0  0.00000000000E+00  0.00000000000E+00  0.14366305621E+04  0.20022602548E+04  0.13946823137E+04 0.  0.
        2    1    3    3  502    0  0.59544171786E+03  0.94075024478E+02  0.21505524723E+03  0.64003883395E+03  0.25500000920E-02 0. -1.
       -2    1    3    3    0  502 -0.59544171786E+03 -0.94075024478E+02  0.12215753148E+04  0.13622214208E+04  0.25500000920E-02 0.  1.
</event>
<event>
 5   0  0.4243281E-05  0.1396718E+04  0.7818609E-02  0.8956197E-01
        2   -1    0    0  501    0  0.00000000000E+00  0.00000000000E+00  0.12066999171E+04  0.12066999171E+04  0.25500000920E-02 0. -1.
       -2   -1    0    0    0  501  0.00000000000E+00  0.00000000000E+00 -0.40416466108E+03  0.40416466109E+03  0.25500000920E-02 0.  1.
    10030    2    1    2    0    0  0.00000000000E+00  0.00000000000E+00  0.80253525601E+03  0.16108645782E+04  0.13967182436E+04 0.  0.
        2    1    3    3  502    0 -0.11408017025E+03 -0.88564138754E+02  0.11892886036E+04  0.11980255735E+04  0.25500000920E-02 0. -1.
       -2    1    3    3    0  502  0.11408017025E+03  0.88564138754E+02 -0.38675334762E+03  0.41283900472E+03  0.25500000920E-02 0.  1.
</event>
<event>
 5   0  0.4243281E-05  0.1400112E+04  0.7818609E-02  0.8953738E-01
        2   -1    0    0  501    0  0.00000000000E+00  0.00000000000E+00  0.65608587436E+03  0.65608587437E+03  0.25500000920E-02 0. -1.
       -2   -1    0    0    0  501  0.00000000000E+00  0.00000000000E+00 -0.74697282428E+03  0.74697282429E+03  0.25500000920E-02 0.  1.
    10030    2    1    2    0    0  0.00000000000E+00  0.00000000000E+00 -0.90886949920E+02  0.14030586987E+04  0.14001118792E+04 0.  0.
        2    1    3    3  502    0 -0.32138500427E+03  0.48552831013E+03 -0.43491589632E+03  0.72675848656E+03  0.25500000920E-02 0.  1.
       -2    1    3    3    0  502  0.32138500427E+03 -0.48552831013E+03  0.34402894640E+03  0.67630021209E+03  0.25500000920E-02 0. -1.
</event>
<event>
 5   0  0.2363419E-05  0.1403806E+04  0.7818609E-02  0.8951068E-01
       -1   -1    0    0    0  501  0.00000000000E+00  0.00000000000E+00  0.20797157515E+03  0.20797157521E+03  0.50400001928E-02 0. -1.
        1   -1    0    0  501    0  0.00000000000E+00  0.00000000000E+00 -0.23689201677E+04  0.23689201677E+04  0.50400001928E-02 0.  1.
    10030    2    1    2    0    0  0.00000000000E+00  0.00000000000E+00 -0.21609485926E+04  0.25768917429E+04  0.14038063382E+04 0.  0.
        2    1    3    3  502    0  0.33346339125E+03  0.60648485987E+03 -0.86603860511E+03  0.11086228322E+04  0.25500000920E-02 0.  1.
       -2    1    3    3    0  502 -0.33346339125E+03 -0.60648485987E+03 -0.12949099875E+04  0.14682689107E+04  0.25500000920E-02 0. -1.
</event>
<event>
 5   0  0.2428507E-05  0.1400245E+04  0.7818609E-02  0.8953641E-01
       -1   -1    0    0    0  501  0.00000000000E+00  0.00000000000E+00  0.11021849125E+04  0.11021849125E+04  0.50400001928E-02 0.  1.
        1   -1    0    0  501    0  0.00000000000E+00  0.00000000000E+00 -0.44472704617E+03  0.44472704619E+03  0.50400001928E-02 0. -1.
    10030    2    1    2    0    0  0.00000000000E+00  0.00000000000E+00  0.65745786635E+03  0.15469119587E+04  0.14002448936E+04 0.  0.
        4    1    3    3  502    0 -0.38900905969E+03  0.56942147018E+03  0.19523779702E+03  0.71672049609E+03  0.12699999809E+01 0. -1.
       -4    1    3    3    0  502  0.38900905969E+03 -0.56942147018E+03  0.46222006933E+03  0.83019146263E+03  0.12699999809E+01 0.  1.
</event>
<event>
 5   0  0.2467303E-05  0.1400447E+04  0.7818609E-02  0.8953495E-01
       -1   -1    0    0    0  501  0.00000000000E+00  0.00000000000E+00  0.25045677812E+03  0.25045677818E+03  0.50400001928E-02 0.  1.
        1   -1    0    0  501    0  0.00000000000E+00  0.00000000000E+00 -0.19576758100E+04  0.19576758100E+04  0.50400001928E-02 0. -1.
    10030    2    1    2    0    0  0.00000000000E+00  0.00000000000E+00 -0.17072190319E+04  0.22081325882E+04  0.14004473229E+04 0.  0.
        3    1    3    3  502    0 -0.59308783272E+03  0.31480992635E+02 -0.14384245897E+04  0.15562164183E+04  0.10100000352E+00 0. -1.
       -3    1    3    3    0  502  0.59308783272E+03 -0.31480992635E+02 -0.26879444225E+03  0.65191616992E+03  0.10100000352E+00 0.  1.
</event>
<event>
 5   0  0.4621450E-05  0.1399683E+04  0.7818609E-02  0.8954048E-01
        2   -1    0    0  501    0  0.00000000000E+00  0.00000000000E+00  0.11216250920E+04  0.11216250920E+04  0.25500000920E-02 0. -1.
       -2   -1    0    0    0  501  0.00000000000E+00  0.00000000000E+00 -0.43666824506E+03  0.43666824507E+03  0.25500000920E-02 0.  1.
    10030    2    1    2    0    0  0.00000000000E+00  0.00000000000E+00  0.68495684693E+03  0.15582933371E+04  0.13996829077E+04 0.  0.
        5    1    3    3  502    0 -0.65781382022E+03  0.19752675607E+03  0.19302753418E+03  0.71345466597E+03  0.46999998093E+01 0.  1.
       -5    1    3    3    0  502  0.65781382022E+03 -0.19752675607E+03  0.49192931274E+03  0.84483867109E+03  0.46999998093E+01 0. -1.
</event>
<event>
 5   0  0.2428507E-05  0.1400507E+04  0.7818609E-02  0.8953451E-01
       -1   -1    0    0    0  501  0.00000000000E+00  0.00000000000E+00  0.40682525194E+03  0.40682525197E+03  0.50400001928E-02 0.  1.
        1   -1    0    0  501    0  0.00000000000E+00  0.00000000000E+00 -0.12053214608E+04  0.12053214608E+04  0.50400001928E-02 0. -1.
    10030    2    1    2    0    0  0.00000000000E+00  0.00000000000E+00 -0.79849620883E+03  0.16121467128E+04  0.14005073466E+04 0.  0.
        4    1    3    3  502    0  0.40464481648E+03  0.89628903635E+01  0.25853784722E+03  0.48027199820E+03  0.12699999809E+01 0.  1.
       -4    1    3    3    0  502 -0.40464481648E+03 -0.89628903635E+01 -0.10570340561E+04  0.11318747146E+04  0.12699999809E+01 0. -1.
</event>
<event>
 5   0  0.4621450E-05  0.1399674E+04  0.7818609E-02  0.8954055E-01
        2   -1    0    0  501    0  0.00000000000E+00  0.00000000000E+00  0.49293001685E+03  0.49293001686E+03  0.25500000920E-02 0. -1.
       -2   -1    0    0    0  501  0.00000000000E+00  0.00000000000E+00 -0.99359234618E+03  0.99359234618E+03  0.25500000920E-02 0.  1.
    10030    2    1    2    0    0  0.00000000000E+00  0.00000000000E+00 -0.50066232932E+03  0.14865223630E+04  0.13996735219E+04 0.  0.
        5    1    3    3  502    0  0.10752383908E+03  0.69151140167E+03 -0.25042221975E+03  0.74329184897E+03  0.46999998093E+01 0.  1.
       -5    1    3    3    0  502 -0.10752383908E+03 -0.69151140167E+03 -0.25024010958E+03  0.74323051407E+03  0.46999998093E+01 0. -1.
</event>
<event>
 5   0  0.2428507E-05  0.1394401E+04  0.7818609E-02  0.8957882E-01
       -1   -1    0    0    0  501  0.00000000000E+00  0.00000000000E+00  0.35333262389E+03  0.35333262393E+03  0.50400001928E-02 0. -1.
        1   -1    0    0  501    0  0.00000000000E+00  0.00000000000E+00 -0.13757244456E+04  0.13757244456E+04  0.50400001928E-02 0.  1.
    10030    2    1    2    0    0  0.00000000000E+00  0.00000000000E+00 -0.10223918217E+04  0.17290570695E+04  0.13944007001E+04 0.  0.
        4    1    3    3  502    0  0.34826515774E+03  0.27550316847E+03 -0.11776842796E+04  0.12586232523E+04  0.12699999809E+01 0.  1.
       -4    1    3    3    0  502 -0.34826515774E+03 -0.27550316847E+03  0.15529245796E+03  0.47043381717E+03  0.12699999809E+01 0. -1.
</event>
<event>
 5   0  0.2316714E-05  0.1399685E+04  0.7818609E-02  0.8954047E-01
        1   -1    0    0  501    0  0.00000000000E+00  0.00000000000E+00  0.15422227330E+04  0.15422227331E+04  0.50400001928E-02 0. -1.
       -1   -1    0    0    0  501  0.00000000000E+00  0.00000000000E+00 -0.31758021385E+03  0.31758021389E+03  0.50400001928E-02 0.  1.
    10030    2    1    2    0    0  0.00000000000E+00  0.00000000000E+00  0.12246425192E+04  0.18598029469E+04  0.13996848580E+04 0.  0.
        5    1    3    3  502    0 -0.45742939628E+02  0.68896914800E+03  0.46090183555E+03  0.83019485390E+03  0.46999998093E+01 0. -1.
       -5    1    3    3    0  502  0.45742939628E+02 -0.68896914800E+03  0.76374068364E+03  0.10296080930E+04  0.46999998093E+01 0.  1.
</event>
<event>
 5   0  0.2467303E-05  0.1400239E+04  0.7818609E-02  0.8953646E-01
        1   -1    0    0  501    0  0.00000000000E+00  0.00000000000E+00  0.15677299894E+04  0.15677299894E+04  0.50400001928E-02 0.  1.
       -1   -1    0    0    0  501  0.00000000000E+00  0.00000000000E+00 -0.31266032765E+03  0.31266032769E+03  0.50400001928E-02 0. -1.
    10030    2    1    2    0    0  0.00000000000E+00  0.00000000000E+00  0.12550696618E+04  0.18803903171E+04  0.14002385114E+04 0.  0.
        3    1    3    3  502    0  0.46888427836E+03 -0.44928081136E+03  0.97890783696E+03  0.11747196591E+04  0.10100000352E+00 0.  1.
       -3    1    3    3    0  502 -0.46888427836E+03  0.44928081136E+03  0.27616182483E+03  0.70567065806E+03  0.10100000352E+00 0. -1.
</event>
<event>
 5   0  0.2427569E-05  0.1404530E+04  0.7818609E-02  0.8950546E-01
       -1   -1    0    0    0  501  0.00000000000E+00  0.00000000000E+00  0.77370526341E+03  0.77370526343E+03  0.50400001928E-02 0.  1.
        1   -1    0    0  501    0  0.00000000000E+00  0.00000000000E+00 -0.63742114731E+03  0.63742114733E+03  0.50400001928E-02 0. -1.
    10030    2    1    2    0    0  0.00000000000E+00  0.00000000000E+00  0.13628411610E+03  0.14111264108E+04  0.14045299523E+04 0.  0.
        1    1    3    3  502    0 -0.53257996344E+03  0.12299391193E+03  0.51112913999E+03  0.74834612153E+03  0.50400001928E-02 0.  1.
       -1    1    3    3    0  502  0.53257996344E+03 -0.12299391193E+03 -0.37484502388E+03  0.66278028923E+03  0.50400001928E-02 0. -1.
</event>
<event>
 5   0  0.4527503E-05  0.1400220E+04  0.7818609E-02  0.8953660E-01
        2   -1    0    0  501    0  0.00000000000E+00  0.00000000000E+00  0.14743889798E+04  0.14743889798E+04  0.25500000920E-02 0.  1.
       -2   -1    0    0    0  501  0.00000000000E+00  0.00000000000E+00 -0.33244533902E+03  0.33244533903E+03  0.25500000920E-02 0. -1.
    10030    2    1    2    0    0  0.00000000000E+00  0.00000000000E+00  0.11419436408E+04  0.18068343189E+04  0.14002196174E+04 0.  0.
        4    1    3    3  502    0  0.42214695978E+03 -0.46740656533E+02  0.12891536465E+04  0.13573177527E+04  0.12699999809E+01 0.  1.
       -4    1    3    3    0  502 -0.42214695978E+03  0.46740656533E+02 -0.14721000565E+03  0.44951656620E+03  0.12699999809E+01 0. -1.
</event>
<event>
 5   0  0.4243281E-05  0.1400797E+04  0.7818609E-02  0.8953242E-01
       -2   -1    0    0    0  501  0.00000000000E+00  0.00000000000E+00  0.85139645187E+03  0.85139645188E+03  0.25500000920E-02 0. -1.
        2   -1    0    0  501    0  0.00000000000E+00  0.00000000000E+00 -0.57618075473E+03  0.57618075474E+03  0.25500000920E-02 0.  1.
    10030    2    1    2    0    0  0.00000000000E+00  0.00000000000E+00  0.27521569714E+03  0.14275772066E+04  0.14007972733E+04 0.  0.
        2    1    3    3  502    0 -0.18827251120E+03  0.50662550694E+03  0.59159279416E+03  0.80131016271E+03  0.25500000920E-02 0. -1.
       -2    1    3    3    0  502  0.18827251120E+03 -0.50662550694E+03 -0.31637709702E+03  0.62626704390E+03  0.25500000920E-02 0.  1.
</event>
<event>
 5   0  0.2467303E-05  0.1399826E+04  0.7818609E-02  0.8953945E-01
       -1   -1    0    0    0  501  0.00000000000E+00  0.00000000000E+00  0.11351001496E+04  0.11351001496E+04  0.50400001928E-02 0. -1.
        1   -1    0    0  501    0  0.00000000000E+00  0.00000000000E+00 -0.43157259207E+03  0.43157259210E+03  0.50400001928E-02 0.  1.
    10030    2    1    2    0    0  0.00000000000E+00  0.00000000000E+00  0.70352755748E+03  0.15666727417E+04  0.13998258661E+04 0.  0.
        3    1    3    3  502    0  0.14294102077E+03  0.39243703408E+03  0.98034595873E+03  0.10656064800E+04  0.10100000352E+00 0. -1.
       -3    1    3    3    0  502 -0.14294102077E+03 -0.39243703408E+03 -0.27681840125E+03  0.50106626170E+03  0.10100000352E+00 0.  1.
</event>
<event>
 5   0  0.4441253E-05  0.1402086E+04  0.7818609E-02  0.8952310E-01
       -2   -1    0    0    0  501  0.00000000000E+00  0.00000000000E+00  0.90540836319E+03  0.90540836319E+03  0.25500000920E-02 0. -1.
        2   -1    0    0  501    0  0.00000000000E+00  0.00000000000E+00 -0.54280616588E+03  0.54280616589E+03  0.25500000920E-02 0.  1.
    10030    2    1    2    0    0  0.00000000000E+00  0.00000000000E+00  0.36260219731E+03  0.14482145291E+04  0.14020859349E+04 0.  0.
        3    1    3    3  502    0  0.40871489550E+03  0.49260829422E+03 -0.11402600264E+03  0.65016362311E+03  0.10100000352E+00 0.  1.
       -3    1    3    3    0  502 -0.40871489550E+03 -0.49260829422E+03  0.47662819995E+03  0.79805090597E+03  0.10100000352E+00 0. -1.
</event>
<event>
 5   0  0.2427569E-05  0.1399938E+04  0.7818609E-02  0.8953863E-01
       -1   -1    0    0    0  501  0.00000000000E+00  0.00000000000E+00  0.43440519938E+03  0.43440519941E+03  0.50400001928E-02 0.  1.
        1   -1    0    0  501    0  0.00000000000E+00  0.00000000000E+00 -0.11278795901E+04  0.11278795901E+04  0.50400001928E-02 0. -1.
    10030    2    1    2    0    0  0.00000000000E+00  0.00000000000E+00 -0.69347439072E+03  0.15622847895E+04  0.13999382247E+04 0.  0.
        1    1    3    3  502    0 -0.46718189500E+03 -0.58629999331E+02 -0.92473951693E+03  0.10377088098E+04  0.50400001928E-02 0. -1.
       -1    1    3    3    0  502  0.46718189500E+03  0.58629999331E+02  0.23126512620E+03  0.52457597968E+03  0.50400001928E-02 0.  1.
</event>
<event>
 5   0  0.2428507E-05  0.1400531E+04  0.7818609E-02  0.8953434E-01
       -1   -1    0    0    0  501  0.00000000000E+00  0.00000000000E+00  0.56895662472E+03  0.56895662474E+03  0.50400001928E-02 0.  1.
        1   -1    0    0  501    0  0.00000000000E+00  0.00000000000E+00 -0.86187866327E+03  0.86187866328E+03  0.50400001928E-02 0. -1.
    10030    2    1    2    0    0  0.00000000000E+00  0.00000000000E+00 -0.29292203855E+03  0.14308352880E+04  0.14005307211E+04 0.  0.
        4    1    3    3  502    0  0.69317409835E+02  0.34661414842E+03  0.47112200912E+03  0.58898542560E+03  0.12699999809E+01 0.  1.
       -4    1    3    3    0  502 -0.69317409835E+02 -0.34661414842E+03 -0.76404404767E+03  0.84184986243E+03  0.12699999809E+01 0. -1.
</event>
<event>
 5   0  0.2316714E-05  0.1400368E+04  0.7818609E-02  0.8953552E-01
        1   -1    0    0  501    0  0.00000000000E+00  0.00000000000E+00  0.73295898379E+03  0.73295898381E+03  0.50400001928E-02 0. -1.
       -1   -1    0    0    0  501  0.00000000000E+00  0.00000000000E+00 -0.66887427022E+03  0.66887427024E+03  0.50400001928E-02 0.  1.
    10030    2    1    2    0    0  0.00000000000E+00  0.00000000000E+00  0.64084713564E+02  0.14018332540E+04  0.14003676737E+04 0.  0.
        5    1    3    3  502    0  0.45006045663E+02 -0.30856452652E+03  0.65959373517E+03  0.72960509637E+03  0.46999998093E+01 0. -1.
       -5    1    3    3    0  502 -0.45006045663E+02  0.30856452652E+03 -0.59550902160E+03  0.67222815768E+03  0.46999998093E+01 0.  1.
</event>
<event>
 5   0  0.4441253E-05  0.1400069E+04  0.7818609E-02  0.8953768E-01
        2   -1    0    0  501    0  0.00000000000E+00  0.00000000000E+00  0.12084151477E+04  0.12084151477E+04  0.25500000920E-02 0. -1.
       -2   -1    0    0    0  501  0.00000000000E+00  0.00000000000E+00 -0.40552990599E+03  0.40552990600E+03  0.25500000920E-02 0.  1.
    10030    2    1    2    0    0  0.00000000000E+00  0.00000000000E+00  0.80288524173E+03  0.16139450537E+04  0.14000692572E+04 0.  0.
        3    1    3    3  502    0  0.54211747283E+03 -0.30746622783E+03  0.33963798675E+02  0.62416374889E+03  0.10100000352E+00 0.  1.
       -3    1    3    3    0  502 -0.54211747283E+03  0.30746622783E+03  0.76892144305E+03  0.98978130483E+03  0.10100000352E+00 0. -1.
</event>
<event>
 5   0  0.2427569E-05  0.1399938E+04  0.7818609E-02  0.8953864E-01
       -1   -1    0    0    0  501  0.00000000000E+00  0.00000000000E+00  0.61501606861E+03  0.61501606863E+03  0.50400001928E-02 0. -1.
        1   -1    0    0  501    0  0.00000000000E+00  0.00000000000E+00 -0.79665643264E+03  0.79665643265E+03  0.50400001928E-02 0.  1.
    10030    2    1    2    0    0  0.00000000000E+00  0.00000000000E+00 -0.18164036402E+03  0.14116725013E+04  0.13999378661E+04 0.  0.
        1    1    3    3  502    0  0.12035038505E+03  0.19308832242E+03  0.57668712609E+03  0.61994786624E+03  0.50400001928E-02 0. -1.
       -1    1    3    3    0  502 -0.12035038505E+03 -0.19308832242E+03 -0.75832749011E+03  0.79172463504E+03  0.50400001928E-02 0.  1.
</event>
<event>
 5   0  0.4460282E-05  0.1400201E+04  0.7818609E-02  0.8953673E-01
        2   -1    0    0  501    0  0.00000000000E+00  0.00000000000E+00  0.11812149865E+04  0.11812149865E+04  0.25500000920E-02 0. -1.
       -2   -1    0    0    0  501  0.00000000000E+00  0.00000000000E+00 -0.41494611246E+03  0.41494611247E+03  0.25500000920E-02 0.  1.
    10030    2    1    2    0    0  0.00000000000E+00  0.00000000000E+00  0.76626887400E+03  0.15961610989E+04  0.14002007951E+04 0.  0.
        1    1    3    3  502    0 -0.20461699505E+03  0.63497778245E+03  0.62515790884E+03  0.91426872957E+03  0.50400001928E-02 0. -1.
       -1    1    3    3    0  502  0.20461699505E+03 -0.63497778245E+03  0.14111096517E+03  0.68189236936E+03  0.50400001928E-02 0.  1.
</event>
<event>
 5   0  0.2428507E-05  0.1399891E+04  0.7818609E-02  0.8953897E-01
       -1   -1    0    0    0  501  0.00000000000E+00  0.00000000000E+00  0.32189268048E+03  0.32189268052E+03  0.50400001928E-02 0.  1.
        1   -1    0    0  501    0  0.00000000000E+00  0.00000000000E+00 -0.15220096386E+04  0.15220096386E+04  0.50400001928E-02 0. -1.
    10030    2    1    2    0    0  0.00000000000E+00  0.00000000000E+00 -0.12001169581E+04  0.18439023191E+04  0.13998910848E+04 0.  0.
        4    1    3    3  502    0 -0.68475126142E+03  0.14479726238E+03 -0.58891201227E+03  0.91469640226E+03  0.12699999809E+01 0. -1.
       -4    1    3    3    0  502  0.68475126142E+03 -0.14479726238E+03 -0.61120494585E+03  0.92920591687E+03  0.12699999809E+01 0.  1.
</event>
<event>
 5   0  0.2316714E-05  0.1401169E+04  0.7818609E-02  0.8952973E-01
        1   -1    0    0  501    0  0.00000000000E+00  0.00000000000E+00  0.94298715679E+03  0.94298715680E+03  0.50400001928E-02 0.  1.
       -1   -1    0    0    0  501  0.00000000000E+00  0.00000000000E+00 -0.52049375432E+03  0.52049375435E+03  0.50400001928E-02 0. -1.
    10030    2    1    2    0    0  0.00000000000E+00  0.00000000000E+00  0.42249340247E+03  0.14634809112E+04  0.14011694052E+04 0.  0.
        5    1    3    3  502    0  0.12833355365E+03 -0.14261364965E+03  0.91499754569E+03  0.93490681497E+03  0.46999998093E+01 0.  1.
       -5    1    3    3    0  502 -0.12833355365E+03  0.14261364965E+03 -0.49250414322E+03  0.52857409618E+03  0.46999998093E+01 0. -1.
</event>
<event>
 5   0  0.2363419E-05  0.1400311E+04  0.7818609E-02  0.8953593E-01
        1   -1    0    0  501    0  0.00000000000E+00  0.00000000000E+00  0.62435803589E+03  0.62435803591E+03  0.50400001928E-02 0. -1.
       -1   -1    0    0    0  501  0.00000000000E+00  0.00000000000E+00 -0.78515526534E+03  0.78515526535E+03  0.50400001928E-02 0.  1.
    10030    2    1    2    0    0  0.00000000000E+00  0.00000000000E+00 -0.16079722945E+03  0.14095133013E+04  0.14003113930E+04 0.  0.
        2    1    3    3  502    0  0.14646576707E+03 -0.63248462493E+03 -0.34428348947E+03  0.73486062816E+03  0.25500000920E-02 0.  1.
       -2    1    3    3    0  502 -0.14646576707E+03  0.63248462493E+03  0.18348626002E+03  0.67465267310E+03  0.25500000920E-02 0. -1.
</event>
<event>
 5   0  0.2363419E-05  0.1399743E+04  0.7818609E-02  0.8954005E-01
        1   -1    0    0  501    0  0.00000000000E+00  0.00000000000E+00  0.76600344940E+03  0.76600344942E+03  0.50400001928E-02 0. -1.
       -1   -1    0    0    0  501  0.00000000000E+00  0.00000000000E+00 -0.63944872748E+03  0.63944872750E+03  0.50400001928E-02 0.  1.
    10030    2    1    2    0    0  0.00000000000E+00  0.00000000000E+00  0.12655472192E+03  0.14054521769E+04  0.13997427349E+04 0.  0.
        2    1    3    3  502    0 -0.40937607610E+03  0.43381627417E+01 -0.50667549564E+03  0.65140436691E+03  0.25500000920E-02 0.  1.
       -2    1    3    3    0  502  0.40937607610E+03 -0.43381627417E+01  0.63323021756E+03  0.75404781001E+03  0.25500000920E-02 0. -1.
</event>
<event>
 5   0  0.2316714E-05  0.1397101E+04  0.7818609E-02  0.8955920E-01
       -1   -1    0    0    0  501  0.00000000000E+00  0.00000000000E+00  0.35752961340E+03  0.35752961343E+03  0.50400001928E-02 0. -1.
        1   -1    0    0  501    0  0.00000000000E+00  0.00000000000E+00 -0.13648458932E+04  0.13648458932E+04  0.50400001928E-02 0.  1.
    10030    2    1    2    0    0  0.00000000000E+00  0.00000000000E+00 -0.10073162798E+04  0.17223755066E+04  0.13971010337E+04 0.  0.
        5    1    3    3  502    0  0.94095403688E+02  0.29404787968E+03  0.26883249613E+03  0.40940334820E+03  0.46999998093E+01 0. -1.
       -5    1    3    3    0  502 -0.94095403688E+02 -0.29404787968E+03 -0.12761487759E+04  0.13129721584E+04  0.46999998093E+01 0.  1.
</event>
<event>
 5   0  0.4243281E-05  0.1400204E+04  0.7818609E-02  0.8953671E-01
       -2   -1    0    0    0  501  0.00000000000E+00  0.00000000000E+00  0.79309947366E+03  0.79309947366E+03  0.25500000920E-02 0. -1.
        2   -1    0    0  501    0  0.00000000000E+00  0.00000000000E+00 -0.61800894473E+03  0.61800894473E+03  0.25500000920E-02 0.  1.
    10030    2    1    2    0    0  0.00000000000E+00  0.00000000000E+00  0.17509052893E+03  0.14111084184E+04  0.14002036549E+04 0.  0.
        2    1    3    3  502    0 -0.18871111418E+03 -0.46447643732E+03  0.58001478461E+03  0.76665989579E+03  0.25500000920E-02 0. -1.
       -2    1    3    3    0  502  0.18871111418E+03  0.46447643732E+03 -0.40492425568E+03  0.64444852260E+03  0.25500000920E-02 0.  1.
</event>
<event>
 5   0  0.2427569E-05  0.1399249E+04  0.7818609E-02  0.8954362E-01
        1   -1    0    0  501    0  0.00000000000E+00  0.00000000000E+00  0.42496828445E+03  0.42496828448E+03  0.50400001928E-02 0.  1.
       -1   -1    0    0    0  501  0.00000000000E+00  0.00000000000E+00 -0.11517908079E+04  0.11517908079E+04  0.50400001928E-02 0. -1.
    10030    2    1    2    0    0  0.00000000000E+00  0.00000000000E+00 -0.72682252342E+03  0.15767590924E+04  0.13992491754E+04 0.  0.
        1    1    3    3  502    0 -0.37147573611E+03 -0.27255568006E+03 -0.95669438627E+03  0.10618592044E+04  0.50400001928E-02 0. -1.
       -1    1    3    3    0  502  0.37147573611E+03  0.27255568006E+03  0.22987186285E+03  0.51489988795E+03  0.50400001928E-02 0.  1.
</event>
<event>
 5   0  0.2427569E-05  0.1400232E+04  0.7818609E-02  0.8953651E-01
        1   -1    0    0  501    0  0.00000000000E+00  0.00000000000E+00  0.63394892579E+03  0.63394892581E+03  0.50400001928E-02 0.  1.
       -1   -1    0    0    0  501  0.00000000000E+00  0.00000000000E+00 -0.77318884386E+03  0.77318884388E+03  0.50400001928E-02 0. -1.
    10030    2    1    2    0    0  0.00000000000E+00  0.00000000000E+00 -0.13923991807E+03  0.14071377697E+04  0.14002317480E+04 0.  0.
        1    1    3    3  502    0 -0.38631470671E+03  0.57143249433E+03  0.50922002589E+02  0.69164094628E+03  0.50400001928E-02 0.  1.
       -1    1    3    3    0  502  0.38631470671E+03 -0.57143249433E+03 -0.19016192066E+03  0.71549682340E+03  0.50400001928E-02 0. -1.
</event>
<event>
 5   0  0.2427569E-05  0.1399317E+04  0.7818609E-02  0.8954313E-01
       -1   -1    0    0    0  501  0.00000000000E+00  0.00000000000E+00  0.91561928823E+03  0.91561928824E+03  0.50400001928E-02 0.  1.
        1   -1    0    0  501    0  0.00000000000E+00  0.00000000000E+00 -0.53463485976E+03  0.53463485979E+03  0.50400001928E-02 0. -1.
    10030    2    1    2    0    0  0.00000000000E+00  0.00000000000E+00  0.38098442847E+03  0.14502541480E+04  0.13993169616E+04 0.  0.
        1    1    3    3  502    0  0.43187621089E+03  0.38163723239E+03  0.60161577294E+03  0.83312998803E+03  0.50400001928E-02 0.  1.
       -1    1    3    3    0  502 -0.43187621089E+03 -0.38163723239E+03 -0.22063134447E+03  0.61712416001E+03  0.50400001928E-02 0. -1.
</event>
<event>
 5   0  0.4527503E-05  0.1401997E+04  0.7818609E-02  0.8952375E-01
       -2   -1    0    0    0  501  0.00000000000E+00  0.00000000000E+00  0.79627477666E+03  0.79627477667E+03  0.25500000920E-02 0. -1.
        2   -1    0    0  501    0  0.00000000000E+00  0.00000000000E+00 -0.61712196241E+03  0.61712196241E+03  0.25500000920E-02 0.  1.
    10030    2    1    2    0    0  0.00000000000E+00  0.00000000000E+00  0.17915281425E+03  0.14133967391E+04  0.14019966516E+04 0.  0.
        4    1    3    3  502    0  0.46969199765E+02  0.66761767156E+03  0.29978467034E+03  0.73334297745E+03  0.12699999809E+01 0. -1.
       -4    1    3    3    0  502 -0.46969199765E+02 -0.66761767156E+03 -0.12063185609E+03  0.68005376163E+03  0.12699999809E+01 0.  1.
</event>
<event>
 5   0  0.2467303E-05  0.1400409E+04  0.7818609E-02  0.8953523E-01
        1   -1    0    0  501    0  0.00000000000E+00  0.00000000000E+00  0.13132459139E+04  0.13132459139E+04  0.50400001928E-02 0.  1.
       -1   -1    0    0    0  501  0.00000000000E+00  0.00000000000E+00 -0.37333914322E+03  0.37333914325E+03  0.50400001928E-02 0. -1.
    10030    2    1    2    0    0  0.00000000000E+00  0.00000000000E+00  0.93990677069E+03  0.16865850572E+04  0.14004086609E+04 0.  0.
        3    1    3    3  502    0  0.16577024779E+03  0.64867990917E+03  0.71683291056E+03  0.98087452382E+03  0.10100000352E+00 0.  1.
       -3    1    3    3    0  502 -0.16577024779E+03 -0.64867990917E+03  0.22307386014E+03  0.70571053336E+03  0.10100000352E+00 0. -1.
</event>
<event>
 5   0  0.4527503E-05  0.1399035E+04  0.7818609E-02  0.8954517E-01
       -2   -1    0    0    0  501  0.00000000000E+00  0.00000000000E+00  0.37785702087E+03  0.37785702088E+03  0.25500000920E-02 0. -1.
        2   -1    0    0  501    0  0.00000000000E+00  0.00000000000E+00 -0.12950003820E+04  0.12950003820E+04  0.25500000920E-02 0.  1.
    10030    2    1    2    0    0  0.00000000000E+00  0.00000000000E+00 -0.91714336116E+03  0.16728574029E+04  0.13990353625E+04 0.  0.
        4    1    3    3  502    0  0.32851422247E+03 -0.54467293424E+03 -0.11050939512E+03  0.64560370118E+03  0.12699999809E+01 0. -1.
       -4    1    3    3    0  502 -0.32851422247E+03  0.54467293424E+03 -0.80663396603E+03  0.10272537017E+04  0.12699999809E+01 0.  1.
</event>
<event>
 5   0  0.4441253E-05  0.1399844E+04  0.7818609E-02  0.8953932E-01
       -2   -1    0    0    0  501  0.00000000000E+00  0.00000000000E+00  0.85733732506E+03  0.85733732506E+03  0.25500000920E-02 0.  1.
        2   -1    0    0  501    0  0.00000000000E+00  0.00000000000E+00 -0.57140923476E+03  0.57140923476E+03  0.25500000920E-02 0. -1.
    10030    2    1    2    0    0  0.00000000000E+00  0.00000000000E+00  0.28592809030E+03  0.14287465598E+04  0.13998435125E+04 0.  0.
        3    1    3    3  502    0 -0.32661285444E+03  0.88035538355E+02  0.76836710250E+03  0.83953214775E+03  0.10100000352E+00 0.  1.
       -3    1    3    3    0  502  0.32661285444E+03 -0.88035538355E+02 -0.48243901220E+03  0.58921441207E+03  0.10100000352E+00 0. -1.
</event>
<event>
 5   0  0.4460282E-05  0.1400101E+04  0.7818609E-02  0.8953746E-01
        2   -1    0    0  501    0  0.00000000000E+00  0.00000000000E+00  0.57126878708E+03  0.57126878709E+03  0.25500000920E-02 0. -1.
       -2   -1    0    0    0  501  0.00000000000E+00  0.00000000000E+00 -0.85786316865E+03  0.85786316865E+03  0.25500000920E-02 0.  1.
    10030    2    1    2    0    0  0.00000000000E+00  0.00000000000E+00 -0.28659438156E+03  0.14291319557E+04  0.14001006419E+04 0.  0.
        1    1    3    3  502    0 -0.23433411418E+03  0.65425366319E+03 -0.22936713248E+03  0.73182621868E+03  0.50400001928E-02 0.  1.
       -1    1    3    3    0  502  0.23433411418E+03 -0.65425366319E+03 -0.57227249081E+02  0.69730573705E+03  0.50400001928E-02 0. -1.
</event>
<event>
 5   0  0.4527503E-05  0.1399407E+04  0.7818609E-02  0.8954248E-01
       -2   -1    0    0    0  501  0.00000000000E+00  0.00000000000E+00  0.42082641665E+03  0.42082641665E+03  0.25500000920E-02 0.  1.
        2   -1    0    0  501    0  0.00000000000E+00  0.00000000000E+00 -0.11633896330E+04  0.11633896330E+04  0.25500000920E-02 0. -1.
    10030    2    1    2    0    0  0.00000000000E+00  0.00000000000E+00 -0.74256321631E+03  0.15842160496E+04  0.13994071465E+04 0.  0.
        4    1    3    3  502    0  0.25733779741E+03 -0.25082637020E+03  0.30837719937E+03  0.47353428593E+03  0.12699999809E+01 0.  1.
       -4    1    3    3    0  502 -0.25733779741E+03  0.25082637020E+03 -0.10509404157E+04  0.11106817637E+04  0.12699999809E+01 0. -1.
</event>
<event>
 5   0  0.2467303E-05  0.1399659E+04  0.7818609E-02  0.8954066E-01
        1   -1    0    0  501    0  0.00000000000E+00  0.00000000000E+00  0.10421372920E+04  0.10421372920E+04  0.50400001928E-02 0. -1.
       -1   -1    0    0    0  501  0.00000000000E+00  0.00000000000E+00 -0.46995830608E+03  0.46995830610E+03  0.50400001928E-02 0.  1.
    10030    2    1    2    0    0  0.00000000000E+00  0.00000000000E+00  0.57217898590E+03  0.15120955981E+04  0.13996586391E+04 0.  0.
        3    1    3    3  502    0  0.51723364747E+02  0.54568946540E+03  0.75613779006E+03  0.93391469999E+03  0.10100000352E+00 0. -1.
       -3    1    3    3    0  502 -0.51723364747E+02 -0.54568946540E+03 -0.18395880415E+03  0.57818089811E+03  0.10100000352E+00 0.  1.
</event>
<event>
 5   0  0.4441253E-05  0.1400109E+04  0.7818609E-02  0.8953739E-01
        2   -1    0    0  501    0  0.00000000000E+00  0.00000000000E+00  0.16058110850E+04  0.16058110850E+04  0.25500000920E-02 0.  1.
       -2   -1    0    0    0  501  0.00000000000E+00  0.00000000000E+00 -0.30518936998E+03  0.30518936999E+03  0.25500000920E-02 0. -1.
    10030    2    1    2    0    0  0.00000000000E+00  0.00000000000E+00  0.13006217151E+04  0.19110004550E+04  0.14001092434E+04 0.  0.
        3    1    3    3  502    0 -0.26655502568E+03 -0.90628208282E+02  0.15251337033E+04  0.15509022783E+04  0.10100000352E+00 0.  1.
       -3    1    3    3    0  502  0.26655502568E+03  0.90628208282E+02 -0.22451198818E+03  0.36009817673E+03  0.10100000352E+00 0. -1.
</event>
<event>
 5   0  0.2467303E-05  0.1399936E+04  0.7818609E-02  0.8953865E-01
        1   -1    0    0  501    0  0.00000000000E+00  0.00000000000E+00  0.73960875649E+03  0.73960875650E+03  0.50400001928E-02 0. -1.
       -1   -1    0    0    0  501  0.00000000000E+00  0.00000000000E+00 -0.66245217285E+03  0.66245217287E+03  0.50400001928E-02 0.  1.
    10030    2    1    2    0    0  0.00000000000E+00  0.00000000000E+00  0.77156583636E+02  0.14020609294E+04  0.13999363240E+04 0.  0.
        3    1    3    3  502    0  0.15290397795E+03  0.26775211097E+03 -0.59077383255E+03  0.66639669179E+03  0.10100000352E+00 0.  1.
       -3    1    3    3    0  502 -0.15290397795E+03 -0.26775211097E+03  0.66793041618E+03  0.73566423759E+03  0.10100000352E+00 0. -1.
</event>
<event>
 5   0  0.4527503E-05  0.1400118E+04  0.7818609E-02  0.8953733E-01
       -2   -1    0    0    0  501  0.00000000000E+00  0.00000000000E+00  0.73678655114E+03  0.73678655114E+03  0.25500000920E-02 0. -1.
        2   -1    0    0  501    0  0.00000000000E+00  0.00000000000E+00 -0.66516226597E+03  0.66516226598E+03  0.25500000920E-02 0.  1.
    10030    2    1    2    0    0  0.00000000000E+00  0.00000000000E+00  0.71624285169E+02  0.14019488171E+04  0.14001180120E+04 0.  0.
        4    1    3    3  502    0 -0.13171975365E+02 -0.48366940048E+03  0.54240987960E+03  0.72685602445E+03  0.12699999809E+01 0. -1.
       -4    1    3    3    0  502  0.13171975365E+02  0.48366940048E+03 -0.47078559443E+03  0.67509279267E+03  0.12699999809E+01 0.  1.
</event>
<event>
 5   0  0.4243281E-05  0.1401765E+04  0.7818609E-02  0.8952542E-01
       -2   -1    0    0    0  501  0.00000000000E+00  0.00000000000E+00  0.64825896034E+03  0.64825896035E+03  0.25500000920E-02 0.  1.
        2   -1    0    0  501    0  0.00000000000E+00  0.00000000000E+00 -0.75777739997E+03  0.75777739997E+03  0.25500000920E-02 0. -1.
    10030    2    1    2    0    0  0.00000000000E+00  0.00000000000E+00 -0.10951843963E+03  0.14060363603E+04  0.14017645872E+04 0.  0.
        2    1    3    3  502    0 -0.48632982501E+03 -0.11657930914E+03  0.43778563843E+03  0.66465306682E+03  0.25500000920E-02 0.  1.
       -2    1    3    3    0  502  0.48632982501E+03  0.11657930914E+03 -0.54730407806E+03  0.74138329350E+03  0.25500000920E-02 0. -1.
</event>
<event>
 5   0  0.4460282E-05  0.1399639E+04  0.7818609E-02  0.8954080E-01
        2   -1    0    0  501    0  0.00000000000E+00  0.00000000000E+00  0.12147717132E+04  0.12147717132E+04  0.25500000920E-02 0. -1.
       -2   -1    0    0    0  501  0.00000000000E+00  0.00000000000E+00 -0.40315986137E+03  0.40315986138E+03  0.25500000920E-02 0.  1.
    10030    2    1    2    0    0  0.00000000000E+00  0.00000000000E+00  0.81161185180E+03  0.16179315746E+04  0.13996388041E+04 0.  0.
        1    1    3    3  502    0 -0.56178507589E+03 -0.60417646925E+02 -0.71502692407E+02  0.56953085833E+03  0.50400001928E-02 0.  1.
       -1    1    3    3    0  502  0.56178507589E+03  0.60417646925E+02  0.88311454421E+03  0.10484007162E+04  0.50400001928E-02 0. -1.
</event>
<event>
 5   0  0.4441253E-05  0.1399539E+04  0.7818609E-02  0.8954152E-01
       -2   -1    0    0    0  501  0.00000000000E+00  0.00000000000E+00  0.11283969426E+04  0.11283969426E+04  0.25500000920E-02 0. -1.
        2   -1    0    0  501    0  0.00000000000E+00  0.00000000000E+00 -0.43395862493E+03  0.43395862493E+03  0.25500000920E-02 0.  1.
    10030    2    1    2    0    0  0.00000000000E+00  0.00000000000E+00  0.69443831764E+03  0.15623555675E+04  0.13995393322E+04 0.  0.
        3    1    3    3  502    0  0.14091167419E+03 -0.21556707085E+03  0.10735688225E+04  0.11040268515E+04  0.10100000352E+00 0. -1.
       -3    1    3    3    0  502 -0.14091167419E+03  0.21556707085E+03 -0.37913050489E+03  0.45832871599E+03  0.10100000352E+00 0.  1.
</event>
<event>
 5   0  0.4243281E-05  0.1400447E+04  0.7818609E-02  0.8953495E-01
        2   -1    0    0  501    0  0.00000000000E+00  0.00000000000E+00  0.60399063107E+03  0.60399063107E+03  0.25500000920E-02 0.  1.
       -2   -1    0    0    0  501  0.00000000000E+00  0.00000000000E+00 -0.81178936971E+03  0.81178936971E+03  0.25500000920E-02 0. -1.
    10030    2    1    2    0    0  0.00000000000E+00  0.00000000000E+00 -0.20779873864E+03  0.14157800008E+04  0.14004473196E+04 0.  0.
        2    1    3    3  502    0  0.27060953181E+03 -0.53207050007E+03  0.26614730040E+03  0.65357702015E+03  0.25500000920E-02 0.  1.
       -2    1    3    3    0  502 -0.27060953181E+03  0.53207050007E+03 -0.47394603905E+03  0.76220298063E+03  0.25500000920E-02 0. -1.
</event>
<event>
 5   0  0.2363419E-05  0.1395007E+04  0.7818609E-02  0.8957441E-01
       -1   -1    0    0    0  501  0.00000000000E+00  0.00000000000E+00  0.32444227602E+03  0.32444227606E+03  0.50400001928E-02 0.  1.
        1   -1    0    0  501    0  0.00000000000E+00  0.00000000000E+00 -0.14995304581E+04  0.14995304582E+04  0.50400001928E-02 0. -1.
    10030    2    1    2    0    0  0.00000000000E+00  0.00000000000E+00 -0.11750881821E+04  0.18239727342E+04  0.13950069173E+04 0.  0.
        2    1    3    3  502    0 -0.46927930269E+03 -0.41845636234E+03 -0.19272584629E+03  0.65762606620E+03  0.25500000920E-02 0.  1.
       -2    1    3    3    0  502  0.46927930269E+03  0.41845636234E+03 -0.98236233583E+03  0.11663466680E+04  0.25500000920E-02 0. -1.
</event>
<event>
 5   0  0.2363419E-05  0.1400987E+04  0.7818609E-02  0.8953104E-01
        1   -1    0    0  501    0  0.00000000000E+00  0.00000000000E+00  0.84172718785E+03  0.84172718786E+03  0.50400001928E-02 0.  1.
       -1   -1    0    0    0  501  0.00000000000E+00  0.00000000000E+00 -0.58295746359E+03  0.58295746361E+03  0.50400001928E-02 0. -1.
    10030    2    1    2    0    0  0.00000000000E+00  0.00000000000E+00  0.25876972426E+03  0.14246846515E+04  0.14009870042E+04 0.  0.
        2    1    3    3  502    0 -0.71035685132E+02 -0.66475758504E+03 -0.83299763355E+02  0.67371178260E+03  0.25500000920E-02 0.  1.
       -2    1    3    3    0  502  0.71035685132E+02  0.66475758504E+03  0.34206948762E+03  0.75097286888E+03  0.25500000920E-02 0. -1.
</event>
<event>
 5   0  0.2428507E-05  0.1399619E+04  0.7818609E-02  0.8954095E-01
        1   -1    0    0  501    0  0.00000000000E+00  0.00000000000E+00  0.34889256053E+03  0.34889256057E+03  0.50400001928E-02 0.  1.
       -1   -1    0    0    0  501  0.00000000000E+00  0.00000000000E+00 -0.14036790403E+04  0.14036790403E+04  0.50400001928E-02 0. -1.
    10030    2    1    2    0    0  0.00000000000E+00  0.00000000000E+00 -0.10547864798E+04  0.17525716009E+04  0.13996187689E+04 0.  0.
        4    1    3    3  502    0  0.52890663244E+03  0.56751365255E+02  0.41994779929E+02  0.53359921078E+03  0.12699999809E+01 0.  1.
       -4    1    3    3    0  502 -0.52890663244E+03 -0.56751365255E+02 -0.10967812597E+04  0.12189723901E+04  0.12699999809E+01 0. -1.
</event>
<event>
 5   0  0.2316714E-05  0.1400404E+04  0.7818609E-02  0.8953526E-01
       -1   -1    0    0    0  501  0.00000000000E+00  0.00000000000E+00  0.11075681536E+04  0.11075681536E+04  0.50400001928E-02 0. -1.
        1   -1    0    0  501    0  0.00000000000E+00  0.00000000000E+00 -0.44266627706E+03  0.44266627709E+03  0.50400001928E-02 0.  1.
    10030    2    1    2    0    0  0.00000000000E+00  0.00000000000E+00  0.66490187655E+03  0.15502344307E+04  0.14004043290E+04 0.  0.
        5    1    3    3  502    0  0.63305163219E+03  0.22335981791E+03  0.11211530006E+03  0.68061436055E+03  0.46999998093E+01 0.  1.
       -5    1    3    3    0  502 -0.63305163219E+03 -0.22335981791E+03  0.55278657650E+03  0.86962007016E+03  0.46999998093E+01 0. -1.
</event>
<event>
 5   0  0.2316714E-05  0.1398652E+04  0.7818609E-02  0.8954795E-01
        1   -1    0    0  501    0  0.00000000000E+00  0.00000000000E+00  0.51418878421E+03  0.51418878423E+03  0.50400001928E-02 0.  1.
       -1   -1    0    0    0  501  0.00000000000E+00  0.00000000000E+00 -0.95112341847E+03  0.95112341849E+03  0.50400001928E-02 0. -1.
    10030    2    1    2    0    0  0.00000000000E+00  0.00000000000E+00 -0.43693463427E+03  0.14653122027E+04  0.13986522001E+04 0.  0.
        5    1    3    3  502    0 -0.17655934526E+03  0.39310699046E+03 -0.79546904124E+03  0.90470956330E+03  0.46999998093E+01 0. -1.
       -5    1    3    3    0  502  0.17655934526E+03 -0.39310699046E+03  0.35853440697E+03  0.56060263943E+03  0.46999998093E+01 0.  1.
</event>
<event>
 5   0  0.4441253E-05  0.1399984E+04  0.7818609E-02  0.8953830E-01
       -2   -1    0    0    0  501  0.00000000000E+00  0.00000000000E+00  0.41434408524E+03  0.41434408525E+03  0.25500000920E-02 0.  1.
        2   -1    0    0  501    0  0.00000000000E+00  0.00000000000E+00 -0.11825655778E+04  0.11825655778E+04  0.25500000920E-02 0. -1.
    10030    2    1    2    0    0  0.00000000000E+00  0.00000000000E+00 -0.76822149258E+03  0.15969096631E+04  0.13999843607E+04 0.  0.
        3    1    3    3  502    0  0.34650319919E+03  0.41454186965E+03 -0.89177554986E+03  0.10426759181E+04  0.10100000352E+00 0. -1.
       -3    1    3    3    0  502 -0.34650319919E+03 -0.41454186965E+03  0.12355405728E+03  0.55423374493E+03  0.10100000352E+00 0.  1.
</event>
<event>
 5   0  0.4441253E-05  0.1400042E+04  0.7818609E-02  0.8953788E-01
        2   -1    0    0  501    0  0.00000000000E+00  0.00000000000E+00  0.60393654367E+03  0.60393654367E+03  0.25500000920E-02 0.  1.
       -2   -1    0    0    0  501  0.00000000000E+00  0.00000000000E+00 -0.81139180831E+03  0.81139180831E+03  0.25500000920E-02 0. -1.
    10030    2    1    2    0    0  0.00000000000E+00  0.00000000000E+00 -0.20745526464E+03  0.14153283520E+04  0.14000416626E+04 0.  0.
        3    1    3    3  502    0 -0.42970429987E+02  0.23863072595E+03  0.56012975930E+03  0.61035763178E+03  0.10100000352E+00 0.  1.
       -3    1    3    3    0  502  0.42970429987E+02 -0.23863072595E+03 -0.76758502393E+03  0.80497072021E+03  0.10100000352E+00 0. -1.
</event>
<event>
 5   0  0.2316714E-05  0.1400011E+04  0.7818609E-02  0.8953811E-01
        1   -1    0    0  501    0  0.00000000000E+00  0.00000000000E+00  0.71901436690E+03  0.71901436692E+03  0.50400001928E-02 0. -1.
       -1   -1    0    0    0  501  0.00000000000E+00  0.00000000000E+00 -0.68149905034E+03  0.68149905036E+03  0.50400001928E-02 0.  1.
    10030    2    1    2    0    0  0.00000000000E+00  0.00000000000E+00  0.37515316558E+02  0.14005134173E+04  0.14000108689E+04 0.  0.
        5    1    3    3  502    0  0.46878406948E+03  0.33734317024E+03  0.41440765764E+03  0.71085491840E+03  0.46999998093E+01 0. -1.
       -5    1    3    3    0  502 -0.46878406948E+03 -0.33734317024E+03 -0.37689234108E+03  0.68965849888E+03  0.46999998093E+01 0.  1.
</event>
<event>
 5   0  0.4460282E-05  0.1399983E+04  0.7818609E-02  0.8953831E-01
        2   -1    0    0  501    0  0.00000000000E+00  0.00000000000E+00  0.15901586031E+04  0.15901586031E+04  0.25500000920E-02 0. -1.
       -2   -1    0    0    0  501  0.00000000000E+00  0.00000000000E+00 -0.30813767008E+03  0.30813767009E+03  0.25500000920E-02 0.  1.
    10030    2    1    2    0    0  0.00000000000E+00  0.00000000000E+00  0.12820209330E+04  0.18982962731E+04  0.13999825242E+04 0.  0.
        1    1    3    3  502    0  0.35225483349E+03  0.53579490706E+03  0.10217096597E+04  0.12062546493E+04  0.50400001928E-02 0. -1.
       -1    1    3    3    0  502 -0.35225483349E+03 -0.53579490706E+03  0.26031127326E+03  0.69204162386E+03  0.50400001928E-02 0.  1.
</event>
<event>
 5   0  0.2363419E-05  0.1400200E+04  0.7818609E-02  0.8953674E-01
       -1   -1    0    0    0  501  0.00000000000E+00  0.00000000000E+00  0.38419525031E+03  0.38419525035E+03  0.50400001928E-02 0.  1.
        1   -1    0    0  501    0  0.00000000000E+00  0.00000000000E+00 -0.12757580841E+04  0.12757580842E+04  0.50400001928E-02 0. -1.
    10030    2    1    2    0    0  0.00000000000E+00  0.00000000000E+00 -0.89156283383E+03  0.16599533345E+04  0.14002002664E+04 0.  0.
        2    1    3    3  502    0 -0.50295010401E+03 -0.47441708977E+03 -0.57624054309E+03  0.90004641308E+03  0.25500000920E-02 0.  1.
       -2    1    3    3    0  502  0.50295010401E+03  0.47441708977E+03 -0.31532229074E+03  0.75990692142E+03  0.25500000920E-02 0. -1.
</event>
<event>
 5   0  0.4441253E-05  0.1400347E+04  0.7818609E-02  0.8953567E-01
        2   -1    0    0  501    0  0.00000000000E+00  0.00000000000E+00  0.11253414254E+04  0.11253414254E+04  0.25500000920E-02 0. -1.
       -2   -1    0    0    0  501  0.00000000000E+00  0.00000000000E+00 -0.43563928969E+03  0.43563928969E+03  0.25500000920E-02 0.  1.
    10030    2    1    2    0    0  0.00000000000E+00  0.00000000000E+00  0.68970213571E+03  0.15609807151E+04  0.14003470130E+04 0.  0.
        3    1    3    3  502    0 -0.79932967339E+01  0.58897212820E+03 -0.77108778659E+02  0.59405204700E+03  0.10100000352E+00 0.  1.
       -3    1    3    3    0  502  0.79932967339E+01 -0.58897212820E+03  0.76681091437E+03  0.96692866810E+03  0.10100000352E+00 0. -1.
</event>
<event>
 5   0  0.4527503E-05  0.1397613E+04  0.7818609E-02  0.8955548E-01
        2   -1    0    0  501    0  0.00000000000E+00  0.00000000000E+00  0.11590166658E+04  0.11590166658E+04  0.25500000920E-02 0. -1.
       -2   -1    0    0    0  501  0.00000000000E+00  0.00000000000E+00 -0.42133186507E+03  0.42133186508E+03  0.25500000920E-02 0.  1.
    10030    2    1    2    0    0  0.00000000000E+00  0.00000000000E+00  0.73768480074E+03  0.15803485309E+04  0.13976131846E+04 0.  0.
        4    1    3    3  502    0  0.21278684058E+03 -0.55086608971E+03 -0.53635969353E+02  0.59296721530E+03  0.12699999809E+01 0.  1.
       -4    1    3    3    0  502 -0.21278684058E+03  0.55086608971E+03  0.79132077010E+03  0.98738131560E+03  0.12699999809E+01 0. -1.
</event>
<event>
 5   0  0.4621450E-05  0.1399999E+04  0.7818609E-02  0.8953819E-01
       -2   -1    0    0    0  501  0.00000000000E+00  0.00000000000E+00  0.89475527518E+03  0.89475527518E+03  0.25500000920E-02 0.  1.
        2   -1    0    0  501    0  0.00000000000E+00  0.00000000000E+00 -0.54763529005E+03  0.54763529006E+03  0.25500000920E-02 0. -1.
    10030    2    1    2    0    0  0.00000000000E+00  0.00000000000E+00  0.34711998512E+03  0.14423905652E+04  0.13999993781E+04 0.  0.
        5    1    3    3  502    0  0.13785550960E+03  0.39882485293E+03  0.74896166591E+03  0.85966916418E+03  0.46999998093E+01 0.  1.
       -5    1    3    3    0  502 -0.13785550960E+03 -0.39882485293E+03 -0.40184168078E+03  0.58272140106E+03  0.46999998093E+01 0. -1.
</event>
<event>
 5   0  0.2427569E-05  0.1399921E+04  0.7818609E-02  0.8953876E-01
       -1   -1    0    0    0  501  0.00000000000E+00  0.00000000000E+00  0.89411409775E+03  0.89411409776E+03  0.50400001928E-02 0. -1.
        1   -1    0    0  501    0  0.00000000000E+00  0.00000000000E+00 -0.54796682411E+03  0.54796682413E+03  0.50400001928E-02 0.  1.
    10030    2    1    2    0    0  0.00000000000E+00  0.00000000000E+00  0.34614727364E+03  0.14420809219E+04  0.13999212300E+04 0.  0.
        1    1    3    3  502    0  0.63453381015E+03  0.29488798928E+03  0.19242172527E+03  0.72568464420E+03  0.50400001928E-02 0.  1.
       -1    1    3    3    0  502 -0.63453381015E+03 -0.29488798928E+03  0.15372554837E+03  0.71639627770E+03  0.50400001928E-02 0. -1.
</event>
<event>
 5   0  0.2467303E-05  0.1399872E+04  0.7818609E-02  0.8953911E-01
       -1   -1    0    0    0  501  0.00000000000E+00  0.00000000000E+00  0.46376140153E+03  0.46376140155E+03  0.50400001928E-02 0. -1.
        1   -1    0    0  501    0  0.00000000000E+00  0.00000000000E+00 -0.10563840769E+04  0.10563840769E+04  0.50400001928E-02 0.  1.
    10030    2    1    2    0    0  0.00000000000E+00  0.00000000000E+00 -0.59262267540E+03  0.15201454785E+04  0.13998716514E+04 0.  0.
        3    1    3    3  502    0 -0.61780064523E+03 -0.79795572976E+02  0.50273700005E+02  0.62495793925E+03  0.10100000352E+00 0. -1.
       -3    1    3    3    0  502  0.61780064523E+03  0.79795572976E+02 -0.64289637540E+03  0.89518753925E+03  0.10100000352E+00 0.  1.
</event>
<event>
 5   0  0.2428507E-05  0.1399756E+04  0.7818609E-02  0.8953996E-01
        1   -1    0    0  501    0  0.00000000000E+00  0.00000000000E+00  0.11287974944E+04  0.11287974944E+04  0.50400001928E-02 0.  1.
       -1   -1    0    0    0  501  0.00000000000E+00  0.00000000000E+00 -0.43393866979E+03  0.43393866982E+03  0.50400001928E-02 0. -1.
    10030    2    1    2    0    0  0.00000000000E+00  0.00000000000E+00  0.69485882458E+03  0.15627361642E+04  0.13997555261E+04 0.  0.
        4    1    3    3  502    0 -0.51811895652E+02  0.54720414888E+03  0.83113116304E+03  0.99644240986E+03  0.12699999809E+01 0.  1.
       -4    1    3    3    0  502  0.51811895652E+02 -0.54720414888E+03 -0.13627233846E+03  0.56629375435E+03  0.12699999809E+01 0. -1.
</event>
<event>
 5   0  0.2316714E-05  0.1400380E+04  0.7818609E-02  0.8953544E-01
        1   -1    0    0  501    0  0.00000000000E+00  0.00000000000E+00  0.16005159316E+04  0.16005159316E+04  0.50400001928E-02 0. -1.
       -1   -1    0    0    0  501  0.00000000000E+00  0.00000000000E+00 -0.30631748781E+03  0.30631748785E+03  0.50400001928E-02 0.  1.
    10030    2    1    2    0    0  0.00000000000E+00  0.00000000000E+00  0.12941984438E+04  0.19068334195E+04  0.14003799762E+04 0.  0.
        5    1    3    3  502    0  0.60950033493E+03  0.34447354772E+03  0.63409231748E+03  0.94458871497E+03  0.46999998093E+01 0. -1.
       -5    1    3    3    0  502 -0.60950033493E+03 -0.34447354772E+03  0.66010612632E+03  0.96224470451E+03  0.46999998093E+01 0.  1.
</event>
<event>
 5   0  0.4441253E-05  0.1400161E+04  0.7818609E-02  0.8953702E-01
        2   -1    0    0  501    0  0.00000000000E+00  0.00000000000E+00  0.16465198141E+04  0.16465198141E+04  0.25500000920E-02 0.  1.
       -2   -1    0    0    0  501  0.00000000000E+00  0.00000000000E+00 -0.29766583768E+03  0.29766583769E+03  0.25500000920E-02 0. -1.
    10030    2    1    2    0    0  0.00000000000E+00  0.00000000000E+00  0.13488539764E+04  0.19441856518E+04  0.14001609904E+04 0.  0.
        3    1    3    3  502    0  0.19188062800E+03  0.14026959776E+03  0.15887799769E+04  0.16064605693E+04  0.10100000352E+00 0.  1.
       -3    1    3    3    0  502 -0.19188062800E+03 -0.14026959776E+03 -0.23992600047E+03  0.33772508252E+03  0.10100000352E+00 0. -1.
</event>
<event>
 5   0  0.2363419E-05  0.1400304E+04  0.7818609E-02  0.8953599E-01
        1   -1    0    0  501    0  0.00000000000E+00  0.00000000000E+00  0.10401384266E+04  0.10401384266E+04  0.50400001928E-02 0. -1.
       -1   -1    0    0    0  501  0.00000000000E+00  0.00000000000E+00 -0.47129558586E+03  0.47129558589E+03  0.50400001928E-02 0.  1.
    10030    2    1    2    0    0  0.00000000000E+00  0.00000000000E+00  0.56884284076E+03  0.15114340125E+04  0.14003037516E+04 0.  0.
        2    1    3    3  502    0  0.53660879857E+03  0.24241255844E+03  0.69329832826E+03  0.90960179374E+03  0.25500000920E-02 0. -1.
       -2    1    3    3    0  502 -0.53660879857E+03 -0.24241255844E+03 -0.12445548750E+03  0.60183221878E+03  0.25500000920E-02 0.  1.
</event>
<event>
 5   0  0.2428507E-05  0.1399354E+04  0.7818609E-02  0.8954287E-01
        1   -1    0    0  501    0  0.00000000000E+00  0.00000000000E+00  0.72303371406E+03  0.72303371408E+03  0.50400001928E-02 0. -1.
       -1   -1    0    0    0  501  0.00000000000E+00  0.00000000000E+00 -0.67707444945E+03  0.67707444947E+03  0.50400001928E-02 0.  1.
    10030    2    1    2    0    0  0.00000000000E+00  0.00000000000E+00  0.45959264610E+02  0.14001081636E+04  0.13993536421E+04 0.  0.
        4    1    3    3  502    0  0.44397228395E+03  0.65836511839E+01  0.56400338708E+03  0.71781346248E+03  0.12699999809E+01 0. -1.
       -4    1    3    3    0  502 -0.44397228395E+03 -0.65836511839E+01 -0.51804412247E+03  0.68229470107E+03  0.12699999809E+01 0.  1.
</event>
<event>
 5   0  0.2467303E-05  0.1401112E+04  0.7818609E-02  0.8953014E-01
        1   -1    0    0  501    0  0.00000000000E+00  0.00000000000E+00  0.21047369255E+04  0.21047369255E+04  0.50400001928E-02 0. -1.
       -1   -1    0    0    0  501  0.00000000000E+00  0.00000000000E+00 -0.23317801533E+03  0.23317801538E+03  0.50400001928E-02 0.  1.
    10030    2    1    2    0    0  0.00000000000E+00  0.00000000000E+00  0.18715589102E+04  0.23379149409E+04  0.14011115290E+04 0.  0.
        3    1    3    3  502    0  0.67637867091E+02  0.37034573921E+03  0.19216009400E+04  0.19581320258E+04  0.10100000352E+00 0. -1.
       -3    1    3    3    0  502 -0.67637867091E+02 -0.37034573921E+03 -0.50042029871E+02  0.37978291506E+03  0.10100000352E+00 0.  1.
</event>
<event>
 5   0  0.2428507E-05  0.1399954E+04  0.7818609E-02  0.8953852E-01
        1   -1    0    0  501    0  0.00000000000E+00  0.00000000000E+00  0.75343275032E+03  0.75343275034E+03  0.50400001928E-02 0.  1.
       -1   -1    0    0    0  501  0.00000000000E+00  0.00000000000E+00 -0.65031350901E+03  0.65031350903E+03  0.50400001928E-02 0. -1.
    10030    2    1    2    0    0  0.00000000000E+00  0.00000000000E+00  0.10311924131E+03  0.14037462594E+04  0.13999535645E+04 0.  0.
        4    1    3    3  502    0  0.19597551109E+03 -0.17099201467E+03 -0.60006341597E+03  0.65400488233E+03  0.12699999809E+01 0. -1.
       -4    1    3    3    0  502 -0.19597551109E+03  0.17099201467E+03  0.70318265728E+03  0.74974137703E+03  0.12699999809E+01 0.  1.
</event>
<event>
 5   0  0.4243281E-05  0.1399617E+04  0.7818609E-02  0.8954096E-01
        2   -1    0    0  501    0  0.00000000000E+00  0.00000000000E+00  0.37007620822E+03  0.37007620823E+03  0.25500000920E-02 0. -1.
       -2   -1    0    0    0  501  0.00000000000E+00  0.00000000000E+00 -0.13233263443E+04  0.13233263443E+04  0.25500000920E-02 0.  1.
    10030    2    1    2    0    0  0.00000000000E+00  0.00000000000E+00 -0.95325013608E+03  0.16934025525E+04  0.13996165128E+04 0.  0.
        2    1    3    3  502    0  0.14064428631E+03 -0.35718436580E+02 -0.13049238720E+04  0.13129672249E+04  0.25500000920E-02 0.  1.
       -2    1    3    3    0  502 -0.14064428631E+03  0.35718436580E+02  0.35167373590E+03  0.38043532763E+03  0.25500000920E-02 0. -1.
</event>
<event>
 5   0  0.4621450E-05  0.1398292E+04  0.7818609E-02  0.8955056E-01
        2   -1    0    0  501    0  0.00000000000E+00  0.00000000000E+00  0.14483813714E+04  0.14483813714E+04  0.25500000920E-02 0. -1.
       -2   -1    0    0    0  501  0.00000000000E+00  0.00000000000E+00 -0.33748390864E+03  0.33748390865E+03  0.25500000920E-02 0.  1.
    10030    2    1    2    0    0  0.00000000000E+00  0.00000000000E+00  0.11108974628E+04  0.17858652800E+04  0.13982923964E+04 0.  0.
        5    1    3    3  502    0 -0.26916488544E+03  0.34963412466E+03 -0.13716404979E+03  0.46209287295E+03  0.46999998093E+01 0.  1.
       -5    1    3    3    0  502  0.26916488544E+03 -0.34963412466E+03  0.12480615125E+04  0.13237724071E+04  0.46999998093E+01 0. -1.
</event>
<event>
 5   0  0.4441253E-05  0.1403702E+04  0.7818609E-02  0.8951143E-01
        2   -1    0    0  501    0  0.00000000000E+00  0.00000000000E+00  0.89524639012E+03  0.89524639012E+03  0.25500000920E-02 0. -1.
       -2   -1    0    0    0  501  0.00000000000E+00  0.00000000000E+00 -0.55023369132E+03  0.55023369132E+03  0.25500000920E-02 0.  1.
    10030    2    1    2    0    0  0.00000000000E+00  0.00000000000E+00  0.34501269880E+03  0.14454800814E+04  0.14037018571E+04 0.  0.
        3    1    3    3  502    0  0.29589502527E+03  0.60636442081E+03 -0.26541886500E+02  0.67523044862E+03  0.10100000352E+00 0.  1.
       -3    1    3    3    0  502 -0.29589502527E+03 -0.60636442081E+03  0.37155458530E+03  0.77024963282E+03  0.10100000352E+00 0. -1.
</event>
<event>
 5   0  0.4621450E-05  0.1399700E+04  0.7818609E-02  0.8954036E-01
       -2   -1    0    0    0  501  0.00000000000E+00  0.00000000000E+00  0.78572021357E+03  0.78572021357E+03  0.25500000920E-02 0. -1.
        2   -1    0    0  501    0  0.00000000000E+00  0.00000000000E+00 -0.62336401952E+03  0.62336401952E+03  0.25500000920E-02 0.  1.
    10030    2    1    2    0    0  0.00000000000E+00  0.00000000000E+00  0.16235619405E+03  0.14090842331E+04  0.13996995543E+04 0.  0.
        5    1    3    3  502    0  0.14540999344E+02 -0.65250055809E+03 -0.17310046864E+03  0.67524386795E+03  0.46999998093E+01 0.  1.
       -5    1    3    3    0  502 -0.14540999344E+02  0.65250055809E+03  0.33545666269E+03  0.73384036514E+03  0.46999998093E+01 0. -1.
</event>
<event>
 5   0  0.2428507E-05  0.1400590E+04  0.7818609E-02  0.8953392E-01
        1   -1    0    0  501    0  0.00000000000E+00  0.00000000000E+00  0.95809921610E+03  0.95809921612E+03  0.50400001928E-02 0. -1.
       -1   -1    0    0    0  501  0.00000000000E+00  0.00000000000E+00 -0.51186039810E+03  0.51186039812E+03  0.50400001928E-02 0.  1.
    10030    2    1    2    0    0  0.00000000000E+00  0.00000000000E+00  0.44623881800E+03  0.14699596142E+04  0.14005899417E+04 0.  0.
        4    1    3    3  502    0  0.28435716130E+03 -0.63795310482E+03  0.16993123369E+03  0.71883335775E+03  0.12699999809E+01 0.  1.
       -4    1    3    3    0  502 -0.28435716130E+03  0.63795310482E+03  0.27630758432E+03  0.75112625649E+03  0.12699999809E+01 0. -1.
</event>
<event>
 5   0  0.2316714E-05  0.1400127E+04  0.7818609E-02  0.8953726E-01
       -1   -1    0    0    0  501  0.00000000000E+00  0.00000000000E+00  0.43338615205E+03  0.43338615208E+03  0.50400001928E-02 0. -1.
        1   -1    0    0  501    0  0.00000000000E+00  0.00000000000E+00 -0.11308369280E+04  0.11308369280E+04  0.50400001928E-02 0.  1.
    10030    2    1    2    0    0  0.00000000000E+00  0.00000000000E+00 -0.69745077596E+03  0.15642230801E+04  0.14001272297E+04 0.  0.
        5    1    3    3  502    0  0.50388403486E+03 -0.25878146161E+03  0.11082313984E+03  0.57720951463E+03  0.46999998093E+01 0. -1.
       -5    1    3    3    0  502 -0.50388403486E+03  0.25878146161E+03 -0.80827391580E+03  0.98701356547E+03  0.46999998093E+01 0.  1.
</event>
<event>
 5   0  0.2467303E-05  0.1401123E+04  0.7818609E-02  0.8953006E-01
        1   -1    0    0  501    0  0.00000000000E+00  0.00000000000E+00  0.11094454922E+04  0.11094454922E+04  0.50400001928E-02 0.  1.
       -1   -1    0    0    0  501  0.00000000000E+00  0.00000000000E+00 -0.44237066414E+03  0.44237066417E+03  0.50400001928E-02 0. -1.
    10030    2    1    2    0    0  0.00000000000E+00  0.00000000000E+00  0.66707482803E+03  0.15518161564E+04  0.14011226060E+04 0.  0.
        3    1    3    3  502    0  0.22199780381E+02  0.70019864716E+03  0.32922602070E+03  0.77405475171E+03  0.10100000352E+00 0.  1.
       -3    1    3    3    0  502 -0.22199780381E+02 -0.70019864716E+03  0.33784880734E+03  0.77776140465E+03  0.10100000352E+00 0. -1.
</event>
<event>
 5   0  0.2316714E-05  0.1400103E+04  0.7818609E-02  0.8953744E-01
       -1   -1    0    0    0  501  0.00000000000E+00  0.00000000000E+00  0.24629868692E+03  0.24629868697E+03  0.50400001928E-02 0. -1.
        1   -1    0    0  501    0  0.00000000000E+00  0.00000000000E+00 -0.19897479902E+04  0.19897479902E+04  0.50400001928E-02 0.  1.
    10030    2    1    2    0    0  0.00000000000E+00  0.00000000000E+00 -0.17434493033E+04  0.22360466772E+04  0.14001033067E+04 0.  0.
        5    1    3    3  502    0 -0.36805856666E+03 -0.12844997508E+03  0.56884404611E+02  0.39398531708E+03  0.46999998093E+01 0. -1.
       -5    1    3    3    0  502  0.36805856666E+03  0.12844997508E+03 -0.18003337079E+04  0.18420613601E+04  0.46999998093E+01 0.  1.
</event>
<event>
 5   0  0.4243281E-05  0.1400392E+04  0.7818609E-02  0.8953535E-01
        2   -1    0    0  501    0  0.00000000000E+00  0.00000000000E+00  0.22441992598E+04  0.22441992598E+04  0.25500000920E-02 0.  1.
       -2   -1    0    0    0  501  0.00000000000E+00  0.00000000000E+00 -0.21846287936E+03  0.21846287937E+03  0.25500000920E-02 0. -1.
    10030    2    1    2    0    0  0.00000000000E+00  0.00000000000E+00  0.20257363805E+04  0.24626621392E+04  0.14003917054E+04 0.  0.
        2    1    3    3  502    0  0.53759329771E+03 -0.24482796547E+02  0.18006295205E+04  0.18793277073E+04  0.25500000920E-02 0.  1.
       -2    1    3    3    0  502 -0.53759329771E+03  0.24482796547E+02  0.22510685993E+03  0.58333443192E+03  0.25500000920E-02 0. -1.
</event>
<event>
 5   0  0.4441253E-05  0.1402005E+04  0.7818609E-02  0.8952368E-01
       -2   -1    0    0    0  501  0.00000000000E+00  0.00000000000E+00  0.20703986054E+03  0.20703986056E+03  0.25500000920E-02 0.  1.
        2   -1    0    0  501    0  0.00000000000E+00  0.00000000000E+00 -0.23734782818E+04  0.23734782818E+04  0.25500000920E-02 0. -1.
    10030    2    1    2    0    0  0.00000000000E+00  0.00000000000E+00 -0.21664384212E+04  0.25805181423E+04  0.14020051533E+04 0.  0.
        3    1    3    3  502    0  0.20561805637E+02  0.35181450328E+03 -0.21985754279E+04  0.22266410027E+04  0.10100000352E+00 0. -1.
       -3    1    3    3    0  502 -0.20561805637E+02 -0.35181450328E+03  0.32137006649E+02  0.35387713965E+03  0.10100000352E+00 0.  1.
</event>
<event>
 5   0  0.4441253E-05  0.1400256E+04  0.7818609E-02  0.8953634E-01
       -2   -1    0    0    0  501  0.00000000000E+00  0.00000000000E+00  0.33531710383E+03  0.33531710384E+03  0.25500000920E-02 0.  1.
        2   -1    0    0  501    0  0.00000000000E+00  0.00000000000E+00 -0.14618369348E+04  0.14618369348E+04  0.25500000920E-02 0. -1.
    10030    2    1    2    0    0  0.00000000000E+00  0.00000000000E+00 -0.11265198310E+04  0.17971540386E+04  0.14002555870E+04 0.  0.
        3    1    3    3  502    0 -0.45592207826E+03  0.52813690988E+03 -0.63793602841E+03  0.94538665294E+03  0.10100000352E+00 0. -1.
       -3    1    3    3    0  502  0.45592207826E+03 -0.52813690988E+03 -0.48858380255E+03  0.85176738569E+03  0.10100000352E+00 0.  1.
</event>
<event>
 5   0  0.2363419E-05  0.1399837E+04  0.7818609E-02  0.8953937E-01
        1   -1    0    0  501    0  0.00000000000E+00  0.00000000000E+00  0.52089876445E+03  0.52089876448E+03  0.50400001928E-02 0. -1.
       -1   -1    0    0    0  501  0.00000000000E+00  0.00000000000E+00 -0.94046266939E+03  0.94046266940E+03  0.50400001928E-02 0.  1.
    10030    2    1    2    0    0  0.00000000000E+00  0.00000000000E+00 -0.41956390494E+03  0.14613614339E+04  0.13998369084E+04 0.  0.
        2    1    3    3  502    0 -0.57205689427E+03 -0.10084142888E+03  0.19785092969E+03  0.61364735349E+03  0.25500000920E-02 0. -1.
       -2    1    3    3    0  502  0.57205689427E+03  0.10084142888E+03 -0.61741483463E+03  0.84771408039E+03  0.25500000920E-02 0.  1.
</event>
<event>
 5   0  0.4527503E-05  0.1398491E+04  0.7818609E-02  0.8954912E-01
       -2   -1    0    0    0  501  0.00000000000E+00  0.00000000000E+00  0.54992914173E+03  0.54992914173E+03  0.25500000920E-02 0.  1.
        2   -1    0    0  501    0  0.00000000000E+00  0.00000000000E+00 -0.88910415500E+03  0.88910415500E+03  0.25500000920E-02 0. -1.
    10030    2    1    2    0    0  0.00000000000E+00  0.00000000000E+00 -0.33917501327E+03  0.14390332967E+04  0.13984910223E+04 0.  0.
        4    1    3    3  502    0 -0.20144643474E+03 -0.26170794990E+03 -0.80379183886E+03  0.86899634650E+03  0.12699999809E+01 0. -1.
       -4    1    3    3    0  502  0.20144643474E+03  0.26170794990E+03  0.46461682559E+03  0.57003695023E+03  0.12699999809E+01 0.  1.
</event>
<event>
 5   0  0.4441253E-05  0.1401914E+04  0.7818609E-02  0.8952434E-01
        2   -1    0    0  501    0  0.00000000000E+00  0.00000000000E+00  0.16747323562E+04  0.16747323562E+04  0.25500000920E-02 0. -1.
       -2   -1    0    0    0  501  0.00000000000E+00  0.00000000000E+00 -0.29338452474E+03  0.29338452476E+03  0.25500000920E-02 0.  1.
    10030    2    1    2    0    0  0.00000000000E+00  0.00000000000E+00  0.13813478314E+04  0.19681168809E+04  0.14019137725E+04 0.  0.
        3    1    3    3  502    0 -0.47321491260E+03 -0.43987438746E+03  0.30898742309E+03  0.71616692753E+03  0.10100000352E+00 0.  1.
       -3    1    3    3    0  502  0.47321491260E+03  0.43987438746E+03  0.10723604084E+04  0.12519499534E+04  0.10100000352E+00 0. -1.
</event>
<event>
 5   0  0.4441253E-05  0.1400736E+04  0.7818609E-02  0.8953286E-01
        2   -1    0    0  501    0  0.00000000000E+00  0.00000000000E+00  0.15574112886E+04  0.15574112886E+04  0.25500000920E-02 0.  1.
       -2   -1    0    0    0  501  0.00000000000E+00  0.00000000000E+00 -0.31495551845E+03  0.31495551846E+03  0.25500000920E-02 0. -1.
    10030    2    1    2    0    0  0.00000000000E+00  0.00000000000E+00  0.12424557702E+04  0.18723668071E+04  0.14007359207E+04 0.  0.
        3    1    3    3  502    0  0.24298567352E+03  0.12770124952E+03 -0.24005409366E+03  0.36465823006E+03  0.10100000352E+00 0. -1.
       -3    1    3    3    0  502 -0.24298567352E+03 -0.12770124952E+03  0.14825098638E+04  0.15077085770E+04  0.10100000352E+00 0.  1.
</event>
<event>
 5   0  0.4441253E-05  0.1399993E+04  0.7818609E-02  0.8953823E-01
       -2   -1    0    0    0  501  0.00000000000E+00  0.00000000000E+00  0.49537570256E+03  0.49537570257E+03  0.25500000920E-02 0. -1.
        2   -1    0    0  501    0  0.00000000000E+00  0.00000000000E+00 -0.98913856527E+03  0.98913856527E+03  0.25500000920E-02 0.  1.
    10030    2    1    2    0    0  0.00000000000E+00  0.00000000000E+00 -0.49376286270E+03  0.14845142678E+04  0.13999931596E+04 0.  0.
        3    1    3    3  502    0  0.61453077601E+02 -0.43645159823E+03 -0.82352203075E+03  0.93405300903E+03  0.10100000352E+00 0.  1.
       -3    1    3    3    0  502 -0.61453077601E+02  0.43645159823E+03  0.32975916804E+03  0.55046125881E+03  0.10100000352E+00 0. -1.
</event>
<event>
 5   0  0.4621450E-05  0.1399689E+04  0.7818609E-02  0.8954043E-01
        2   -1    0    0  501    0  0.00000000000E+00  0.00000000000E+00  0.71079321634E+03  0.71079321635E+03  0.25500000920E-02 0.  1.
       -2   -1    0    0    0  501  0.00000000000E+00  0.00000000000E+00 -0.68906486020E+03  0.68906486020E+03  0.25500000920E-02 0. -1.
    10030    2    1    2    0    0  0.00000000000E+00  0.00000000000E+00  0.21728356144E+02  0.13998580765E+04  0.13996894345E+04 0.  0.
        5    1    3    3  502    0  0.21808830698E+02 -0.69551873166E+03 -0.63566607137E+02  0.69877373644E+03  0.46999998093E+01 0. -1.
       -5    1    3    3    0  502 -0.21808830698E+02  0.69551873166E+03  0.85294963280E+02  0.70108434011E+03  0.46999998093E+01 0.  1.
</event>
<event>
 5   0  0.2467303E-05  0.1400264E+04  0.7818609E-02  0.8953627E-01
        1   -1    0    0  501    0  0.00000000000E+00  0.00000000000E+00  0.83083266367E+03  0.83083266368E+03  0.50400001928E-02 0. -1.
       -1   -1    0    0    0  501  0.00000000000E+00  0.00000000000E+00 -0.58999251566E+03  0.58999251569E+03  0.50400001928E-02 0.  1.
    10030    2    1    2    0    0  0.00000000000E+00  0.00000000000E+00  0.24084014800E+03  0.14208251794E+04  0.14002643370E+04 0.  0.
        3    1    3    3  502    0  0.31808837863E+03 -0.50325382330E+03  0.49425958904E+03  0.77378109232E+03  0.10100000352E+00 0. -1.
       -3    1    3    3    0  502 -0.31808837863E+03  0.50325382330E+03 -0.25341944103E+03  0.64704408704E+03  0.10100000352E+00 0.  1.
</event>
<event>
 5   0  0.2363419E-05  0.1399649E+04  0.7818609E-02  0.8954072E-01
        1   -1    0    0  501    0  0.00000000000E+00  0.00000000000E+00  0.18016857651E+04  0.18016857651E+04  0.50400001928E-02 0.  1.
       -1   -1    0    0    0  501  0.00000000000E+00  0.00000000000E+00 -0.27183134801E+03  0.27183134805E+03  0.50400001928E-02 0. -1.
    10030    2    1    2    0    0  0.00000000000E+00  0.00000000000E+00  0.15298544171E+04  0.20735171132E+04  0.13996494851E+04 0.  0.
        2    1    3    3  502    0  0.26811982380E+03  0.14923049553E+03 -0.16685552755E+03  0.34928319140E+03  0.25500000920E-02 0. -1.
       -2    1    3    3    0  502 -0.26811982380E+03 -0.14923049553E+03  0.16967099446E+04  0.17242339218E+04  0.25500000920E-02 0.  1.
</event>
<event>
 5   0  0.2428507E-05  0.1400295E+04  0.7818609E-02  0.8953605E-01
        1   -1    0    0  501    0  0.00000000000E+00  0.00000000000E+00  0.58327886178E+03  0.58327886181E+03  0.50400001928E-02 0. -1.
       -1   -1    0    0    0  501  0.00000000000E+00  0.00000000000E+00 -0.84043257735E+03  0.84043257737E+03  0.50400001928E-02 0.  1.
    10030    2    1    2    0    0  0.00000000000E+00  0.00000000000E+00 -0.25715371557E+03  0.14237114392E+04  0.14002950506E+04 0.  0.
        4    1    3    3  502    0  0.52509726666E+03  0.41476138792E+03 -0.33805819583E+03  0.74969267372E+03  0.12699999809E+01 0.  1.
       -4    1    3    3    0  502 -0.52509726666E+03 -0.41476138792E+03  0.80904480264E+02  0.67401876545E+03  0.12699999809E+01 0. -1.
</event>
<event>
 5   0  0.4441253E-05  0.1400163E+04  0.7818609E-02  0.8953700E-01
        2   -1    0    0  501    0  0.00000000000E+00  0.00000000000E+00  0.94267844166E+03  0.94267844166E+03  0.25500000920E-02 0.  1.
       -2   -1    0    0    0  501  0.00000000000E+00  0.00000000000E+00 -0.51991669205E+03  0.51991669206E+03  0.25500000920E-02 0. -1.
    10030    2    1    2    0    0  0.00000000000E+00  0.00000000000E+00  0.42276174960E+03  0.14625951337E+04  0.14001632149E+04 0.  0.
        3    1    3    3  502    0  0.97891820898E+02 -0.64387901124E+03 -0.56879791933E+02  0.65375707311E+03  0.10100000352E+00 0. -1.
       -3    1    3    3    0  502 -0.97891820898E+02  0.64387901124E+03  0.47964154154E+03  0.80883806060E+03  0.10100000352E+00 0.  1.
</event>
<event>
 5   0  0.4441253E-05  0.1400485E+04  0.7818609E-02  0.8953468E-01
       -2   -1    0    0    0  501  0.00000000000E+00  0.00000000000E+00  0.37578422774E+03  0.37578422775E+03  0.25500000920E-02 0.  1.
        2   -1    0    0  501    0  0.00000000000E+00  0.00000000000E+00 -0.13048425568E+04  0.13048425568E+04  0.25500000920E-02 0. -1.
    10030    2    1    2    0    0  0.00000000000E+00  0.00000000000E+00 -0.92905832905E+03  0.16806267845E+04  0.14004845626E+04 0.  0.
        3    1    3    3  502    0  0.12495471091E+02 -0.69405599194E+03 -0.57496725971E+03  0.90136408665E+03  0.10100000352E+00 0. -1.
       -3    1    3    3    0  502 -0.12495471091E+02  0.69405599194E+03 -0.35409106934E+03  0.77926269790E+03  0.10100000352E+00 0.  1.
</event>
<event>
 5   0  0.4460282E-05  0.1400223E+04  0.7818609E-02  0.8953657E-01
        2   -1    0    0  501    0  0.00000000000E+00  0.00000000000E+00  0.10257124136E+04  0.10257124136E+04  0.25500000920E-02 0.  1.
       -2   -1    0    0    0  501  0.00000000000E+00  0.00000000000E+00 -0.47786863663E+03  0.47786863664E+03  0.25500000920E-02 0. -1.
    10030    2    1    2    0    0  0.00000000000E+00  0.00000000000E+00  0.54784377696E+03  0.15035810502E+04  0.14002225433E+04 0.  0.
        1    1    3    3  502    0 -0.10911514427E+03 -0.46621323878E+03  0.82240412640E+03  0.95163514325E+03  0.50400001928E-02 0.  1.
       -1    1    3    3    0  502  0.10911514427E+03  0.46621323878E+03 -0.27456034944E+03  0.55194590698E+03  0.50400001928E-02 0. -1.
</event>
<event>
 5   0  0.2427569E-05  0.1400158E+04  0.7818609E-02  0.8953704E-01
       -1   -1    0    0    0  501  0.00000000000E+00  0.00000000000E+00  0.32269189140E+03  0.32269189144E+03  0.50400001928E-02 0.  1.
        1   -1    0    0  501    0  0.00000000000E+00  0.00000000000E+00 -0.15188194374E+04  0.15188194375E+04  0.50400001928E-02 0. -1.
    10030    2    1    2    0    0  0.00000000000E+00  0.00000000000E+00 -0.11961275460E+04  0.18415113289E+04  0.14001581582E+04 0.  0.
        1    1    3    3  502    0  0.59140240629E+03 -0.31333159019E+03 -0.32795648461E+03  0.74531130905E+03  0.50400001928E-02 0.  1.
       -1    1    3    3    0  502 -0.59140240629E+03  0.31333159019E+03 -0.86817106143E+03  0.10962000198E+04  0.50400001928E-02 0. -1.
</event>
<event>
 5   0  0.4243281E-05  0.1400002E+04  0.7818609E-02  0.8953817E-01
        2   -1    0    0  501    0  0.00000000000E+00  0.00000000000E+00  0.36692445387E+03  0.36692445388E+03  0.25500000920E-02 0.  1.
       -2   -1    0    0    0  501  0.00000000000E+00  0.00000000000E+00 -0.13354292237E+04  0.13354292237E+04  0.25500000920E-02 0. -1.
    10030    2    1    2    0    0  0.00000000000E+00  0.00000000000E+00 -0.96850476984E+03  0.17023536776E+04  0.14000023409E+04 0.  0.
        2    1    3    3  502    0 -0.33520275540E+03 -0.61409014855E+02  0.25924793041E+03  0.42818389012E+03  0.25500000920E-02 0.  1.
       -2    1    3    3    0  502  0.33520275540E+03  0.61409014855E+02 -0.12277527003E+04  0.12741697875E+04  0.25500000920E-02 0. -1.
</event>
<event>
 5   0  0.4441253E-05  0.1400277E+04  0.7818609E-02  0.8953618E-01
       -2   -1    0    0    0  501  0.00000000000E+00  0.00000000000E+00  0.88576145378E+03  0.88576145378E+03  0.25500000920E-02 0.  1.
        2   -1    0    0  501    0  0.00000000000E+00  0.00000000000E+00 -0.55341534653E+03  0.55341534654E+03  0.25500000920E-02 0. -1.
    10030    2    1    2    0    0  0.00000000000E+00  0.00000000000E+00  0.33234610725E+03  0.14391768003E+04  0.14002770896E+04 0.  0.
        3    1    3    3  502    0 -0.78362932458E+02 -0.35986617202E+03 -0.44580893727E+03  0.57826467097E+03  0.10100000352E+00 0. -1.
       -3    1    3    3    0  502  0.78362932458E+02  0.35986617202E+03  0.77815504452E+03  0.86091212935E+03  0.10100000352E+00 0.  1.
</event>
<event>
 5   0  0.2427569E-05  0.1399904E+04  0.7818609E-02  0.8953888E-01
       -1   -1    0    0    0  501  0.00000000000E+00  0.00000000000E+00  0.58990778366E+03  0.58990778368E+03  0.50400001928E-02 0. -1.
        1   -1    0    0  501    0  0.00000000000E+00  0.00000000000E+00 -0.83052415874E+03  0.83052415875E+03  0.50400001928E-02 0.  1.
    10030    2    1    2    0    0  0.00000000000E+00  0.00000000000E+00 -0.24061637508E+03  0.14204319424E+04  0.13999038050E+04 0.  0.
        1    1    3    3  502    0  0.33678952037E+03  0.55875902168E+03 -0.37758871658E+03  0.75379842415E+03  0.50400001928E-02 0.  1.
       -1    1    3    3    0  502 -0.33678952037E+03 -0.55875902168E+03  0.13697234150E+03  0.66663351829E+03  0.50400001928E-02 0. -1.
</event>
<event>
 5   0  0.4527503E-05  0.1399135E+04  0.7818609E-02  0.8954445E-01
        2   -1    0    0  501    0  0.00000000000E+00  0.00000000000E+00  0.84796528183E+03  0.84796528184E+03  0.25500000920E-02 0.  1.
       -2   -1    0    0    0  501  0.00000000000E+00  0.00000000000E+00 -0.57713980021E+03  0.57713980022E+03  0.25500000920E-02 0. -1.
    10030    2    1    2    0    0  0.00000000000E+00  0.00000000000E+00  0.27082548162E+03  0.14251050821E+04  0.13991347517E+04 0.  0.
        4    1    3    3  502    0  0.21173644888E+03  0.31156720770E+03 -0.46500882577E+03  0.59844905351E+03  0.12699999809E+01 0. -1.
       -4    1    3    3    0  502 -0.21173644888E+03 -0.31156720770E+03  0.73583430739E+03  0.82665602855E+03  0.12699999809E+01 0.  1.
</event>
<event>
 5   0  0.2316714E-05  0.1399949E+04  0.7818609E-02  0.8953856E-01
        1   -1    0    0  501    0  0.00000000000E+00  0.00000000000E+00  0.13704507236E+04  0.13704507237E+04  0.50400001928E-02 0. -1.
       -1   -1    0    0    0  501  0.00000000000E+00  0.00000000000E+00 -0.35752049821E+03  0.35752049825E+03  0.50400001928E-02 0.  1.
    10030    2    1    2    0    0  0.00000000000E+00  0.00000000000E+00  0.10129302254E+04  0.17279712219E+04  0.13999488927E+04 0.  0.
        5    1    3    3  502    0 -0.10919071718E+03 -0.73812765488E+02  0.13549770346E+04  0.13613801054E+04  0.46999998093E+01 0. -1.
       -5    1    3    3    0  502  0.10919071718E+03  0.73812765488E+02 -0.34204680915E+03  0.36659111653E+03  0.46999998093E+01 0.  1.
</event>
<event>
 5   0  0.4621450E-05  0.1400937E+04  0.7818609E-02  0.8953140E-01
        2   -1    0    0  501    0  0.00000000000E+00  0.00000000000E+00  0.86030425486E+03  0.86030425487E+03  0.25500000920E-02 0. -1.
       -2   -1    0    0    0  501  0.00000000000E+00  0.00000000000E+00 -0.57032898371E+03  0.57032898372E+03  0.25500000920E-02 0.  1.
    10030    2    1    2    0    0  0.00000000000E+00  0.00000000000E+00  0.28997527115E+03  0.14306332386E+04  0.14009374738E+04 0.  0.
        5    1    3    3  502    0 -0.40035059077E+03  0.34243333075E+03  0.61639279734E+03  0.81086580403E+03  0.46999998093E+01 0. -1.
       -5    1    3    3    0  502  0.40035059077E+03 -0.34243333075E+03 -0.32641752618E+03  0.61976743455E+03  0.46999998093E+01 0.  1.
</event>
<event>
 5   0  0.4527503E-05  0.1400755E+04  0.7818609E-02  0.8953272E-01
       -2   -1    0    0    0  501  0.00000000000E+00  0.00000000000E+00  0.77203896080E+03  0.77203896080E+03  0.25500000920E-02 0. -1.
        2   -1    0    0  501    0  0.00000000000E+00  0.00000000000E+00 -0.63536773946E+03  0.63536773946E+03  0.25500000920E-02 0.  1.
    10030    2    1    2    0    0  0.00000000000E+00  0.00000000000E+00  0.13667122134E+03  0.14074067003E+04  0.14007550097E+04 0.  0.
        4    1    3    3  502    0 -0.50752124952E+03 -0.46468595063E+03  0.19940115298E+03  0.71643093466E+03  0.12699999809E+01 0. -1.
       -4    1    3    3    0  502  0.50752124952E+03  0.46468595063E+03 -0.62729931642E+02  0.69097576560E+03  0.12699999809E+01 0.  1.
</event>
<event>
 5   0  0.4441253E-05  0.1400382E+04  0.7818609E-02  0.8953542E-01
        2   -1    0    0  501    0  0.00000000000E+00  0.00000000000E+00  0.73967422579E+03  0.73967422579E+03  0.25500000920E-02 0. -1.
       -2   -1    0    0    0  501  0.00000000000E+00  0.00000000000E+00 -0.66281559577E+03  0.66281559577E+03  0.25500000920E-02 0.  1.
    10030    2    1    2    0    0  0.00000000000E+00  0.00000000000E+00  0.76858630021E+02  0.14024898216E+04  0.14003822516E+04 0.  0.
        3    1    3    3  502    0 -0.43427462335E+03  0.30133292957E+03  0.49832802028E+03  0.72644807724E+03  0.10100000352E+00 0. -1.
       -3    1    3    3    0  502  0.43427462335E+03 -0.30133292957E+03 -0.42146939026E+03  0.67604174432E+03  0.10100000352E+00 0.  1.
</event>
<event>
 5   0  0.4441253E-05  0.1400059E+04  0.7818609E-02  0.8953776E-01
        2   -1    0    0  501    0  0.00000000000E+00  0.00000000000E+00  0.12674375657E+04  0.12674375657E+04  0.25500000920E-02 0. -1.
       -2   -1    0    0    0  501  0.00000000000E+00  0.00000000000E+00 -0.38663938244E+03  0.38663938245E+03  0.25500000920E-02 0.  1.
    10030    2    1    2    0    0  0.00000000000E+00  0.00000000000E+00  0.88079818330E+03  0.16540769482E+04  0.14000589669E+04 0.  0.
        3    1    3    3  502    0 -0.98255643695E+02 -0.17768351039E+03  0.12318853619E+04  0.12485059697E+04  0.10100000352E+00 0. -1.
       -3    1    3    3    0  502  0.98255643695E+02  0.17768351039E+03 -0.35108717861E+03  0.40557097846E+03  0.10100000352E+00 0.  1.
</event>
<event>
 5   0  0.4243281E-05  0.1400735E+04  0.7818609E-02  0.8953287E-01
        2   -1    0    0  501    0  0.00000000000E+00  0.00000000000E+00  0.13068605723E+04  0.13068605723E+04  0.25500000920E-02 0.  1.
       -2   -1    0    0    0  501  0.00000000000E+00  0.00000000000E+00 -0.37533822712E+03  0.37533822713E+03  0.25500000920E-02 0. -1.
    10030    2    1    2    0    0  0.00000000000E+00  0.00000000000E+00  0.93152234514E+03  0.16821987994E+04  0.14007351360E+04 0.  0.
        2    1    3    3  502    0  0.43988138874E+03 -0.11605533695E+03 -0.17373259396E+03  0.48697791696E+03  0.25500000920E-02 0. -1.
       -2    1    3    3    0  502 -0.43988138874E+03  0.11605533695E+03  0.11052549391E+04  0.11952208824E+04  0.25500000920E-02 0.  1.
</event>
<event>
 5   0  0.4441253E-05  0.1404422E+04  0.7818609E-02  0.8950624E-01
       -2   -1    0    0    0  501  0.00000000000E+00  0.00000000000E+00  0.32477568917E+03  0.32477568918E+03  0.25500000920E-02 0.  1.
        2   -1    0    0  501    0  0.00000000000E+00  0.00000000000E+00 -0.15182790657E+04  0.15182790657E+04  0.25500000920E-02 0. -1.
    10030    2    1    2    0    0  0.00000000000E+00  0.00000000000E+00 -0.11935033765E+04  0.18430547549E+04  0.14044217741E+04 0.  0.
        3    1    3    3  502    0 -0.70006834848E+03 -0.40098359077E+01 -0.66849084995E+03  0.96798336659E+03  0.10100000352E+00 0.  1.
       -3    1    3    3    0  502  0.70006834848E+03  0.40098359077E+01 -0.52501252658E+03  0.87507138829E+03  0.10100000352E+00 0. -1.
</event>
<event>
 5   0  0.2316714E-05  0.1399758E+04  0.7818609E-02  0.8953994E-01
       -1   -1    0    0    0  501  0.00000000000E+00  0.00000000000E+00  0.67050681241E+03  0.67050681243E+03  0.50400001928E-02 0.  1.
        1   -1    0    0  501    0  0.00000000000E+00  0.00000000000E+00 -0.73053798017E+03  0.73053798018E+03  0.50400001928E-02 0. -1.
    10030    2    1    2    0    0  0.00000000000E+00  0.00000000000E+00 -0.60031167755E+02  0.14010447926E+04  0.13997581112E+04 0.  0.
        5    1    3    3  502    0 -0.27019379920E+02  0.18909752432E+02 -0.72974401050E+03  0.73050396062E+03  0.46999998093E+01 0. -1.
       -5    1    3    3    0  502  0.27019379920E+02 -0.18909752432E+02  0.66971284275E+03  0.67054083199E+03  0.46999998093E+01 0.  1.
</event>
<event>
 5   0  0.4460282E-05  0.1398933E+04  0.7818609E-02  0.8954591E-01
        2   -1    0    0  501    0  0.00000000000E+00  0.00000000000E+00  0.22387637754E+04  0.22387637754E+04  0.25500000920E-02 0. -1.
       -2   -1    0    0    0  501  0.00000000000E+00  0.00000000000E+00 -0.21853741848E+03  0.21853741849E+03  0.25500000920E-02 0.  1.
    10030    2    1    2    0    0  0.00000000000E+00  0.00000000000E+00  0.20202263569E+04  0.24573011938E+04  0.13989333881E+04 0.  0.
        1    1    3    3  502    0 -0.57555155996E+02 -0.69264378027E+03  0.11482642182E+04  0.13422290107E+04  0.50400001928E-02 0. -1.
       -1    1    3    3    0  502  0.57555155996E+02  0.69264378027E+03  0.87196213872E+03  0.11150721832E+04  0.50400001928E-02 0.  1.
</event>
<event>
 5   0  0.2467303E-05  0.1400261E+04  0.7818609E-02  0.8953630E-01
        1   -1    0    0  501    0  0.00000000000E+00  0.00000000000E+00  0.10137648168E+04  0.10137648168E+04  0.50400001928E-02 0.  1.
       -1   -1    0    0    0  501  0.00000000000E+00  0.00000000000E+00 -0.48352684942E+03  0.48352684944E+03  0.50400001928E-02 0. -1.
    10030    2    1    2    0    0  0.00000000000E+00  0.00000000000E+00  0.53023796741E+03  0.14972916663E+04  0.14002607014E+04 0.  0.
        3    1    3    3  502    0  0.45356651988E+03  0.52107838299E+03  0.38674266172E+03  0.79171659435E+03  0.10100000352E+00 0.  1.
       -3    1    3    3    0  502 -0.45356651988E+03 -0.52107838299E+03  0.14349530570E+03  0.70557507193E+03  0.10100000352E+00 0. -1.
</event>
<event>
 5   0  0.4527503E-05  0.1399634E+04  0.7818609E-02  0.8954083E-01
        2   -1    0    0  501    0  0.00000000000E+00  0.00000000000E+00  0.23116392857E+04  0.23116392857E+04  0.25500000920E-02 0.  1.
       -2   -1    0    0    0  501  0.00000000000E+00  0.00000000000E+00 -0.21186000710E+03  0.21186000712E+03  0.25500000920E-02 0. -1.
    10030    2    1    2    0    0  0.00000000000E+00  0.00000000000E+00  0.20997792786E+04  0.25234992928E+04  0.13996341172E+04 0.  0.
        4    1    3    3  502    0 -0.42913246565E+03 -0.60591490908E+02  0.20405663374E+04  0.20860821153E+04  0.12699999809E+01 0.  1.
       -4    1    3    3    0  502  0.42913246565E+03  0.60591490908E+02  0.59212941233E+02  0.43741717748E+03  0.12699999809E+01 0. -1.
</event>
<event>
 5   0  0.4527503E-05  0.1398630E+04  0.7818609E-02  0.8954811E-01
       -2   -1    0    0    0  501  0.00000000000E+00  0.00000000000E+00  0.92094111385E+03  0.92094111385E+03  0.25500000920E-02 0. -1.
        2   -1    0    0  501    0  0.00000000000E+00  0.00000000000E+00 -0.53102375633E+03  0.53102375634E+03  0.25500000920E-02 0.  1.
    10030    2    1    2    0    0  0.00000000000E+00  0.00000000000E+00  0.38991735752E+03  0.14519648702E+04  0.13986302008E+04 0.  0.
        4    1    3    3  502    0  0.25466086963E+03  0.29711773992E+03 -0.40671907451E+03  0.56440511015E+03  0.12699999809E+01 0.  1.
       -4    1    3    3    0  502 -0.25466086963E+03 -0.29711773992E+03  0.79663643203E+03  0.88755976004E+03  0.12699999809E+01 0. -1.
</event>
<event>
 5   0  0.1661000E-05  0.1399794E+04  0.7818609E-02  0.8953967E-01
        3   -1    0    0  501    0  0.00000000000E+00  0.00000000000E+00  0.69909033014E+03  0.69909033743E+03  0.10100000352E+00 0. -1.
       -3   -1    0    0    0  501  0.00000000000E+00  0.00000000000E+00 -0.70070487538E+03  0.70070488266E+03  0.10100000352E+00 0.  1.
    10030    2    1    2    0    0  0.00000000000E+00  0.00000000000E+00 -0.16145452440E+01  0.13997952201E+04  0.13997942890E+04 0.  0.
        1    1    3    3  502    0  0.45138048904E+03  0.34736791882E+03  0.40594500584E+03  0.69942845574E+03  0.50400001928E-02 0. -1.
       -1    1    3    3    0  502 -0.45138048904E+03 -0.34736791882E+03 -0.40755955108E+03  0.70036676436E+03  0.50400001928E-02 0.  1.
</event>
<event>
 5   0  0.4527503E-05  0.1399971E+04  0.7818609E-02  0.8953839E-01
        2   -1    0    0  501    0  0.00000000000E+00  0.00000000000E+00  0.27757245132E+04  0.27757245132E+04  0.25500000920E-02 0.  1.
       -2   -1    0    0    0  501  0.00000000000E+00  0.00000000000E+00 -0.17652319671E+03  0.17652319673E+03  0.25500000920E-02 0. -1.
    10030    2    1    2    0    0  0.00000000000E+00  0.00000000000E+00  0.25992013165E+04  0.29522477099E+04  0.13999710915E+04 0.  0.
        4    1    3    3  502    0  0.57982663206E+03 -0.25650771590E+03  0.67409224048E+03  0.92541725353E+03  0.12699999809E+01 0. -1.
       -4    1    3    3    0  502 -0.57982663206E+03  0.25650771590E+03  0.19251090760E+04  0.20268304564E+04  0.12699999809E+01 0.  1.
</event>
<event>
 5   0  0.4460282E-05  0.1400271E+04  0.7818609E-02  0.8953622E-01
        2   -1    0    0  501    0  0.00000000000E+00  0.00000000000E+00  0.42732147498E+03  0.42732147499E+03  0.25500000920E-02 0. -1.
       -2   -1    0    0    0  501  0.00000000000E+00  0.00000000000E+00 -0.11471215165E+04  0.11471215165E+04  0.25500000920E-02 0.  1.
    10030    2    1    2    0    0  0.00000000000E+00  0.00000000000E+00 -0.71980004155E+03  0.15744429915E+04  0.14002709144E+04 0.  0.
        1    1    3    3  502    0  0.30703959877E+03 -0.62622926426E+03 -0.42878407856E+03  0.81871374281E+03  0.50400001928E-02 0. -1.
       -1    1    3    3    0  502 -0.30703959877E+03  0.62622926426E+03 -0.29101596300E+03  0.75572924872E+03  0.50400001928E-02 0.  1.
</event>
<event>
 5   0  0.2428507E-05  0.1403195E+04  0.7818609E-02  0.8951509E-01
        1   -1    0    0  501    0  0.00000000000E+00  0.00000000000E+00  0.63463255121E+03  0.63463255123E+03  0.50400001928E-02 0.  1.
       -1   -1    0    0    0  501  0.00000000000E+00  0.00000000000E+00 -0.77562834955E+03  0.77562834957E+03  0.50400001928E-02 0. -1.
    10030    2    1    2    0    0  0.00000000000E+00  0.00000000000E+00 -0.14099579834E+03  0.14102609008E+04  0.14031949234E+04 0.  0.
        4    1    3    3  502    0  0.49269121209E+03 -0.36489186591E+02 -0.57116434135E+03  0.75518634054E+03  0.12699999809E+01 0. -1.
       -4    1    3    3    0  502 -0.49269121209E+03  0.36489186591E+02  0.43016854301E+03  0.65507456026E+03  0.12699999809E+01 0.  1.
</event>
<event>
 5   0  0.1661000E-05  0.1399579E+04  0.7818609E-02  0.8954123E-01
        3   -1    0    0  501    0  0.00000000000E+00  0.00000000000E+00  0.44768820002E+03  0.44768821142E+03  0.10100000352E+00 0. -1.
       -3   -1    0    0    0  501  0.00000000000E+00  0.00000000000E+00 -0.10938542059E+04  0.10938542106E+04  0.10100000352E+00 0.  1.
    10030    2    1    2    0    0  0.00000000000E+00  0.00000000000E+00 -0.64616600590E+03  0.15415424220E+04  0.13995794124E+04 0.  0.
        1    1    3    3  502    0  0.76362250825E+02  0.43722041724E+03 -0.91899036706E+03  0.10205567997E+04  0.50400001928E-02 0.  1.
       -1    1    3    3    0  502 -0.76362250825E+02 -0.43722041724E+03  0.27282436116E+03  0.52098562232E+03  0.50400001928E-02 0. -1.
</event>
<event>
 5   0  0.2316714E-05  0.1400297E+04  0.7818609E-02  0.8953603E-01
       -1   -1    0    0    0  501  0.00000000000E+00  0.00000000000E+00  0.37685006301E+03  0.37685006304E+03  0.50400001928E-02 0.  1.
        1   -1    0    0  501    0  0.00000000000E+00  0.00000000000E+00 -0.13008040722E+04  0.13008040722E+04  0.50400001928E-02 0. -1.
    10030    2    1    2    0    0  0.00000000000E+00  0.00000000000E+00 -0.92395400921E+03  0.16776541353E+04  0.14002972493E+04 0.  0.
        5    1    3    3  502    0  0.20453257787E+03  0.65020673668E+03 -0.65360691003E+03  0.94436563824E+03  0.46999998093E+01 0. -1.
       -5    1    3    3    0  502 -0.20453257787E+03 -0.65020673668E+03 -0.27034709918E+03  0.73328849703E+03  0.46999998093E+01 0.  1.
</event>
<event>
 5   0  0.4527503E-05  0.1400073E+04  0.7818609E-02  0.8953766E-01
       -2   -1    0    0    0  501  0.00000000000E+00  0.00000000000E+00  0.43374164179E+03  0.43374164179E+03  0.25500000920E-02 0.  1.
        2   -1    0    0  501    0  0.00000000000E+00  0.00000000000E+00 -0.11298219664E+04  0.11298219664E+04  0.25500000920E-02 0. -1.
    10030    2    1    2    0    0  0.00000000000E+00  0.00000000000E+00 -0.69608032460E+03  0.15635636082E+04  0.14000726190E+04 0.  0.
        4    1    3    3  502    0 -0.44796119449E+03  0.20594851018E+03 -0.90302724222E+03  0.10288555942E+04  0.12699999809E+01 0. -1.
       -4    1    3    3    0  502  0.44796119449E+03 -0.20594851018E+03  0.20694691762E+03  0.53470801399E+03  0.12699999809E+01 0.  1.
</event>
<event>
 5   0  0.4460282E-05  0.1401571E+04  0.7818609E-02  0.8952682E-01
       -2   -1    0    0    0  501  0.00000000000E+00  0.00000000000E+00  0.53102044216E+03  0.53102044216E+03  0.25500000920E-02 0. -1.
        2   -1    0    0  501    0  0.00000000000E+00  0.00000000000E+00 -0.92482418304E+03  0.92482418304E+03  0.25500000920E-02 0.  1.
    10030    2    1    2    0    0  0.00000000000E+00  0.00000000000E+00 -0.39380374088E+03  0.14558446252E+04  0.14015713276E+04 0.  0.
        1    1    3    3  502    0 -0.62579443979E+03  0.31457483286E+03 -0.17311215611E+03  0.72148723132E+03  0.50400001928E-02 0.  1.
       -1    1    3    3    0  502  0.62579443979E+03 -0.31457483286E+03 -0.22069158478E+03  0.73435739389E+03  0.50400001928E-02 0. -1.
</event>
<event>
 5   0  0.4243281E-05  0.1400044E+04  0.7818609E-02  0.8953786E-01
       -2   -1    0    0    0  501  0.00000000000E+00  0.00000000000E+00  0.11117306027E+04  0.11117306027E+04  0.25500000920E-02 0. -1.
        2   -1    0    0  501    0  0.00000000000E+00  0.00000000000E+00 -0.44078218526E+03  0.44078218526E+03  0.25500000920E-02 0.  1.
    10030    2    1    2    0    0  0.00000000000E+00  0.00000000000E+00  0.67094841741E+03  0.15525127879E+04  0.14000443485E+04 0.  0.
        2    1    3    3  502    0 -0.44431787872E+03 -0.54087515573E+03  0.32641555198E+03  0.77234152032E+03  0.25500000920E-02 0.  1.
       -2    1    3    3    0  502  0.44431787872E+03  0.54087515573E+03  0.34453286543E+03  0.78017126761E+03  0.25500000920E-02 0. -1.
</event>
<event>
 5   0  0.4621450E-05  0.1399680E+04  0.7818609E-02  0.8954050E-01
       -2   -1    0    0    0  501  0.00000000000E+00  0.00000000000E+00  0.10389501408E+04  0.10389501408E+04  0.25500000920E-02 0. -1.
        2   -1    0    0  501    0  0.00000000000E+00  0.00000000000E+00 -0.47141450637E+03  0.47141450638E+03  0.25500000920E-02 0.  1.
    10030    2    1    2    0    0  0.00000000000E+00  0.00000000000E+00  0.56753563447E+03  0.15103646472E+04  0.13996802032E+04 0.  0.
        5    1    3    3  502    0  0.47681352601E+03  0.34780575748E+03 -0.12204900744E+03  0.60269232096E+03  0.46999998093E+01 0.  1.
       -5    1    3    3    0  502 -0.47681352601E+03 -0.34780575748E+03  0.68958464190E+03  0.90767232627E+03  0.46999998093E+01 0. -1.
</event>
<event>
 5   0  0.4243281E-05  0.1400610E+04  0.7818609E-02  0.8953377E-01
        2   -1    0    0  501    0  0.00000000000E+00  0.00000000000E+00  0.19977640245E+04  0.19977640245E+04  0.25500000920E-02 0.  1.
       -2   -1    0    0    0  501  0.00000000000E+00  0.00000000000E+00 -0.24548807788E+03  0.24548807790E+03  0.25500000920E-02 0. -1.
    10030    2    1    2    0    0  0.00000000000E+00  0.00000000000E+00  0.17522759466E+04  0.22432521024E+04  0.14006102248E+04 0.  0.
        2    1    3    3  502    0  0.17786298983E+03 -0.43799554000E+03  0.17036557093E+04  0.17680266152E+04  0.25500000920E-02 0.  1.
       -2    1    3    3    0  502 -0.17786298983E+03  0.43799554000E+03  0.48620237318E+02  0.47522548721E+03  0.25500000920E-02 0. -1.
</event>
<event>
 5   0  0.2467303E-05  0.1399985E+04  0.7818609E-02  0.8953830E-01
        1   -1    0    0  501    0  0.00000000000E+00  0.00000000000E+00  0.43754611013E+03  0.43754611016E+03  0.50400001928E-02 0. -1.
       -1   -1    0    0    0  501  0.00000000000E+00  0.00000000000E+00 -0.11198574754E+04  0.11198574754E+04  0.50400001928E-02 0.  1.
    10030    2    1    2    0    0  0.00000000000E+00  0.00000000000E+00 -0.68231136525E+03  0.15574035856E+04  0.13999846889E+04 0.  0.
        3    1    3    3  502    0  0.65335938258E+03  0.20365578988E+03 -0.50478360774E+03  0.85038853732E+03  0.10100000352E+00 0. -1.
       -3    1    3    3    0  502 -0.65335938258E+03 -0.20365578988E+03 -0.17752775751E+03  0.70701504824E+03  0.10100000352E+00 0.  1.
</event>
<event>
 5   0  0.4460282E-05  0.1399861E+04  0.7818609E-02  0.8953919E-01
        2   -1    0    0  501    0  0.00000000000E+00  0.00000000000E+00  0.43866812506E+03  0.43866812507E+03  0.25500000920E-02 0.  1.
       -2   -1    0    0    0  501  0.00000000000E+00  0.00000000000E+00 -0.11167957713E+04  0.11167957713E+04  0.25500000920E-02 0. -1.
    10030    2    1    2    0    0  0.00000000000E+00  0.00000000000E+00 -0.67812764623E+03  0.15554638964E+04  0.13998610032E+04 0.  0.
        1    1    3    3  502    0 -0.62137994634E+03  0.32719527792E+02 -0.69518731786E+03  0.93298928834E+03  0.50400001928E-02 0. -1.
       -1    1    3    3    0  502  0.62137994634E+03 -0.32719527792E+02  0.17059671629E+02  0.62247460803E+03  0.50400001928E-02 0.  1.
</event>
<event>
 5   0  0.2363419E-05  0.1400244E+04  0.7818609E-02  0.8953642E-01
       -1   -1    0    0    0  501  0.00000000000E+00  0.00000000000E+00  0.42656299805E+03  0.42656299807E+03  0.50400001928E-02 0.  1.
        1   -1    0    0  501    0  0.00000000000E+00  0.00000000000E+00 -0.11491166953E+04  0.11491166953E+04  0.50400001928E-02 0. -1.
    10030    2    1    2    0    0  0.00000000000E+00  0.00000000000E+00 -0.72255369723E+03  0.15756796934E+04  0.14002437826E+04 0.  0.
        2    1    3    3  502    0 -0.20742797696E+03 -0.63309593772E+03 -0.11905495849E+03  0.67676503687E+03  0.25500000920E-02 0. -1.
       -2    1    3    3    0  502  0.20742797696E+03  0.63309593772E+03 -0.60349873874E+03  0.89891465649E+03  0.25500000920E-02 0.  1.
</event>
<event>
 5   0  0.2428507E-05  0.1400113E+04  0.7818609E-02  0.8953736E-01
        1   -1    0    0  501    0  0.00000000000E+00  0.00000000000E+00  0.45096069483E+03  0.45096069486E+03  0.50400001928E-02 0. -1.
       -1   -1    0    0    0  501  0.00000000000E+00  0.00000000000E+00 -0.10867451814E+04  0.10867451814E+04  0.50400001928E-02 0.  1.
    10030    2    1    2    0    0  0.00000000000E+00  0.00000000000E+00 -0.63578448661E+03  0.15377058763E+04  0.14001133699E+04 0.  0.
        4    1    3    3  502    0 -0.46112502995E+03 -0.21045512267E+03  0.21241538189E+03  0.54959035587E+03  0.12699999809E+01 0. -1.
       -4    1    3    3    0  502  0.46112502995E+03  0.21045512267E+03 -0.84819986850E+03  0.98811552043E+03  0.12699999809E+01 0.  1.
</event>
<event>
 5   0  0.4441253E-05  0.1399840E+04  0.7818609E-02  0.8953934E-01
       -2   -1    0    0    0  501  0.00000000000E+00  0.00000000000E+00  0.26405542411E+03  0.26405542412E+03  0.25500000920E-02 0.  1.
        2   -1    0    0  501    0  0.00000000000E+00  0.00000000000E+00 -0.18552477603E+04  0.18552477603E+04  0.25500000920E-02 0. -1.
    10030    2    1    2    0    0  0.00000000000E+00  0.00000000000E+00 -0.15911923362E+04  0.21193031844E+04  0.13998403255E+04 0.  0.
        3    1    3    3  502    0  0.82846071463E+02  0.69221139637E+03 -0.88975594296E+03  0.11303476178E+04  0.10100000352E+00 0.  1.
       -3    1    3    3    0  502 -0.82846071463E+02 -0.69221139637E+03 -0.70143639325E+03  0.98895556665E+03  0.10100000352E+00 0. -1.
</event>
<event>
 5   0  0.4621450E-05  0.1399096E+04  0.7818609E-02  0.8954473E-01
        2   -1    0    0  501    0  0.00000000000E+00  0.00000000000E+00  0.15031180625E+04  0.15031180625E+04  0.25500000920E-02 0.  1.
       -2   -1    0    0    0  501  0.00000000000E+00  0.00000000000E+00 -0.32556805879E+03  0.32556805880E+03  0.25500000920E-02 0. -1.
    10030    2    1    2    0    0  0.00000000000E+00  0.00000000000E+00  0.11775500037E+04  0.18286861213E+04  0.13990957505E+04 0.  0.
        5    1    3    3  502    0 -0.57592673096E+02  0.25468426681E+03  0.14370124240E+04  0.14605505087E+04  0.46999998093E+01 0.  1.
       -5    1    3    3    0  502  0.57592673096E+02 -0.25468426681E+03 -0.25946242026E+03  0.36813561262E+03  0.46999998093E+01 0. -1.
</event>
<event>
 5   0  0.1661000E-05  0.1400055E+04  0.7818609E-02  0.8953779E-01
        3   -1    0    0  501    0  0.00000000000E+00  0.00000000000E+00  0.14213951835E+04  0.14213951871E+04  0.10100000352E+00 0. -1.
       -3   -1    0    0    0  501  0.00000000000E+00  0.00000000000E+00 -0.34475878304E+03  0.34475879783E+03  0.10100000352E+00 0.  1.
    10030    2    1    2    0    0  0.00000000000E+00  0.00000000000E+00  0.10766364004E+04  0.17661539849E+04  0.14000549845E+04 0.  0.
        1    1    3    3  502    0 -0.65987966151E+02  0.27843039894E+03  0.13442513295E+04  0.13743687772E+04  0.50400001928E-02 0. -1.
       -1    1    3    3    0  502  0.65987966151E+02 -0.27843039894E+03 -0.26761492906E+03  0.39178520775E+03  0.50400001928E-02 0.  1.
</event>
<event>
 5   0  0.4621450E-05  0.1399829E+04  0.7818609E-02  0.8953942E-01
       -2   -1    0    0    0  501  0.00000000000E+00  0.00000000000E+00  0.40538034897E+03  0.40538034898E+03  0.25500000920E-02 0. -1.
        2   -1    0    0  501    0  0.00000000000E+00  0.00000000000E+00 -0.12084460632E+04  0.12084460632E+04  0.25500000920E-02 0.  1.
    10030    2    1    2    0    0  0.00000000000E+00  0.00000000000E+00 -0.80306571423E+03  0.16138264122E+04  0.13998289707E+04 0.  0.
        5    1    3    3  502    0 -0.17768859177E+03 -0.83318395440E+02 -0.11760574286E+04  0.11923289630E+04  0.46999998093E+01 0.  1.
       -5    1    3    3    0  502  0.17768859177E+03  0.83318395440E+02  0.37299171438E+03  0.42149744917E+03  0.46999998093E+01 0. -1.
</event>
<event>
 5   0  0.4460282E-05  0.1408310E+04  0.7818609E-02  0.8947825E-01
        2   -1    0    0  501    0  0.00000000000E+00  0.00000000000E+00  0.66708041365E+03  0.66708041365E+03  0.25500000920E-02 0. -1.
       -2   -1    0    0    0  501  0.00000000000E+00  0.00000000000E+00 -0.74329006423E+03  0.74329006423E+03  0.25500000920E-02 0.  1.
    10030    2    1    2    0    0  0.00000000000E+00  0.00000000000E+00 -0.76209650577E+02  0.14103704779E+04  0.14083099709E+04 0.  0.
        1    1    3    3  502    0 -0.28239672664E+02 -0.66769840824E+03 -0.26027530185E+03  0.71719026503E+03  0.50400001928E-02 0.  1.
       -1    1    3    3    0  502  0.28239672664E+02  0.66769840824E+03  0.18406565127E+03  0.69318021285E+03  0.50400001928E-02 0. -1.
</event>
<event>
 5   0  0.2428507E-05  0.1402370E+04  0.7818609E-02  0.8952105E-01
        1   -1    0    0  501    0  0.00000000000E+00  0.00000000000E+00  0.16898710341E+04  0.16898710341E+04  0.50400001928E-02 0.  1.
       -1   -1    0    0    0  501  0.00000000000E+00  0.00000000000E+00 -0.29094569561E+03  0.29094569565E+03  0.50400001928E-02 0. -1.
    10030    2    1    2    0    0  0.00000000000E+00  0.00000000000E+00  0.13989253385E+04  0.19808167297E+04  0.14023704269E+04 0.  0.
        4    1    3    3  502    0 -0.11312947284E+03 -0.36626043420E+02  0.16755238397E+04  0.16797385198E+04  0.12699999809E+01 0.  1.
       -4    1    3    3    0  502  0.11312947284E+03  0.36626043420E+02 -0.27659850124E+03  0.30107820989E+03  0.12699999809E+01 0. -1.
</event>
<event>
 5   0  0.2316714E-05  0.1392367E+04  0.7818609E-02  0.8959363E-01
       -1   -1    0    0    0  501  0.00000000000E+00  0.00000000000E+00  0.39118073879E+03  0.39118073883E+03  0.50400001928E-02 0.  1.
        1   -1    0    0  501    0  0.00000000000E+00  0.00000000000E+00 -0.12389954400E+04  0.12389954401E+04  0.50400001928E-02 0. -1.
    10030    2    1    2    0    0  0.00000000000E+00  0.00000000000E+00 -0.84781470125E+03  0.16301761789E+04  0.13923665489E+04 0.  0.
        5    1    3    3  502    0 -0.60842859906E+03  0.33820580779E+03 -0.41340060879E+03  0.80962379036E+03  0.46999998093E+01 0.  1.
       -5    1    3    3    0  502  0.60842859906E+03 -0.33820580779E+03 -0.43441409246E+03  0.82055238852E+03  0.46999998093E+01 0. -1.
</event>
<event>
 5   0  0.4621450E-05  0.1399797E+04  0.7818609E-02  0.8953966E-01
       -2   -1    0    0    0  501  0.00000000000E+00  0.00000000000E+00  0.35083530413E+03  0.35083530414E+03  0.25500000920E-02 0. -1.
        2   -1    0    0  501    0  0.00000000000E+00  0.00000000000E+00 -0.13962613548E+04  0.13962613548E+04  0.25500000920E-02 0.  1.
    10030    2    1    2    0    0  0.00000000000E+00  0.00000000000E+00 -0.10454260507E+04  0.17470966590E+04  0.13997968096E+04 0.  0.
        5    1    3    3  502    0  0.21039771594E+03 -0.64213123185E+03 -0.29517388742E+03  0.73739367478E+03  0.46999998093E+01 0. -1.
       -5    1    3    3    0  502 -0.21039771594E+03  0.64213123185E+03 -0.75025216329E+03  0.10097029842E+04  0.46999998093E+01 0.  1.
</event>
<event>
 5   0  0.4243281E-05  0.1400090E+04  0.7818609E-02  0.8953754E-01
        2   -1    0    0  501    0  0.00000000000E+00  0.00000000000E+00  0.61506280628E+03  0.61506280628E+03  0.25500000920E-02 0.  1.
       -2   -1    0    0    0  501  0.00000000000E+00  0.00000000000E+00 -0.79676857241E+03  0.79676857242E+03  0.25500000920E-02 0. -1.
    10030    2    1    2    0    0  0.00000000000E+00  0.00000000000E+00 -0.18170576614E+03  0.14118313787E+04  0.14000895887E+04 0.  0.
        2    1    3    3  502    0 -0.33782810369E+03 -0.30921925641E+03  0.44303831219E+03  0.63720273245E+03  0.25500000920E-02 0.  1.
       -2    1    3    3    0  502  0.33782810369E+03  0.30921925641E+03 -0.62474407832E+03  0.77462864624E+03  0.25500000920E-02 0. -1.
</event>
<event>
 5   0  0.4441253E-05  0.1399889E+04  0.7818609E-02  0.8953899E-01
       -2   -1    0    0    0  501  0.00000000000E+00  0.00000000000E+00  0.64541641937E+03  0.64541641937E+03  0.25500000920E-02 0.  1.
        2   -1    0    0  501    0  0.00000000000E+00  0.00000000000E+00 -0.75907926708E+03  0.75907926708E+03  0.25500000920E-02 0. -1.
    10030    2    1    2    0    0  0.00000000000E+00  0.00000000000E+00 -0.11366284771E+03  0.14044956865E+04  0.13998888850E+04 0.  0.
        3    1    3    3  502    0  0.44366814262E+03  0.88613086488E+02  0.47899399603E+03  0.65888463202E+03  0.10100000352E+00 0.  1.
       -3    1    3    3    0  502 -0.44366814262E+03 -0.88613086488E+02 -0.59265684373E+03  0.74561105444E+03  0.10100000352E+00 0. -1.
</event>
<event>
 5   0  0.2427569E-05  0.1398792E+04  0.7818609E-02  0.8954693E-01
       -1   -1    0    0    0  501  0.00000000000E+00  0.00000000000E+00  0.33513397907E+03  0.33513397911E+03  0.50400001928E-02 0. -1.
        1   -1    0    0  501    0  0.00000000000E+00  0.00000000000E+00 -0.14595797962E+04  0.14595797962E+04  0.50400001928E-02 0.  1.
    10030    2    1    2    0    0  0.00000000000E+00  0.00000000000E+00 -0.11244458171E+04  0.17947137753E+04  0.13987920287E+04 0.  0.
        1    1    3    3  502    0  0.41870197468E+03 -0.47151780698E+03 -0.95036144458E+03  0.11405381455E+04  0.50400001928E-02 0. -1.
       -1    1    3    3    0  502 -0.41870197468E+03  0.47151780698E+03 -0.17408437255E+03  0.65417562985E+03  0.50400001928E-02 0.  1.
</event>
<event>
 5   0  0.4441253E-05  0.1399778E+04  0.7818609E-02  0.8953979E-01
        2   -1    0    0  501    0  0.00000000000E+00  0.00000000000E+00  0.65105566874E+03  0.65105566875E+03  0.25500000920E-02 0.  1.
       -2   -1    0    0    0  501  0.00000000000E+00  0.00000000000E+00 -0.75238527055E+03  0.75238527056E+03  0.25500000920E-02 0. -1.
    10030    2    1    2    0    0  0.00000000000E+00  0.00000000000E+00 -0.10132960181E+03  0.14034409393E+04  0.13997781188E+04 0.  0.
        3    1    3    3  502    0 -0.49154829490E+03 -0.44409673502E+03  0.17576470052E+03  0.68537207153E+03  0.10100000352E+00 0.  1.
       -3    1    3    3    0  502  0.49154829490E+03  0.44409673502E+03 -0.27709430233E+03  0.71806886778E+03  0.10100000352E+00 0. -1.
</event>
<event>
 5   0  0.4621450E-05  0.1398776E+04  0.7818609E-02  0.8954705E-01
        2   -1    0    0  501    0  0.00000000000E+00  0.00000000000E+00  0.16428166185E+04  0.16428166185E+04  0.25500000920E-02 0.  1.
       -2   -1    0    0    0  501  0.00000000000E+00  0.00000000000E+00 -0.29774670644E+03  0.29774670646E+03  0.25500000920E-02 0. -1.
    10030    2    1    2    0    0  0.00000000000E+00  0.00000000000E+00  0.13450699121E+04  0.19405633250E+04  0.13987755180E+04 0.  0.
        5    1    3    3  502    0  0.22635448437E+03 -0.18635643650E+03 -0.20834433519E+03  0.35971450627E+03  0.46999998093E+01 0. -1.
       -5    1    3    3    0  502 -0.22635448437E+03  0.18635643650E+03  0.15534142473E+04  0.15808488187E+04  0.46999998093E+01 0.  1.
</event>
<event>
 5   0  0.2427569E-05  0.1399841E+04  0.7818609E-02  0.8953934E-01
        1   -1    0    0  501    0  0.00000000000E+00  0.00000000000E+00  0.12177721995E+04  0.12177721995E+04  0.50400001928E-02 0.  1.
       -1   -1    0    0    0  501  0.00000000000E+00  0.00000000000E+00 -0.40228247872E+03  0.40228247875E+03  0.50400001928E-02 0. -1.
    10030    2    1    2    0    0  0.00000000000E+00  0.00000000000E+00  0.81548972075E+03  0.16200546782E+04  0.13998405894E+04 0.  0.
        1    1    3    3  502    0  0.38311064863E+03 -0.19455300059E+03  0.10471685604E+04  0.11318951511E+04  0.50400001928E-02 0.  1.
       -1    1    3    3    0  502 -0.38311064863E+03  0.19455300059E+03 -0.23167883968E+03  0.48815952711E+03  0.50400001928E-02 0. -1.
</event>
<event>
 5   0  0.2363419E-05  0.1404764E+04  0.7818609E-02  0.8950377E-01
        1   -1    0    0  501    0  0.00000000000E+00  0.00000000000E+00  0.10770334034E+04  0.10770334034E+04  0.50400001928E-02 0.  1.
       -1   -1    0    0    0  501  0.00000000000E+00  0.00000000000E+00 -0.45805485362E+03  0.45805485365E+03  0.50400001928E-02 0. -1.
    10030    2    1    2    0    0  0.00000000000E+00  0.00000000000E+00  0.61897854980E+03  0.15350882571E+04  0.14047638634E+04 0.  0.
        2    1    3    3  502    0 -0.54483338254E+03 -0.17513635993E+03 -0.13550456861E+03  0.58811363478E+03  0.25500000920E-02 0. -1.
       -2    1    3    3    0  502  0.54483338254E+03  0.17513635993E+03  0.75448311842E+03  0.94697462230E+03  0.25500000920E-02 0.  1.
</event>
<event>
 5   0  0.4527503E-05  0.1399456E+04  0.7818609E-02  0.8954213E-01
        2   -1    0    0  501    0  0.00000000000E+00  0.00000000000E+00  0.47343698707E+03  0.47343698707E+03  0.25500000920E-02 0.  1.
       -2   -1    0    0    0  501  0.00000000000E+00  0.00000000000E+00 -0.10341800988E+04  0.10341800988E+04  0.25500000920E-02 0. -1.
    10030    2    1    2    0    0  0.00000000000E+00  0.00000000000E+00 -0.56074311173E+03  0.15076170859E+04  0.13994557657E+04 0.  0.
        4    1    3    3  502    0  0.42281489523E+03 -0.53489745699E+03 -0.44978268283E+03  0.81681931894E+03  0.12699999809E+01 0. -1.
       -4    1    3    3    0  502 -0.42281489523E+03  0.53489745699E+03 -0.11096042890E+03  0.69079776693E+03  0.12699999809E+01 0.  1.
</event>
<event>
 5   0  0.4527503E-05  0.1400353E+04  0.7818609E-02  0.8953563E-01
        2   -1    0    0  501    0  0.00000000000E+00  0.00000000000E+00  0.11203251944E+04  0.11203251944E+04  0.25500000920E-02 0.  1.
       -2   -1    0    0    0  501  0.00000000000E+00  0.00000000000E+00 -0.43759379335E+03  0.43759379335E+03  0.25500000920E-02 0. -1.
    10030    2    1    2    0    0  0.00000000000E+00  0.00000000000E+00  0.68273140103E+03  0.15579189877E+04  0.14003533148E+04 0.  0.
        4    1    3    3  502    0 -0.46091224637E+03  0.52287395957E+03  0.41523275976E+03  0.81133047159E+03  0.12699999809E+01 0. -1.
       -4    1    3    3    0  502  0.46091224637E+03 -0.52287395957E+03  0.26749864126E+03  0.74658851614E+03  0.12699999809E+01 0.  1.
</event>
<event>
 5   0  0.4243281E-05  0.1399965E+04  0.7818609E-02  0.8953844E-01
        2   -1    0    0  501    0  0.00000000000E+00  0.00000000000E+00  0.12573226324E+04  0.12573226324E+04  0.25500000920E-02 0. -1.
       -2   -1    0    0    0  501  0.00000000000E+00  0.00000000000E+00 -0.38969775025E+03  0.38969775026E+03  0.25500000920E-02 0.  1.
    10030    2    1    2    0    0  0.00000000000E+00  0.00000000000E+00  0.86762488216E+03  0.16470203827E+04  0.13999654299E+04 0.  0.
        2    1    3    3  502    0 -0.24711085687E+03  0.61401240121E+03  0.70183334951E+03  0.96469946351E+03  0.25500000920E-02 0. -1.
       -2    1    3    3    0  502  0.24711085687E+03 -0.61401240121E+03  0.16579153265E+03  0.68232091916E+03  0.25500000920E-02 0.  1.
</event>
<event>
 5   0  0.4460282E-05  0.1399915E+04  0.7818609E-02  0.8953880E-01
        2   -1    0    0  501    0  0.00000000000E+00  0.00000000000E+00  0.15868612193E+04  0.15868612193E+04  0.25500000920E-02 0.  1.
       -2   -1    0    0    0  501  0.00000000000E+00  0.00000000000E+00 -0.30874796469E+03  0.30874796470E+03  0.25500000920E-02 0. -1.
    10030    2    1    2    0    0  0.00000000000E+00  0.00000000000E+00  0.12781132546E+04  0.18956091840E+04  0.13999145284E+04 0.  0.
        1    1    3    3  502    0  0.13464192100E+03  0.20356167994E+03  0.15273787585E+04  0.15467552090E+04  0.50400001928E-02 0.  1.
       -1    1    3    3    0  502 -0.13464192100E+03 -0.20356167994E+03 -0.24926550392E+03  0.34885397503E+03  0.50400001928E-02 0. -1.
</event>
<event>
 5   0  0.4527503E-05  0.1400607E+04  0.7818609E-02  0.8953379E-01
       -2   -1    0    0    0  501  0.00000000000E+00  0.00000000000E+00  0.46735861003E+03  0.46735861004E+03  0.25500000920E-02 0.  1.
        2   -1    0    0  501    0  0.00000000000E+00  0.00000000000E+00 -0.10493544377E+04  0.10493544377E+04  0.25500000920E-02 0. -1.
    10030    2    1    2    0    0  0.00000000000E+00  0.00000000000E+00 -0.58199582771E+03  0.15167130478E+04  0.14006067706E+04 0.  0.
        4    1    3    3  502    0 -0.37113628489E+03 -0.55816501996E+03 -0.51062292583E+03  0.84263142402E+03  0.12699999809E+01 0. -1.
       -4    1    3    3    0  502  0.37113628489E+03  0.55816501996E+03 -0.71372901880E+02  0.67408162376E+03  0.12699999809E+01 0.  1.
</event>
<event>
 5   0  0.4441253E-05  0.1399601E+04  0.7818609E-02  0.8954108E-01
       -2   -1    0    0    0  501  0.00000000000E+00  0.00000000000E+00  0.13223314623E+04  0.13223314623E+04  0.25500000920E-02 0. -1.
        2   -1    0    0  501    0  0.00000000000E+00  0.00000000000E+00 -0.37034623213E+03  0.37034623214E+03  0.25500000920E-02 0.  1.
    10030    2    1    2    0    0  0.00000000000E+00  0.00000000000E+00  0.95198523015E+03  0.16926776944E+04  0.13996006212E+04 0.  0.
        3    1    3    3  502    0 -0.64427066806E+03  0.20880984584E+03  0.26293819168E+03  0.72651410742E+03  0.10100000352E+00 0.  1.
       -3    1    3    3    0  502  0.64427066806E+03 -0.20880984584E+03  0.68904703848E+03  0.96616358701E+03  0.10100000352E+00 0. -1.
</event>
<event>
 5   0  0.2467303E-05  0.1399833E+04  0.7818609E-02  0.8953939E-01
        1   -1    0    0  501    0  0.00000000000E+00  0.00000000000E+00  0.44781067767E+03  0.44781067770E+03  0.50400001928E-02 0.  1.
       -1   -1    0    0    0  501  0.00000000000E+00  0.00000000000E+00 -0.10939518125E+04  0.10939518125E+04  0.50400001928E-02 0. -1.
    10030    2    1    2    0    0  0.00000000000E+00  0.00000000000E+00 -0.64614113479E+03  0.15417624902E+04  0.13998332794E+04 0.  0.
        3    1    3    3  502    0  0.51031796538E+02  0.69550386499E+03 -0.38872507444E+03  0.79839655821E+03  0.10100000352E+00 0.  1.
       -3    1    3    3    0  502 -0.51031796538E+02 -0.69550386499E+03 -0.25741606035E+03  0.74336593196E+03  0.10100000352E+00 0. -1.
</event>
<event>
 5   0  0.2467303E-05  0.1400561E+04  0.7818609E-02  0.8953413E-01
       -1   -1    0    0    0  501  0.00000000000E+00  0.00000000000E+00  0.75715274652E+03  0.75715274654E+03  0.50400001928E-02 0.  1.
        1   -1    0    0  501    0  0.00000000000E+00  0.00000000000E+00 -0.64768012691E+03  0.64768012693E+03  0.50400001928E-02 0. -1.
    10030    2    1    2    0    0  0.00000000000E+00  0.00000000000E+00  0.10947261961E+03  0.14048328735E+04  0.14005610119E+04 0.  0.
        3    1    3    3  502    0 -0.29385884783E+02  0.17943638469E+02 -0.64683057445E+03  0.64774632892E+03  0.10100000352E+00 0. -1.
       -3    1    3    3    0  502  0.29385884783E+02 -0.17943638469E+02  0.75630319406E+03  0.75708654455E+03  0.10100000352E+00 0.  1.
</event>
<event>
 5   0  0.2428507E-05  0.1399622E+04  0.7818609E-02  0.8954092E-01
        1   -1    0    0  501    0  0.00000000000E+00  0.00000000000E+00  0.15243016957E+04  0.15243016957E+04  0.50400001928E-02 0. -1.
       -1   -1    0    0    0  501  0.00000000000E+00  0.00000000000E+00 -0.32128524190E+03  0.32128524194E+03  0.50400001928E-02 0.  1.
    10030    2    1    2    0    0  0.00000000000E+00  0.00000000000E+00  0.12030164538E+04  0.18455869376E+04  0.13996222906E+04 0.  0.
        4    1    3    3  502    0 -0.39549918775E+03 -0.59581291187E+02  0.13587343710E+04  0.14163792718E+04  0.12699999809E+01 0. -1.
       -4    1    3    3    0  502  0.39549918775E+03  0.59581291187E+02 -0.15571791721E+03  0.42920766584E+03  0.12699999809E+01 0.  1.
</event>
<event>
 5   0  0.2427569E-05  0.1396831E+04  0.7818609E-02  0.8956115E-01
        1   -1    0    0  501    0  0.00000000000E+00  0.00000000000E+00  0.69139970262E+03  0.69139970264E+03  0.50400001928E-02 0. -1.
       -1   -1    0    0    0  501  0.00000000000E+00  0.00000000000E+00 -0.70550295505E+03  0.70550295507E+03  0.50400001928E-02 0.  1.
    10030    2    1    2    0    0  0.00000000000E+00  0.00000000000E+00 -0.14103252430E+02  0.13969026577E+04  0.13968314621E+04 0.  0.
        1    1    3    3  502    0 -0.67365622450E+03 -0.25697714491E+01 -0.19135757633E+03  0.70031209798E+03  0.50400001928E-02 0.  1.
       -1    1    3    3    0  502  0.67365622450E+03  0.25697714491E+01  0.17725432390E+03  0.69659055973E+03  0.50400001928E-02 0. -1.
</event>
<event>
 5   0  0.4460282E-05  0.1400321E+04  0.7818609E-02  0.8953586E-01
        2   -1    0    0  501    0  0.00000000000E+00  0.00000000000E+00  0.27424658657E+04  0.27424658657E+04  0.25500000920E-02 0. -1.
       -2   -1    0    0    0  501  0.00000000000E+00  0.00000000000E+00 -0.17875330756E+03  0.17875330758E+03  0.25500000920E-02 0.  1.
    10030    2    1    2    0    0  0.00000000000E+00  0.00000000000E+00  0.25637125581E+04  0.29212191733E+04  0.14003211694E+04 0.  0.
        1    1    3    3  502    0  0.54525598445E+03 -0.37754263711E+03  0.81360870204E+03  0.10496674004E+04  0.50400001928E-02 0.  1.
       -1    1    3    3    0  502 -0.54525598445E+03  0.37754263711E+03  0.17501038561E+04  0.18715517729E+04  0.50400001928E-02 0. -1.
</event>
<event>
 5   0  0.4527503E-05  0.1400255E+04  0.7818609E-02  0.8953634E-01
        2   -1    0    0  501    0  0.00000000000E+00  0.00000000000E+00  0.18143627064E+04  0.18143627064E+04  0.25500000920E-02 0.  1.
       -2   -1    0    0    0  501  0.00000000000E+00  0.00000000000E+00 -0.27016582965E+03  0.27016582966E+03  0.25500000920E-02 0. -1.
    10030    2    1    2    0    0  0.00000000000E+00  0.00000000000E+00  0.15441968768E+04  0.20845285361E+04  0.14002554137E+04 0.  0.
        4    1    3    3  502    0 -0.13097348728E+03 -0.80344231061E+02  0.17889511062E+04  0.17955380595E+04  0.12699999809E+01 0.  1.
       -4    1    3    3    0  502  0.13097348728E+03  0.80344231061E+02 -0.24475422943E+03  0.28899047659E+03  0.12699999809E+01 0. -1.
</event>
<event>
 5   0  0.4243281E-05  0.1399047E+04  0.7818609E-02  0.8954509E-01
       -2   -1    0    0    0  501  0.00000000000E+00  0.00000000000E+00  0.37419087210E+03  0.37419087211E+03  0.25500000920E-02 0. -1.
        2   -1    0    0  501    0  0.00000000000E+00  0.00000000000E+00 -0.13077097661E+04  0.13077097661E+04  0.25500000920E-02 0.  1.
    10030    2    1    2    0    0  0.00000000000E+00  0.00000000000E+00 -0.93351889398E+03  0.16819006382E+04  0.13990469011E+04 0.  0.
        2    1    3    3  502    0 -0.61769009160E+03 -0.17623627538E+03 -0.79977041583E+03  0.10257840865E+04  0.25500000920E-02 0.  1.
       -2    1    3    3    0  502  0.61769009160E+03  0.17623627538E+03 -0.13374847815E+03  0.65611655172E+03  0.25500000920E-02 0. -1.
</event>
<event>
 5   0  0.2316714E-05  0.1399601E+04  0.7818609E-02  0.8954108E-01
        1   -1    0    0  501    0  0.00000000000E+00  0.00000000000E+00  0.10148040672E+04  0.10148040673E+04  0.50400001928E-02 0.  1.
       -1   -1    0    0    0  501  0.00000000000E+00  0.00000000000E+00 -0.48257647947E+03  0.48257647949E+03  0.50400001928E-02 0. -1.
    10030    2    1    2    0    0  0.00000000000E+00  0.00000000000E+00  0.53222758778E+03  0.14973805467E+04  0.13996007633E+04 0.  0.
        5    1    3    3  502    0 -0.58878350704E+03 -0.26301791996E+03 -0.24633140318E+02  0.64534744594E+03  0.46999998093E+01 0. -1.
       -5    1    3    3    0  502  0.58878350704E+03  0.26301791996E+03  0.55686072809E+03  0.85203310081E+03  0.46999998093E+01 0.  1.
</event>
<event>
 5   0  0.2467303E-05  0.1399956E+04  0.7818609E-02  0.8953850E-01
        1   -1    0    0  501    0  0.00000000000E+00  0.00000000000E+00  0.20461924023E+04  0.20461924023E+04  0.50400001928E-02 0. -1.
       -1   -1    0    0    0  501  0.00000000000E+00  0.00000000000E+00 -0.23945409240E+03  0.23945409245E+03  0.50400001928E-02 0.  1.
    10030    2    1    2    0    0  0.00000000000E+00  0.00000000000E+00  0.18067383099E+04  0.22856464947E+04  0.13999559202E+04 0.  0.
        3    1    3    3  502    0  0.61997370484E+03  0.22619576106E+03  0.12842969469E+04  0.14439357933E+04  0.10100000352E+00 0. -1.
       -3    1    3    3    0  502 -0.61997370484E+03 -0.22619576106E+03  0.52244136293E+03  0.84171070144E+03  0.10100000352E+00 0.  1.
</event>
<event>
 5   0  0.4460282E-05  0.1400330E+04  0.7818609E-02  0.8953580E-01
       -2   -1    0    0    0  501  0.00000000000E+00  0.00000000000E+00  0.79621580545E+03  0.79621580546E+03  0.25500000920E-02 0.  1.
        2   -1    0    0  501    0  0.00000000000E+00  0.00000000000E+00 -0.61570134768E+03  0.61570134768E+03  0.25500000920E-02 0. -1.
    10030    2    1    2    0    0  0.00000000000E+00  0.00000000000E+00  0.18051445778E+03  0.14119171531E+04  0.14003301674E+04 0.  0.
        1    1    3    3  502    0 -0.24208537237E+03 -0.36386506833E+03  0.64180089990E+03  0.77647376685E+03  0.50400001928E-02 0.  1.
       -1    1    3    3    0  502  0.24208537237E+03  0.36386506833E+03 -0.46128644213E+03  0.63544338629E+03  0.50400001928E-02 0. -1.
</event>
<event>
 5   0  0.2428507E-05  0.1400663E+04  0.7818609E-02  0.8953339E-01
       -1   -1    0    0    0  501  0.00000000000E+00  0.00000000000E+00  0.13703404839E+04  0.13703404839E+04  0.50400001928E-02 0. -1.
        1   -1    0    0  501    0  0.00000000000E+00  0.00000000000E+00 -0.35791402551E+03  0.35791402555E+03  0.50400001928E-02 0.  1.
    10030    2    1    2    0    0  0.00000000000E+00  0.00000000000E+00  0.10124264583E+04  0.17282545094E+04  0.14006628130E+04 0.  0.
        4    1    3    3  502    0  0.69356785475E+03  0.68155866335E+02  0.42089775981E+03  0.81414871392E+03  0.12699999809E+01 0.  1.
       -4    1    3    3    0  502 -0.69356785475E+03 -0.68155866335E+02  0.59152869853E+03  0.91410579549E+03  0.12699999809E+01 0. -1.
</event>
<event>
 5   0  0.2467303E-05  0.1399244E+04  0.7818609E-02  0.8954366E-01
       -1   -1    0    0    0  501  0.00000000000E+00  0.00000000000E+00  0.81533119866E+03  0.81533119868E+03  0.50400001928E-02 0.  1.
        1   -1    0    0  501    0  0.00000000000E+00  0.00000000000E+00 -0.60033349223E+03  0.60033349225E+03  0.50400001928E-02 0. -1.
    10030    2    1    2    0    0  0.00000000000E+00  0.00000000000E+00  0.21499770643E+03  0.14156646909E+04  0.13992435468E+04 0.  0.
        3    1    3    3  502    0  0.18499477210E+03  0.58749808128E+03  0.44319629694E+03  0.75881488456E+03  0.10100000352E+00 0. -1.
       -3    1    3    3    0  502 -0.18499477210E+03 -0.58749808128E+03 -0.22819859051E+03  0.65684980637E+03  0.10100000352E+00 0.  1.
</event>
<event>
 5   0  0.2427569E-05  0.1400026E+04  0.7818609E-02  0.8953800E-01
        1   -1    0    0  501    0  0.00000000000E+00  0.00000000000E+00  0.78370453488E+03  0.78370453489E+03  0.50400001928E-02 0. -1.
       -1   -1    0    0    0  501  0.00000000000E+00  0.00000000000E+00 -0.62525893805E+03  0.62525893807E+03  0.50400001928E-02 0.  1.
    10030    2    1    2    0    0  0.00000000000E+00  0.00000000000E+00  0.15844559683E+03  0.14089634730E+04  0.14000260930E+04 0.  0.
        1    1    3    3  502    0 -0.24184391296E+03  0.65517043662E+03  0.12729261950E+03  0.70988744900E+03  0.50400001928E-02 0.  1.
       -1    1    3    3    0  502  0.24184391296E+03 -0.65517043662E+03  0.31152977330E+02  0.69907602396E+03  0.50400001928E-02 0. -1.
</event>
<event>
 5   0  0.2316714E-05  0.1397810E+04  0.7818609E-02  0.8955405E-01
        1   -1    0    0  501    0  0.00000000000E+00  0.00000000000E+00  0.15698786160E+04  0.15698786160E+04  0.50400001928E-02 0.  1.
       -1   -1    0    0    0  501  0.00000000000E+00  0.00000000000E+00 -0.31115025650E+03  0.31115025654E+03  0.50400001928E-02 0. -1.
    10030    2    1    2    0    0  0.00000000000E+00  0.00000000000E+00  0.12587283595E+04  0.18810288726E+04  0.13978099071E+04 0.  0.
        5    1    3    3  502    0 -0.53248868713E+03 -0.73575965512E+02  0.12304080775E+04  0.13427150672E+04  0.46999998093E+01 0. -1.
       -5    1    3    3    0  502  0.53248868713E+03  0.73575965512E+02  0.28320282004E+02  0.53831380531E+03  0.46999998093E+01 0.  1.
</event>
<event>
 5   0  0.2467303E-05  0.1399498E+04  0.7818609E-02  0.8954182E-01
       -1   -1    0    0    0  501  0.00000000000E+00  0.00000000000E+00  0.77772239197E+03  0.77772239199E+03  0.50400001928E-02 0.  1.
        1   -1    0    0  501    0  0.00000000000E+00  0.00000000000E+00 -0.62959343085E+03  0.62959343087E+03  0.50400001928E-02 0. -1.
    10030    2    1    2    0    0  0.00000000000E+00  0.00000000000E+00  0.14812896113E+03  0.14073158229E+04  0.13994983516E+04 0.  0.
        3    1    3    3  502    0  0.57678210192E+03 -0.30294204568E+03  0.33082863466E+03  0.73068397536E+03  0.10100000352E+00 0.  1.
       -3    1    3    3    0  502 -0.57678210192E+03  0.30294204568E+03 -0.18269967353E+03  0.67663184750E+03  0.10100000352E+00 0. -1.
</event>
<event>
 5   0  0.4527503E-05  0.1402158E+04  0.7818609E-02  0.8952258E-01
       -2   -1    0    0    0  501  0.00000000000E+00  0.00000000000E+00  0.43639262186E+03  0.43639262187E+03  0.25500000920E-02 0. -1.
        2   -1    0    0  501    0  0.00000000000E+00  0.00000000000E+00 -0.11263059587E+04  0.11263059587E+04  0.25500000920E-02 0.  1.
    10030    2    1    2    0    0  0.00000000000E+00  0.00000000000E+00 -0.68991333684E+03  0.15626985806E+04  0.14021577805E+04 0.  0.
        4    1    3    3  502    0 -0.24911848254E+03  0.49174714193E+02 -0.10732535553E+04  0.11028839366E+04  0.12699999809E+01 0.  1.
       -4    1    3    3    0  502  0.24911848254E+03 -0.49174714193E+02  0.38334021841E+03  0.45981464397E+03  0.12699999809E+01 0. -1.
</event>
<event>
 5   0  0.4460282E-05  0.1400783E+04  0.7818609E-02  0.8953252E-01
        2   -1    0    0  501    0  0.00000000000E+00  0.00000000000E+00  0.15503004730E+04  0.15503004730E+04  0.25500000920E-02 0. -1.
       -2   -1    0    0    0  501  0.00000000000E+00  0.00000000000E+00 -0.31642138574E+03  0.31642138575E+03  0.25500000920E-02 0.  1.
    10030    2    1    2    0    0  0.00000000000E+00  0.00000000000E+00  0.12338790872E+04  0.18667218587E+04  0.14007829582E+04 0.  0.
        1    1    3    3  502    0  0.39723239149E+03 -0.55661186730E+03  0.41510969042E+03  0.79995399791E+03  0.50400001928E-02 0.  1.
       -1    1    3    3    0  502 -0.39723239149E+03  0.55661186730E+03  0.81876939682E+03  0.10667678608E+04  0.50400001928E-02 0. -1.
</event>
<event>
 5   0  0.2428507E-05  0.1399903E+04  0.7818609E-02  0.8953889E-01
       -1   -1    0    0    0  501  0.00000000000E+00  0.00000000000E+00  0.31391084927E+03  0.31391084931E+03  0.50400001928E-02 0.  1.
        1   -1    0    0  501    0  0.00000000000E+00  0.00000000000E+00 -0.15607369973E+04  0.15607369974E+04  0.50400001928E-02 0. -1.
    10030    2    1    2    0    0  0.00000000000E+00  0.00000000000E+00 -0.12468261481E+04  0.18746478467E+04  0.13999032486E+04 0.  0.
        4    1    3    3  502    0  0.10125112918E+03  0.63020392516E+02 -0.15470293662E+04  0.15516200675E+04  0.12699999809E+01 0. -1.
       -4    1    3    3    0  502 -0.10125112918E+03 -0.63020392516E+02  0.30020321814E+03  0.32302777916E+03  0.12699999809E+01 0.  1.
</event>
<event>
 5   0  0.4621450E-05  0.1403982E+04  0.7818609E-02  0.8950941E-01
        2   -1    0    0  501    0  0.00000000000E+00  0.00000000000E+00  0.15633760043E+04  0.15633760043E+04  0.25500000920E-02 0.  1.
       -2   -1    0    0    0  501  0.00000000000E+00  0.00000000000E+00 -0.31520982064E+03  0.31520982065E+03  0.25500000920E-02 0. -1.
    10030    2    1    2    0    0  0.00000000000E+00  0.00000000000E+00  0.12481661837E+04  0.18785858250E+04  0.14039821508E+04 0.  0.
        5    1    3    3  502    0  0.26829604294E+02  0.64006760132E+03  0.10080869435E+04  0.11944319728E+04  0.46999998093E+01 0.  1.
       -5    1    3    3    0  502 -0.26829604294E+02 -0.64006760132E+03  0.24007924021E+03  0.68415385222E+03  0.46999998093E+01 0. -1.
</event>
<event>
 5   0  0.2428507E-05  0.1400040E+04  0.7818609E-02  0.8953790E-01
        1   -1    0    0  501    0  0.00000000000E+00  0.00000000000E+00  0.67751956231E+03  0.67751956233E+03  0.50400001928E-02 0.  1.
       -1   -1    0    0    0  501  0.00000000000E+00  0.00000000000E+00 -0.72326757072E+03  0.72326757074E+03  0.50400001928E-02 0. -1.
    10030    2    1    2    0    0  0.00000000000E+00  0.00000000000E+00 -0.45748008417E+02  0.14007871331E+04  0.14000398965E+04 0.  0.
        4    1    3    3  502    0 -0.53282825809E+03  0.44690181035E+03  0.57163280482E+02  0.69777964591E+03  0.12699999809E+01 0.  1.
       -4    1    3    3    0  502  0.53282825809E+03 -0.44690181035E+03 -0.10291128890E+03  0.70300748716E+03  0.12699999809E+01 0. -1.
</event>
<event>
 5   0  0.2427569E-05  0.1400087E+04  0.7818609E-02  0.8953755E-01
       -1   -1    0    0    0  501  0.00000000000E+00  0.00000000000E+00  0.30343436912E+03  0.30343436916E+03  0.50400001928E-02 0. -1.
        1   -1    0    0  501    0  0.00000000000E+00  0.00000000000E+00 -0.16150479512E+04  0.16150479512E+04  0.50400001928E-02 0.  1.
    10030    2    1    2    0    0  0.00000000000E+00  0.00000000000E+00 -0.13116135821E+04  0.19184823204E+04  0.14000872204E+04 0.  0.
        1    1    3    3  502    0  0.45243850865E+02  0.18025850041E+03 -0.15806260705E+04  0.15915146584E+04  0.50400001928E-02 0.  1.
       -1    1    3    3    0  502 -0.45243850865E+02 -0.18025850041E+03  0.26901248845E+03  0.32696766198E+03  0.50400001928E-02 0. -1.
</event>
<event>
 5   0  0.2427569E-05  0.1399788E+04  0.7818609E-02  0.8953972E-01
        1   -1    0    0  501    0  0.00000000000E+00  0.00000000000E+00  0.93330489371E+03  0.93330489373E+03  0.50400001928E-02 0. -1.
       -1   -1    0    0    0  501  0.00000000000E+00  0.00000000000E+00 -0.52485725574E+03  0.52485725577E+03  0.50400001928E-02 0.  1.
    10030    2    1    2    0    0  0.00000000000E+00  0.00000000000E+00  0.40844763797E+03  0.14581621495E+04  0.13997883344E+04 0.  0.
        1    1    3    3  502    0  0.44250086654E+03  0.17128298001E+03  0.74017611854E+03  0.87920734904E+03  0.50400001928E-02 0. -1.
       -1    1    3    3    0  502 -0.44250086654E+03 -0.17128298001E+03 -0.33172848056E+03  0.57895480046E+03  0.50400001928E-02 0.  1.
</event>
<event>
 5   0  0.2467303E-05  0.1400298E+04  0.7818609E-02  0.8953603E-01
        1   -1    0    0  501    0  0.00000000000E+00  0.00000000000E+00  0.13114291110E+04  0.13114291110E+04  0.50400001928E-02 0. -1.
       -1   -1    0    0    0  501  0.00000000000E+00  0.00000000000E+00 -0.37379703485E+03  0.37379703489E+03  0.50400001928E-02 0.  1.
    10030    2    1    2    0    0  0.00000000000E+00  0.00000000000E+00  0.93763207613E+03  0.16852261459E+04  0.14002975586E+04 0.  0.
        3    1    3    3  502    0  0.30680859517E+03 -0.46812435131E+03  0.97504434537E+03  0.11242701668E+04  0.10100000352E+00 0. -1.
       -3    1    3    3    0  502 -0.30680859517E+03  0.46812435131E+03 -0.37412269243E+02  0.56095597906E+03  0.10100000352E+00 0.  1.
</event>
<event>
 5   0  0.4621450E-05  0.1400137E+04  0.7818609E-02  0.8953719E-01
        2   -1    0    0  501    0  0.00000000000E+00  0.00000000000E+00  0.16240987662E+04  0.16240987662E+04  0.25500000920E-02 0. -1.
       -2   -1    0    0    0  501  0.00000000000E+00  0.00000000000E+00 -0.30176492938E+03  0.30176492939E+03  0.25500000920E-02 0.  1.
    10030    2    1    2    0    0  0.00000000000E+00  0.00000000000E+00  0.13223338368E+04  0.19258636956E+04  0.14001372069E+04 0.  0.
        5    1    3    3  502    0  0.30590244967E+03  0.73829615007E+02  0.15213073044E+04  0.15535202365E+04  0.46999998093E+01 0. -1.
       -5    1    3    3    0  502 -0.30590244967E+03 -0.73829615007E+02 -0.19897346756E+03  0.37234345913E+03  0.46999998093E+01 0.  1.
</event>
<event>
 5   0  0.4460282E-05  0.1399942E+04  0.7818609E-02  0.8953861E-01
       -2   -1    0    0    0  501  0.00000000000E+00  0.00000000000E+00  0.53186020609E+03  0.53186020610E+03  0.25500000920E-02 0. -1.
        2   -1    0    0  501    0  0.00000000000E+00  0.00000000000E+00 -0.92121782309E+03  0.92121782310E+03  0.25500000920E-02 0.  1.
    10030    2    1    2    0    0  0.00000000000E+00  0.00000000000E+00 -0.38935761700E+03  0.14530780292E+04  0.13999415720E+04 0.  0.
        1    1    3    3  502    0 -0.43888046550E+03 -0.32896202667E+03 -0.64607284730E+03  0.84749171207E+03  0.50400001928E-02 0.  1.
       -1    1    3    3    0  502  0.43888046550E+03  0.32896202667E+03  0.25671523030E+03  0.60558631712E+03  0.50400001928E-02 0. -1.
</event>
<event>
 5   0  0.2428507E-05  0.1399403E+04  0.7818609E-02  0.8954251E-01
        1   -1    0    0  501    0  0.00000000000E+00  0.00000000000E+00  0.95163405995E+03  0.95163405996E+03  0.50400001928E-02 0.  1.
       -1   -1    0    0    0  501  0.00000000000E+00  0.00000000000E+00 -0.51446462356E+03  0.51446462358E+03  0.50400001928E-02 0. -1.
    10030    2    1    2    0    0  0.00000000000E+00  0.00000000000E+00  0.43716943639E+03  0.14660986835E+04  0.13994028133E+04 0.  0.
        4    1    3    3  502    0  0.50896527520E+03 -0.18946209516E+03  0.68079041246E+03  0.87087239906E+03  0.12699999809E+01 0.  1.
       -4    1    3    3    0  502 -0.50896527520E+03  0.18946209516E+03 -0.24362097607E+03  0.59522628448E+03  0.12699999809E+01 0. -1.
</event>
<event>
 5   0  0.2467303E-05  0.1399612E+04  0.7818609E-02  0.8954100E-01
        1   -1    0    0  501    0  0.00000000000E+00  0.00000000000E+00  0.10770588514E+04  0.10770588514E+04  0.50400001928E-02 0.  1.
       -1   -1    0    0    0  501  0.00000000000E+00  0.00000000000E+00 -0.45469045563E+03  0.45469045566E+03  0.50400001928E-02 0. -1.
    10030    2    1    2    0    0  0.00000000000E+00  0.00000000000E+00  0.62236839578E+03  0.15317493071E+04  0.13996119175E+04 0.  0.
        3    1    3    3  502    0  0.19669415321E+03  0.65506518357E+03  0.47325071077E+03  0.83172425122E+03  0.10100000352E+00 0.  1.
       -3    1    3    3    0  502 -0.19669415321E+03 -0.65506518357E+03  0.14911768501E+03  0.70002505585E+03  0.10100000352E+00 0. -1.
</event>
<event>
 5   0  0.4621450E-05  0.1400810E+04  0.7818609E-02  0.8953232E-01
        2   -1    0    0  501    0  0.00000000000E+00  0.00000000000E+00  0.79143693791E+03  0.79143693791E+03  0.25500000920E-02 0. -1.
       -2   -1    0    0    0  501  0.00000000000E+00  0.00000000000E+00 -0.61984404964E+03  0.61984404964E+03  0.25500000920E-02 0.  1.
    10030    2    1    2    0    0  0.00000000000E+00  0.00000000000E+00  0.17159288827E+03  0.14112809876E+04  0.14008104463E+04 0.  0.
        5    1    3    3  502    0 -0.49108944683E+03  0.42243851156E+03 -0.18250645087E+03  0.67301845104E+03  0.46999998093E+01 0.  1.
       -5    1    3    3    0  502  0.49108944683E+03 -0.42243851156E+03  0.35409933913E+03  0.73826253651E+03  0.46999998093E+01 0. -1.
</event>
<event>
 5   0  0.2467303E-05  0.1400174E+04  0.7818609E-02  0.8953693E-01
       -1   -1    0    0    0  501  0.00000000000E+00  0.00000000000E+00  0.71884542540E+03  0.71884542542E+03  0.50400001928E-02 0. -1.
        1   -1    0    0  501    0  0.00000000000E+00  0.00000000000E+00 -0.68181783047E+03  0.68181783048E+03  0.50400001928E-02 0.  1.
    10030    2    1    2    0    0  0.00000000000E+00  0.00000000000E+00  0.37027594939E+02  0.14006632559E+04  0.14001737441E+04 0.  0.
        3    1    3    3  502    0  0.47706351289E+02 -0.34580288881E+03 -0.58854767127E+03  0.68428349785E+03  0.10100000352E+00 0.  1.
       -3    1    3    3    0  502 -0.47706351289E+02  0.34580288881E+03  0.62557526621E+03  0.71637975806E+03  0.10100000352E+00 0. -1.
</event>
<event>
 5   0  0.2467303E-05  0.1397512E+04  0.7818609E-02  0.8955621E-01
       -1   -1    0    0    0  501  0.00000000000E+00  0.00000000000E+00  0.22405791930E+03  0.22405791936E+03  0.50400001928E-02 0.  1.
        1   -1    0    0  501    0  0.00000000000E+00  0.00000000000E+00 -0.21791693433E+04  0.21791693433E+04  0.50400001928E-02 0. -1.
    10030    2    1    2    0    0  0.00000000000E+00  0.00000000000E+00 -0.19551114240E+04  0.24032272627E+04  0.13975122882E+04 0.  0.
        3    1    3    3  502    0  0.49923232372E+02 -0.61063716319E+03 -0.39976964158E+03  0.73156397583E+03  0.10100000352E+00 0.  1.
       -3    1    3    3    0  502 -0.49923232372E+02  0.61063716319E+03 -0.15553417824E+04  0.16716632868E+04  0.10100000352E+00 0. -1.
</event>
<event>
 5   0  0.4527503E-05  0.1400266E+04  0.7818609E-02  0.8953626E-01
       -2   -1    0    0    0  501  0.00000000000E+00  0.00000000000E+00  0.66412413432E+03  0.66412413433E+03  0.25500000920E-02 0. -1.
        2   -1    0    0  501    0  0.00000000000E+00  0.00000000000E+00 -0.73809377739E+03  0.73809377740E+03  0.25500000920E-02 0.  1.
    10030    2    1    2    0    0  0.00000000000E+00  0.00000000000E+00 -0.73969643067E+02  0.14022179117E+04  0.14002655333E+04 0.  0.
        4    1    3    3  502    0 -0.40681958367E+03  0.92803235242E+02 -0.59996942604E+03  0.73080745700E+03  0.12699999809E+01 0.  1.
       -4    1    3    3    0  502  0.40681958367E+03 -0.92803235242E+02  0.52599978297E+03  0.67141045472E+03  0.12699999809E+01 0. -1.
</event>
<event>
 5   0  0.4243281E-05  0.1399998E+04  0.7818609E-02  0.8953820E-01
        2   -1    0    0  501    0  0.00000000000E+00  0.00000000000E+00  0.10750492258E+04  0.10750492258E+04  0.25500000920E-02 0. -1.
       -2   -1    0    0    0  501  0.00000000000E+00  0.00000000000E+00 -0.45579204490E+03  0.45579204491E+03  0.25500000920E-02 0.  1.
    10030    2    1    2    0    0  0.00000000000E+00  0.00000000000E+00  0.61925718086E+03  0.15308412707E+04  0.13999984071E+04 0.  0.
        2    1    3    3  502    0  0.14227082453E+03  0.44134036441E+03  0.88301906473E+03  0.99736902571E+03  0.25500000920E-02 0. -1.
       -2    1    3    3    0  502 -0.14227082453E+03 -0.44134036441E+03 -0.26376188386E+03  0.53347224497E+03  0.25500000920E-02 0.  1.
</event>
<event>
 5   0  0.2363419E-05  0.1399906E+04  0.7818609E-02  0.8953886E-01
       -1   -1    0    0    0  501  0.00000000000E+00  0.00000000000E+00  0.45865742189E+03  0.45865742192E+03  0.50400001928E-02 0.  1.
        1   -1    0    0  501    0  0.00000000000E+00  0.00000000000E+00 -0.10681924270E+04  0.10681924270E+04  0.50400001928E-02 0. -1.
    10030    2    1    2    0    0  0.00000000000E+00  0.00000000000E+00 -0.60953500513E+03  0.15268498489E+04  0.13999062607E+04 0.  0.
        2    1    3    3  502    0 -0.77958866969E+01  0.44093609559E+03 -0.89760902466E+03  0.10000936843E+04  0.25500000920E-02 0. -1.
       -2    1    3    3    0  502  0.77958866969E+01 -0.44093609559E+03  0.28807401953E+03  0.52675616463E+03  0.25500000920E-02 0.  1.
</event>
<event>
 5   0  0.4243281E-05  0.1399972E+04  0.7818609E-02  0.8953839E-01
       -2   -1    0    0    0  501  0.00000000000E+00  0.00000000000E+00  0.26466766931E+03  0.26466766932E+03  0.25500000920E-02 0.  1.
        2   -1    0    0  501    0  0.00000000000E+00  0.00000000000E+00 -0.18513041300E+04  0.18513041300E+04  0.25500000920E-02 0. -1.
    10030    2    1    2    0    0  0.00000000000E+00  0.00000000000E+00 -0.15866364606E+04  0.21159717993E+04  0.13999719273E+04 0.  0.
        2    1    3    3  502    0 -0.43905624575E+03 -0.28148735643E+03 -0.87661119052E+02  0.52885724970E+03  0.25500000920E-02 0.  1.
       -2    1    3    3    0  502  0.43905624575E+03  0.28148735643E+03 -0.14989753416E+04  0.15871145496E+04  0.25500000920E-02 0. -1.
</event>
<event>
 5   0  0.2363419E-05  0.1400072E+04  0.7818609E-02  0.8953766E-01
        1   -1    0    0  501    0  0.00000000000E+00  0.00000000000E+00  0.91147611273E+03  0.91147611274E+03  0.50400001928E-02 0.  1.
       -1   -1    0    0    0  501  0.00000000000E+00  0.00000000000E+00 -0.53764474188E+03  0.53764474190E+03  0.50400001928E-02 0. -1.
    10030    2    1    2    0    0  0.00000000000E+00  0.00000000000E+00  0.37383137085E+03  0.14491208546E+04  0.14000719116E+04 0.  0.
        2    1    3    3  502    0 -0.49133406355E+03 -0.31804435878E+03 -0.21058146999E+03  0.62201762970E+03  0.25500000920E-02 0. -1.
       -2    1    3    3    0  502  0.49133406355E+03  0.31804435878E+03  0.58441284085E+03  0.82710322494E+03  0.25500000920E-02 0.  1.
</event>
<event>
 5   0  0.1661000E-05  0.1401766E+04  0.7818609E-02  0.8952541E-01
        3   -1    0    0  501    0  0.00000000000E+00  0.00000000000E+00  0.13716572297E+04  0.13716572334E+04  0.10100000352E+00 0.  1.
       -3   -1    0    0    0  501  0.00000000000E+00  0.00000000000E+00 -0.35813400836E+03  0.35813402260E+03  0.10100000352E+00 0. -1.
    10030    2    1    2    0    0  0.00000000000E+00  0.00000000000E+00  0.10135232213E+04  0.17297912560E+04  0.14017661963E+04 0.  0.
        4    1    3    3  502    0 -0.31941764019E+03 -0.91543896665E+02  0.12682833701E+04  0.13110881868E+04  0.12699999809E+01 0.  1.
       -4    1    3    3    0  502  0.31941764019E+03  0.91543896665E+02 -0.25476014874E+03  0.41870306921E+03  0.12699999809E+01 0. -1.
</event>
<event>
 5   0  0.2427569E-05  0.1398578E+04  0.7818609E-02  0.8954848E-01
        1   -1    0    0  501    0  0.00000000000E+00  0.00000000000E+00  0.48646940059E+03  0.48646940062E+03  0.50400001928E-02 0.  1.
       -1   -1    0    0    0  501  0.00000000000E+00  0.00000000000E+00 -0.10052131494E+04  0.10052131494E+04  0.50400001928E-02 0. -1.
    10030    2    1    2    0    0  0.00000000000E+00  0.00000000000E+00 -0.51874374882E+03  0.14916825500E+04  0.13985784759E+04 0.  0.
        1    1    3    3  502    0  0.40833203569E+03  0.32918584751E+03 -0.75266167194E+03  0.91738648672E+03  0.50400001928E-02 0. -1.
       -1    1    3    3    0  502 -0.40833203569E+03 -0.32918584751E+03  0.23391792312E+03  0.57429606333E+03  0.50400001928E-02 0.  1.
</event>
<event>
 5   0  0.4243281E-05  0.1399551E+04  0.7818609E-02  0.8954144E-01
        2   -1    0    0  501    0  0.00000000000E+00  0.00000000000E+00  0.16214814073E+04  0.16214814073E+04  0.25500000920E-02 0.  1.
       -2   -1    0    0    0  501  0.00000000000E+00  0.00000000000E+00 -0.30199893494E+03  0.30199893495E+03  0.25500000920E-02 0. -1.
    10030    2    1    2    0    0  0.00000000000E+00  0.00000000000E+00  0.13194824724E+04  0.19234803423E+04  0.13995508680E+04 0.  0.
        2    1    3    3  502    0 -0.36380021572E+03  0.37228646335E+03  0.13025192808E+04  0.14026775412E+04  0.25500000920E-02 0.  1.
       -2    1    3    3    0  502  0.36380021572E+03 -0.37228646335E+03  0.16963191621E+02  0.52080280110E+03  0.25500000920E-02 0. -1.
</event>
<event>
 5   0  0.4527503E-05  0.1400304E+04  0.7818609E-02  0.8953598E-01
        2   -1    0    0  501    0  0.00000000000E+00  0.00000000000E+00  0.14451664852E+04  0.14451664852E+04  0.25500000920E-02 0.  1.
       -2   -1    0    0    0  501  0.00000000000E+00  0.00000000000E+00 -0.33920862237E+03  0.33920862238E+03  0.25500000920E-02 0. -1.
    10030    2    1    2    0    0  0.00000000000E+00  0.00000000000E+00  0.11059578628E+04  0.17843751076E+04  0.14003041563E+04 0.  0.
        4    1    3    3  502    0 -0.55885831724E+03 -0.11617986324E+03  0.10696364075E+04  0.12124124861E+04  0.12699999809E+01 0.  1.
       -4    1    3    3    0  502  0.55885831724E+03  0.11617986324E+03  0.36321455391E+02  0.57196262150E+03  0.12699999809E+01 0. -1.
</event>
<event>
 5   0  0.4460282E-05  0.1399813E+04  0.7818609E-02  0.8953954E-01
        2   -1    0    0  501    0  0.00000000000E+00  0.00000000000E+00  0.75582470047E+03  0.75582470048E+03  0.25500000920E-02 0. -1.
       -2   -1    0    0    0  501  0.00000000000E+00  0.00000000000E+00 -0.64812483484E+03  0.64812483485E+03  0.25500000920E-02 0.  1.
    10030    2    1    2    0    0  0.00000000000E+00  0.00000000000E+00  0.10769986563E+03  0.14039495353E+04  0.13998125005E+04 0.  0.
        1    1    3    3  502    0 -0.37374327804E+03 -0.56278324630E+03  0.23731057278E+03  0.71604841189E+03  0.50400001928E-02 0. -1.
       -1    1    3    3    0  502  0.37374327804E+03  0.56278324630E+03 -0.12961070715E+03  0.68790112344E+03  0.50400001928E-02 0.  1.
</event>
<event>
 5   0  0.4460282E-05  0.1400039E+04  0.7818609E-02  0.8953790E-01
        2   -1    0    0  501    0  0.00000000000E+00  0.00000000000E+00  0.83339469505E+03  0.83339469505E+03  0.25500000920E-02 0.  1.
       -2   -1    0    0    0  501  0.00000000000E+00  0.00000000000E+00 -0.58798938838E+03  0.58798938838E+03  0.25500000920E-02 0. -1.
    10030    2    1    2    0    0  0.00000000000E+00  0.00000000000E+00  0.24540530667E+03  0.14213840834E+04  0.14000389095E+04 0.  0.
        1    1    3    3  502    0 -0.10230467788E+03  0.62029622427E+03 -0.18987707844E+03  0.65672441549E+03  0.50400001928E-02 0. -1.
       -1    1    3    3    0  502  0.10230467788E+03 -0.62029622427E+03  0.43528238511E+03  0.76465966794E+03  0.50400001928E-02 0.  1.
</event>
<event>
 5   0  0.2363419E-05  0.1400830E+04  0.7818609E-02  0.8953218E-01
       -1   -1    0    0    0  501  0.00000000000E+00  0.00000000000E+00  0.13476988859E+04  0.13476988859E+04  0.50400001928E-02 0. -1.
        1   -1    0    0  501    0  0.00000000000E+00  0.00000000000E+00 -0.36401406833E+03  0.36401406837E+03  0.50400001928E-02 0.  1.
    10030    2    1    2    0    0  0.00000000000E+00  0.00000000000E+00  0.98368481758E+03  0.17117129543E+04  0.14008302601E+04 0.  0.
        2    1    3    3  502    0  0.43056408215E+03 -0.19456367069E+03 -0.13995541932E+03  0.49277578085E+03  0.25500000920E-02 0.  1.
       -2    1    3    3    0  502 -0.43056408215E+03  0.19456367069E+03  0.11236402369E+04  0.12189371734E+04  0.25500000920E-02 0. -1.
</event>
<event>
 5   0  0.1661000E-05  0.1400212E+04  0.7818609E-02  0.8953665E-01
       -4   -1    0    0    0  501  0.00000000000E+00  0.00000000000E+00  0.59617894788E+03  0.59618030058E+03  0.12699999809E+01 0.  1.
        4   -1    0    0  501    0  0.00000000000E+00  0.00000000000E+00 -0.82214692112E+03  0.82214790203E+03  0.12699999809E+01 0. -1.
    10030    2    1    2    0    0  0.00000000000E+00  0.00000000000E+00 -0.22596797324E+03  0.14183282026E+04  0.14002119002E+04 0.  0.
        3    1    3    3  502    0 -0.45827074872E+03 -0.28077655711E+03  0.34148651529E+03  0.63675788529E+03  0.10100000352E+00 0.  1.
       -3    1    3    3    0  502  0.45827074872E+03  0.28077655711E+03 -0.56745448853E+03  0.78157031732E+03  0.10100000352E+00 0. -1.
</event>
<event>
 5   0  0.4460282E-05  0.1399181E+04  0.7818609E-02  0.8954411E-01
        2   -1    0    0  501    0  0.00000000000E+00  0.00000000000E+00  0.62213381456E+03  0.62213381457E+03  0.25500000920E-02 0. -1.
       -2   -1    0    0    0  501  0.00000000000E+00  0.00000000000E+00 -0.78669099195E+03  0.78669099196E+03  0.25500000920E-02 0.  1.
    10030    2    1    2    0    0  0.00000000000E+00  0.00000000000E+00 -0.16455717739E+03  0.14088248065E+04  0.13991812859E+04 0.  0.
        1    1    3    3  502    0  0.45578739468E+03  0.52968179270E+03 -0.11600748088E+03  0.70835209205E+03  0.50400001928E-02 0. -1.
       -1    1    3    3    0  502 -0.45578739468E+03 -0.52968179270E+03 -0.48549696507E+02  0.70047271447E+03  0.50400001928E-02 0.  1.
</event>
<event>
 5   0  0.4621450E-05  0.1400987E+04  0.7818609E-02  0.8953104E-01
       -2   -1    0    0    0  501  0.00000000000E+00  0.00000000000E+00  0.94954289040E+03  0.94954289041E+03  0.25500000920E-02 0.  1.
        2   -1    0    0  501    0  0.00000000000E+00  0.00000000000E+00 -0.51676556362E+03  0.51676556363E+03  0.25500000920E-02 0. -1.
    10030    2    1    2    0    0  0.00000000000E+00  0.00000000000E+00  0.43277732678E+03  0.14663084540E+04  0.14009868907E+04 0.  0.
        5    1    3    3  502    0 -0.22770967780E+03 -0.43950093554E+03 -0.30235778722E+03  0.58004749047E+03  0.46999998093E+01 0. -1.
       -5    1    3    3    0  502  0.22770967780E+03  0.43950093554E+03  0.73513511401E+03  0.88626096357E+03  0.46999998093E+01 0.  1.
</event>
<event>
 5   0  0.4527503E-05  0.1398985E+04  0.7818609E-02  0.8954554E-01
        2   -1    0    0  501    0  0.00000000000E+00  0.00000000000E+00  0.29875206811E+03  0.29875206812E+03  0.25500000920E-02 0. -1.
       -2   -1    0    0    0  501  0.00000000000E+00  0.00000000000E+00 -0.16377783603E+04  0.16377783603E+04  0.25500000920E-02 0.  1.
    10030    2    1    2    0    0  0.00000000000E+00  0.00000000000E+00 -0.13390262921E+04  0.19365304284E+04  0.13989848780E+04 0.  0.
        4    1    3    3  502    0 -0.44788247186E+03  0.41210829270E+03 -0.11467369012E+04  0.12982446176E+04  0.12699999809E+01 0. -1.
       -4    1    3    3    0  502  0.44788247186E+03 -0.41210829270E+03 -0.19228939090E+03  0.63828581079E+03  0.12699999809E+01 0.  1.
</event>
<event>
 5   0  0.2427569E-05  0.1399435E+04  0.7818609E-02  0.8954228E-01
       -1   -1    0    0    0  501  0.00000000000E+00  0.00000000000E+00  0.14470829008E+04  0.14470829008E+04  0.50400001928E-02 0. -1.
        1   -1    0    0  501    0  0.00000000000E+00  0.00000000000E+00 -0.33833903957E+03  0.33833903961E+03  0.50400001928E-02 0.  1.
    10030    2    1    2    0    0  0.00000000000E+00  0.00000000000E+00  0.11087438613E+04  0.17854219405E+04  0.13994350844E+04 0.  0.
        1    1    3    3  502    0  0.64364714245E+03 -0.26685033848E+03  0.47254155606E+03  0.84189445262E+03  0.50400001928E-02 0.  1.
       -1    1    3    3    0  502 -0.64364714245E+03  0.26685033848E+03  0.63620230521E+03  0.94352748784E+03  0.50400001928E-02 0. -1.
</event>
<event>
 5   0  0.4441253E-05  0.1397054E+04  0.7818609E-02  0.8955954E-01
       -2   -1    0    0    0  501  0.00000000000E+00  0.00000000000E+00  0.37733891108E+03  0.37733891108E+03  0.25500000920E-02 0. -1.
        2   -1    0    0  501    0  0.00000000000E+00  0.00000000000E+00 -0.12931077340E+04  0.12931077340E+04  0.25500000920E-02 0.  1.
    10030    2    1    2    0    0  0.00000000000E+00  0.00000000000E+00 -0.91576882297E+03  0.16704466451E+04  0.13970538490E+04 0.  0.
        3    1    3    3  502    0  0.15781203485E+03  0.33659001327E+03 -0.11650051788E+04  0.12228796148E+04  0.10100000352E+00 0.  1.
       -3    1    3    3    0  502 -0.15781203485E+03 -0.33659001327E+03  0.24923635585E+03  0.44756703035E+03  0.10100000352E+00 0. -1.
</event>
<event>
 5   0  0.4460282E-05  0.1400341E+04  0.7818609E-02  0.8953572E-01
       -2   -1    0    0    0  501  0.00000000000E+00  0.00000000000E+00  0.96043501614E+03  0.96043501614E+03  0.25500000920E-02 0. -1.
        2   -1    0    0  501    0  0.00000000000E+00  0.00000000000E+00 -0.51043384706E+03  0.51043384706E+03  0.25500000920E-02 0.  1.
    10030    2    1    2    0    0  0.00000000000E+00  0.00000000000E+00  0.45000116908E+03  0.14708688632E+04  0.14003407302E+04 0.  0.
        1    1    3    3  502    0 -0.37487020584E+02  0.20170079474E+03  0.92815702604E+03  0.95055980996E+03  0.50400001928E-02 0. -1.
       -1    1    3    3    0  502  0.37487020584E+02 -0.20170079474E+03 -0.47815585696E+03  0.52030905324E+03  0.50400001928E-02 0.  1.
</event>
<event>
 5   0  0.2428507E-05  0.1401265E+04  0.7818609E-02  0.8952903E-01
        1   -1    0    0  501    0  0.00000000000E+00  0.00000000000E+00  0.14568462786E+04  0.14568462786E+04  0.50400001928E-02 0.  1.
       -1   -1    0    0    0  501  0.00000000000E+00  0.00000000000E+00 -0.33695107029E+03  0.33695107032E+03  0.50400001928E-02 0. -1.
    10030    2    1    2    0    0  0.00000000000E+00  0.00000000000E+00  0.11198952083E+04  0.17937973490E+04  0.14012650183E+04 0.  0.
        4    1    3    3  502    0 -0.85224703926E+02 -0.20384445264E+03  0.14110814819E+04  0.14282746139E+04  0.12699999809E+01 0.  1.
       -4    1    3    3    0  502  0.85224703926E+02  0.20384445264E+03 -0.29118627361E+03  0.36552273509E+03  0.12699999809E+01 0. -1.
</event>
<event>
 5   0  0.4441253E-05  0.1399384E+04  0.7818609E-02  0.8954265E-01
        2   -1    0    0  501    0  0.00000000000E+00  0.00000000000E+00  0.10405554026E+04  0.10405554026E+04  0.25500000920E-02 0.  1.
       -2   -1    0    0    0  501  0.00000000000E+00  0.00000000000E+00 -0.47048806808E+03  0.47048806809E+03  0.25500000920E-02 0. -1.
    10030    2    1    2    0    0  0.00000000000E+00  0.00000000000E+00  0.57006733452E+03  0.15110434707E+04  0.13993840089E+04 0.  0.
        3    1    3    3  502    0  0.61710336946E+03 -0.18214440246E+02  0.64057972514E+03  0.88965764701E+03  0.10100000352E+00 0.  1.
       -3    1    3    3    0  502 -0.61710336946E+03  0.18214440246E+02 -0.70512390622E+02  0.62138582367E+03  0.10100000352E+00 0. -1.
</event>
<event>
 5   0  0.4460282E-05  0.1391407E+04  0.7818609E-02  0.8960062E-01
        2   -1    0    0  501    0  0.00000000000E+00  0.00000000000E+00  0.16406466054E+04  0.16406466054E+04  0.25500000920E-02 0. -1.
       -2   -1    0    0    0  501  0.00000000000E+00  0.00000000000E+00 -0.29500785845E+03  0.29500785846E+03  0.25500000920E-02 0.  1.
    10030    2    1    2    0    0  0.00000000000E+00  0.00000000000E+00  0.13456387469E+04  0.19356544638E+04  0.13914074048E+04 0.  0.
        1    1    3    3  502    0  0.42662198197E+03  0.44257404141E+03  0.11260126808E+04  0.12828806082E+04  0.50400001928E-02 0. -1.
       -1    1    3    3    0  502 -0.42662198197E+03 -0.44257404141E+03  0.21962606615E+03  0.65277385563E+03  0.50400001928E-02 0.  1.
</event>
<event>
 5   0  0.2363419E-05  0.1400326E+04  0.7818609E-02  0.8953583E-01
       -1   -1    0    0    0  501  0.00000000000E+00  0.00000000000E+00  0.46626271271E+03  0.46626271274E+03  0.50400001928E-02 0. -1.
        1   -1    0    0  501    0  0.00000000000E+00  0.00000000000E+00 -0.10513993038E+04  0.10513993038E+04  0.50400001928E-02 0.  1.
    10030    2    1    2    0    0  0.00000000000E+00  0.00000000000E+00 -0.58513659110E+03  0.15176620166E+04  0.14003260928E+04 0.  0.
        2    1    3    3  502    0 -0.40993606737E+03  0.53891238440E+03 -0.99439888609E+02  0.68437009640E+03  0.25500000920E-02 0. -1.
       -2    1    3    3    0  502  0.40993606737E+03 -0.53891238440E+03 -0.48569670249E+03  0.83329192016E+03  0.25500000920E-02 0.  1.
</event>
<event>
 5   0  0.4621450E-05  0.1400884E+04  0.7818609E-02  0.8953179E-01
        2   -1    0    0  501    0  0.00000000000E+00  0.00000000000E+00  0.99706533137E+03  0.99706533138E+03  0.25500000920E-02 0. -1.
       -2   -1    0    0    0  501  0.00000000000E+00  0.00000000000E+00 -0.49206312934E+03  0.49206312935E+03  0.25500000920E-02 0.  1.
    10030    2    1    2    0    0  0.00000000000E+00  0.00000000000E+00  0.50500220203E+03  0.14891284607E+04  0.14008841310E+04 0.  0.
        5    1    3    3  502    0 -0.50772009274E+03 -0.35499450126E+03 -0.94881342686E+02  0.62675780624E+03  0.46999998093E+01 0. -1.
       -5    1    3    3    0  502  0.50772009274E+03  0.35499450126E+03  0.59988354471E+03  0.86237065448E+03  0.46999998093E+01 0.  1.
</event>
<event>
 5   0  0.2427569E-05  0.1399690E+04  0.7818609E-02  0.8954043E-01
       -1   -1    0    0    0  501  0.00000000000E+00  0.00000000000E+00  0.10673620795E+04  0.10673620795E+04  0.50400001928E-02 0. -1.
        1   -1    0    0  501    0  0.00000000000E+00  0.00000000000E+00 -0.45887271795E+03  0.45887271798E+03  0.50400001928E-02 0.  1.
    10030    2    1    2    0    0  0.00000000000E+00  0.00000000000E+00  0.60848936155E+03  0.15262347975E+04  0.13996904493E+04 0.  0.
        1    1    3    3  502    0  0.23411139850E+03 -0.56185010648E+03 -0.72380137819E+02  0.61296213051E+03  0.50400001928E-02 0.  1.
       -1    1    3    3    0  502 -0.23411139850E+03  0.56185010648E+03  0.68086949937E+03  0.91327266699E+03  0.50400001928E-02 0. -1.
</event>
<event>
 5   0  0.4460282E-05  0.1399935E+04  0.7818609E-02  0.8953865E-01
        2   -1    0    0  501    0  0.00000000000E+00  0.00000000000E+00  0.36588535920E+03  0.36588535921E+03  0.25500000920E-02 0. -1.
       -2   -1    0    0    0  501  0.00000000000E+00  0.00000000000E+00 -0.13390934953E+04  0.13390934953E+04  0.25500000920E-02 0.  1.
    10030    2    1    2    0    0  0.00000000000E+00  0.00000000000E+00 -0.97320813614E+03  0.17049788545E+04  0.13999352907E+04 0.  0.
        1    1    3    3  502    0 -0.10180582034E+03  0.21417735602E+03  0.31547083727E+03  0.39466215182E+03  0.50400001928E-02 0. -1.
       -1    1    3    3    0  502  0.10180582034E+03 -0.21417735602E+03 -0.12886789734E+04  0.13103167027E+04  0.50400001928E-02 0.  1.
</event>
<event>
 5   0  0.4243281E-05  0.1399970E+04  0.7818609E-02  0.8953841E-01
        2   -1    0    0  501    0  0.00000000000E+00  0.00000000000E+00  0.88726372934E+03  0.88726372934E+03  0.25500000920E-02 0.  1.
       -2   -1    0    0    0  501  0.00000000000E+00  0.00000000000E+00 -0.55223569053E+03  0.55223569054E+03  0.25500000920E-02 0. -1.
    10030    2    1    2    0    0  0.00000000000E+00  0.00000000000E+00  0.33502803881E+03  0.14394994199E+04  0.13999695686E+04 0.  0.
        2    1    3    3  502    0 -0.25145773280E+03  0.49770446205E+03 -0.26756233188E+03  0.61849035916E+03  0.25500000920E-02 0. -1.
       -2    1    3    3    0  502  0.25145773280E+03 -0.49770446205E+03  0.60259037069E+03  0.82100906072E+03  0.25500000920E-02 0.  1.
</event>
<event>
 5   0  0.2316714E-05  0.1399922E+04  0.7818609E-02  0.8953875E-01
       -1   -1    0    0    0  501  0.00000000000E+00  0.00000000000E+00  0.18210278995E+03  0.18210279002E+03  0.50400001928E-02 0. -1.
        1   -1    0    0  501    0  0.00000000000E+00  0.00000000000E+00 -0.26904892664E+04  0.26904892664E+04  0.50400001928E-02 0.  1.
    10030    2    1    2    0    0  0.00000000000E+00  0.00000000000E+00 -0.25083864765E+04  0.28725920564E+04  0.13999222862E+04 0.  0.
        5    1    3    3  502    0 -0.69917861931E+03  0.29215603301E+02 -0.12238117673E+04  0.14097665144E+04  0.46999998093E+01 0.  1.
       -5    1    3    3    0  502  0.69917861931E+03 -0.29215603301E+02 -0.12845747091E+04  0.14628255421E+04  0.46999998093E+01 0. -1.
</event>
<event>
 5   0  0.2467303E-05  0.1402444E+04  0.7818609E-02  0.8952051E-01
        1   -1    0    0  501    0  0.00000000000E+00  0.00000000000E+00  0.14282638150E+04  0.14282638150E+04  0.50400001928E-02 0.  1.
       -1   -1    0    0    0  501  0.00000000000E+00  0.00000000000E+00 -0.34427295442E+03  0.34427295446E+03  0.50400001928E-02 0. -1.
    10030    2    1    2    0    0  0.00000000000E+00  0.00000000000E+00  0.10839908606E+04  0.17725367695E+04  0.14024444421E+04 0.  0.
        3    1    3    3  502    0  0.32660750807E+03 -0.57758785322E+03  0.25536124506E+03  0.71097789571E+03  0.10100000352E+00 0. -1.
       -3    1    3    3    0  502 -0.32660750807E+03  0.57758785322E+03  0.82862961553E+03  0.10615588738E+04  0.10100000352E+00 0.  1.
</event>
<event>
 5   0  0.4441253E-05  0.1400299E+04  0.7818609E-02  0.8953602E-01
       -2   -1    0    0    0  501  0.00000000000E+00  0.00000000000E+00  0.27408846682E+03  0.27408846683E+03  0.25500000920E-02 0.  1.
        2   -1    0    0  501    0  0.00000000000E+00  0.00000000000E+00 -0.17885073297E+04  0.17885073297E+04  0.25500000920E-02 0. -1.
    10030    2    1    2    0    0  0.00000000000E+00  0.00000000000E+00 -0.15144188629E+04  0.20625957965E+04  0.14002988708E+04 0.  0.
        3    1    3    3  502    0  0.67399907436E+03 -0.10508026227E+03 -0.52481346320E+03  0.86066590215E+03  0.10100000352E+00 0. -1.
       -3    1    3    3    0  502 -0.67399907436E+03  0.10508026227E+03 -0.98960539967E+03  0.12019298944E+04  0.10100000352E+00 0.  1.
</event>
<event>
 5   0  0.4621450E-05  0.1400065E+04  0.7818609E-02  0.8953772E-01
        2   -1    0    0  501    0  0.00000000000E+00  0.00000000000E+00  0.71250532744E+03  0.71250532745E+03  0.25500000920E-02 0. -1.
       -2   -1    0    0    0  501  0.00000000000E+00  0.00000000000E+00 -0.68777797334E+03  0.68777797335E+03  0.25500000920E-02 0.  1.
    10030    2    1    2    0    0  0.00000000000E+00  0.00000000000E+00  0.24727354100E+02  0.14002833008E+04  0.14000649558E+04 0.  0.
        5    1    3    3  502    0  0.58691413513E+03  0.20709126343E+03 -0.30810537324E+03  0.69448254436E+03  0.46999998093E+01 0.  1.
       -5    1    3    3    0  502 -0.58691413513E+03 -0.20709126343E+03  0.33283272734E+03  0.70580075644E+03  0.46999998093E+01 0. -1.
</event>
<event>
 5   0  0.2316714E-05  0.1397379E+04  0.7818609E-02  0.8955718E-01
       -1   -1    0    0    0  501  0.00000000000E+00  0.00000000000E+00  0.55976218590E+03  0.55976218592E+03  0.50400001928E-02 0.  1.
        1   -1    0    0  501    0  0.00000000000E+00  0.00000000000E+00 -0.87209657746E+03  0.87209657747E+03  0.50400001928E-02 0. -1.
    10030    2    1    2    0    0  0.00000000000E+00  0.00000000000E+00 -0.31233439155E+03  0.14318587634E+04  0.13973785264E+04 0.  0.
        5    1    3    3  502    0  0.51055685495E+03  0.47584771265E+03 -0.12303913992E+03  0.70870308855E+03  0.46999998093E+01 0. -1.
       -5    1    3    3    0  502 -0.51055685495E+03 -0.47584771265E+03 -0.18929525164E+03  0.72315567484E+03  0.46999998093E+01 0.  1.
</event>
<event>
 5   0  0.4460282E-05  0.1399975E+04  0.7818609E-02  0.8953836E-01
       -2   -1    0    0    0  501  0.00000000000E+00  0.00000000000E+00  0.45693909830E+03  0.45693909831E+03  0.25500000920E-02 0. -1.
        2   -1    0    0  501    0  0.00000000000E+00  0.00000000000E+00 -0.10723151664E+04  0.10723151664E+04  0.25500000920E-02 0.  1.
    10030    2    1    2    0    0  0.00000000000E+00  0.00000000000E+00 -0.61537606805E+03  0.15292542647E+04  0.13999753215E+04 0.  0.
        1    1    3    3  502    0  0.17108477891E+03  0.45668758124E+03 -0.85620251488E+03  0.98535084865E+03  0.50400001928E-02 0.  1.
       -1    1    3    3    0  502 -0.17108477891E+03 -0.45668758124E+03  0.24082644683E+03  0.54390341601E+03  0.50400001928E-02 0. -1.
</event>
<event>
 5   0  0.2427569E-05  0.1399636E+04  0.7818609E-02  0.8954082E-01
        1   -1    0    0  501    0  0.00000000000E+00  0.00000000000E+00  0.69042068640E+03  0.69042068642E+03  0.50400001928E-02 0. -1.
       -1   -1    0    0    0  501  0.00000000000E+00  0.00000000000E+00 -0.70934297730E+03  0.70934297731E+03  0.50400001928E-02 0.  1.
    10030    2    1    2    0    0  0.00000000000E+00  0.00000000000E+00 -0.18922290898E+02  0.13997636637E+04  0.13996357602E+04 0.  0.
        1    1    3    3  502    0  0.58611789202E+03  0.18495014195E+03  0.32523991303E+03  0.69535727465E+03  0.50400001928E-02 0. -1.
       -1    1    3    3    0  502 -0.58611789202E+03 -0.18495014195E+03 -0.34416220392E+03  0.70440638909E+03  0.50400001928E-02 0.  1.
</event>
<event>
 5   0  0.4441253E-05  0.1399717E+04  0.7818609E-02  0.8954023E-01
       -2   -1    0    0    0  501  0.00000000000E+00  0.00000000000E+00  0.34085826930E+03  0.34085826931E+03  0.25500000920E-02 0.  1.
        2   -1    0    0  501    0  0.00000000000E+00  0.00000000000E+00 -0.14369675327E+04  0.14369675327E+04  0.25500000920E-02 0. -1.
    10030    2    1    2    0    0  0.00000000000E+00  0.00000000000E+00 -0.10961092634E+04  0.17778258020E+04  0.13997174947E+04 0.  0.
        3    1    3    3  502    0  0.67489548027E+03  0.26572553960E+02 -0.31519319012E+03  0.74534338879E+03  0.10100000352E+00 0. -1.
       -3    1    3    3    0  502 -0.67489548027E+03 -0.26572553960E+02 -0.78091607328E+03  0.10324824132E+04  0.10100000352E+00 0.  1.
</event>
<event>
 5   0  0.4527503E-05  0.1395822E+04  0.7818609E-02  0.8956848E-01
       -2   -1    0    0    0  501  0.00000000000E+00  0.00000000000E+00  0.52507977534E+03  0.52507977534E+03  0.25500000920E-02 0.  1.
        2   -1    0    0  501    0  0.00000000000E+00  0.00000000000E+00 -0.92762992725E+03  0.92762992725E+03  0.25500000920E-02 0. -1.
    10030    2    1    2    0    0  0.00000000000E+00  0.00000000000E+00 -0.40255015191E+03  0.14527097026E+04  0.13958219282E+04 0.  0.
        4    1    3    3  502    0  0.86317415639E+02 -0.27661445755E+03 -0.86206224447E+03  0.90946092858E+03  0.12699999809E+01 0. -1.
       -4    1    3    3    0  502 -0.86317415639E+02  0.27661445755E+03  0.45951209256E+03  0.54324877402E+03  0.12699999809E+01 0.  1.
</event>
<event>
 5   0  0.4243281E-05  0.1399539E+04  0.7818609E-02  0.8954152E-01
       -2   -1    0    0    0  501  0.00000000000E+00  0.00000000000E+00  0.29196612152E+03  0.29196612153E+03  0.25500000920E-02 0.  1.
        2   -1    0    0  501    0  0.00000000000E+00  0.00000000000E+00 -0.16771723600E+04  0.16771723600E+04  0.25500000920E-02 0. -1.
    10030    2    1    2    0    0  0.00000000000E+00  0.00000000000E+00 -0.13852062385E+04  0.19691384815E+04  0.13995392228E+04 0.  0.
        2    1    3    3  502    0 -0.46958685349E+03  0.51608649497E+03 -0.76732512556E+03  0.10371330347E+04  0.25500000920E-02 0. -1.
       -2    1    3    3    0  502  0.46958685349E+03 -0.51608649497E+03 -0.61788111289E+03  0.93200544684E+03  0.25500000920E-02 0.  1.
</event>
<event>
 5   0  0.4243281E-05  0.1399991E+04  0.7818609E-02  0.8953825E-01
       -2   -1    0    0    0  501  0.00000000000E+00  0.00000000000E+00  0.76459925789E+03  0.76459925789E+03  0.25500000920E-02 0. -1.
        2   -1    0    0  501    0  0.00000000000E+00  0.00000000000E+00 -0.64085007057E+03  0.64085007058E+03  0.25500000920E-02 0.  1.
    10030    2    1    2    0    0  0.00000000000E+00  0.00000000000E+00  0.12374918732E+03  0.14054493285E+04  0.13999906977E+04 0.  0.
        2    1    3    3  502    0 -0.32483748532E+03 -0.57662326079E+03  0.29075413539E+03  0.72287740593E+03  0.25500000920E-02 0.  1.
       -2    1    3    3    0  502  0.32483748532E+03  0.57662326079E+03 -0.16700494807E+03  0.68257192254E+03  0.25500000920E-02 0. -1.
</event>
<event>
 5   0  0.4460282E-05  0.1399704E+04  0.7818609E-02  0.8954033E-01
        2   -1    0    0  501    0  0.00000000000E+00  0.00000000000E+00  0.86264461507E+03  0.86264461508E+03  0.25500000920E-02 0.  1.
       -2   -1    0    0    0  501  0.00000000000E+00  0.00000000000E+00 -0.56778075585E+03  0.56778075586E+03  0.25500000920E-02 0. -1.
    10030    2    1    2    0    0  0.00000000000E+00  0.00000000000E+00  0.29486385922E+03  0.14304253709E+04  0.13997042710E+04 0.  0.
        1    1    3    3  502    0  0.20207269224E+03  0.31195757738E+03  0.75344132083E+03  0.84013375541E+03  0.50400001928E-02 0.  1.
       -1    1    3    3    0  502 -0.20207269224E+03 -0.31195757738E+03 -0.45857746161E+03  0.59029161552E+03  0.50400001928E-02 0. -1.
</event>
<event>
 5   0  0.2316714E-05  0.1399492E+04  0.7818609E-02  0.8954186E-01
        1   -1    0    0  501    0  0.00000000000E+00  0.00000000000E+00  0.78661114196E+03  0.78661114197E+03  0.50400001928E-02 0. -1.
       -1   -1    0    0    0  501  0.00000000000E+00  0.00000000000E+00 -0.62247317375E+03  0.62247317377E+03  0.50400001928E-02 0.  1.
    10030    2    1    2    0    0  0.00000000000E+00  0.00000000000E+00  0.16413796820E+03  0.14090843157E+04  0.13994918136E+04 0.  0.
        5    1    3    3  502    0 -0.55580670968E+03 -0.17586289543E+03  0.47172729614E+03  0.74993172251E+03  0.46999998093E+01 0. -1.
       -5    1    3    3    0  502  0.55580670968E+03  0.17586289543E+03 -0.30758932794E+03  0.65915259323E+03  0.46999998093E+01 0.  1.
</event>
<event>
 5   0  0.2427569E-05  0.1396760E+04  0.7818609E-02  0.8956167E-01
        1   -1    0    0  501    0  0.00000000000E+00  0.00000000000E+00  0.10580860343E+04  0.10580860343E+04  0.50400001928E-02 0. -1.
       -1   -1    0    0    0  501  0.00000000000E+00  0.00000000000E+00 -0.46095949603E+03  0.46095949606E+03  0.50400001928E-02 0.  1.
    10030    2    1    2    0    0  0.00000000000E+00  0.00000000000E+00  0.59712653830E+03  0.15190455304E+04  0.13967602588E+04 0.  0.
        1    1    3    3  502    0 -0.34083005550E+02 -0.41751027274E+03 -0.30916009735E+03  0.52063081442E+03  0.50400001928E-02 0.  1.
       -1    1    3    3    0  502  0.34083005550E+02  0.41751027274E+03  0.90628663565E+03  0.99841471598E+03  0.50400001928E-02 0. -1.
</event>
<event>
 5   0  0.4460282E-05  0.1400607E+04  0.7818609E-02  0.8953379E-01
        2   -1    0    0  501    0  0.00000000000E+00  0.00000000000E+00  0.70388080289E+03  0.70388080289E+03  0.25500000920E-02 0. -1.
       -2   -1    0    0    0  501  0.00000000000E+00  0.00000000000E+00 -0.69674410116E+03  0.69674410116E+03  0.25500000920E-02 0.  1.
    10030    2    1    2    0    0  0.00000000000E+00  0.00000000000E+00  0.71367017298E+01  0.14006249041E+04  0.14006067219E+04 0.  0.
        1    1    3    3  502    0 -0.41515968081E+02 -0.34653079740E+03  0.61071511957E+03  0.70340608929E+03  0.50400001928E-02 0. -1.
       -1    1    3    3    0  502  0.41515968081E+02  0.34653079740E+03 -0.60357841784E+03  0.69721881476E+03  0.50400001928E-02 0.  1.
</event>
<event>
 5   0  0.2363419E-05  0.1400844E+04  0.7818609E-02  0.8953208E-01
        1   -1    0    0  501    0  0.00000000000E+00  0.00000000000E+00  0.13253882901E+04  0.13253882901E+04  0.50400001928E-02 0.  1.
       -1   -1    0    0    0  501  0.00000000000E+00  0.00000000000E+00 -0.37014909462E+03  0.37014909465E+03  0.50400001928E-02 0. -1.
    10030    2    1    2    0    0  0.00000000000E+00  0.00000000000E+00  0.95523919550E+03  0.16955373848E+04  0.14008444248E+04 0.  0.
        2    1    3    3  502    0  0.65154396779E+02 -0.25501739781E+03  0.12632522708E+04  0.12903818305E+04  0.25500000920E-02 0.  1.
       -2    1    3    3    0  502 -0.65154396779E+02  0.25501739781E+03 -0.30801307534E+03  0.40515555431E+03  0.25500000920E-02 0. -1.
</event>
<event>
 5   0  0.2467303E-05  0.1400025E+04  0.7818609E-02  0.8953800E-01
        1   -1    0    0  501    0  0.00000000000E+00  0.00000000000E+00  0.63591131185E+03  0.63591131187E+03  0.50400001928E-02 0. -1.
       -1   -1    0    0    0  501  0.00000000000E+00  0.00000000000E+00 -0.77057563087E+03  0.77057563089E+03  0.50400001928E-02 0.  1.
    10030    2    1    2    0    0  0.00000000000E+00  0.00000000000E+00 -0.13466431903E+03  0.14064869428E+04  0.14000253717E+04 0.  0.
        3    1    3    3  502    0  0.29917578977E+03 -0.63074523963E+03 -0.15401809916E+02  0.69827139169E+03  0.10100000352E+00 0. -1.
       -3    1    3    3    0  502 -0.29917578977E+03  0.63074523963E+03 -0.11926250911E+03  0.70821555107E+03  0.10100000352E+00 0.  1.
</event>
<event>
 5   0  0.2428507E-05  0.1399529E+04  0.7818609E-02  0.8954160E-01
        1   -1    0    0  501    0  0.00000000000E+00  0.00000000000E+00  0.20491242474E+04  0.20491242474E+04  0.50400001928E-02 0.  1.
       -1   -1    0    0    0  501  0.00000000000E+00  0.00000000000E+00 -0.23896565986E+03  0.23896565992E+03  0.50400001928E-02 0. -1.
    10030    2    1    2    0    0  0.00000000000E+00  0.00000000000E+00  0.18101585875E+04  0.22880899073E+04  0.13995289607E+04 0.  0.
        4    1    3    3  502    0  0.37998422196E+03 -0.40757375895E+03  0.21306194991E+03  0.59657471060E+03  0.12699999809E+01 0. -1.
       -4    1    3    3    0  502 -0.37998422196E+03  0.40757375895E+03  0.15970966376E+04  0.16915151967E+04  0.12699999809E+01 0.  1.
</event>
<event>
 5   0  0.4460282E-05  0.1400260E+04  0.7818609E-02  0.8953630E-01
        2   -1    0    0  501    0  0.00000000000E+00  0.00000000000E+00  0.16376907763E+04  0.16376907763E+04  0.25500000920E-02 0. -1.
       -2   -1    0    0    0  501  0.00000000000E+00  0.00000000000E+00 -0.29931305277E+03  0.29931305278E+03  0.25500000920E-02 0.  1.
    10030    2    1    2    0    0  0.00000000000E+00  0.00000000000E+00  0.13383777235E+04  0.19370038290E+04  0.14002602983E+04 0.  0.
        1    1    3    3  502    0  0.84310840777E+02  0.14362214313E+02 -0.29205980891E+03  0.30432470008E+03  0.50400001928E-02 0.  1.
       -1    1    3    3    0  502 -0.84310840777E+02 -0.14362214313E+02  0.16304375324E+04  0.16326791290E+04  0.50400001928E-02 0. -1.
</event>
<event>
 5   0  0.2363419E-05  0.1400272E+04  0.7818609E-02  0.8953622E-01
       -1   -1    0    0    0  501  0.00000000000E+00  0.00000000000E+00  0.68986243572E+03  0.68986243574E+03  0.50400001928E-02 0.  1.
        1   -1    0    0  501    0  0.00000000000E+00  0.00000000000E+00 -0.71056245740E+03  0.71056245741E+03  0.50400001928E-02 0. -1.
    10030    2    1    2    0    0  0.00000000000E+00  0.00000000000E+00 -0.20700021677E+02  0.14004248932E+04  0.14002718988E+04 0.  0.
        2    1    3    3  502    0 -0.43592412746E+03  0.53392516704E+03 -0.13318207161E+03  0.70202805720E+03  0.25500000920E-02 0. -1.
       -2    1    3    3    0  502  0.43592412746E+03 -0.53392516704E+03  0.11248204993E+03  0.69839683595E+03  0.25500000920E-02 0.  1.
</event>
<event>
 5   0  0.2316714E-05  0.1399597E+04  0.7818609E-02  0.8954110E-01
        1   -1    0    0  501    0  0.00000000000E+00  0.00000000000E+00  0.90142692019E+03  0.90142692021E+03  0.50400001928E-02 0. -1.
       -1   -1    0    0    0  501  0.00000000000E+00  0.00000000000E+00 -0.54326953016E+03  0.54326953019E+03  0.50400001928E-02 0.  1.
    10030    2    1    2    0    0  0.00000000000E+00  0.00000000000E+00  0.35815739003E+03  0.14446964504E+04  0.13995967697E+04 0.  0.
        5    1    3    3  502    0  0.67557798334E+03  0.63284292448E+02  0.24352219697E+01  0.67855621252E+03  0.46999998093E+01 0.  1.
       -5    1    3    3    0  502 -0.67557798334E+03 -0.63284292448E+02  0.35572216806E+03  0.76614023788E+03  0.46999998093E+01 0. -1.
</event>
<event>
 5   0  0.2316714E-05  0.1401459E+04  0.7818609E-02  0.8952763E-01
       -1   -1    0    0    0  501  0.00000000000E+00  0.00000000000E+00  0.30117355712E+03  0.30117355716E+03  0.50400001928E-02 0. -1.
        1   -1    0    0  501    0  0.00000000000E+00  0.00000000000E+00 -0.16303607625E+04  0.16303607625E+04  0.50400001928E-02 0.  1.
    10030    2    1    2    0    0  0.00000000000E+00  0.00000000000E+00 -0.13291872054E+04  0.19315343197E+04  0.14014585977E+04 0.  0.
        5    1    3    3  502    0 -0.44419381875E+03  0.13448316769E+03 -0.13881396366E+04  0.14636760610E+04  0.46999998093E+01 0.  1.
       -5    1    3    3    0  502  0.44419381875E+03 -0.13448316769E+03  0.58952431229E+02  0.46785825861E+03  0.46999998093E+01 0. -1.
</event>
<event>
 5   0  0.4460282E-05  0.1399450E+04  0.7818609E-02  0.8954217E-01
        2   -1    0    0  501    0  0.00000000000E+00  0.00000000000E+00  0.13717766232E+04  0.13717766232E+04  0.25500000920E-02 0. -1.
       -2   -1    0    0    0  501  0.00000000000E+00  0.00000000000E+00 -0.35692048078E+03  0.35692048078E+03  0.25500000920E-02 0.  1.
    10030    2    1    2    0    0  0.00000000000E+00  0.00000000000E+00  0.10148561425E+04  0.17286971040E+04  0.13994501376E+04 0.  0.
        1    1    3    3  502    0 -0.18395987501E+03 -0.53536773101E+03 -0.61942707009E+00  0.56609206560E+03  0.50400001928E-02 0. -1.
       -1    1    3    3    0  502  0.18395987501E+03  0.53536773101E+03  0.10154755695E+04  0.11626050384E+04  0.50400001928E-02 0.  1.
</event>
<event>
 5   0  0.1661000E-05  0.1396751E+04  0.7818609E-02  0.8956174E-01
       -3   -1    0    0    0  501  0.00000000000E+00  0.00000000000E+00  0.35368513414E+03  0.35368514856E+03  0.10100000352E+00 0. -1.
        3   -1    0    0  501    0  0.00000000000E+00  0.00000000000E+00 -0.13789901726E+04  0.13789901763E+04  0.10100000352E+00 0.  1.
    10030    2    1    2    0    0  0.00000000000E+00  0.00000000000E+00 -0.10253050385E+04  0.17326753249E+04  0.13967510013E+04 0.  0.
        3    1    3    3  502    0 -0.35247118821E+02 -0.79758416268E+02 -0.13722104719E+04  0.13749783103E+04  0.10100000352E+00 0.  1.
       -3    1    3    3    0  502  0.35247118821E+02  0.79758416268E+02  0.34690543340E+03  0.35769701462E+03  0.10100000352E+00 0. -1.
</event>
<event>
 5   0  0.2316714E-05  0.1400022E+04  0.7818609E-02  0.8953802E-01
        1   -1    0    0  501    0  0.00000000000E+00  0.00000000000E+00  0.70053540982E+03  0.70053540984E+03  0.50400001928E-02 0. -1.
       -1   -1    0    0    0  501  0.00000000000E+00  0.00000000000E+00 -0.69948733391E+03  0.69948733393E+03  0.50400001928E-02 0.  1.
    10030    2    1    2    0    0  0.00000000000E+00  0.00000000000E+00  0.10480759124E+01  0.14000227438E+04  0.14000223515E+04 0.  0.
        5    1    3    3  502    0 -0.30326464521E+03  0.49867815502E+03 -0.38592685481E+03  0.69972206953E+03  0.46999998093E+01 0.  1.
       -5    1    3    3    0  502  0.30326464521E+03 -0.49867815502E+03  0.38697493072E+03  0.70030067423E+03  0.46999998093E+01 0. -1.
</event>
<event>
 5   0  0.4243281E-05  0.1400093E+04  0.7818609E-02  0.8953751E-01
        2   -1    0    0  501    0  0.00000000000E+00  0.00000000000E+00  0.87013989158E+03  0.87013989158E+03  0.25500000920E-02 0. -1.
       -2   -1    0    0    0  501  0.00000000000E+00  0.00000000000E+00 -0.56320239158E+03  0.56320239158E+03  0.25500000920E-02 0.  1.
    10030    2    1    2    0    0  0.00000000000E+00  0.00000000000E+00  0.30693750000E+03  0.14333422832E+04  0.14000926654E+04 0.  0.
        2    1    3    3  502    0  0.59362233401E+03 -0.23883556917E+02 -0.22560428805E+03  0.63549602243E+03  0.25500000920E-02 0.  1.
       -2    1    3    3    0  502 -0.59362233401E+03  0.23883556917E+02  0.53254178806E+03  0.79784626073E+03  0.25500000920E-02 0. -1.
</event>
<event>
 5   0  0.2363419E-05  0.1400439E+04  0.7818609E-02  0.8953501E-01
       -1   -1    0    0    0  501  0.00000000000E+00  0.00000000000E+00  0.38167826701E+03  0.38167826705E+03  0.50400001928E-02 0.  1.
        1   -1    0    0  501    0  0.00000000000E+00  0.00000000000E+00 -0.12846093694E+04  0.12846093694E+04  0.50400001928E-02 0. -1.
    10030    2    1    2    0    0  0.00000000000E+00  0.00000000000E+00 -0.90293110241E+03  0.16662876365E+04  0.14004391853E+04 0.  0.
        2    1    3    3  502    0 -0.47555212434E+03 -0.47439198299E+03 -0.21616167654E+03  0.70563690868E+03  0.25500000920E-02 0. -1.
       -2    1    3    3    0  502  0.47555212434E+03  0.47439198299E+03 -0.68676942588E+03  0.96065072779E+03  0.25500000920E-02 0.  1.
</event>
<event>
 5   0  0.4621450E-05  0.1399830E+04  0.7818609E-02  0.8953941E-01
        2   -1    0    0  501    0  0.00000000000E+00  0.00000000000E+00  0.82177907396E+03  0.82177907396E+03  0.25500000920E-02 0. -1.
       -2   -1    0    0    0  501  0.00000000000E+00  0.00000000000E+00 -0.59612278088E+03  0.59612278089E+03  0.25500000920E-02 0.  1.
    10030    2    1    2    0    0  0.00000000000E+00  0.00000000000E+00  0.22565629308E+03  0.14179018549E+04  0.13998303138E+04 0.  0.
        5    1    3    3  502    0 -0.37995170069E+03 -0.56924376787E+03  0.26120257855E+03  0.73256442663E+03  0.46999998093E+01 0. -1.
       -5    1    3    3    0  502  0.37995170069E+03  0.56924376787E+03 -0.35546285472E+02  0.68533742823E+03  0.46999998093E+01 0.  1.
</event>
<event>
 5   0  0.4527503E-05  0.1400123E+04  0.7818609E-02  0.8953730E-01
        2   -1    0    0  501    0  0.00000000000E+00  0.00000000000E+00  0.20795604948E+04  0.20795604948E+04  0.25500000920E-02 0.  1.
       -2   -1    0    0    0  501  0.00000000000E+00  0.00000000000E+00 -0.23566812101E+03  0.23566812102E+03  0.25500000920E-02 0. -1.
    10030    2    1    2    0    0  0.00000000000E+00  0.00000000000E+00  0.18438923738E+04  0.23152286158E+04  0.14001230151E+04 0.  0.
        4    1    3    3  502    0 -0.12982960266E+03  0.21018720374E+03  0.20050789642E+04  0.20202419785E+04  0.12699999809E+01 0.  1.
       -4    1    3    3    0  502  0.12982960266E+03 -0.21018720374E+03 -0.16118659040E+03  0.29498663727E+03  0.12699999809E+01 0. -1.
</event>
<event>
 5   0  0.4527503E-05  0.1399723E+04  0.7818609E-02  0.8954019E-01
       -2   -1    0    0    0  501  0.00000000000E+00  0.00000000000E+00  0.51131889779E+03  0.51131889779E+03  0.25500000920E-02 0.  1.
        2   -1    0    0  501    0  0.00000000000E+00  0.00000000000E+00 -0.95792647914E+03  0.95792647914E+03  0.25500000920E-02 0. -1.
    10030    2    1    2    0    0  0.00000000000E+00  0.00000000000E+00 -0.44660758135E+03  0.14692453769E+04  0.13997227032E+04 0.  0.
        4    1    3    3  502    0 -0.43477036975E+03  0.58595468764E+02  0.34907440426E+03  0.56063647400E+03  0.12699999809E+01 0.  1.
       -4    1    3    3    0  502  0.43477036975E+03 -0.58595468764E+02 -0.79568198561E+03  0.90860890293E+03  0.12699999809E+01 0. -1.
</event>
<event>
 5   0  0.2316714E-05  0.1399581E+04  0.7818609E-02  0.8954122E-01
        1   -1    0    0  501    0  0.00000000000E+00  0.00000000000E+00  0.57574557286E+03  0.57574557288E+03  0.50400001928E-02 0. -1.
       -1   -1    0    0    0  501  0.00000000000E+00  0.00000000000E+00 -0.85056045879E+03  0.85056045881E+03  0.50400001928E-02 0.  1.
    10030    2    1    2    0    0  0.00000000000E+00  0.00000000000E+00 -0.27481488593E+03  0.14263060317E+04  0.13995805352E+04 0.  0.
        5    1    3    3  502    0 -0.29975919390E+03 -0.63101267109E+03 -0.95989481389E+02  0.70517277028E+03  0.46999998093E+01 0. -1.
       -5    1    3    3    0  502  0.29975919390E+03  0.63101267109E+03 -0.17882540455E+03  0.72113326141E+03  0.46999998093E+01 0.  1.
</event>
<event>
 5   0  0.2316714E-05  0.1400427E+04  0.7818609E-02  0.8953509E-01
       -1   -1    0    0    0  501  0.00000000000E+00  0.00000000000E+00  0.78044468577E+03  0.78044468579E+03  0.50400001928E-02 0.  1.
        1   -1    0    0  501    0  0.00000000000E+00  0.00000000000E+00 -0.62823031346E+03  0.62823031348E+03  0.50400001928E-02 0. -1.
    10030    2    1    2    0    0  0.00000000000E+00  0.00000000000E+00  0.15221437231E+03  0.14086749993E+04  0.14004270914E+04 0.  0.
        5    1    3    3  502    0  0.46972007567E+03 -0.45319813190E+03  0.33107871016E+03  0.73188844680E+03  0.46999998093E+01 0.  1.
       -5    1    3    3    0  502 -0.46972007567E+03  0.45319813190E+03 -0.17886433785E+03  0.67678655247E+03  0.46999998093E+01 0. -1.
</event>
<event>
 5   0  0.2316714E-05  0.1400072E+04  0.7818609E-02  0.8953766E-01
       -1   -1    0    0    0  501  0.00000000000E+00  0.00000000000E+00  0.33081918403E+03  0.33081918407E+03  0.50400001928E-02 0.  1.
        1   -1    0    0  501    0  0.00000000000E+00  0.00000000000E+00 -0.14813245684E+04  0.14813245684E+04  0.50400001928E-02 0. -1.
    10030    2    1    2    0    0  0.00000000000E+00  0.00000000000E+00 -0.11505053844E+04  0.18121437525E+04  0.14000722625E+04 0.  0.
        5    1    3    3  502    0  0.28090866930E+03 -0.53542683313E+02  0.25174891321E+03  0.38101982196E+03  0.46999998093E+01 0.  1.
       -5    1    3    3    0  502 -0.28090866930E+03  0.53542683313E+02 -0.14022542976E+04  0.14311239305E+04  0.46999998093E+01 0. -1.
</event>
<event>
 5   0  0.4527503E-05  0.1400032E+04  0.7818609E-02  0.8953795E-01
       -2   -1    0    0    0  501  0.00000000000E+00  0.00000000000E+00  0.26149557816E+03  0.26149557817E+03  0.25500000920E-02 0. -1.
        2   -1    0    0  501    0  0.00000000000E+00  0.00000000000E+00 -0.18739227995E+04  0.18739227995E+04  0.25500000920E-02 0.  1.
    10030    2    1    2    0    0  0.00000000000E+00  0.00000000000E+00 -0.16124272214E+04  0.21354183777E+04  0.14000321795E+04 0.  0.
        4    1    3    3  502    0 -0.10520877474E+03 -0.18147482130E+03 -0.18248556533E+04  0.18368728223E+04  0.12699999809E+01 0.  1.
       -4    1    3    3    0  502  0.10520877474E+03  0.18147482130E+03  0.21242843193E+03  0.29854555538E+03  0.12699999809E+01 0. -1.
</event>
<event>
 5   0  0.4621450E-05  0.1401715E+04  0.7818609E-02  0.8952578E-01
       -2   -1    0    0    0  501  0.00000000000E+00  0.00000000000E+00  0.30099788415E+03  0.30099788416E+03  0.25500000920E-02 0.  1.
        2   -1    0    0  501    0  0.00000000000E+00  0.00000000000E+00 -0.16319088075E+04  0.16319088075E+04  0.25500000920E-02 0. -1.
    10030    2    1    2    0    0  0.00000000000E+00  0.00000000000E+00 -0.13309109233E+04  0.19329066916E+04  0.14017148044E+04 0.  0.
        5    1    3    3  502    0 -0.50643978238E+03  0.29457974107E+02 -0.13322642702E+04  0.14255873179E+04  0.46999998093E+01 0. -1.
       -5    1    3    3    0  502  0.50643978238E+03 -0.29457974107E+02  0.13533468450E+01  0.50731937373E+03  0.46999998093E+01 0.  1.
</event>
<event>
 5   0  0.2467303E-05  0.1399999E+04  0.7818609E-02  0.8953819E-01
       -1   -1    0    0    0  501  0.00000000000E+00  0.00000000000E+00  0.31215707393E+03  0.31215707397E+03  0.50400001928E-02 0.  1.
        1   -1    0    0  501    0  0.00000000000E+00  0.00000000000E+00 -0.15697210333E+04  0.15697210333E+04  0.50400001928E-02 0. -1.
    10030    2    1    2    0    0  0.00000000000E+00  0.00000000000E+00 -0.12575639594E+04  0.18818781073E+04  0.13999993210E+04 0.  0.
        3    1    3    3  502    0  0.31712889146E+03  0.29110056905E+03 -0.13707620209E+04  0.14367667881E+04  0.10100000352E+00 0. -1.
       -3    1    3    3    0  502 -0.31712889146E+03 -0.29110056905E+03  0.11319806159E+03  0.44511131916E+03  0.10100000352E+00 0.  1.
</event>
<event>
 5   0  0.4527503E-05  0.1400498E+04  0.7818609E-02  0.8953458E-01
        2   -1    0    0  501    0  0.00000000000E+00  0.00000000000E+00  0.16349507601E+04  0.16349507601E+04  0.25500000920E-02 0. -1.
       -2   -1    0    0    0  501  0.00000000000E+00  0.00000000000E+00 -0.29991631950E+03  0.29991631951E+03  0.25500000920E-02 0.  1.
    10030    2    1    2    0    0  0.00000000000E+00  0.00000000000E+00  0.13350344406E+04  0.19348670796E+04  0.14004976466E+04 0.  0.
        4    1    3    3  502    0  0.48730419312E+02  0.19276356682E+02  0.16322362701E+04  0.16330777955E+04  0.12699999809E+01 0. -1.
       -4    1    3    3    0  502 -0.48730419312E+02 -0.19276356682E+02 -0.29720182948E+03  0.30178928417E+03  0.12699999809E+01 0.  1.
</event>
<event>
 5   0  0.4460282E-05  0.1399662E+04  0.7818609E-02  0.8954063E-01
        2   -1    0    0  501    0  0.00000000000E+00  0.00000000000E+00  0.21255700001E+04  0.21255700001E+04  0.25500000920E-02 0. -1.
       -2   -1    0    0    0  501  0.00000000000E+00  0.00000000000E+00 -0.23041509381E+03  0.23041509383E+03  0.25500000920E-02 0.  1.
    10030    2    1    2    0    0  0.00000000000E+00  0.00000000000E+00  0.18951549063E+04  0.23559850939E+04  0.13996619749E+04 0.  0.
        1    1    3    3  502    0 -0.51524352937E+03 -0.47150571393E+03  0.10222857877E+04  0.12380879470E+04  0.50400001928E-02 0.  1.
       -1    1    3    3    0  502  0.51524352937E+03  0.47150571393E+03  0.87286911856E+03  0.11178971469E+04  0.50400001928E-02 0. -1.
</event>
<event>
 5   0  0.2467303E-05  0.1399962E+04  0.7818609E-02  0.8953846E-01
       -1   -1    0    0    0  501  0.00000000000E+00  0.00000000000E+00  0.40754470404E+03  0.40754470407E+03  0.50400001928E-02 0.  1.
        1   -1    0    0  501    0  0.00000000000E+00  0.00000000000E+00 -0.12022568200E+04  0.12022568200E+04  0.50400001928E-02 0. -1.
    10030    2    1    2    0    0  0.00000000000E+00  0.00000000000E+00 -0.79471211593E+03  0.16098015240E+04  0.13999619993E+04 0.  0.
        3    1    3    3  502    0 -0.21264071957E+02  0.13170379181E+03 -0.11875027710E+04  0.11949731758E+04  0.10100000352E+00 0. -1.
       -3    1    3    3    0  502  0.21264071957E+02 -0.13170379181E+03  0.39279065511E+03  0.41482834821E+03  0.10100000352E+00 0.  1.
</event>
<event>
 5   0  0.4441253E-05  0.1399659E+04  0.7818609E-02  0.8954065E-01
        2   -1    0    0  501    0  0.00000000000E+00  0.00000000000E+00  0.81439488527E+03  0.81439488528E+03  0.25500000920E-02 0. -1.
       -2   -1    0    0    0  501  0.00000000000E+00  0.00000000000E+00 -0.60138063035E+03  0.60138063036E+03  0.25500000920E-02 0.  1.
    10030    2    1    2    0    0  0.00000000000E+00  0.00000000000E+00  0.21301425492E+03  0.14157755156E+04  0.13996589720E+04 0.  0.
        3    1    3    3  502    0 -0.17907509685E+03  0.14059506945E+02 -0.57766549532E+03  0.60494875381E+03  0.10100000352E+00 0.  1.
       -3    1    3    3    0  502  0.17907509685E+03 -0.14059506945E+02  0.79067975024E+03  0.81082676183E+03  0.10100000352E+00 0. -1.
</event>
<event>
 5   0  0.2467303E-05  0.1400637E+04  0.7818609E-02  0.8953357E-01
        1   -1    0    0  501    0  0.00000000000E+00  0.00000000000E+00  0.15037941629E+04  0.15037941629E+04  0.50400001928E-02 0.  1.
       -1   -1    0    0    0  501  0.00000000000E+00  0.00000000000E+00 -0.32613916639E+03  0.32613916642E+03  0.50400001928E-02 0. -1.
    10030    2    1    2    0    0  0.00000000000E+00  0.00000000000E+00  0.11776549965E+04  0.18299333293E+04  0.14006372475E+04 0.  0.
        3    1    3    3  502    0 -0.37500020220E+03 -0.13789538593E+03  0.13402707747E+04  0.13985585611E+04  0.10100000352E+00 0.  1.
       -3    1    3    3    0  502  0.37500020220E+03  0.13789538593E+03 -0.16261577822E+03  0.43137476820E+03  0.10100000352E+00 0. -1.
</event>
<event>
 5   0  0.2316714E-05  0.1400310E+04  0.7818609E-02  0.8953594E-01
       -1   -1    0    0    0  501  0.00000000000E+00  0.00000000000E+00  0.13257371990E+04  0.13257371990E+04  0.50400001928E-02 0.  1.
        1   -1    0    0  501    0  0.00000000000E+00  0.00000000000E+00 -0.36976960632E+03  0.36976960636E+03  0.50400001928E-02 0. -1.
    10030    2    1    2    0    0  0.00000000000E+00  0.00000000000E+00  0.95596759265E+03  0.16955068053E+04  0.14003104259E+04 0.  0.
        5    1    3    3  502    0 -0.64117745412E+01 -0.69150273224E+03  0.34546757340E+03  0.77303756301E+03  0.46999998093E+01 0. -1.
       -5    1    3    3    0  502  0.64117745412E+01  0.69150273224E+03  0.61050001925E+03  0.92246924233E+03  0.46999998093E+01 0.  1.
</event>
<event>
 5   0  0.2427569E-05  0.1402476E+04  0.7818609E-02  0.8952028E-01
        1   -1    0    0  501    0  0.00000000000E+00  0.00000000000E+00  0.84056279574E+03  0.84056279575E+03  0.50400001928E-02 0. -1.
       -1   -1    0    0    0  501  0.00000000000E+00  0.00000000000E+00 -0.58500677460E+03  0.58500677463E+03  0.50400001928E-02 0.  1.
    10030    2    1    2    0    0  0.00000000000E+00  0.00000000000E+00  0.25555602114E+03  0.14255695704E+04  0.14024762815E+04 0.  0.
        1    1    3    3  502    0 -0.33532642231E+03 -0.24499591189E+03  0.70212013628E+03  0.81574474693E+03  0.50400001928E-02 0. -1.
       -1    1    3    3    0  502  0.33532642231E+03  0.24499591189E+03 -0.44656411515E+03  0.60982482345E+03  0.50400001928E-02 0.  1.
</event>
<event>
 5   0  0.2427569E-05  0.1400015E+04  0.7818609E-02  0.8953807E-01
       -1   -1    0    0    0  501  0.00000000000E+00  0.00000000000E+00  0.96534830999E+03  0.96534831000E+03  0.50400001928E-02 0.  1.
        1   -1    0    0  501    0  0.00000000000E+00  0.00000000000E+00 -0.50760004244E+03  0.50760004247E+03  0.50400001928E-02 0. -1.
    10030    2    1    2    0    0  0.00000000000E+00  0.00000000000E+00  0.45774826755E+03  0.14729483525E+04  0.14000154901E+04 0.  0.
        1    1    3    3  502    0 -0.32613130268E+03  0.51569209074E+03  0.58983738433E+03  0.84865075209E+03  0.50400001928E-02 0.  1.
       -1    1    3    3    0  502  0.32613130268E+03 -0.51569209074E+03 -0.13208911678E+03  0.62429760038E+03  0.50400001928E-02 0. -1.
</event>
<event>
 5   0  0.4441253E-05  0.1400085E+04  0.7818609E-02  0.8953757E-01
       -2   -1    0    0    0  501  0.00000000000E+00  0.00000000000E+00  0.10628193283E+04  0.10628193283E+04  0.25500000920E-02 0. -1.
        2   -1    0    0  501    0  0.00000000000E+00  0.00000000000E+00 -0.46109365109E+03  0.46109365110E+03  0.25500000920E-02 0.  1.
    10030    2    1    2    0    0  0.00000000000E+00  0.00000000000E+00  0.60172567719E+03  0.15239129794E+04  0.14000846325E+04 0.  0.
        3    1    3    3  502    0 -0.47802902506E+03 -0.50391360522E+03  0.39586695856E+03  0.79946940492E+03  0.10100000352E+00 0.  1.
       -3    1    3    3    0  502  0.47802902506E+03  0.50391360522E+03  0.20585871863E+03  0.72444357445E+03  0.10100000352E+00 0. -1.
</event>
<event>
 5   0  0.2427569E-05  0.1399638E+04  0.7818609E-02  0.8954080E-01
        1   -1    0    0  501    0  0.00000000000E+00  0.00000000000E+00  0.77326644459E+03  0.77326644460E+03  0.50400001928E-02 0.  1.
       -1   -1    0    0    0  501  0.00000000000E+00  0.00000000000E+00 -0.63334803933E+03  0.63334803935E+03  0.50400001928E-02 0. -1.
    10030    2    1    2    0    0  0.00000000000E+00  0.00000000000E+00  0.13991840526E+03  0.14066144840E+04  0.13996382198E+04 0.  0.
        1    1    3    3  502    0  0.26922028997E+03 -0.31125918831E+03  0.63880602755E+03  0.75989143152E+03  0.50400001928E-02 0.  1.
       -1    1    3    3    0  502 -0.26922028997E+03  0.31125918831E+03 -0.49888762230E+03  0.64672305243E+03  0.50400001928E-02 0. -1.
</event>
<event>
 5   0  0.2363419E-05  0.1400718E+04  0.7818609E-02  0.8953299E-01
       -1   -1    0    0    0  501  0.00000000000E+00  0.00000000000E+00  0.82009098839E+03  0.82009098841E+03  0.50400001928E-02 0.  1.
        1   -1    0    0  501    0  0.00000000000E+00  0.00000000000E+00 -0.59810792480E+03  0.59810792483E+03  0.50400001928E-02 0. -1.
    10030    2    1    2    0    0  0.00000000000E+00  0.00000000000E+00  0.22198306359E+03  0.14181989132E+04  0.14007182718E+04 0.  0.
        2    1    3    3  502    0  0.65003311397E+03  0.17726782588E+03 -0.82537793114E+02  0.67880735017E+03  0.25500000920E-02 0. -1.
       -2    1    3    3    0  502 -0.65003311397E+03 -0.17726782588E+03  0.30452085670E+03  0.73939156306E+03  0.25500000920E-02 0.  1.
</event>
<event>
 5   0  0.2316714E-05  0.1400124E+04  0.7818609E-02  0.8953729E-01
        1   -1    0    0  501    0  0.00000000000E+00  0.00000000000E+00  0.88186665368E+03  0.88186665369E+03  0.50400001928E-02 0.  1.
       -1   -1    0    0    0  501  0.00000000000E+00  0.00000000000E+00 -0.55573820734E+03  0.55573820737E+03  0.50400001928E-02 0. -1.
    10030    2    1    2    0    0  0.00000000000E+00  0.00000000000E+00  0.32612844634E+03  0.14376048611E+04  0.14001242706E+04 0.  0.
        5    1    3    3  502    0 -0.34907313585E+03  0.58645253632E+03  0.32307652531E+03  0.75510208762E+03  0.46999998093E+01 0. -1.
       -5    1    3    3    0  502  0.34907313585E+03 -0.58645253632E+03  0.30519210225E+01  0.68250277344E+03  0.46999998093E+01 0.  1.
</event>
<event>
 5   0  0.4527503E-05  0.1399982E+04  0.7818609E-02  0.8953832E-01
       -2   -1    0    0    0  501  0.00000000000E+00  0.00000000000E+00  0.35087400367E+03  0.35087400368E+03  0.25500000920E-02 0. -1.
        2   -1    0    0  501    0  0.00000000000E+00  0.00000000000E+00 -0.13964764746E+04  0.13964764746E+04  0.25500000920E-02 0.  1.
    10030    2    1    2    0    0  0.00000000000E+00  0.00000000000E+00 -0.10456024710E+04  0.17473504783E+04  0.13999818452E+04 0.  0.
        4    1    3    3  502    0 -0.25314975691E+02 -0.67155083079E+03 -0.76726884687E+03  0.10199629712E+04  0.12699999809E+01 0.  1.
       -4    1    3    3    0  502  0.25314975691E+02  0.67155083079E+03 -0.27833362410E+03  0.72738750714E+03  0.12699999809E+01 0. -1.
</event>
<event>
 5   0  0.4441253E-05  0.1399768E+04  0.7818609E-02  0.8953987E-01
        2   -1    0    0  501    0  0.00000000000E+00  0.00000000000E+00  0.42111437963E+03  0.42111437964E+03  0.25500000920E-02 0. -1.
       -2   -1    0    0    0  501  0.00000000000E+00  0.00000000000E+00 -0.11631932893E+04  0.11631932893E+04  0.25500000920E-02 0.  1.
    10030    2    1    2    0    0  0.00000000000E+00  0.00000000000E+00 -0.74207890965E+03  0.15843076689E+04  0.13997677242E+04 0.  0.
        3    1    3    3  502    0  0.79328825218E+01  0.12336648250E+03  0.40865943004E+03  0.42694819310E+03  0.10100000352E+00 0. -1.
       -3    1    3    3    0  502 -0.79328825218E+01 -0.12336648250E+03 -0.11507383397E+04  0.11573594758E+04  0.10100000352E+00 0.  1.
</event>
<event>
 5   0  0.2428507E-05  0.1400611E+04  0.7818609E-02  0.8953377E-01
       -1   -1    0    0    0  501  0.00000000000E+00  0.00000000000E+00  0.51931173248E+03  0.51931173251E+03  0.50400001928E-02 0. -1.
        1   -1    0    0  501    0  0.00000000000E+00  0.00000000000E+00 -0.94437987197E+03  0.94437987198E+03  0.50400001928E-02 0.  1.
    10030    2    1    2    0    0  0.00000000000E+00  0.00000000000E+00 -0.42506813949E+03  0.14636916045E+04  0.14006106489E+04 0.  0.
        4    1    3    3  502    0 -0.46222246819E+03 -0.15915450071E+03  0.31149414354E+03  0.57966367797E+03  0.12699999809E+01 0. -1.
       -4    1    3    3    0  502  0.46222246819E+03  0.15915450071E+03 -0.73656228303E+03  0.88402792652E+03  0.12699999809E+01 0.  1.
</event>
<event>
 5   0  0.2363419E-05  0.1399866E+04  0.7818609E-02  0.8953916E-01
       -1   -1    0    0    0  501  0.00000000000E+00  0.00000000000E+00  0.32612713782E+03  0.32612713786E+03  0.50400001928E-02 0. -1.
        1   -1    0    0  501    0  0.00000000000E+00  0.00000000000E+00 -0.15021933873E+04  0.15021933873E+04  0.50400001928E-02 0.  1.
    10030    2    1    2    0    0  0.00000000000E+00  0.00000000000E+00 -0.11760662495E+04  0.18283205252E+04  0.13998657506E+04 0.  0.
        2    1    3    3  502    0  0.62792410717E+03  0.25379958995E+03 -0.81874232480E+03  0.10625638384E+04  0.25500000920E-02 0.  1.
       -2    1    3    3    0  502 -0.62792410717E+03 -0.25379958995E+03 -0.35732392471E+03  0.76575668681E+03  0.25500000920E-02 0. -1.
</event>
<event>
 5   0  0.2428507E-05  0.1399682E+04  0.7818609E-02  0.8954049E-01
       -1   -1    0    0    0  501  0.00000000000E+00  0.00000000000E+00  0.42581950859E+03  0.42581950862E+03  0.50400001928E-02 0.  1.
        1   -1    0    0  501    0  0.00000000000E+00  0.00000000000E+00 -0.11501999588E+04  0.11501999588E+04  0.50400001928E-02 0. -1.
    10030    2    1    2    0    0  0.00000000000E+00  0.00000000000E+00 -0.72438045020E+03  0.15760194674E+04  0.13996822229E+04 0.  0.
        4    1    3    3  502    0 -0.69319959179E+03 -0.18910500964E+01 -0.25391578595E+03  0.73824392269E+03  0.12699999809E+01 0.  1.
       -4    1    3    3    0  502  0.69319959179E+03  0.18910500964E+01 -0.47046466425E+03  0.83777554473E+03  0.12699999809E+01 0. -1.
</event>
<event>
 5   0  0.2427569E-05  0.1400240E+04  0.7818609E-02  0.8953645E-01
       -1   -1    0    0    0  501  0.00000000000E+00  0.00000000000E+00  0.98576954556E+03  0.98576954557E+03  0.50400001928E-02 0. -1.
        1   -1    0    0  501    0  0.00000000000E+00  0.00000000000E+00 -0.49724398474E+03  0.49724398476E+03  0.50400001928E-02 0.  1.
    10030    2    1    2    0    0  0.00000000000E+00  0.00000000000E+00  0.48852556082E+03  0.14830135303E+04  0.14002399464E+04 0.  0.
        1    1    3    3  502    0 -0.24248402853E+03  0.63817802202E+03  0.40867561548E+03  0.79566667053E+03  0.50400001928E-02 0.  1.
       -1    1    3    3    0  502  0.24248402853E+03 -0.63817802202E+03  0.79849945344E+02  0.68734685980E+03  0.50400001928E-02 0. -1.
</event>
<event>
 5   0  0.1661000E-05  0.1399751E+04  0.7818609E-02  0.8953999E-01
       -3   -1    0    0    0  501  0.00000000000E+00  0.00000000000E+00  0.38217613235E+03  0.38217614569E+03  0.10100000352E+00 0. -1.
        3   -1    0    0  501    0  0.00000000000E+00  0.00000000000E+00 -0.12816760403E+04  0.12816760443E+04  0.10100000352E+00 0.  1.
    10030    2    1    2    0    0  0.00000000000E+00  0.00000000000E+00 -0.89949990800E+03  0.16638521900E+04  0.13997514157E+04 0.  0.
        1    1    3    3  502    0 -0.23754263233E+03  0.63675691627E+03 -0.25105901227E+03  0.72451121472E+03  0.50400001928E-02 0. -1.
       -1    1    3    3    0  502  0.23754263233E+03 -0.63675691627E+03 -0.64844089573E+03  0.93934097530E+03  0.50400001928E-02 0.  1.
</event>
<event>
 5   0  0.2428507E-05  0.1399532E+04  0.7818609E-02  0.8954157E-01
        1   -1    0    0  501    0  0.00000000000E+00  0.00000000000E+00  0.79118757867E+03  0.79118757869E+03  0.50400001928E-02 0.  1.
       -1   -1    0    0    0  501  0.00000000000E+00  0.00000000000E+00 -0.61890847073E+03  0.61890847075E+03  0.50400001928E-02 0. -1.
    10030    2    1    2    0    0  0.00000000000E+00  0.00000000000E+00  0.17227910794E+03  0.14100960494E+04  0.13995323425E+04 0.  0.
        4    1    3    3  502    0 -0.35216027560E+03 -0.51129523511E+02 -0.52093634561E+03  0.63087825843E+03  0.12699999809E+01 0. -1.
       -4    1    3    3    0  502  0.35216027560E+03  0.51129523511E+02  0.69321545355E+03  0.77921779101E+03  0.12699999809E+01 0.  1.
</event>
<event>
 5   0  0.4527503E-05  0.1399938E+04  0.7818609E-02  0.8953864E-01
       -2   -1    0    0    0  501  0.00000000000E+00  0.00000000000E+00  0.87058454545E+03  0.87058454545E+03  0.25500000920E-02 0. -1.
        2   -1    0    0  501    0  0.00000000000E+00  0.00000000000E+00 -0.56279005887E+03  0.56279005887E+03  0.25500000920E-02 0.  1.
    10030    2    1    2    0    0  0.00000000000E+00  0.00000000000E+00  0.30779448658E+03  0.14333746043E+04  0.13999376094E+04 0.  0.
        4    1    3    3  502    0  0.46492611225E+03  0.29839166671E+03 -0.28620743624E+03  0.62218179504E+03  0.12699999809E+01 0.  1.
       -4    1    3    3    0  502 -0.46492611225E+03 -0.29839166671E+03  0.59400192282E+03  0.81119280928E+03  0.12699999809E+01 0. -1.
</event>
<event>
 5   0  0.4527503E-05  0.1400030E+04  0.7818609E-02  0.8953797E-01
       -2   -1    0    0    0  501  0.00000000000E+00  0.00000000000E+00  0.64620713673E+03  0.64620713674E+03  0.25500000920E-02 0. -1.
        2   -1    0    0  501    0  0.00000000000E+00  0.00000000000E+00 -0.75830334657E+03  0.75830334658E+03  0.25500000920E-02 0.  1.
    10030    2    1    2    0    0  0.00000000000E+00  0.00000000000E+00 -0.11209620984E+03  0.14045104833E+04  0.14000300488E+04 0.  0.
        4    1    3    3  502    0 -0.42464644891E+03  0.54765722700E+03  0.43093138574E+02  0.69434262173E+03  0.12699999809E+01 0. -1.
       -4    1    3    3    0  502  0.42464644891E+03 -0.54765722700E+03 -0.15518934842E+03  0.71016786158E+03  0.12699999809E+01 0.  1.
</event>
<event>
 5   0  0.2427569E-05  0.1400090E+04  0.7818609E-02  0.8953754E-01
       -1   -1    0    0    0  501  0.00000000000E+00  0.00000000000E+00  0.56328912861E+03  0.56328912863E+03  0.50400001928E-02 0.  1.
        1   -1    0    0  501    0  0.00000000000E+00  0.00000000000E+00 -0.87000228609E+03  0.87000228610E+03  0.50400001928E-02 0. -1.
    10030    2    1    2    0    0  0.00000000000E+00  0.00000000000E+00 -0.30671315748E+03  0.14332914147E+04  0.14000897538E+04 0.  0.
        1    1    3    3  502    0 -0.60856677725E+03  0.31703764566E+03 -0.11519769492E+02  0.68629373905E+03  0.50400001928E-02 0.  1.
       -1    1    3    3    0  502  0.60856677725E+03 -0.31703764566E+03 -0.29519338799E+03  0.74699767569E+03  0.50400001928E-02 0. -1.
</event>
<event>
 5   0  0.2428507E-05  0.1398673E+04  0.7818609E-02  0.8954780E-01
       -1   -1    0    0    0  501  0.00000000000E+00  0.00000000000E+00  0.77249751190E+03  0.77249751192E+03  0.50400001928E-02 0. -1.
        1   -1    0    0  501    0  0.00000000000E+00  0.00000000000E+00 -0.63310400107E+03  0.63310400109E+03  0.50400001928E-02 0.  1.
    10030    2    1    2    0    0  0.00000000000E+00  0.00000000000E+00  0.13939351083E+03  0.14056015130E+04  0.13986726073E+04 0.  0.
        4    1    3    3  502    0  0.59328891832E+03 -0.31014688797E+03  0.27290335746E+03  0.72295275650E+03  0.12699999809E+01 0. -1.
       -4    1    3    3    0  502 -0.59328891832E+03  0.31014688797E+03 -0.13350984663E+03  0.68264875651E+03  0.12699999809E+01 0.  1.
</event>
<event>
 5   0  0.4527503E-05  0.1400050E+04  0.7818609E-02  0.8953782E-01
        2   -1    0    0  501    0  0.00000000000E+00  0.00000000000E+00  0.48395472366E+03  0.48395472366E+03  0.25500000920E-02 0.  1.
       -2   -1    0    0    0  501  0.00000000000E+00  0.00000000000E+00 -0.10125640902E+04  0.10125640902E+04  0.25500000920E-02 0. -1.
    10030    2    1    2    0    0  0.00000000000E+00  0.00000000000E+00 -0.52860936657E+03  0.14965188139E+04  0.14000502484E+04 0.  0.
        4    1    3    3  502    0 -0.67197666058E+03  0.19371917457E+03 -0.23129285048E+03  0.73659876903E+03  0.12699999809E+01 0.  1.
       -4    1    3    3    0  502  0.67197666058E+03 -0.19371917457E+03 -0.29731651610E+03  0.75992004487E+03  0.12699999809E+01 0. -1.
</event>
<event>
 5   0  0.4527503E-05  0.1400039E+04  0.7818609E-02  0.8953790E-01
        2   -1    0    0  501    0  0.00000000000E+00  0.00000000000E+00  0.77022380165E+03  0.77022380165E+03  0.25500000920E-02 0.  1.
       -2   -1    0    0    0  501  0.00000000000E+00  0.00000000000E+00 -0.63621452908E+03  0.63621452908E+03  0.25500000920E-02 0. -1.
    10030    2    1    2    0    0  0.00000000000E+00  0.00000000000E+00  0.13400927257E+03  0.14064383307E+04  0.14000393898E+04 0.  0.
        4    1    3    3  502    0 -0.68817127516E+03  0.11926266400E+03  0.11436535270E+03  0.70773182335E+03  0.12699999809E+01 0.  1.
       -4    1    3    3    0  502  0.68817127516E+03 -0.11926266400E+03  0.19643919871E+02  0.69870650739E+03  0.12699999809E+01 0. -1.
</event>
<event>
 5   0  0.4621450E-05  0.1400229E+04  0.7818609E-02  0.8953653E-01
        2   -1    0    0  501    0  0.00000000000E+00  0.00000000000E+00  0.11013575982E+04  0.11013575982E+04  0.25500000920E-02 0. -1.
       -2   -1    0    0    0  501  0.00000000000E+00  0.00000000000E+00 -0.44505108621E+03  0.44505108622E+03  0.25500000920E-02 0.  1.
    10030    2    1    2    0    0  0.00000000000E+00  0.00000000000E+00  0.65630651199E+03  0.15464086844E+04  0.14002291175E+04 0.  0.
        5    1    3    3  502    0 -0.93015229653E+02 -0.63281444111E+03  0.13773619545E+02  0.63977945607E+03  0.46999998093E+01 0.  1.
       -5    1    3    3    0  502  0.93015229653E+02  0.63281444111E+03  0.64253289245E+03  0.90662922835E+03  0.46999998093E+01 0. -1.
</event>
<event>
 5   0  0.4460282E-05  0.1399914E+04  0.7818609E-02  0.8953881E-01
       -2   -1    0    0    0  501  0.00000000000E+00  0.00000000000E+00  0.60092968735E+03  0.60092968736E+03  0.25500000920E-02 0. -1.
        2   -1    0    0  501    0  0.00000000000E+00  0.00000000000E+00 -0.81530260642E+03  0.81530260642E+03  0.25500000920E-02 0.  1.
    10030    2    1    2    0    0  0.00000000000E+00  0.00000000000E+00 -0.21437291906E+03  0.14162322938E+04  0.13999136264E+04 0.  0.
        1    1    3    3  502    0 -0.17938669238E+03 -0.34680288379E+03 -0.69489531747E+03  0.79707673901E+03  0.50400001928E-02 0.  1.
       -1    1    3    3    0  502  0.17938669238E+03  0.34680288379E+03  0.48052239840E+03  0.61915555477E+03  0.50400001928E-02 0. -1.
</event>
<event>
 5   0  0.2316714E-05  0.1400672E+04  0.7818609E-02  0.8953332E-01
       -1   -1    0    0    0  501  0.00000000000E+00  0.00000000000E+00  0.35708084169E+03  0.35708084172E+03  0.50400001928E-02 0. -1.
        1   -1    0    0  501    0  0.00000000000E+00  0.00000000000E+00 -0.13735565349E+04  0.13735565350E+04  0.50400001928E-02 0.  1.
    10030    2    1    2    0    0  0.00000000000E+00  0.00000000000E+00 -0.10164756933E+04  0.17306373767E+04  0.14006723009E+04 0.  0.
        5    1    3    3  502    0 -0.33539598151E+03 -0.60786057721E+03 -0.39456693084E+03  0.79855500665E+03  0.46999998093E+01 0. -1.
       -5    1    3    3    0  502  0.33539598151E+03  0.60786057721E+03 -0.62190876242E+03  0.93208237002E+03  0.46999998093E+01 0.  1.
</event>
<event>
 5   0  0.4621450E-05  0.1401134E+04  0.7818609E-02  0.8952998E-01
       -2   -1    0    0    0  501  0.00000000000E+00  0.00000000000E+00  0.48135081292E+03  0.48135081293E+03  0.25500000920E-02 0. -1.
        2   -1    0    0  501    0  0.00000000000E+00  0.00000000000E+00 -0.10196187225E+04  0.10196187225E+04  0.25500000920E-02 0.  1.
    10030    2    1    2    0    0  0.00000000000E+00  0.00000000000E+00 -0.53826790961E+03  0.15009695355E+04  0.14011342562E+04 0.  0.
        5    1    3    3  502    0  0.55009353728E+03  0.16533622080E+03  0.16048164141E+03  0.59641882339E+03  0.46999998093E+01 0. -1.
       -5    1    3    3    0  502 -0.55009353728E+03 -0.16533622080E+03 -0.69874955101E+03  0.90455071207E+03  0.46999998093E+01 0.  1.
</event>
<event>
 5   0  0.2363419E-05  0.1400008E+04  0.7818609E-02  0.8953812E-01
        1   -1    0    0  501    0  0.00000000000E+00  0.00000000000E+00  0.97892987946E+03  0.97892987948E+03  0.50400001928E-02 0. -1.
       -1   -1    0    0    0  501  0.00000000000E+00  0.00000000000E+00 -0.50055257525E+03  0.50055257527E+03  0.50400001928E-02 0.  1.
    10030    2    1    2    0    0  0.00000000000E+00  0.00000000000E+00  0.47837730422E+03  0.14794824547E+04  0.14000083888E+04 0.  0.
        2    1    3    3  502    0 -0.62473357680E+03  0.20853461808E+03  0.48977199039E+03  0.82076508911E+03  0.25500000920E-02 0. -1.
       -2    1    3    3    0  502  0.62473357680E+03 -0.20853461808E+03 -0.11394686173E+02  0.65871736564E+03  0.25500000920E-02 0.  1.
</event>
<event>
 5   0  0.4621450E-05  0.1410679E+04  0.7818609E-02  0.8946125E-01
       -2   -1    0    0    0  501  0.00000000000E+00  0.00000000000E+00  0.58723729172E+03  0.58723729172E+03  0.25500000920E-02 0.  1.
        2   -1    0    0  501    0  0.00000000000E+00  0.00000000000E+00 -0.84719357329E+03  0.84719357330E+03  0.25500000920E-02 0. -1.
    10030    2    1    2    0    0  0.00000000000E+00  0.00000000000E+00 -0.25995628158E+03  0.14344308650E+04  0.14106787863E+04 0.  0.
        5    1    3    3  502    0  0.40138873438E+03 -0.57927284636E+03 -0.15894681637E+03  0.72246531201E+03  0.46999998093E+01 0.  1.
       -5    1    3    3    0  502 -0.40138873438E+03  0.57927284636E+03 -0.10100946521E+03  0.71196555302E+03  0.46999998093E+01 0. -1.
</event>
<event>
 5   0  0.2467303E-05  0.1399974E+04  0.7818609E-02  0.8953837E-01
       -1   -1    0    0    0  501  0.00000000000E+00  0.00000000000E+00  0.27049067280E+03  0.27049067285E+03  0.50400001928E-02 0. -1.
        1   -1    0    0  501    0  0.00000000000E+00  0.00000000000E+00 -0.18114557525E+04  0.18114557526E+04  0.50400001928E-02 0.  1.
    10030    2    1    2    0    0  0.00000000000E+00  0.00000000000E+00 -0.15409650797E+04  0.20819464254E+04  0.13999741216E+04 0.  0.
        3    1    3    3  502    0  0.17116060041E+03 -0.41787466826E+03  0.24913059544E+02  0.45225640984E+03  0.10100000352E+00 0. -1.
       -3    1    3    3    0  502 -0.17116060041E+03  0.41787466826E+03 -0.15658781393E+04  0.16296900156E+04  0.10100000352E+00 0.  1.
</event>
<event>
 5   0  0.2428507E-05  0.1400498E+04  0.7818609E-02  0.8953458E-01
       -1   -1    0    0    0  501  0.00000000000E+00  0.00000000000E+00  0.61030192440E+03  0.61030192442E+03  0.50400001928E-02 0.  1.
        1   -1    0    0  501    0  0.00000000000E+00  0.00000000000E+00 -0.80345213121E+03  0.80345213123E+03  0.50400001928E-02 0. -1.
    10030    2    1    2    0    0  0.00000000000E+00  0.00000000000E+00 -0.19315020681E+03  0.14137540556E+04  0.14004975999E+04 0.  0.
        4    1    3    3  502    0  0.64171510049E+03  0.25297864934E+03  0.25191304567E+02  0.69024103177E+03  0.12699999809E+01 0.  1.
       -4    1    3    3    0  502 -0.64171510049E+03 -0.25297864934E+03 -0.21834151138E+03  0.72351302387E+03  0.12699999809E+01 0. -1.
</event>
<event>
 5   0  0.2467303E-05  0.1400167E+04  0.7818609E-02  0.8953698E-01
        1   -1    0    0  501    0  0.00000000000E+00  0.00000000000E+00  0.11299098710E+04  0.11299098710E+04  0.50400001928E-02 0.  1.
       -1   -1    0    0    0  501  0.00000000000E+00  0.00000000000E+00 -0.43376634769E+03  0.43376634772E+03  0.50400001928E-02 0. -1.
    10030    2    1    2    0    0  0.00000000000E+00  0.00000000000E+00  0.69614352326E+03  0.15636762187E+04  0.14001669586E+04 0.  0.
        3    1    3    3  502    0 -0.13689412513E+03  0.35251634664E+03 -0.30988900941E+03  0.48891613238E+03  0.10100000352E+00 0. -1.
       -3    1    3    3    0  502  0.13689412513E+03 -0.35251634664E+03  0.10060325327E+04  0.10747600863E+04  0.10100000352E+00 0.  1.
</event>
<event>
 5   0  0.2467303E-05  0.1399794E+04  0.7818609E-02  0.8953968E-01
        1   -1    0    0  501    0  0.00000000000E+00  0.00000000000E+00  0.97635301448E+03  0.97635301449E+03  0.50400001928E-02 0. -1.
       -1   -1    0    0    0  501  0.00000000000E+00  0.00000000000E+00 -0.50171992664E+03  0.50171992666E+03  0.50400001928E-02 0.  1.
    10030    2    1    2    0    0  0.00000000000E+00  0.00000000000E+00  0.47463308784E+03  0.14780729412E+04  0.13997939317E+04 0.  0.
        3    1    3    3  502    0 -0.63254490439E+03  0.18492472885E+03  0.48617726857E+03  0.81894966762E+03  0.10100000352E+00 0. -1.
       -3    1    3    3    0  502  0.63254490439E+03 -0.18492472885E+03 -0.11544180724E+02  0.65912327354E+03  0.10100000352E+00 0.  1.
</event>
<event>
 5   0  0.4243281E-05  0.1399486E+04  0.7818609E-02  0.8954190E-01
       -2   -1    0    0    0  501  0.00000000000E+00  0.00000000000E+00  0.30023353658E+03  0.30023353659E+03  0.25500000920E-02 0.  1.
        2   -1    0    0  501    0  0.00000000000E+00  0.00000000000E+00 -0.16308657446E+04  0.16308657446E+04  0.25500000920E-02 0. -1.
    10030    2    1    2    0    0  0.00000000000E+00  0.00000000000E+00 -0.13306322081E+04  0.19310992812E+04  0.13994864633E+04 0.  0.
        2    1    3    3  502    0  0.63265745566E+03  0.23848783253E+03 -0.91410765047E+03  0.11369805184E+04  0.25500000920E-02 0.  1.
       -2    1    3    3    0  502 -0.63265745566E+03 -0.23848783253E+03 -0.41652455758E+03  0.79411876287E+03  0.25500000920E-02 0. -1.
</event>
<event>
 5   0  0.2316714E-05  0.1399869E+04  0.7818609E-02  0.8953914E-01
       -1   -1    0    0    0  501  0.00000000000E+00  0.00000000000E+00  0.46457420779E+03  0.46457420781E+03  0.50400001928E-02 0.  1.
        1   -1    0    0  501    0  0.00000000000E+00  0.00000000000E+00 -0.10545315721E+04  0.10545315722E+04  0.50400001928E-02 0. -1.
    10030    2    1    2    0    0  0.00000000000E+00  0.00000000000E+00 -0.58995736435E+03  0.15191057800E+04  0.13998688078E+04 0.  0.
        5    1    3    3  502    0 -0.60733304356E+03 -0.11909379327E+03  0.59742044659E+02  0.62179414543E+03  0.46999998093E+01 0. -1.
       -5    1    3    3    0  502  0.60733304356E+03  0.11909379327E+03 -0.64969940901E+03  0.89731163453E+03  0.46999998093E+01 0.  1.
</event>
<event>
 5   0  0.2363419E-05  0.1396861E+04  0.7818609E-02  0.8956094E-01
        1   -1    0    0  501    0  0.00000000000E+00  0.00000000000E+00  0.70777744525E+03  0.70777744527E+03  0.50400001928E-02 0.  1.
       -1   -1    0    0    0  501  0.00000000000E+00  0.00000000000E+00 -0.68920732172E+03  0.68920732174E+03  0.50400001928E-02 0. -1.
    10030    2    1    2    0    0  0.00000000000E+00  0.00000000000E+00  0.18570123527E+02  0.13969847670E+04  0.13968613352E+04 0.  0.
        2    1    3    3  502    0  0.67611887048E+03 -0.16623720223E+03  0.64370442814E+02  0.69922463367E+03  0.25500000920E-02 0. -1.
       -2    1    3    3    0  502 -0.67611887048E+03  0.16623720223E+03 -0.45800319287E+02  0.69776013334E+03  0.25500000920E-02 0.  1.
</event>
<event>
 5   0  0.2467303E-05  0.1399173E+04  0.7818609E-02  0.8954417E-01
        1   -1    0    0  501    0  0.00000000000E+00  0.00000000000E+00  0.91454653605E+03  0.91454653607E+03  0.50400001928E-02 0. -1.
       -1   -1    0    0    0  501  0.00000000000E+00  0.00000000000E+00 -0.53515175089E+03  0.53515175092E+03  0.50400001928E-02 0.  1.
    10030    2    1    2    0    0  0.00000000000E+00  0.00000000000E+00  0.37939478516E+03  0.14496982870E+04  0.13991728700E+04 0.  0.
        3    1    3    3  502    0  0.52888468798E+03 -0.28036370680E+03 -0.18545252958E+03  0.62667014625E+03  0.10100000352E+00 0.  1.
       -3    1    3    3    0  502 -0.52888468798E+03  0.28036370680E+03  0.56484731474E+03  0.82302814073E+03  0.10100000352E+00 0. -1.
</event>
<event>
 5   0  0.4460282E-05  0.1400118E+04  0.7818609E-02  0.8953733E-01
        2   -1    0    0  501    0  0.00000000000E+00  0.00000000000E+00  0.12063663298E+04  0.12063663298E+04  0.25500000920E-02 0. -1.
       -2   -1    0    0    0  501  0.00000000000E+00  0.00000000000E+00 -0.40624684109E+03  0.40624684110E+03  0.25500000920E-02 0.  1.
    10030    2    1    2    0    0  0.00000000000E+00  0.00000000000E+00  0.80011948868E+03  0.16126131709E+04  0.14001178674E+04 0.  0.
        1    1    3    3  502    0 -0.61319523051E+03  0.29067816223E+03  0.20196767800E+03  0.70802057011E+03  0.50400001928E-02 0.  1.
       -1    1    3    3    0  502  0.61319523051E+03 -0.29067816223E+03  0.59815181068E+03  0.90459260077E+03  0.50400001928E-02 0. -1.
</event>
<event>
 5   0  0.4243281E-05  0.1403961E+04  0.7818609E-02  0.8950956E-01
       -2   -1    0    0    0  501  0.00000000000E+00  0.00000000000E+00  0.32948019960E+03  0.32948019961E+03  0.25500000920E-02 0. -1.
        2   -1    0    0  501    0  0.00000000000E+00  0.00000000000E+00 -0.14956191731E+04  0.14956191731E+04  0.25500000920E-02 0.  1.
    10030    2    1    2    0    0  0.00000000000E+00  0.00000000000E+00 -0.11661389735E+04  0.18250993727E+04  0.14039614007E+04 0.  0.
        2    1    3    3  502    0  0.46016416789E+03  0.42347537420E+03 -0.99762240175E+03  0.11774263928E+04  0.25500000920E-02 0.  1.
       -2    1    3    3    0  502 -0.46016416789E+03 -0.42347537420E+03 -0.16851657175E+03  0.64767297992E+03  0.25500000920E-02 0. -1.
</event>
<event>
 5   0  0.2467303E-05  0.1400283E+04  0.7818609E-02  0.8953614E-01
       -1   -1    0    0    0  501  0.00000000000E+00  0.00000000000E+00  0.33936444708E+03  0.33936444711E+03  0.50400001928E-02 0.  1.
        1   -1    0    0  501    0  0.00000000000E+00  0.00000000000E+00 -0.14444583030E+04  0.14444583030E+04  0.50400001928E-02 0. -1.
    10030    2    1    2    0    0  0.00000000000E+00  0.00000000000E+00 -0.11050938560E+04  0.17838227502E+04  0.14002825335E+04 0.  0.
        3    1    3    3  502    0  0.45454044192E+03 -0.24437579038E+03 -0.11552941008E+04  0.12653185409E+04  0.10100000352E+00 0. -1.
       -3    1    3    3    0  502 -0.45454044192E+03  0.24437579038E+03  0.50200244864E+02  0.51850420929E+03  0.10100000352E+00 0.  1.
</event>
<event>
 5   0  0.4460282E-05  0.1400004E+04  0.7818609E-02  0.8953816E-01
       -2   -1    0    0    0  501  0.00000000000E+00  0.00000000000E+00  0.55352300051E+03  0.55352300052E+03  0.25500000920E-02 0.  1.
        2   -1    0    0  501    0  0.00000000000E+00  0.00000000000E+00 -0.88524332414E+03  0.88524332415E+03  0.25500000920E-02 0. -1.
    10030    2    1    2    0    0  0.00000000000E+00  0.00000000000E+00 -0.33172032363E+03  0.14387663247E+04  0.14000036299E+04 0.  0.
        1    1    3    3  502    0  0.31677609829E+03  0.25383279356E+03  0.42021408041E+03  0.58425855316E+03  0.50400001928E-02 0.  1.
       -1    1    3    3    0  502 -0.31677609829E+03 -0.25383279356E+03 -0.75193440405E+03  0.85450777150E+03  0.50400001928E-02 0. -1.
</event>
<event>
 5   0  0.2427569E-05  0.1399909E+04  0.7818609E-02  0.8953884E-01
        1   -1    0    0  501    0  0.00000000000E+00  0.00000000000E+00  0.16965387933E+04  0.16965387933E+04  0.50400001928E-02 0.  1.
       -1   -1    0    0    0  501  0.00000000000E+00  0.00000000000E+00 -0.28878585247E+03  0.28878585251E+03  0.50400001928E-02 0. -1.
    10030    2    1    2    0    0  0.00000000000E+00  0.00000000000E+00  0.14077529409E+04  0.19853246459E+04  0.13999091424E+04 0.  0.
        1    1    3    3  502    0  0.29819873633E+03 -0.44324278032E+03  0.62473208986E+02  0.53785644044E+03  0.50400001928E-02 0. -1.
       -1    1    3    3    0  502 -0.29819873633E+03  0.44324278032E+03  0.13452797319E+04  0.14474682054E+04  0.50400001928E-02 0.  1.
</event>
<event>
 5   0  0.2467303E-05  0.1400456E+04  0.7818609E-02  0.8953489E-01
       -1   -1    0    0    0  501  0.00000000000E+00  0.00000000000E+00  0.72168531295E+03  0.72168531297E+03  0.50400001928E-02 0.  1.
        1   -1    0    0  501    0  0.00000000000E+00  0.00000000000E+00 -0.67940821372E+03  0.67940821374E+03  0.50400001928E-02 0. -1.
    10030    2    1    2    0    0  0.00000000000E+00  0.00000000000E+00  0.42277099234E+02  0.14010935267E+04  0.14004555393E+04 0.  0.
        3    1    3    3  502    0  0.77716762921E+02  0.72635269684E+02  0.71355436940E+03  0.72143996696E+03  0.10100000352E+00 0.  1.
       -3    1    3    3    0  502 -0.77716762921E+02 -0.72635269684E+02 -0.67127727016E+03  0.67965355975E+03  0.10100000352E+00 0. -1.
</event>
<event>
 5   0  0.4527503E-05  0.1398996E+04  0.7818609E-02  0.8954546E-01
        2   -1    0    0  501    0  0.00000000000E+00  0.00000000000E+00  0.45864972963E+03  0.45864972963E+03  0.25500000920E-02 0. -1.
       -2   -1    0    0    0  501  0.00000000000E+00  0.00000000000E+00 -0.10668215364E+04  0.10668215364E+04  0.25500000920E-02 0.  1.
    10030    2    1    2    0    0  0.00000000000E+00  0.00000000000E+00 -0.60817180676E+03  0.15254712660E+04  0.13989959389E+04 0.  0.
        4    1    3    3  502    0 -0.51518749467E+03  0.64253417700E+02  0.20706739774E+03  0.55895006615E+03  0.12699999809E+01 0. -1.
       -4    1    3    3    0  502  0.51518749467E+03 -0.64253417700E+02 -0.81523920450E+03  0.96652119987E+03  0.12699999809E+01 0.  1.
</event>
<event>
 5   0  0.1661000E-05  0.1407093E+04  0.7818609E-02  0.8948700E-01
        4   -1    0    0  501    0  0.00000000000E+00  0.00000000000E+00  0.10214566774E+04  0.10214574670E+04  0.12699999809E+01 0. -1.
       -4   -1    0    0    0  501  0.00000000000E+00  0.00000000000E+00 -0.48457864644E+03  0.48458031066E+03  0.12699999809E+01 0.  1.
    10030    2    1    2    0    0  0.00000000000E+00  0.00000000000E+00  0.53687803101E+03  0.15060377776E+04  0.14070933755E+04 0.  0.
        4    1    3    3  502    0 -0.60838449272E+03  0.17603268256E+03  0.59634292044E+03  0.86991131040E+03  0.12699999809E+01 0. -1.
       -4    1    3    3    0  502  0.60838449272E+03 -0.17603268256E+03 -0.59464889425E+02  0.63612646722E+03  0.12699999809E+01 0.  1.
</event>
<event>
 5   0  0.1661000E-05  0.1399162E+04  0.7818609E-02  0.8954425E-01
       -3   -1    0    0    0  501  0.00000000000E+00  0.00000000000E+00  0.15684750998E+04  0.15684751030E+04  0.10100000352E+00 0.  1.
        3   -1    0    0  501    0  0.00000000000E+00  0.00000000000E+00 -0.31203165795E+03  0.31203167430E+03  0.10100000352E+00 0. -1.
    10030    2    1    2    0    0  0.00000000000E+00  0.00000000000E+00  0.12564434418E+04  0.18805067773E+04  0.13991624699E+04 0.  0.
        3    1    3    3  502    0  0.15697857312E+02  0.36317777961E+03 -0.17512800282E+03  0.40350260209E+03  0.10100000352E+00 0.  1.
       -3    1    3    3    0  502 -0.15697857312E+02 -0.36317777961E+03  0.14315714447E+04  0.14770041752E+04  0.10100000352E+00 0. -1.
</event>
<event>
 5   0  0.4460282E-05  0.1399412E+04  0.7818609E-02  0.8954244E-01
       -2   -1    0    0    0  501  0.00000000000E+00  0.00000000000E+00  0.49175049824E+03  0.49175049824E+03  0.25500000920E-02 0.  1.
        2   -1    0    0  501    0  0.00000000000E+00  0.00000000000E+00 -0.99560352092E+03  0.99560352092E+03  0.25500000920E-02 0. -1.
    10030    2    1    2    0    0  0.00000000000E+00  0.00000000000E+00 -0.50385302268E+03  0.14873540192E+04  0.13994120586E+04 0.  0.
        1    1    3    3  502    0 -0.52684317099E+03  0.15607741432E+02  0.23719013190E+03  0.57798485024E+03  0.50400001928E-02 0.  1.
       -1    1    3    3    0  502  0.52684317099E+03 -0.15607741432E+02 -0.74104315459E+03  0.90936916893E+03  0.50400001928E-02 0. -1.
</event>
<event>
 5   0  0.4621450E-05  0.1400574E+04  0.7818609E-02  0.8953404E-01
        2   -1    0    0  501    0  0.00000000000E+00  0.00000000000E+00  0.26070293872E+04  0.26070293872E+04  0.25500000920E-02 0. -1.
       -2   -1    0    0    0  501  0.00000000000E+00  0.00000000000E+00 -0.18810741071E+03  0.18810741073E+03  0.25500000920E-02 0.  1.
    10030    2    1    2    0    0  0.00000000000E+00  0.00000000000E+00  0.24189219764E+04  0.27951367979E+04  0.14005735221E+04 0.  0.
        5    1    3    3  502    0 -0.29370795094E+03  0.24628296185E+03  0.23790549360E+04  0.24097394333E+04  0.46999998093E+01 0. -1.
       -5    1    3    3    0  502  0.29370795094E+03 -0.24628296185E+03  0.39867040438E+02  0.38539736462E+03  0.46999998093E+01 0.  1.
</event>
<event>
 5   0  0.4527503E-05  0.1403476E+04  0.7818609E-02  0.8951306E-01
        2   -1    0    0  501    0  0.00000000000E+00  0.00000000000E+00  0.46191947928E+03  0.46191947928E+03  0.25500000920E-02 0.  1.
       -2   -1    0    0    0  501  0.00000000000E+00  0.00000000000E+00 -0.10660654584E+04  0.10660654584E+04  0.25500000920E-02 0. -1.
    10030    2    1    2    0    0  0.00000000000E+00  0.00000000000E+00 -0.60414597917E+03  0.15279849377E+04  0.14034762577E+04 0.  0.
        4    1    3    3  502    0 -0.33633758468E+03  0.41011654052E+03 -0.80230885386E+03  0.96177942250E+03  0.12699999809E+01 0.  1.
       -4    1    3    3    0  502  0.33633758468E+03 -0.41011654052E+03  0.19816287469E+03  0.56620551523E+03  0.12699999809E+01 0. -1.
</event>
<event>
 5   0  0.2467303E-05  0.1399562E+04  0.7818609E-02  0.8954136E-01
        1   -1    0    0  501    0  0.00000000000E+00  0.00000000000E+00  0.16814309283E+04  0.16814309283E+04  0.50400001928E-02 0.  1.
       -1   -1    0    0    0  501  0.00000000000E+00  0.00000000000E+00 -0.29123602814E+03  0.29123602818E+03  0.50400001928E-02 0. -1.
    10030    2    1    2    0    0  0.00000000000E+00  0.00000000000E+00  0.13901949001E+04  0.19726669565E+04  0.13995617388E+04 0.  0.
        3    1    3    3  502    0 -0.63859680110E+03  0.27333777536E+03  0.81447910287E+03  0.10704651480E+04  0.10100000352E+00 0.  1.
       -3    1    3    3    0  502  0.63859680110E+03 -0.27333777536E+03  0.57571579728E+03  0.90220180849E+03  0.10100000352E+00 0. -1.
</event>
<event>
 5   0  0.2467303E-05  0.1399448E+04  0.7818609E-02  0.8954218E-01
       -1   -1    0    0    0  501  0.00000000000E+00  0.00000000000E+00  0.24121984206E+03  0.24121984211E+03  0.50400001928E-02 0. -1.
        1   -1    0    0  501    0  0.00000000000E+00  0.00000000000E+00 -0.20297396862E+04  0.20297396862E+04  0.50400001928E-02 0.  1.
    10030    2    1    2    0    0  0.00000000000E+00  0.00000000000E+00 -0.17885198441E+04  0.22709595283E+04  0.13994477291E+04 0.  0.
        3    1    3    3  502    0 -0.36974320784E+02  0.30489411781E+03 -0.19145141507E+04  0.19389925134E+04  0.10100000352E+00 0.  1.
       -3    1    3    3    0  502  0.36974320784E+02 -0.30489411781E+03  0.12599430662E+03  0.33196701489E+03  0.10100000352E+00 0. -1.
</event>
<event>
 5   0  0.4441253E-05  0.1400080E+04  0.7818609E-02  0.8953761E-01
       -2   -1    0    0    0  501  0.00000000000E+00  0.00000000000E+00  0.69189106378E+03  0.69189106378E+03  0.25500000920E-02 0.  1.
        2   -1    0    0  501    0  0.00000000000E+00  0.00000000000E+00 -0.70828465741E+03  0.70828465742E+03  0.25500000920E-02 0. -1.
    10030    2    1    2    0    0  0.00000000000E+00  0.00000000000E+00 -0.16393593636E+02  0.14001757212E+04  0.14000797478E+04 0.  0.
        3    1    3    3  502    0  0.24883345930E+03  0.31377809950E+03  0.56602113090E+03  0.69336477919E+03  0.10100000352E+00 0.  1.
       -3    1    3    3    0  502 -0.24883345930E+03 -0.31377809950E+03 -0.58241472453E+03  0.70681094201E+03  0.10100000352E+00 0. -1.
</event>
<event>
 5   0  0.4527503E-05  0.1400204E+04  0.7818609E-02  0.8953671E-01
        2   -1    0    0  501    0  0.00000000000E+00  0.00000000000E+00  0.39296517322E+03  0.39296517323E+03  0.25500000920E-02 0.  1.
       -2   -1    0    0    0  501  0.00000000000E+00  0.00000000000E+00 -0.12472941121E+04  0.12472941121E+04  0.25500000920E-02 0. -1.
    10030    2    1    2    0    0  0.00000000000E+00  0.00000000000E+00 -0.85432893892E+03  0.16402592854E+04  0.14002044806E+04 0.  0.
        4    1    3    3  502    0 -0.40402540882E+03  0.44152826045E+03 -0.85270268898E+03  0.10417711958E+04  0.12699999809E+01 0. -1.
       -4    1    3    3    0  502  0.40402540882E+03 -0.44152826045E+03 -0.16262499415E+01  0.59848808955E+03  0.12699999809E+01 0.  1.
</event>
<event>
 5   0  0.2363419E-05  0.1399918E+04  0.7818609E-02  0.8953878E-01
       -1   -1    0    0    0  501  0.00000000000E+00  0.00000000000E+00  0.60706522709E+03  0.60706522711E+03  0.50400001928E-02 0. -1.
        1   -1    0    0  501    0  0.00000000000E+00  0.00000000000E+00 -0.80706695834E+03  0.80706695835E+03  0.50400001928E-02 0.  1.
    10030    2    1    2    0    0  0.00000000000E+00  0.00000000000E+00 -0.20000173125E+03  0.14141321855E+04  0.13999175495E+04 0.  0.
        2    1    3    3  502    0 -0.16891956566E+03  0.17323649002E+03  0.56347694644E+03  0.61322994897E+03  0.25500000920E-02 0. -1.
       -2    1    3    3    0  502  0.16891956566E+03 -0.17323649002E+03 -0.76347867769E+03  0.80090223650E+03  0.25500000920E-02 0.  1.
</event>
<event>
 5   0  0.2427569E-05  0.1400428E+04  0.7818609E-02  0.8953509E-01
       -1   -1    0    0    0  501  0.00000000000E+00  0.00000000000E+00  0.45450380512E+03  0.45450380515E+03  0.50400001928E-02 0. -1.
        1   -1    0    0  501    0  0.00000000000E+00  0.00000000000E+00 -0.10787584781E+04  0.10787584781E+04  0.50400001928E-02 0.  1.
    10030    2    1    2    0    0  0.00000000000E+00  0.00000000000E+00 -0.62425467299E+03  0.15332622833E+04  0.14004282676E+04 0.  0.
        1    1    3    3  502    0  0.62343876693E+03 -0.30201587231E+03 -0.42383635781E+03  0.81211251774E+03  0.50400001928E-02 0.  1.
       -1    1    3    3    0  502 -0.62343876693E+03  0.30201587231E+03 -0.20041831519E+03  0.72114976554E+03  0.50400001928E-02 0. -1.
</event>
<event>
 5   0  0.2363419E-05  0.1399701E+04  0.7818609E-02  0.8954035E-01
       -1   -1    0    0    0  501  0.00000000000E+00  0.00000000000E+00  0.38807443093E+03  0.38807443097E+03  0.50400001928E-02 0. -1.
        1   -1    0    0  501    0  0.00000000000E+00  0.00000000000E+00 -0.12621052683E+04  0.12621052683E+04  0.50400001928E-02 0.  1.
    10030    2    1    2    0    0  0.00000000000E+00  0.00000000000E+00 -0.87403083732E+03  0.16501796992E+04  0.13997010878E+04 0.  0.
        2    1    3    3  502    0  0.18815270387E+03 -0.10498470846E+03 -0.12220303084E+04  0.12408792462E+04  0.25500000920E-02 0.  1.
       -2    1    3    3    0  502 -0.18815270387E+03  0.10498470846E+03  0.34799947107E+03  0.40930045304E+03  0.25500000920E-02 0. -1.
</event>
<event>
 5   0  0.1661000E-05  0.1399147E+04  0.7818609E-02  0.8954436E-01
        3   -1    0    0  501    0  0.00000000000E+00  0.00000000000E+00  0.91108454659E+03  0.91108455219E+03  0.10100000352E+00 0.  1.
       -3   -1    0    0    0  501  0.00000000000E+00  0.00000000000E+00 -0.53716529622E+03  0.53716530572E+03  0.10100000352E+00 0. -1.
    10030    2    1    2    0    0  0.00000000000E+00  0.00000000000E+00  0.37391925037E+03  0.14482498579E+04  0.13991468991E+04 0.  0.
        5    1    3    3  502    0  0.14847723883E+03 -0.66827763059E+03  0.37890001355E+02  0.68563709366E+03  0.46999998093E+01 0. -1.
       -5    1    3    3    0  502 -0.14847723883E+03  0.66827763059E+03  0.33602924901E+03  0.76261276425E+03  0.46999998093E+01 0.  1.
</event>
<event>
 5   0  0.4527503E-05  0.1399693E+04  0.7818609E-02  0.8954041E-01
       -2   -1    0    0    0  501  0.00000000000E+00  0.00000000000E+00  0.64380143987E+03  0.64380143988E+03  0.25500000920E-02 0. -1.
        2   -1    0    0  501    0  0.00000000000E+00  0.00000000000E+00 -0.76077022402E+03  0.76077022402E+03  0.25500000920E-02 0.  1.
    10030    2    1    2    0    0  0.00000000000E+00  0.00000000000E+00 -0.11696878415E+03  0.14045716639E+04  0.13996927743E+04 0.  0.
        4    1    3    3  502    0 -0.10121600280E+03 -0.16520732343E+03 -0.73332028193E+03  0.75848426992E+03  0.12699999809E+01 0.  1.
       -4    1    3    3    0  502  0.10121600280E+03  0.16520732343E+03  0.61635149778E+03  0.64608739397E+03  0.12699999809E+01 0. -1.
</event>
<event>
 5   0  0.4527503E-05  0.1398829E+04  0.7818609E-02  0.8954666E-01
       -2   -1    0    0    0  501  0.00000000000E+00  0.00000000000E+00  0.13722225659E+04  0.13722225659E+04  0.25500000920E-02 0. -1.
        2   -1    0    0  501    0  0.00000000000E+00  0.00000000000E+00 -0.35648807982E+03  0.35648807983E+03  0.25500000920E-02 0.  1.
    10030    2    1    2    0    0  0.00000000000E+00  0.00000000000E+00  0.10157344861E+04  0.17287106458E+04  0.13988294930E+04 0.  0.
        4    1    3    3  502    0 -0.14615578961E+03  0.44079623833E+03 -0.13845532392E+03  0.48459707818E+03  0.12699999809E+01 0.  1.
       -4    1    3    3    0  502  0.14615578961E+03 -0.44079623833E+03  0.11541898100E+04  0.12441135676E+04  0.12699999809E+01 0. -1.
</event>
<event>
 5   0  0.4621450E-05  0.1399901E+04  0.7818609E-02  0.8953890E-01
       -2   -1    0    0    0  501  0.00000000000E+00  0.00000000000E+00  0.60387515674E+03  0.60387515674E+03  0.25500000920E-02 0. -1.
        2   -1    0    0  501    0  0.00000000000E+00  0.00000000000E+00 -0.81131136318E+03  0.81131136318E+03  0.25500000920E-02 0.  1.
    10030    2    1    2    0    0  0.00000000000E+00  0.00000000000E+00 -0.20743620644E+03  0.14151865199E+04  0.13999011060E+04 0.  0.
        5    1    3    3  502    0 -0.42917565042E+03 -0.46257456244E+03  0.20247807801E+03  0.66271142046E+03  0.46999998093E+01 0. -1.
       -5    1    3    3    0  502  0.42917565042E+03  0.46257456244E+03 -0.40991428445E+03  0.75247509947E+03  0.46999998093E+01 0.  1.
</event>
<event>
 5   0  0.2467303E-05  0.1398890E+04  0.7818609E-02  0.8954623E-01
        1   -1    0    0  501    0  0.00000000000E+00  0.00000000000E+00  0.91436613837E+03  0.91436613838E+03  0.50400001928E-02 0.  1.
       -1   -1    0    0    0  501  0.00000000000E+00  0.00000000000E+00 -0.53504066333E+03  0.53504066335E+03  0.50400001928E-02 0. -1.
    10030    2    1    2    0    0  0.00000000000E+00  0.00000000000E+00  0.37932547504E+03  0.14494068017E+04  0.13988896529E+04 0.  0.
        3    1    3    3  502    0 -0.56305898656E+03 -0.31154374358E+03  0.47365605593E+03  0.79902753146E+03  0.10100000352E+00 0.  1.
       -3    1    3    3    0  502  0.56305898656E+03  0.31154374358E+03 -0.94330580889E+02  0.65037927028E+03  0.10100000352E+00 0. -1.
</event>
<event>
 5   0  0.2363419E-05  0.1399908E+04  0.7818609E-02  0.8953885E-01
        1   -1    0    0  501    0  0.00000000000E+00  0.00000000000E+00  0.12682416367E+04  0.12682416367E+04  0.50400001928E-02 0. -1.
       -1   -1    0    0    0  501  0.00000000000E+00  0.00000000000E+00 -0.38631080426E+03  0.38631080429E+03  0.50400001928E-02 0.  1.
    10030    2    1    2    0    0  0.00000000000E+00  0.00000000000E+00  0.88193083245E+03  0.16545524410E+04  0.13999077780E+04 0.  0.
        2    1    3    3  502    0 -0.55982686242E+03 -0.39909954552E+03  0.28574043873E+03  0.74453620561E+03  0.25500000920E-02 0.  1.
       -2    1    3    3    0  502  0.55982686242E+03  0.39909954552E+03  0.59619039371E+03  0.91001623540E+03  0.25500000920E-02 0. -1.
</event>
<event>
 5   0  0.4460282E-05  0.1398168E+04  0.7818609E-02  0.8955146E-01
        2   -1    0    0  501    0  0.00000000000E+00  0.00000000000E+00  0.83922157382E+03  0.83922157382E+03  0.25500000920E-02 0. -1.
       -2   -1    0    0    0  501  0.00000000000E+00  0.00000000000E+00 -0.58234705248E+03  0.58234705249E+03  0.25500000920E-02 0.  1.
    10030    2    1    2    0    0  0.00000000000E+00  0.00000000000E+00  0.25687452133E+03  0.14215686263E+04  0.13981676722E+04 0.  0.
        1    1    3    3  502    0 -0.27415868809E+03 -0.71067266920E+02 -0.52140370433E+03  0.59335938991E+03  0.50400001928E-02 0.  1.
       -1    1    3    3    0  502  0.27415868809E+03  0.71067266920E+02  0.77827822566E+03  0.82820923639E+03  0.50400001928E-02 0. -1.
</event>
<event>
 5   0  0.2428507E-05  0.1399918E+04  0.7818609E-02  0.8953878E-01
        1   -1    0    0  501    0  0.00000000000E+00  0.00000000000E+00  0.45565617400E+03  0.45565617402E+03  0.50400001928E-02 0.  1.
       -1   -1    0    0    0  501  0.00000000000E+00  0.00000000000E+00 -0.10752465011E+04  0.10752465012E+04  0.50400001928E-02 0. -1.
    10030    2    1    2    0    0  0.00000000000E+00  0.00000000000E+00 -0.61959032714E+03  0.15309026752E+04  0.13999181502E+04 0.  0.
        4    1    3    3  502    0 -0.33172156015E+03  0.59797763422E+03 -0.14640072828E+03  0.69932197923E+03  0.12699999809E+01 0.  1.
       -4    1    3    3    0  502  0.33172156015E+03 -0.59797763422E+03 -0.47318959886E+03  0.83158069594E+03  0.12699999809E+01 0. -1.
</event>
<event>
 5   0  0.4527503E-05  0.1399947E+04  0.7818609E-02  0.8953857E-01
       -2   -1    0    0    0  501  0.00000000000E+00  0.00000000000E+00  0.22190657064E+03  0.22190657065E+03  0.25500000920E-02 0.  1.
        2   -1    0    0  501    0  0.00000000000E+00  0.00000000000E+00 -0.22079708021E+04  0.22079708021E+04  0.25500000920E-02 0. -1.
    10030    2    1    2    0    0  0.00000000000E+00  0.00000000000E+00 -0.19860642314E+04  0.24298773727E+04  0.13999474687E+04 0.  0.
        4    1    3    3  502    0  0.39847848546E+03  0.43829859657E+03 -0.16403098621E+04  0.17439922074E+04  0.12699999809E+01 0. -1.
       -4    1    3    3    0  502 -0.39847848546E+03 -0.43829859657E+03 -0.34575436938E+03  0.68588516529E+03  0.12699999809E+01 0.  1.
</event>
<event>
 5   0  0.1661000E-05  0.1399247E+04  0.7818609E-02  0.8954364E-01
       -3   -1    0    0    0  501  0.00000000000E+00  0.00000000000E+00  0.73278109468E+03  0.73278110164E+03  0.10100000352E+00 0.  1.
        3   -1    0    0  501    0  0.00000000000E+00  0.00000000000E+00 -0.66796652248E+03  0.66796653012E+03  0.10100000352E+00 0. -1.
    10030    2    1    2    0    0  0.00000000000E+00  0.00000000000E+00  0.64814572198E+02  0.14007476318E+04  0.13992472973E+04 0.  0.
        1    1    3    3  502    0  0.15635370948E+02 -0.40075207270E+03  0.60628155338E+03  0.72692778912E+03  0.50400001928E-02 0.  1.
       -1    1    3    3    0  502 -0.15635370948E+02  0.40075207270E+03 -0.54146698118E+03  0.67381984264E+03  0.50400001928E-02 0. -1.
</event>
<event>
 5   0  0.4243281E-05  0.1402656E+04  0.7818609E-02  0.8951898E-01
        2   -1    0    0  501    0  0.00000000000E+00  0.00000000000E+00  0.15058711850E+04  0.15058711850E+04  0.25500000920E-02 0.  1.
       -2   -1    0    0    0  501  0.00000000000E+00  0.00000000000E+00 -0.32662891206E+03  0.32662891207E+03  0.25500000920E-02 0. -1.
    10030    2    1    2    0    0  0.00000000000E+00  0.00000000000E+00  0.11792422730E+04  0.18325000971E+04  0.14026561473E+04 0.  0.
        2    1    3    3  502    0 -0.25203995958E+03  0.28546321427E+03 -0.17979658205E+03  0.42111779688E+03  0.25500000920E-02 0. -1.
       -2    1    3    3    0  502  0.25203995958E+03 -0.28546321427E+03  0.13590388550E+04  0.14113823002E+04  0.25500000920E-02 0.  1.
</event>
<event>
 5   0  0.2428507E-05  0.1399277E+04  0.7818609E-02  0.8954342E-01
       -1   -1    0    0    0  501  0.00000000000E+00  0.00000000000E+00  0.48638427555E+03  0.48638427558E+03  0.50400001928E-02 0. -1.
        1   -1    0    0  501    0  0.00000000000E+00  0.00000000000E+00 -0.10063941372E+04  0.10063941372E+04  0.50400001928E-02 0.  1.
    10030    2    1    2    0    0  0.00000000000E+00  0.00000000000E+00 -0.52000986165E+03  0.14927784128E+04  0.13992773612E+04 0.  0.
        4    1    3    3  502    0  0.81916423406E+02 -0.79976381608E+02 -0.99633256708E+03  0.10028891859E+04  0.12699999809E+01 0.  1.
       -4    1    3    3    0  502 -0.81916423406E+02  0.79976381608E+02  0.47632270543E+03  0.48988922691E+03  0.12699999809E+01 0. -1.
</event>
<event>
 5   0  0.4527503E-05  0.1400239E+04  0.7818609E-02  0.8953646E-01
        2   -1    0    0  501    0  0.00000000000E+00  0.00000000000E+00  0.64878398027E+03  0.64878398028E+03  0.25500000920E-02 0.  1.
       -2   -1    0    0    0  501  0.00000000000E+00  0.00000000000E+00 -0.75551657779E+03  0.75551657779E+03  0.25500000920E-02 0. -1.
    10030    2    1    2    0    0  0.00000000000E+00  0.00000000000E+00 -0.10673259751E+03  0.14043005581E+04  0.14002386261E+04 0.  0.
        4    1    3    3  502    0 -0.69535725949E+03  0.76404158129E+02 -0.24891579395E+02  0.69998608367E+03  0.12699999809E+01 0.  1.
       -4    1    3    3    0  502  0.69535725949E+03 -0.76404158129E+02 -0.81841018119E+02  0.70431447440E+03  0.12699999809E+01 0. -1.
</event>
<event>
 5   0  0.2467303E-05  0.1395530E+04  0.7818609E-02  0.8957060E-01
        1   -1    0    0  501    0  0.00000000000E+00  0.00000000000E+00  0.13430202809E+04  0.13430202809E+04  0.50400001928E-02 0.  1.
       -1   -1    0    0    0  501  0.00000000000E+00  0.00000000000E+00 -0.36252341524E+03  0.36252341528E+03  0.50400001928E-02 0. -1.
    10030    2    1    2    0    0  0.00000000000E+00  0.00000000000E+00  0.98049686568E+03  0.17055436962E+04  0.13955304354E+04 0.  0.
        3    1    3    3  502    0 -0.37820753093E+03  0.23794801071E+03 -0.16473139663E+03  0.47623170357E+03  0.10100000352E+00 0. -1.
       -3    1    3    3    0  502  0.37820753093E+03 -0.23794801071E+03  0.11452282623E+04  0.12293119926E+04  0.10100000352E+00 0.  1.
</event>
<event>
 5   0  0.4621450E-05  0.1399750E+04  0.7818609E-02  0.8954000E-01
        2   -1    0    0  501    0  0.00000000000E+00  0.00000000000E+00  0.20507997848E+04  0.20507997848E+04  0.25500000920E-02 0. -1.
       -2   -1    0    0    0  501  0.00000000000E+00  0.00000000000E+00 -0.23884572759E+03  0.23884572761E+03  0.25500000920E-02 0.  1.
    10030    2    1    2    0    0  0.00000000000E+00  0.00000000000E+00  0.18119540573E+04  0.22896455125E+04  0.13997496444E+04 0.  0.
        5    1    3    3  502    0 -0.34608564783E+03 -0.54507032848E+01 -0.89009934115E+02  0.35742110202E+03  0.46999998093E+01 0.  1.
       -5    1    3    3    0  502  0.34608564783E+03  0.54507032848E+01  0.19009639914E+04  0.19322244104E+04  0.46999998093E+01 0. -1.
</event>
<event>
 5   0  0.4621450E-05  0.1400557E+04  0.7818609E-02  0.8953415E-01
       -2   -1    0    0    0  501  0.00000000000E+00  0.00000000000E+00  0.98180681006E+03  0.98180681007E+03  0.25500000920E-02 0. -1.
        2   -1    0    0  501    0  0.00000000000E+00  0.00000000000E+00 -0.49947730831E+03  0.49947730832E+03  0.25500000920E-02 0.  1.
    10030    2    1    2    0    0  0.00000000000E+00  0.00000000000E+00  0.48232950175E+03  0.14812841184E+04  0.14005573502E+04 0.  0.
        5    1    3    3  502    0  0.52196963202E+02 -0.18466693871E+03 -0.47110761683E+03  0.50871492789E+03  0.46999998093E+01 0.  1.
       -5    1    3    3    0  502 -0.52196963202E+02  0.18466693871E+03  0.95343711858E+03  0.97256919050E+03  0.46999998093E+01 0. -1.
</event>
<event>
 5   0  0.4460282E-05  0.1399506E+04  0.7818609E-02  0.8954176E-01
        2   -1    0    0  501    0  0.00000000000E+00  0.00000000000E+00  0.77863826371E+03  0.77863826371E+03  0.25500000920E-02 0.  1.
       -2   -1    0    0    0  501  0.00000000000E+00  0.00000000000E+00 -0.62886011571E+03  0.62886011572E+03  0.25500000920E-02 0. -1.
    10030    2    1    2    0    0  0.00000000000E+00  0.00000000000E+00  0.14977814799E+03  0.14074983794E+04  0.13995064110E+04 0.  0.
        1    1    3    3  502    0 -0.56255595579E+03  0.30520388564E+03 -0.20963270680E+03  0.67347196452E+03  0.50400001928E-02 0. -1.
       -1    1    3    3    0  502  0.56255595579E+03 -0.30520388564E+03  0.35941085480E+03  0.73402641491E+03  0.50400001928E-02 0.  1.
</event>
<event>
 5   0  0.2363419E-05  0.1400050E+04  0.7818609E-02  0.8953783E-01
       -1   -1    0    0    0  501  0.00000000000E+00  0.00000000000E+00  0.86066402083E+03  0.86066402085E+03  0.50400001928E-02 0.  1.
        1   -1    0    0  501    0  0.00000000000E+00  0.00000000000E+00 -0.56936820910E+03  0.56936820912E+03  0.50400001928E-02 0. -1.
    10030    2    1    2    0    0  0.00000000000E+00  0.00000000000E+00  0.29129581173E+03  0.14300322300E+04  0.14000496166E+04 0.  0.
        2    1    3    3  502    0  0.23756552174E+02  0.59416013769E+03  0.52294178705E+03  0.79187041594E+03  0.25500000920E-02 0.  1.
       -2    1    3    3    0  502 -0.23756552174E+02 -0.59416013769E+03 -0.23164597532E+03  0.63816181403E+03  0.25500000920E-02 0. -1.
</event>
<event>
 5   0  0.2467303E-05  0.1399912E+04  0.7818609E-02  0.8953882E-01
        1   -1    0    0  501    0  0.00000000000E+00  0.00000000000E+00  0.47504961258E+03  0.47504961261E+03  0.50400001928E-02 0.  1.
       -1   -1    0    0    0  501  0.00000000000E+00  0.00000000000E+00 -0.10313416068E+04  0.10313416068E+04  0.50400001928E-02 0. -1.
    10030    2    1    2    0    0  0.00000000000E+00  0.00000000000E+00 -0.55629199422E+03  0.15063912194E+04  0.13999120412E+04 0.  0.
        3    1    3    3  502    0 -0.11420763601E+01  0.61607639110E+03  0.79370416465E+02  0.62116913737E+03  0.10100000352E+00 0.  1.
       -3    1    3    3    0  502  0.11420763601E+01 -0.61607639110E+03 -0.63566241069E+03  0.88522208206E+03  0.10100000352E+00 0. -1.
</event>
<event>
 5   0  0.2467303E-05  0.1399262E+04  0.7818609E-02  0.8954353E-01
       -1   -1    0    0    0  501  0.00000000000E+00  0.00000000000E+00  0.69346419242E+03  0.69346419244E+03  0.50400001928E-02 0.  1.
        1   -1    0    0  501    0  0.00000000000E+00  0.00000000000E+00 -0.70585266413E+03  0.70585266415E+03  0.50400001928E-02 0. -1.
    10030    2    1    2    0    0  0.00000000000E+00  0.00000000000E+00 -0.12388471707E+02  0.13993168566E+04  0.13992620165E+04 0.  0.
        3    1    3    3  502    0 -0.49393050401E+03 -0.49546541734E+03 -0.11691264164E+02  0.69970709474E+03  0.10100000352E+00 0.  1.
       -3    1    3    3    0  502  0.49393050401E+03  0.49546541734E+03 -0.69720754326E+00  0.69960976185E+03  0.10100000352E+00 0. -1.
</event>
<event>
 5   0  0.4527503E-05  0.1400165E+04  0.7818609E-02  0.8953699E-01
       -2   -1    0    0    0  501  0.00000000000E+00  0.00000000000E+00  0.42547359325E+03  0.42547359325E+03  0.25500000920E-02 0.  1.
        2   -1    0    0  501    0  0.00000000000E+00  0.00000000000E+00 -0.11519293846E+04  0.11519293846E+04  0.25500000920E-02 0. -1.
    10030    2    1    2    0    0  0.00000000000E+00  0.00000000000E+00 -0.72645579132E+03  0.15774029778E+04  0.14001650395E+04 0.  0.
        4    1    3    3  502    0 -0.54875596271E+03 -0.56788084076E+02  0.12232300982E+03  0.56508629848E+03  0.12699999809E+01 0.  1.
       -4    1    3    3    0  502  0.54875596271E+03  0.56788084076E+02 -0.84877880114E+03  0.10123166793E+04  0.12699999809E+01 0. -1.
</event>
<event>
 5   0  0.2316714E-05  0.1399971E+04  0.7818609E-02  0.8953840E-01
       -1   -1    0    0    0  501  0.00000000000E+00  0.00000000000E+00  0.90827660118E+03  0.90827660119E+03  0.50400001928E-02 0. -1.
        1   -1    0    0  501    0  0.00000000000E+00  0.00000000000E+00 -0.53946090233E+03  0.53946090235E+03  0.50400001928E-02 0.  1.
    10030    2    1    2    0    0  0.00000000000E+00  0.00000000000E+00  0.36881569885E+03  0.14477375035E+04  0.13999710209E+04 0.  0.
        5    1    3    3  502    0  0.68031183474E+03 -0.15384220549E+03  0.12352631755E+03  0.70835898935E+03  0.46999998093E+01 0.  1.
       -5    1    3    3    0  502 -0.68031183474E+03  0.15384220549E+03  0.24528938130E+03  0.73937851419E+03  0.46999998093E+01 0. -1.
</event>
<event>
 5   0  0.2428507E-05  0.1405254E+04  0.7818609E-02  0.8950024E-01
        1   -1    0    0  501    0  0.00000000000E+00  0.00000000000E+00  0.89558575648E+03  0.89558575649E+03  0.50400001928E-02 0.  1.
       -1   -1    0    0    0  501  0.00000000000E+00  0.00000000000E+00 -0.55124221080E+03  0.55124221082E+03  0.50400001928E-02 0. -1.
    10030    2    1    2    0    0  0.00000000000E+00  0.00000000000E+00  0.34434354568E+03  0.14468279673E+04  0.14052539591E+04 0.  0.
        4    1    3    3  502    0 -0.12323889309E+03  0.14140116768E+03  0.86933134533E+03  0.88933723405E+03  0.12699999809E+01 0.  1.
       -4    1    3    3    0  502  0.12323889309E+03 -0.14140116768E+03 -0.52498779965E+03  0.55749073326E+03  0.12699999809E+01 0. -1.
</event>
<event>
 5   0  0.2363419E-05  0.1399472E+04  0.7818609E-02  0.8954201E-01
       -1   -1    0    0    0  501  0.00000000000E+00  0.00000000000E+00  0.36595142288E+03  0.36595142292E+03  0.50400001928E-02 0.  1.
        1   -1    0    0  501    0  0.00000000000E+00  0.00000000000E+00 -0.13379653767E+04  0.13379653767E+04  0.50400001928E-02 0. -1.
    10030    2    1    2    0    0  0.00000000000E+00  0.00000000000E+00 -0.97201395379E+03  0.17039167996E+04  0.13994718052E+04 0.  0.
        2    1    3    3  502    0 -0.42951319808E+03 -0.13041784427E+03 -0.11395677174E+04  0.12247877302E+04  0.25500000920E-02 0. -1.
       -2    1    3    3    0  502  0.42951319808E+03  0.13041784427E+03  0.16755376363E+03  0.47912906940E+03  0.25500000920E-02 0.  1.
</event>
<event>
 5   0  0.4441253E-05  0.1400166E+04  0.7818609E-02  0.8953699E-01
        2   -1    0    0  501    0  0.00000000000E+00  0.00000000000E+00  0.99087509267E+03  0.99087509267E+03  0.25500000920E-02 0.  1.
       -2   -1    0    0    0  501  0.00000000000E+00  0.00000000000E+00 -0.49462950155E+03  0.49462950156E+03  0.25500000920E-02 0. -1.
    10030    2    1    2    0    0  0.00000000000E+00  0.00000000000E+00  0.49624559112E+03  0.14855045942E+04  0.14001657805E+04 0.  0.
        3    1    3    3  502    0 -0.73544482487E+02  0.24090028558E+03 -0.44489244321E+03  0.51124459384E+03  0.10100000352E+00 0. -1.
       -3    1    3    3    0  502  0.73544482487E+02 -0.24090028558E+03  0.94113803433E+03  0.97426000039E+03  0.10100000352E+00 0.  1.
</event>
<event>
 5   0  0.4527503E-05  0.1400551E+04  0.7818609E-02  0.8953420E-01
       -2   -1    0    0    0  501  0.00000000000E+00  0.00000000000E+00  0.55766942005E+03  0.55766942006E+03  0.25500000920E-02 0. -1.
        2   -1    0    0  501    0  0.00000000000E+00  0.00000000000E+00 -0.87934789786E+03  0.87934789787E+03  0.25500000920E-02 0.  1.
    10030    2    1    2    0    0  0.00000000000E+00  0.00000000000E+00 -0.32167847781E+03  0.14370173179E+04  0.14005505092E+04 0.  0.
        4    1    3    3  502    0 -0.42804623576E+02 -0.35545922392E+03  0.45666172981E+03  0.58028014272E+03  0.12699999809E+01 0. -1.
       -4    1    3    3    0  502  0.42804623576E+02  0.35545922392E+03 -0.77834020762E+03  0.85673717520E+03  0.12699999809E+01 0.  1.
</event>
<event>
 5   0  0.4460282E-05  0.1400135E+04  0.7818609E-02  0.8953721E-01
       -2   -1    0    0    0  501  0.00000000000E+00  0.00000000000E+00  0.38330756751E+03  0.38330756752E+03  0.25500000920E-02 0. -1.
        2   -1    0    0  501    0  0.00000000000E+00  0.00000000000E+00 -0.12785934260E+04  0.12785934260E+04  0.25500000920E-02 0.  1.
    10030    2    1    2    0    0  0.00000000000E+00  0.00000000000E+00 -0.89528585851E+03  0.16619009935E+04  0.14001350449E+04 0.  0.
        1    1    3    3  502    0 -0.11205700206E+03 -0.41724903577E+03  0.20619838146E+03  0.47871839541E+03  0.50400001928E-02 0. -1.
       -1    1    3    3    0  502  0.11205700206E+03  0.41724903577E+03 -0.11014842400E+04  0.11831825981E+04  0.50400001928E-02 0.  1.
</event>
<event>
 5   0  0.4441253E-05  0.1400005E+04  0.7818609E-02  0.8953815E-01
       -2   -1    0    0    0  501  0.00000000000E+00  0.00000000000E+00  0.23812485508E+03  0.23812485509E+03  0.25500000920E-02 0. -1.
        2   -1    0    0  501    0  0.00000000000E+00  0.00000000000E+00 -0.20577584143E+04  0.20577584143E+04  0.25500000920E-02 0.  1.
    10030    2    1    2    0    0  0.00000000000E+00  0.00000000000E+00 -0.18196335592E+04  0.22958832694E+04  0.14000048917E+04 0.  0.
        3    1    3    3  502    0  0.42564105342E+03 -0.38939302590E+03 -0.25960466612E+03  0.63260716709E+03  0.10100000352E+00 0. -1.
       -3    1    3    3    0  502 -0.42564105342E+03  0.38939302590E+03 -0.15600288931E+04  0.16632761023E+04  0.10100000352E+00 0.  1.
</event>
<event>
 5   0  0.2316714E-05  0.1400423E+04  0.7818609E-02  0.8953513E-01
       -1   -1    0    0    0  501  0.00000000000E+00  0.00000000000E+00  0.11446274942E+04  0.11446274942E+04  0.50400001928E-02 0.  1.
        1   -1    0    0  501    0  0.00000000000E+00  0.00000000000E+00 -0.42834548185E+03  0.42834548188E+03  0.50400001928E-02 0. -1.
    10030    2    1    2    0    0  0.00000000000E+00  0.00000000000E+00  0.71628201236E+03  0.15729729761E+04  0.14004228156E+04 0.  0.
        5    1    3    3  502    0  0.26240204778E+03 -0.12862905527E+03  0.10728378168E+04  0.11119367517E+04  0.46999998093E+01 0.  1.
       -5    1    3    3    0  502 -0.26240204778E+03  0.12862905527E+03 -0.35655580446E+03  0.46103622443E+03  0.46999998093E+01 0. -1.
</event>
<event>
 5   0  0.2428507E-05  0.1399825E+04  0.7818609E-02  0.8953945E-01
        1   -1    0    0  501    0  0.00000000000E+00  0.00000000000E+00  0.12264998130E+04  0.12264998130E+04  0.50400001928E-02 0.  1.
       -1   -1    0    0    0  501  0.00000000000E+00  0.00000000000E+00 -0.39941085588E+03  0.39941085591E+03  0.50400001928E-02 0. -1.
    10030    2    1    2    0    0  0.00000000000E+00  0.00000000000E+00  0.82708895713E+03  0.16259106689E+04  0.13998247606E+04 0.  0.
        4    1    3    3  502    0 -0.34472078611E+03  0.11475828971E+03  0.11083895595E+04  0.11664179843E+04  0.12699999809E+01 0.  1.
       -4    1    3    3    0  502  0.34472078611E+03 -0.11475828971E+03 -0.28130060241E+03  0.45949268465E+03  0.12699999809E+01 0. -1.
</event>
<event>
 5   0  0.2316714E-05  0.1400252E+04  0.7818609E-02  0.8953636E-01
       -1   -1    0    0    0  501  0.00000000000E+00  0.00000000000E+00  0.55947489711E+03  0.55947489714E+03  0.50400001928E-02 0. -1.
        1   -1    0    0  501    0  0.00000000000E+00  0.00000000000E+00 -0.87613718881E+03  0.87613718882E+03  0.50400001928E-02 0.  1.
    10030    2    1    2    0    0  0.00000000000E+00  0.00000000000E+00 -0.31666229170E+03  0.14356120860E+04  0.14002524966E+04 0.  0.
        5    1    3    3  502    0  0.56509493466E+03  0.28583536436E+03 -0.46440035230E+03  0.78531771781E+03  0.46999998093E+01 0. -1.
       -5    1    3    3    0  502 -0.56509493466E+03 -0.28583536436E+03  0.14773806060E+03  0.65029436815E+03  0.46999998093E+01 0.  1.
</event>
<event>
 5   0  0.2427569E-05  0.1399298E+04  0.7818609E-02  0.8954327E-01
       -1   -1    0    0    0  501  0.00000000000E+00  0.00000000000E+00  0.63686411341E+03  0.63686411343E+03  0.50400001928E-02 0.  1.
        1   -1    0    0  501    0  0.00000000000E+00  0.00000000000E+00 -0.76862321616E+03  0.76862321618E+03  0.50400001928E-02 0. -1.
    10030    2    1    2    0    0  0.00000000000E+00  0.00000000000E+00 -0.13175910275E+03  0.14054873296E+04  0.13992977426E+04 0.  0.
        1    1    3    3  502    0  0.54884176406E+03  0.25017017936E+03  0.29022520642E+03  0.66936019533E+03  0.50400001928E-02 0.  1.
       -1    1    3    3    0  502 -0.54884176406E+03 -0.25017017936E+03 -0.42198430918E+03  0.73612713429E+03  0.50400001928E-02 0. -1.
</event>
<event>
 5   0  0.4527503E-05  0.1399747E+04  0.7818609E-02  0.8954002E-01
       -2   -1    0    0    0  501  0.00000000000E+00  0.00000000000E+00  0.22296989569E+03  0.22296989570E+03  0.25500000920E-02 0. -1.
        2   -1    0    0  501    0  0.00000000000E+00  0.00000000000E+00 -0.21968121871E+04  0.21968121871E+04  0.25500000920E-02 0.  1.
    10030    2    1    2    0    0  0.00000000000E+00  0.00000000000E+00 -0.19738422914E+04  0.24197820828E+04  0.13997470975E+04 0.  0.
        4    1    3    3  502    0  0.37311924537E+03  0.34750520859E+03 -0.18157079403E+04  0.18859413508E+04  0.12699999809E+01 0.  1.
       -4    1    3    3    0  502 -0.37311924537E+03 -0.34750520859E+03 -0.15813435113E+03  0.53384073202E+03  0.12699999809E+01 0. -1.
</event>
<event>
 5   0  0.4460282E-05  0.1397475E+04  0.7818609E-02  0.8955648E-01
       -2   -1    0    0    0  501  0.00000000000E+00  0.00000000000E+00  0.62153052768E+03  0.62153052769E+03  0.25500000920E-02 0. -1.
        2   -1    0    0  501    0  0.00000000000E+00  0.00000000000E+00 -0.78553513834E+03  0.78553513834E+03  0.25500000920E-02 0.  1.
    10030    2    1    2    0    0  0.00000000000E+00  0.00000000000E+00 -0.16400461066E+03  0.14070656660E+04  0.13974749644E+04 0.  0.
        1    1    3    3  502    0 -0.61614813877E+02 -0.56661903114E+03  0.32497530382E+03  0.65609638001E+03  0.50400001928E-02 0. -1.
       -1    1    3    3    0  502  0.61614813877E+02  0.56661903114E+03 -0.48897991448E+03  0.75096928601E+03  0.50400001928E-02 0.  1.
</event>
<event>
 5   0  0.4243281E-05  0.1403372E+04  0.7818609E-02  0.8951382E-01
       -2   -1    0    0    0  501  0.00000000000E+00  0.00000000000E+00  0.69498395424E+03  0.69498395424E+03  0.25500000920E-02 0. -1.
        2   -1    0    0  501    0  0.00000000000E+00  0.00000000000E+00 -0.70845233996E+03  0.70845233997E+03  0.25500000920E-02 0.  1.
    10030    2    1    2    0    0  0.00000000000E+00  0.00000000000E+00 -0.13468385722E+02  0.14034362942E+04  0.14033716666E+04 0.  0.
        2    1    3    3  502    0  0.65052773105E+03  0.17479418258E+02 -0.26917941211E+03  0.70423676050E+03  0.25500000920E-02 0.  1.
       -2    1    3    3    0  502 -0.65052773105E+03 -0.17479418258E+02  0.25571102639E+03  0.69919953372E+03  0.25500000920E-02 0. -1.
</event>
<event>
 5   0  0.2467303E-05  0.1407699E+04  0.7818609E-02  0.8948264E-01
       -1   -1    0    0    0  501  0.00000000000E+00  0.00000000000E+00  0.55101039551E+03  0.55101039554E+03  0.50400001928E-02 0.  1.
        1   -1    0    0  501    0  0.00000000000E+00  0.00000000000E+00 -0.89908350453E+03  0.89908350455E+03  0.50400001928E-02 0. -1.
    10030    2    1    2    0    0  0.00000000000E+00  0.00000000000E+00 -0.34807310902E+03  0.14500939001E+04  0.14076993393E+04 0.  0.
        3    1    3    3  502    0  0.31907192206E+03 -0.12903595067E+03  0.45841383993E+03  0.57323679824E+03  0.10100000352E+00 0.  1.
       -3    1    3    3    0  502 -0.31907192206E+03  0.12903595067E+03 -0.80648694895E+03  0.87685710184E+03  0.10100000352E+00 0. -1.
</event>
<event>
 5   0  0.4441253E-05  0.1400342E+04  0.7818609E-02  0.8953571E-01
        2   -1    0    0  501    0  0.00000000000E+00  0.00000000000E+00  0.18961270427E+04  0.18961270427E+04  0.25500000920E-02 0.  1.
       -2   -1    0    0    0  501  0.00000000000E+00  0.00000000000E+00 -0.25854769170E+03  0.25854769171E+03  0.25500000920E-02 0. -1.
    10030    2    1    2    0    0  0.00000000000E+00  0.00000000000E+00  0.16375793510E+04  0.21546747344E+04  0.14003417727E+04 0.  0.
        3    1    3    3  502    0 -0.52885125006E+03 -0.43820546661E+03  0.60932830112E+03  0.91814414141E+03  0.10100000352E+00 0. -1.
       -3    1    3    3    0  502  0.52885125006E+03  0.43820546661E+03  0.10282510499E+04  0.12365305930E+04  0.10100000352E+00 0.  1.
</event>
<event>
 5   0  0.4621450E-05  0.1396531E+04  0.7818609E-02  0.8956333E-01
       -2   -1    0    0    0  501  0.00000000000E+00  0.00000000000E+00  0.37555280529E+03  0.37555280530E+03  0.25500000920E-02 0.  1.
        2   -1    0    0  501    0  0.00000000000E+00  0.00000000000E+00 -0.12982855595E+04  0.12982855595E+04  0.25500000920E-02 0. -1.
    10030    2    1    2    0    0  0.00000000000E+00  0.00000000000E+00 -0.92273275420E+03  0.16738383648E+04  0.13965311081E+04 0.  0.
        5    1    3    3  502    0  0.20795610911E+03  0.39893792831E+02 -0.12588563585E+04  0.12765495210E+04  0.46999998093E+01 0. -1.
       -5    1    3    3    0  502 -0.20795610911E+03 -0.39893792831E+02  0.33612360435E+03  0.39728884382E+03  0.46999998093E+01 0.  1.
</event>
<event>
 5   0  0.4460282E-05  0.1400322E+04  0.7818609E-02  0.8953585E-01
       -2   -1    0    0    0  501  0.00000000000E+00  0.00000000000E+00  0.55683280837E+03  0.55683280837E+03  0.25500000920E-02 0.  1.
        2   -1    0    0  501    0  0.00000000000E+00  0.00000000000E+00 -0.88038218623E+03  0.88038218624E+03  0.25500000920E-02 0. -1.
    10030    2    1    2    0    0  0.00000000000E+00  0.00000000000E+00 -0.32354937786E+03  0.14372149946E+04  0.14003223703E+04 0.  0.
        1    1    3    3  502    0 -0.97219135344E+02 -0.56575881699E+03 -0.57319867320E+03  0.81122827753E+03  0.50400001928E-02 0. -1.
       -1    1    3    3    0  502  0.97219135344E+02  0.56575881699E+03  0.24964929533E+03  0.62598671708E+03  0.50400001928E-02 0.  1.
</event>
<event>
 5   0  0.2467303E-05  0.1400019E+04  0.7818609E-02  0.8953805E-01
       -1   -1    0    0    0  501  0.00000000000E+00  0.00000000000E+00  0.44210957144E+03  0.44210957147E+03  0.50400001928E-02 0.  1.
        1   -1    0    0  501    0  0.00000000000E+00  0.00000000000E+00 -0.11083528902E+04  0.11083528902E+04  0.50400001928E-02 0. -1.
    10030    2    1    2    0    0  0.00000000000E+00  0.00000000000E+00 -0.66624331876E+03  0.15504624617E+04  0.14000191732E+04 0.  0.
        3    1    3    3  502    0  0.46113816328E+03 -0.49019170044E+03 -0.11987601698E+03  0.68359825809E+03  0.10100000352E+00 0.  1.
       -3    1    3    3    0  502 -0.46113816328E+03  0.49019170044E+03 -0.54636730178E+03  0.86686420359E+03  0.10100000352E+00 0. -1.
</event>
<event>
 5   0  0.2428507E-05  0.1400027E+04  0.7818609E-02  0.8953799E-01
       -1   -1    0    0    0  501  0.00000000000E+00  0.00000000000E+00  0.42944196165E+03  0.42944196168E+03  0.50400001928E-02 0.  1.
        1   -1    0    0  501    0  0.00000000000E+00  0.00000000000E+00 -0.11410589363E+04  0.11410589363E+04  0.50400001928E-02 0. -1.
    10030    2    1    2    0    0  0.00000000000E+00  0.00000000000E+00 -0.71161697464E+03  0.15705008980E+04  0.14000265540E+04 0.  0.
        4    1    3    3  502    0  0.65353992050E+03 -0.87049143183E+01 -0.63698192384E+03  0.91265425404E+03  0.12699999809E+01 0. -1.
       -4    1    3    3    0  502 -0.65353992050E+03  0.87049143183E+01 -0.74635050803E+02  0.65784664393E+03  0.12699999809E+01 0.  1.
</event>
<event>
 5   0  0.2467303E-05  0.1399444E+04  0.7818609E-02  0.8954221E-01
        1   -1    0    0  501    0  0.00000000000E+00  0.00000000000E+00  0.15981847114E+04  0.15981847114E+04  0.50400001928E-02 0. -1.
       -1   -1    0    0    0  501  0.00000000000E+00  0.00000000000E+00 -0.30635421123E+03  0.30635421127E+03  0.50400001928E-02 0.  1.
    10030    2    1    2    0    0  0.00000000000E+00  0.00000000000E+00  0.12918305001E+04  0.19045389226E+04  0.13994436276E+04 0.  0.
        3    1    3    3  502    0  0.12959597521E+03 -0.50523699188E+02 -0.28734931709E+03  0.31924504884E+03  0.10100000352E+00 0.  1.
       -3    1    3    3    0  502 -0.12959597521E+03  0.50523699188E+02  0.15791798172E+04  0.15852938738E+04  0.10100000352E+00 0. -1.
</event>
<event>
 5   0  0.4527503E-05  0.1398164E+04  0.7818609E-02  0.8955149E-01
       -2   -1    0    0    0  501  0.00000000000E+00  0.00000000000E+00  0.10530712060E+04  0.10530712060E+04  0.25500000920E-02 0.  1.
        2   -1    0    0  501    0  0.00000000000E+00  0.00000000000E+00 -0.46408576611E+03  0.46408576612E+03  0.25500000920E-02 0. -1.
    10030    2    1    2    0    0  0.00000000000E+00  0.00000000000E+00  0.58898543988E+03  0.15171569721E+04  0.13981635919E+04 0.  0.
        4    1    3    3  502    0 -0.13528141270E+03 -0.10287694122E+02 -0.44966189458E+03  0.46968535171E+03  0.12699999809E+01 0. -1.
       -4    1    3    3    0  502  0.13528141270E+03  0.10287694122E+02  0.10386473345E+04  0.10474716204E+04  0.12699999809E+01 0.  1.
</event>
<event>
 5   0  0.4621450E-05  0.1399903E+04  0.7818609E-02  0.8953889E-01
       -2   -1    0    0    0  501  0.00000000000E+00  0.00000000000E+00  0.31750870510E+03  0.31750870511E+03  0.25500000920E-02 0.  1.
        2   -1    0    0  501    0  0.00000000000E+00  0.00000000000E+00 -0.15430504747E+04  0.15430504747E+04  0.25500000920E-02 0. -1.
    10030    2    1    2    0    0  0.00000000000E+00  0.00000000000E+00 -0.12255417696E+04  0.18605591798E+04  0.13999027940E+04 0.  0.
        5    1    3    3  502    0 -0.31210905108E+03  0.62080292075E+03 -0.72477189423E+03  0.10040541394E+04  0.46999998093E+01 0. -1.
       -5    1    3    3    0  502  0.31210905108E+03 -0.62080292075E+03 -0.50076987537E+03  0.85650504041E+03  0.46999998093E+01 0.  1.
</event>
<event>
 5   0  0.4243281E-05  0.1400623E+04  0.7818609E-02  0.8953367E-01
       -2   -1    0    0    0  501  0.00000000000E+00  0.00000000000E+00  0.80296480587E+03  0.80296480587E+03  0.25500000920E-02 0.  1.
        2   -1    0    0  501    0  0.00000000000E+00  0.00000000000E+00 -0.61078209159E+03  0.61078209159E+03  0.25500000920E-02 0. -1.
    10030    2    1    2    0    0  0.00000000000E+00  0.00000000000E+00  0.19218271428E+03  0.14137468975E+04  0.14006234663E+04 0.  0.
        2    1    3    3  502    0 -0.20834300059E+03 -0.16665013816E+03  0.74965917692E+03  0.79571851555E+03  0.25500000920E-02 0.  1.
       -2    1    3    3    0  502  0.20834300059E+03  0.16665013816E+03 -0.55747646264E+03  0.61802838191E+03  0.25500000920E-02 0. -1.
</event>
<event>
 5   0  0.4441253E-05  0.1400360E+04  0.7818609E-02  0.8953558E-01
       -2   -1    0    0    0  501  0.00000000000E+00  0.00000000000E+00  0.40378037100E+03  0.40378037101E+03  0.25500000920E-02 0.  1.
        2   -1    0    0  501    0  0.00000000000E+00  0.00000000000E+00 -0.12141543939E+04  0.12141543939E+04  0.25500000920E-02 0. -1.
    10030    2    1    2    0    0  0.00000000000E+00  0.00000000000E+00 -0.81037402294E+03  0.16179347650E+04  0.14003595419E+04 0.  0.
        3    1    3    3  502    0 -0.25757651789E+03 -0.44438964239E+02  0.34529844619E+03  0.43307217788E+03  0.10100000352E+00 0.  1.
       -3    1    3    3    0  502  0.25757651789E+03  0.44438964239E+02 -0.11556724691E+04  0.11848625871E+04  0.10100000352E+00 0. -1.
</event>
<event>
 5   0  0.4243281E-05  0.1399784E+04  0.7818609E-02  0.8953975E-01
        2   -1    0    0  501    0  0.00000000000E+00  0.00000000000E+00  0.78671354773E+03  0.78671354774E+03  0.25500000920E-02 0. -1.
       -2   -1    0    0    0  501  0.00000000000E+00  0.00000000000E+00 -0.62265235588E+03  0.62265235589E+03  0.25500000920E-02 0.  1.
    10030    2    1    2    0    0  0.00000000000E+00  0.00000000000E+00  0.16406119185E+03  0.14093659036E+04  0.13997843318E+04 0.  0.
        2    1    3    3  502    0 -0.52242376027E+02  0.69793945522E+03  0.82577357589E+02  0.70474659914E+03  0.25500000920E-02 0. -1.
       -2    1    3    3    0  502  0.52242376027E+02 -0.69793945522E+03  0.81483834263E+02  0.70461930449E+03  0.25500000920E-02 0.  1.
</event>
<event>
 5   0  0.4441253E-05  0.1399072E+04  0.7818609E-02  0.8954491E-01
       -2   -1    0    0    0  501  0.00000000000E+00  0.00000000000E+00  0.62889666905E+03  0.62889666905E+03  0.25500000920E-02 0.  1.
        2   -1    0    0  501    0  0.00000000000E+00  0.00000000000E+00 -0.77810917388E+03  0.77810917388E+03  0.25500000920E-02 0. -1.
    10030    2    1    2    0    0  0.00000000000E+00  0.00000000000E+00 -0.14921250483E+03  0.14070058429E+04  0.13990715030E+04 0.  0.
        3    1    3    3  502    0  0.31209616430E+03  0.48989161227E+03  0.31741520906E+03  0.66192917498E+03  0.10100000352E+00 0.  1.
       -3    1    3    3    0  502 -0.31209616430E+03 -0.48989161227E+03 -0.46662771390E+03  0.74507666795E+03  0.10100000352E+00 0. -1.
</event>
<event>
 5   0  0.4441253E-05  0.1400200E+04  0.7818609E-02  0.8953674E-01
       -2   -1    0    0    0  501  0.00000000000E+00  0.00000000000E+00  0.61060800968E+03  0.61060800969E+03  0.25500000920E-02 0. -1.
        2   -1    0    0  501    0  0.00000000000E+00  0.00000000000E+00 -0.80270808054E+03  0.80270808054E+03  0.25500000920E-02 0.  1.
    10030    2    1    2    0    0  0.00000000000E+00  0.00000000000E+00 -0.19210007086E+03  0.14133160902E+04  0.14001999620E+04 0.  0.
        3    1    3    3  502    0  0.10304381985E+03 -0.19810034206E+03 -0.76580020519E+03  0.79769150603E+03  0.10100000352E+00 0.  1.
       -3    1    3    3    0  502 -0.10304381985E+03  0.19810034206E+03  0.57370013433E+03  0.61562458420E+03  0.10100000352E+00 0. -1.
</event>
<event>
 5   0  0.4243281E-05  0.1404932E+04  0.7818609E-02  0.8950256E-01
       -2   -1    0    0    0  501  0.00000000000E+00  0.00000000000E+00  0.30725620910E+03  0.30725620911E+03  0.25500000920E-02 0. -1.
        2   -1    0    0  501    0  0.00000000000E+00  0.00000000000E+00 -0.16060172993E+04  0.16060172993E+04  0.25500000920E-02 0.  1.
    10030    2    1    2    0    0  0.00000000000E+00  0.00000000000E+00 -0.12987610902E+04  0.19132735084E+04  0.14049324356E+04 0.  0.
        2    1    3    3  502    0 -0.34593718058E+03 -0.60612606159E+03 -0.54045615759E+03  0.88269711324E+03  0.25500000920E-02 0.  1.
       -2    1    3    3    0  502  0.34593718058E+03  0.60612606159E+03 -0.75830493260E+03  0.10305763952E+04  0.25500000920E-02 0. -1.
</event>
<event>
 5   0  0.2316714E-05  0.1403199E+04  0.7818609E-02  0.8951506E-01
       -1   -1    0    0    0  501  0.00000000000E+00  0.00000000000E+00  0.71216541375E+03  0.71216541377E+03  0.50400001928E-02 0. -1.
        1   -1    0    0  501    0  0.00000000000E+00  0.00000000000E+00 -0.69119020370E+03  0.69119020371E+03  0.50400001928E-02 0.  1.
    10030    2    1    2    0    0  0.00000000000E+00  0.00000000000E+00  0.20975210052E+02  0.14033556175E+04  0.14031988561E+04 0.  0.
        5    1    3    3  502    0 -0.46206151931E+03  0.17644661888E+02  0.53818988375E+03  0.70956509405E+03  0.46999998093E+01 0. -1.
       -5    1    3    3    0  502  0.46206151931E+03 -0.17644661888E+02 -0.51721467370E+03  0.69379052343E+03  0.46999998093E+01 0.  1.
</event>
<event>
 5   0  0.2363419E-05  0.1399652E+04  0.7818609E-02  0.8954071E-01
       -1   -1    0    0    0  501  0.00000000000E+00  0.00000000000E+00  0.14325475156E+04  0.14325475156E+04  0.50400001928E-02 0.  1.
        1   -1    0    0  501    0  0.00000000000E+00  0.00000000000E+00 -0.34187795359E+03  0.34187795363E+03  0.50400001928E-02 0. -1.
    10030    2    1    2    0    0  0.00000000000E+00  0.00000000000E+00  0.10906695620E+04  0.17744254693E+04  0.13996519755E+04 0.  0.
        2    1    3    3  502    0 -0.19968994563E+03 -0.30597526471E+03  0.13020298668E+04  0.13523234491E+04  0.25500000920E-02 0.  1.
       -2    1    3    3    0  502  0.19968994563E+03  0.30597526471E+03 -0.21136030474E+03  0.42210202017E+03  0.25500000920E-02 0. -1.
</event>
<event>
 5   0  0.2363419E-05  0.1399632E+04  0.7818609E-02  0.8954085E-01
        1   -1    0    0  501    0  0.00000000000E+00  0.00000000000E+00  0.98720439586E+03  0.98720439588E+03  0.50400001928E-02 0. -1.
       -1   -1    0    0    0  501  0.00000000000E+00  0.00000000000E+00 -0.49609055476E+03  0.49609055479E+03  0.50400001928E-02 0.  1.
    10030    2    1    2    0    0  0.00000000000E+00  0.00000000000E+00  0.49111384110E+03  0.14832949507E+04  0.13996324895E+04 0.  0.
        2    1    3    3  502    0 -0.46783365814E+03 -0.39085078186E+03 -0.11865742036E+03  0.62105736352E+03  0.25500000920E-02 0.  1.
       -2    1    3    3    0  502  0.46783365814E+03  0.39085078186E+03  0.60977126146E+03  0.86223758714E+03  0.25500000920E-02 0. -1.
</event>
<event>
 5   0  0.2467303E-05  0.1401098E+04  0.7818609E-02  0.8953024E-01
        1   -1    0    0  501    0  0.00000000000E+00  0.00000000000E+00  0.50747849788E+03  0.50747849791E+03  0.50400001928E-02 0. -1.
       -1   -1    0    0    0  501  0.00000000000E+00  0.00000000000E+00 -0.96707288555E+03  0.96707288556E+03  0.50400001928E-02 0.  1.
    10030    2    1    2    0    0  0.00000000000E+00  0.00000000000E+00 -0.45959438767E+03  0.14745513835E+04  0.14010977058E+04 0.  0.
        3    1    3    3  502    0  0.47526150401E+03  0.20683738813E+03  0.26619969230E+03  0.58268129257E+03  0.10100000352E+00 0. -1.
       -3    1    3    3    0  502 -0.47526150401E+03 -0.20683738813E+03 -0.72579407997E+03  0.89187009090E+03  0.10100000352E+00 0.  1.
</event>
<event>
 5   0  0.4460282E-05  0.1400686E+04  0.7818609E-02  0.8953322E-01
        2   -1    0    0  501    0  0.00000000000E+00  0.00000000000E+00  0.54648653279E+03  0.54648653280E+03  0.25500000920E-02 0. -1.
       -2   -1    0    0    0  501  0.00000000000E+00  0.00000000000E+00 -0.89751608198E+03  0.89751608198E+03  0.25500000920E-02 0.  1.
    10030    2    1    2    0    0  0.00000000000E+00  0.00000000000E+00 -0.35102954919E+03  0.14440026148E+04  0.14006861915E+04 0.  0.
        1    1    3    3  502    0 -0.24995494187E+03  0.31889961457E+02  0.49813466817E+03  0.55824062040E+03  0.50400001928E-02 0. -1.
       -1    1    3    3    0  502  0.24995494187E+03 -0.31889961457E+02 -0.84916421736E+03  0.88576199437E+03  0.50400001928E-02 0.  1.
</event>
<event>
 5   0  0.2467303E-05  0.1394405E+04  0.7818609E-02  0.8957879E-01
       -1   -1    0    0    0  501  0.00000000000E+00  0.00000000000E+00  0.51962203614E+03  0.51962203617E+03  0.50400001928E-02 0. -1.
        1   -1    0    0  501    0  0.00000000000E+00  0.00000000000E+00 -0.93547054977E+03  0.93547054979E+03  0.50400001928E-02 0.  1.
    10030    2    1    2    0    0  0.00000000000E+00  0.00000000000E+00 -0.41584851363E+03  0.14550925860E+04  0.13944046928E+04 0.  0.
        3    1    3    3  502    0  0.65172900664E+02  0.65440640280E+03 -0.44950782556E+03  0.79658806321E+03  0.10100000352E+00 0.  1.
       -3    1    3    3    0  502 -0.65172900664E+02 -0.65440640280E+03  0.33659311931E+02  0.65850452275E+03  0.10100000352E+00 0. -1.
</event>
<event>
 5   0  0.4441253E-05  0.1400167E+04  0.7818609E-02  0.8953698E-01
        2   -1    0    0  501    0  0.00000000000E+00  0.00000000000E+00  0.74560624629E+03  0.74560624629E+03  0.25500000920E-02 0.  1.
       -2   -1    0    0    0  501  0.00000000000E+00  0.00000000000E+00 -0.65733995180E+03  0.65733995181E+03  0.25500000920E-02 0. -1.
    10030    2    1    2    0    0  0.00000000000E+00  0.00000000000E+00  0.88266294484E+02  0.14029461981E+04  0.14001668101E+04 0.  0.
        3    1    3    3  502    0  0.52435965996E+03 -0.42711686785E+03 -0.13715386602E+03  0.69006743508E+03  0.10100000352E+00 0. -1.
       -3    1    3    3    0  502 -0.52435965996E+03  0.42711686785E+03  0.22542016050E+03  0.71287876302E+03  0.10100000352E+00 0.  1.
</event>
<event>
 5   0  0.2427569E-05  0.1399729E+04  0.7818609E-02  0.8954015E-01
        1   -1    0    0  501    0  0.00000000000E+00  0.00000000000E+00  0.73107964342E+03  0.73107964344E+03  0.50400001928E-02 0. -1.
       -1   -1    0    0    0  501  0.00000000000E+00  0.00000000000E+00 -0.66998218548E+03  0.66998218550E+03  0.50400001928E-02 0.  1.
    10030    2    1    2    0    0  0.00000000000E+00  0.00000000000E+00  0.61097457938E+02  0.14010618289E+04  0.13997290270E+04 0.  0.
        1    1    3    3  502    0 -0.40569534211E+03 -0.24349318010E+03  0.54672638599E+03  0.72304037268E+03  0.50400001928E-02 0. -1.
       -1    1    3    3    0  502  0.40569534211E+03  0.24349318010E+03 -0.48562892805E+03  0.67802145626E+03  0.50400001928E-02 0.  1.
</event>
<event>
 5   0  0.4527503E-05  0.1400648E+04  0.7818609E-02  0.8953349E-01
        2   -1    0    0  501    0  0.00000000000E+00  0.00000000000E+00  0.95988049777E+03  0.95988049777E+03  0.25500000920E-02 0. -1.
       -2   -1    0    0    0  501  0.00000000000E+00  0.00000000000E+00 -0.51095312187E+03  0.51095312188E+03  0.25500000920E-02 0.  1.
    10030    2    1    2    0    0  0.00000000000E+00  0.00000000000E+00  0.44892737590E+03  0.14708336197E+04  0.14006483313E+04 0.  0.
        4    1    3    3  502    0  0.12194387390E+03 -0.29912573492E+03 -0.42804696839E+03  0.53625771204E+03  0.12699999809E+01 0.  1.
       -4    1    3    3    0  502 -0.12194387390E+03  0.29912573492E+03  0.87697434428E+03  0.93457590762E+03  0.12699999809E+01 0. -1.
</event>
<event>
 5   0  0.4527503E-05  0.1400054E+04  0.7818609E-02  0.8953780E-01
        2   -1    0    0  501    0  0.00000000000E+00  0.00000000000E+00  0.49046002149E+03  0.49046002150E+03  0.25500000920E-02 0. -1.
       -2   -1    0    0    0  501  0.00000000000E+00  0.00000000000E+00 -0.99913888544E+03  0.99913888544E+03  0.25500000920E-02 0.  1.
    10030    2    1    2    0    0  0.00000000000E+00  0.00000000000E+00 -0.50867886395E+03  0.14895989069E+04  0.14000538264E+04 0.  0.
        4    1    3    3  502    0  0.51479485618E+03  0.16307580636E+03 -0.72828312721E+03  0.90664512840E+03  0.12699999809E+01 0.  1.
       -4    1    3    3    0  502 -0.51479485618E+03 -0.16307580636E+03  0.21960426327E+03  0.58295377854E+03  0.12699999809E+01 0. -1.
</event>
<event>
 5   0  0.2316714E-05  0.1400602E+04  0.7818609E-02  0.8953383E-01
       -1   -1    0    0    0  501  0.00000000000E+00  0.00000000000E+00  0.30982919666E+03  0.30982919670E+03  0.50400001928E-02 0. -1.
        1   -1    0    0  501    0  0.00000000000E+00  0.00000000000E+00 -0.15828771650E+04  0.15828771651E+04  0.50400001928E-02 0.  1.
    10030    2    1    2    0    0  0.00000000000E+00  0.00000000000E+00 -0.12730479684E+04  0.18927063617E+04  0.14006020998E+04 0.  0.
        5    1    3    3  502    0 -0.29139253488E+02  0.60720613576E+03 -0.16674482931E+03  0.63037632847E+03  0.46999998093E+01 0. -1.
       -5    1    3    3    0  502  0.29139253488E+02 -0.60720613576E+03 -0.11063031391E+04  0.12623300333E+04  0.46999998093E+01 0.  1.
</event>
<event>
 5   0  0.2467303E-05  0.1400133E+04  0.7818609E-02  0.8953722E-01
       -1   -1    0    0    0  501  0.00000000000E+00  0.00000000000E+00  0.23665616503E+03  0.23665616509E+03  0.50400001928E-02 0.  1.
        1   -1    0    0  501    0  0.00000000000E+00  0.00000000000E+00 -0.20709083910E+04  0.20709083910E+04  0.50400001928E-02 0. -1.
    10030    2    1    2    0    0  0.00000000000E+00  0.00000000000E+00 -0.18342522259E+04  0.23075645560E+04  0.14001331908E+04 0.  0.
        3    1    3    3  502    0 -0.18184169249E+03 -0.65450746728E+03 -0.11960736823E+04  0.13755139729E+04  0.10100000352E+00 0. -1.
       -3    1    3    3    0  502  0.18184169249E+03  0.65450746728E+03 -0.63817854360E+03  0.93205058316E+03  0.10100000352E+00 0.  1.
</event>
<event>
 5   0  0.2363419E-05  0.1398202E+04  0.7818609E-02  0.8955121E-01
       -1   -1    0    0    0  501  0.00000000000E+00  0.00000000000E+00  0.29027006877E+03  0.29027006881E+03  0.50400001928E-02 0.  1.
        1   -1    0    0  501    0  0.00000000000E+00  0.00000000000E+00 -0.16837500752E+04  0.16837500752E+04  0.50400001928E-02 0. -1.
    10030    2    1    2    0    0  0.00000000000E+00  0.00000000000E+00 -0.13934800064E+04  0.19740201440E+04  0.13982020600E+04 0.  0.
        2    1    3    3  502    0  0.31614967172E+03  0.60564806085E+03 -0.48741753220E+03  0.83924730517E+03  0.25500000920E-02 0.  1.
       -2    1    3    3    0  502 -0.31614967172E+03 -0.60564806085E+03 -0.90606247419E+03  0.11347728388E+04  0.25500000920E-02 0. -1.
</event>
<event>
 5   0  0.4527503E-05  0.1399814E+04  0.7818609E-02  0.8953953E-01
        2   -1    0    0  501    0  0.00000000000E+00  0.00000000000E+00  0.91592201923E+03  0.91592201924E+03  0.25500000920E-02 0. -1.
       -2   -1    0    0    0  501  0.00000000000E+00  0.00000000000E+00 -0.53483821181E+03  0.53483821182E+03  0.25500000920E-02 0.  1.
    10030    2    1    2    0    0  0.00000000000E+00  0.00000000000E+00  0.38108380742E+03  0.14507602311E+04  0.13998144090E+04 0.  0.
        4    1    3    3  502    0 -0.47284527754E+03 -0.32427662026E+03  0.60656175890E+03  0.83465966909E+03  0.12699999809E+01 0. -1.
       -4    1    3    3    0  502  0.47284527754E+03  0.32427662026E+03 -0.22547795148E+03  0.61610056196E+03  0.12699999809E+01 0.  1.
</event>
<event>
 5   0  0.2467303E-05  0.1400061E+04  0.7818609E-02  0.8953774E-01
       -1   -1    0    0    0  501  0.00000000000E+00  0.00000000000E+00  0.36596876467E+03  0.36596876471E+03  0.50400001928E-02 0. -1.
        1   -1    0    0  501    0  0.00000000000E+00  0.00000000000E+00 -0.13390284976E+04  0.13390284976E+04  0.50400001928E-02 0.  1.
    10030    2    1    2    0    0  0.00000000000E+00  0.00000000000E+00 -0.97305973292E+03  0.17049972623E+04  0.14000608632E+04 0.  0.
        3    1    3    3  502    0  0.48534046468E+03 -0.50446672137E+03 -0.48743738148E+03  0.85301655945E+03  0.10100000352E+00 0.  1.
       -3    1    3    3    0  502 -0.48534046468E+03  0.50446672137E+03 -0.48562235144E+03  0.85198070286E+03  0.10100000352E+00 0. -1.
</event>
<event>
 5   0  0.4243281E-05  0.1400356E+04  0.7818609E-02  0.8953561E-01
        2   -1    0    0  501    0  0.00000000000E+00  0.00000000000E+00  0.12568310810E+04  0.12568310810E+04  0.25500000920E-02 0.  1.
       -2   -1    0    0    0  501  0.00000000000E+00  0.00000000000E+00 -0.39006761853E+03  0.39006761853E+03  0.25500000920E-02 0. -1.
    10030    2    1    2    0    0  0.00000000000E+00  0.00000000000E+00  0.86676346249E+03  0.16468986996E+04  0.14003558215E+04 0.  0.
        2    1    3    3  502    0 -0.59255990390E+02  0.22635144225E+02  0.12534449705E+04  0.12550489697E+04  0.25500000920E-02 0.  1.
       -2    1    3    3    0  502  0.59255990390E+02 -0.22635144225E+02 -0.38668150803E+03  0.39184972988E+03  0.25500000920E-02 0. -1.
</event>
<event>
 5   0  0.4527503E-05  0.1399721E+04  0.7818609E-02  0.8954020E-01
       -2   -1    0    0    0  501  0.00000000000E+00  0.00000000000E+00  0.47040645215E+03  0.47040645216E+03  0.25500000920E-02 0.  1.
        2   -1    0    0  501    0  0.00000000000E+00  0.00000000000E+00 -0.10412376781E+04  0.10412376781E+04  0.25500000920E-02 0. -1.
    10030    2    1    2    0    0  0.00000000000E+00  0.00000000000E+00 -0.57083122595E+03  0.15116441303E+04  0.13997212894E+04 0.  0.
        4    1    3    3  502    0 -0.53641622571E+03 -0.37434486981E+03 -0.16666199601E+02  0.65433617038E+03  0.12699999809E+01 0.  1.
       -4    1    3    3    0  502  0.53641622571E+03  0.37434486981E+03 -0.55416502635E+03  0.85730795989E+03  0.12699999809E+01 0. -1.
</event>
<event>
 5   0  0.2316714E-05  0.1401104E+04  0.7818609E-02  0.8953020E-01
       -1   -1    0    0    0  501  0.00000000000E+00  0.00000000000E+00  0.30190671246E+03  0.30190671250E+03  0.50400001928E-02 0. -1.
        1   -1    0    0  501    0  0.00000000000E+00  0.00000000000E+00 -0.16255783796E+04  0.16255783796E+04  0.50400001928E-02 0.  1.
    10030    2    1    2    0    0  0.00000000000E+00  0.00000000000E+00 -0.13236716672E+04  0.19274850921E+04  0.14011038855E+04 0.  0.
        5    1    3    3  502    0  0.20658625223E+03  0.89300598826E+02 -0.15744676679E+04  0.15904788599E+04  0.46999998093E+01 0.  1.
       -5    1    3    3    0  502 -0.20658625223E+03 -0.89300598826E+02  0.25079600074E+03  0.33700623221E+03  0.46999998093E+01 0. -1.
</event>
<event>
 5   0  0.2363419E-05  0.1399208E+04  0.7818609E-02  0.8954392E-01
        1   -1    0    0  501    0  0.00000000000E+00  0.00000000000E+00  0.10529755584E+04  0.10529755584E+04  0.50400001928E-02 0.  1.
       -1   -1    0    0    0  501  0.00000000000E+00  0.00000000000E+00 -0.46482176397E+03  0.46482176400E+03  0.50400001928E-02 0. -1.
    10030    2    1    2    0    0  0.00000000000E+00  0.00000000000E+00  0.58815379438E+03  0.15177973224E+04  0.13992082854E+04 0.  0.
        2    1    3    3  502    0 -0.49937908084E+03  0.46773863428E+03  0.13581030277E+03  0.69756959131E+03  0.25500000920E-02 0. -1.
       -2    1    3    3    0  502  0.49937908084E+03 -0.46773863428E+03  0.45234349161E+03  0.82022773105E+03  0.25500000920E-02 0.  1.
</event>
<event>
 5   0  0.4243281E-05  0.1399904E+04  0.7818609E-02  0.8953888E-01
       -2   -1    0    0    0  501  0.00000000000E+00  0.00000000000E+00  0.40211670718E+03  0.40211670719E+03  0.25500000920E-02 0.  1.
        2   -1    0    0  501    0  0.00000000000E+00  0.00000000000E+00 -0.12183841549E+04  0.12183841549E+04  0.25500000920E-02 0. -1.
    10030    2    1    2    0    0  0.00000000000E+00  0.00000000000E+00 -0.81626744774E+03  0.16205008621E+04  0.13999037459E+04 0.  0.
        2    1    3    3  502    0 -0.52736177240E+03 -0.45991406522E+03 -0.38804251651E+03  0.80013022752E+03  0.25500000920E-02 0.  1.
       -2    1    3    3    0  502  0.52736177240E+03  0.45991406522E+03 -0.42822493124E+03  0.82037063460E+03  0.25500000920E-02 0. -1.
</event>
<event>
 5   0  0.4441253E-05  0.1400449E+04  0.7818609E-02  0.8953494E-01
        2   -1    0    0  501    0  0.00000000000E+00  0.00000000000E+00  0.75029636504E+03  0.75029636505E+03  0.25500000920E-02 0.  1.
       -2   -1    0    0    0  501  0.00000000000E+00  0.00000000000E+00 -0.65349385346E+03  0.65349385347E+03  0.25500000920E-02 0. -1.
    10030    2    1    2    0    0  0.00000000000E+00  0.00000000000E+00  0.96802511581E+02  0.14037902185E+04  0.14004485893E+04 0.  0.
        3    1    3    3  502    0  0.68743728828E+03 -0.12769768553E+03  0.86403832827E+02  0.70451568949E+03  0.10100000352E+00 0.  1.
       -3    1    3    3    0  502 -0.68743728828E+03  0.12769768553E+03  0.10398678754E+02  0.69927452902E+03  0.10100000352E+00 0. -1.
</event>
<event>
 5   0  0.4621450E-05  0.1399939E+04  0.7818609E-02  0.8953862E-01
        2   -1    0    0  501    0  0.00000000000E+00  0.00000000000E+00  0.23632735524E+04  0.23632735524E+04  0.25500000920E-02 0. -1.
       -2   -1    0    0    0  501  0.00000000000E+00  0.00000000000E+00 -0.20732158554E+03  0.20732158555E+03  0.25500000920E-02 0.  1.
    10030    2    1    2    0    0  0.00000000000E+00  0.00000000000E+00  0.21559519669E+04  0.25705951380E+04  0.13999394558E+04 0.  0.
        5    1    3    3  502    0  0.13743832998E+03  0.31656437135E+02 -0.18093126280E+03  0.22945508583E+03  0.46999998093E+01 0.  1.
       -5    1    3    3    0  502 -0.13743832998E+03 -0.31656437135E+02  0.23368832297E+04  0.23411400521E+04  0.46999998093E+01 0. -1.
</event>
<event>
 5   0  0.2363419E-05  0.1400251E+04  0.7818609E-02  0.8953637E-01
        1   -1    0    0  501    0  0.00000000000E+00  0.00000000000E+00  0.15169417560E+04  0.15169417560E+04  0.50400001928E-02 0. -1.
       -1   -1    0    0    0  501  0.00000000000E+00  0.00000000000E+00 -0.32313427106E+03  0.32313427110E+03  0.50400001928E-02 0.  1.
    10030    2    1    2    0    0  0.00000000000E+00  0.00000000000E+00  0.11938074850E+04  0.18400760271E+04  0.14002512183E+04 0.  0.
        2    1    3    3  502    0  0.63965850782E+03 -0.28453660406E+03  0.58744740165E+03  0.91390291354E+03  0.25500000920E-02 0.  1.
       -2    1    3    3    0  502 -0.63965850782E+03  0.28453660406E+03  0.60636008331E+03  0.92617311358E+03  0.25500000920E-02 0. -1.
</event>
<event>
 5   0  0.4243281E-05  0.1398821E+04  0.7818609E-02  0.8954672E-01
        2   -1    0    0  501    0  0.00000000000E+00  0.00000000000E+00  0.14269654462E+04  0.14269654462E+04  0.25500000920E-02 0.  1.
       -2   -1    0    0    0  501  0.00000000000E+00  0.00000000000E+00 -0.34280804657E+03  0.34280804658E+03  0.25500000920E-02 0. -1.
    10030    2    1    2    0    0  0.00000000000E+00  0.00000000000E+00  0.10841573996E+04  0.17697734927E+04  0.13988212711E+04 0.  0.
        2    1    3    3  502    0 -0.66278488481E+03  0.11803456141E+03  0.78199564733E+03  0.10318590765E+04  0.25500000920E-02 0.  1.
       -2    1    3    3    0  502  0.66278488481E+03 -0.11803456141E+03  0.30216175226E+03  0.73791441628E+03  0.25500000920E-02 0. -1.
</event>
<event>
 5   0  0.2363419E-05  0.1400061E+04  0.7818609E-02  0.8953774E-01
        1   -1    0    0  501    0  0.00000000000E+00  0.00000000000E+00  0.65661337750E+03  0.65661337751E+03  0.50400001928E-02 0. -1.
       -1   -1    0    0    0  501  0.00000000000E+00  0.00000000000E+00 -0.74631894798E+03  0.74631894799E+03  0.50400001928E-02 0.  1.
    10030    2    1    2    0    0  0.00000000000E+00  0.00000000000E+00 -0.89705570482E+02  0.14029323255E+04  0.14000614346E+04 0.  0.
        2    1    3    3  502    0  0.19274426168E+03  0.64801602806E+03 -0.22679570233E+03  0.71309986231E+03  0.25500000920E-02 0. -1.
       -2    1    3    3    0  502 -0.19274426168E+03 -0.64801602806E+03  0.13709013185E+03  0.68983246320E+03  0.25500000920E-02 0.  1.
</event>
<event>
 5   0  0.4621450E-05  0.1399823E+04  0.7818609E-02  0.8953947E-01
       -2   -1    0    0    0  501  0.00000000000E+00  0.00000000000E+00  0.37412265021E+03  0.37412265022E+03  0.25500000920E-02 0.  1.
        2   -1    0    0  501    0  0.00000000000E+00  0.00000000000E+00 -0.13093990494E+04  0.13093990494E+04  0.25500000920E-02 0. -1.
    10030    2    1    2    0    0  0.00000000000E+00  0.00000000000E+00 -0.93527639917E+03  0.16835216996E+04  0.13998226210E+04 0.  0.
        5    1    3    3  502    0  0.14550189094E+03  0.22315747335E+03 -0.12460195802E+04  0.12741887389E+04  0.46999998093E+01 0. -1.
       -5    1    3    3    0  502 -0.14550189094E+03 -0.22315747335E+03  0.31074318100E+03  0.40933296070E+03  0.46999998093E+01 0.  1.
</event>
<event>
 5   0  0.2427569E-05  0.1399624E+04  0.7818609E-02  0.8954091E-01
       -1   -1    0    0    0  501  0.00000000000E+00  0.00000000000E+00  0.23702371384E+03  0.23702371390E+03  0.50400001928E-02 0.  1.
        1   -1    0    0  501    0  0.00000000000E+00  0.00000000000E+00 -0.20661925963E+04  0.20661925963E+04  0.50400001928E-02 0. -1.
    10030    2    1    2    0    0  0.00000000000E+00  0.00000000000E+00 -0.18291688824E+04  0.23032163102E+04  0.13996237248E+04 0.  0.
        1    1    3    3  502    0 -0.63259069527E+03  0.29169586848E+03 -0.10247187070E+04  0.12390746127E+04  0.50400001928E-02 0. -1.
       -1    1    3    3    0  502  0.63259069527E+03 -0.29169586848E+03 -0.80445017541E+03  0.10641416974E+04  0.50400001928E-02 0.  1.
</event>
<event>
 5   0  0.2363419E-05  0.1399764E+04  0.7818609E-02  0.8953989E-01
        1   -1    0    0  501    0  0.00000000000E+00  0.00000000000E+00  0.17323649204E+04  0.17323649204E+04  0.50400001928E-02 0. -1.
       -1   -1    0    0    0  501  0.00000000000E+00  0.00000000000E+00 -0.28275507075E+03  0.28275507079E+03  0.50400001928E-02 0.  1.
    10030    2    1    2    0    0  0.00000000000E+00  0.00000000000E+00  0.14496098496E+04  0.20151199912E+04  0.13997642168E+04 0.  0.
        2    1    3    3  502    0 -0.32518953570E+03 -0.61971257376E+03  0.73425141069E+03  0.10143554812E+04  0.25500000920E-02 0. -1.
       -2    1    3    3    0  502  0.32518953570E+03  0.61971257376E+03  0.71535843895E+03  0.10007645100E+04  0.25500000920E-02 0.  1.
</event>
<event>
 5   0  0.2427569E-05  0.1399954E+04  0.7818609E-02  0.8953852E-01
       -1   -1    0    0    0  501  0.00000000000E+00  0.00000000000E+00  0.36590428175E+03  0.36590428179E+03  0.50400001928E-02 0. -1.
        1   -1    0    0  501    0  0.00000000000E+00  0.00000000000E+00 -0.13390601495E+04  0.13390601495E+04  0.50400001928E-02 0.  1.
    10030    2    1    2    0    0  0.00000000000E+00  0.00000000000E+00 -0.97315586773E+03  0.17049644313E+04  0.13999540596E+04 0.  0.
        1    1    3    3  502    0 -0.19497513844E+03 -0.52565741578E+03 -0.99697635263E+03  0.11438063084E+04  0.50400001928E-02 0.  1.
       -1    1    3    3    0  502  0.19497513844E+03  0.52565741578E+03  0.23820484897E+02  0.56115812290E+03  0.50400001928E-02 0. -1.
</event>
<event>
 5   0  0.4621450E-05  0.1400243E+04  0.7818609E-02  0.8953643E-01
       -2   -1    0    0    0  501  0.00000000000E+00  0.00000000000E+00  0.99336257778E+03  0.99336257778E+03  0.25500000920E-02 0. -1.
        2   -1    0    0  501    0  0.00000000000E+00  0.00000000000E+00 -0.49344523225E+03  0.49344523225E+03  0.25500000920E-02 0.  1.
    10030    2    1    2    0    0  0.00000000000E+00  0.00000000000E+00  0.49991734553E+03  0.14868078100E+04  0.14002428759E+04 0.  0.
        5    1    3    3  502    0 -0.42429877435E+02  0.30321960924E+03 -0.41857194833E+03  0.51862027713E+03  0.46999998093E+01 0.  1.
       -5    1    3    3    0  502  0.42429877435E+02 -0.30321960924E+03  0.91848929387E+03  0.96818753290E+03  0.46999998093E+01 0. -1.
</event>
<event>
 5   0  0.2316714E-05  0.1399923E+04  0.7818609E-02  0.8953875E-01
        1   -1    0    0  501    0  0.00000000000E+00  0.00000000000E+00  0.11298948982E+04  0.11298948982E+04  0.50400001928E-02 0. -1.
       -1   -1    0    0    0  501  0.00000000000E+00  0.00000000000E+00 -0.43362066858E+03  0.43362066861E+03  0.50400001928E-02 0.  1.
    10030    2    1    2    0    0  0.00000000000E+00  0.00000000000E+00  0.69627422963E+03  0.15635155668E+04  0.13999225425E+04 0.  0.
        5    1    3    3  502    0  0.58870981792E+03  0.65056792658E+02  0.76470001291E+03  0.96726409823E+03  0.46999998093E+01 0. -1.
       -5    1    3    3    0  502 -0.58870981792E+03 -0.65056792658E+02 -0.68425783285E+02  0.59625146859E+03  0.46999998093E+01 0.  1.
</event>
<event>
 5   0  0.2467303E-05  0.1400225E+04  0.7818609E-02  0.8953655E-01
        1   -1    0    0  501    0  0.00000000000E+00  0.00000000000E+00  0.42084364942E+03  0.42084364945E+03  0.50400001928E-02 0.  1.
       -1   -1    0    0    0  501  0.00000000000E+00  0.00000000000E+00 -0.11647028910E+04  0.11647028910E+04  0.50400001928E-02 0. -1.
    10030    2    1    2    0    0  0.00000000000E+00  0.00000000000E+00 -0.74385924156E+03  0.15855465404E+04  0.14002254321E+04 0.  0.
        3    1    3    3  502    0 -0.21097933526E+03 -0.62610571220E+03 -0.63417867413E+03  0.91580742718E+03  0.10100000352E+00 0. -1.
       -3    1    3    3    0  502  0.21097933526E+03  0.62610571220E+03 -0.10968056743E+03  0.66973911326E+03  0.10100000352E+00 0.  1.
</event>
<event>
 5   0  0.4460282E-05  0.1399098E+04  0.7818609E-02  0.8954472E-01
       -2   -1    0    0    0  501  0.00000000000E+00  0.00000000000E+00  0.10968903717E+04  0.10968903718E+04  0.25500000920E-02 0.  1.
        2   -1    0    0  501    0  0.00000000000E+00  0.00000000000E+00 -0.44614183546E+03  0.44614183547E+03  0.25500000920E-02 0. -1.
    10030    2    1    2    0    0  0.00000000000E+00  0.00000000000E+00  0.65074853629E+03  0.15430322072E+04  0.13990978290E+04 0.  0.
        1    1    3    3  502    0 -0.48740287349E+03 -0.14390550444E+03 -0.20480813640E+03  0.54792036653E+03  0.50400001928E-02 0. -1.
       -1    1    3    3    0  502  0.48740287349E+03  0.14390550444E+03  0.85555667268E+03  0.99511184070E+03  0.50400001928E-02 0.  1.
</event>
<event>
 5   0  0.2467303E-05  0.1397655E+04  0.7818609E-02  0.8955518E-01
       -1   -1    0    0    0  501  0.00000000000E+00  0.00000000000E+00  0.24428215225E+03  0.24428215230E+03  0.50400001928E-02 0. -1.
        1   -1    0    0  501    0  0.00000000000E+00  0.00000000000E+00 -0.19991640146E+04  0.19991640147E+04  0.50400001928E-02 0.  1.
    10030    2    1    2    0    0  0.00000000000E+00  0.00000000000E+00 -0.17548818624E+04  0.22434461670E+04  0.13976553055E+04 0.  0.
        3    1    3    3  502    0  0.60059349856E+03 -0.27176380902E+03 -0.50515702824E+03  0.83051294499E+03  0.10100000352E+00 0. -1.
       -3    1    3    3    0  502 -0.60059349856E+03  0.27176380902E+03 -0.12497248342E+04  0.14129332220E+04  0.10100000352E+00 0.  1.
</event>
<event>
 5   0  0.4441253E-05  0.1400150E+04  0.7818609E-02  0.8953710E-01
        2   -1    0    0  501    0  0.00000000000E+00  0.00000000000E+00  0.39400241645E+03  0.39400241646E+03  0.25500000920E-02 0. -1.
       -2   -1    0    0    0  501  0.00000000000E+00  0.00000000000E+00 -0.12439130796E+04  0.12439130796E+04  0.25500000920E-02 0.  1.
    10030    2    1    2    0    0  0.00000000000E+00  0.00000000000E+00 -0.84991066319E+03  0.16379154961E+04  0.14001496481E+04 0.  0.
        3    1    3    3  502    0  0.21912515762E+03 -0.65360556430E+02 -0.11989951510E+04  0.12206052676E+04  0.10100000352E+00 0.  1.
       -3    1    3    3    0  502 -0.21912515762E+03  0.65360556430E+02  0.34908448776E+03  0.41731022853E+03  0.10100000352E+00 0. -1.
</event>
<event>
 5   0  0.2427569E-05  0.1400903E+04  0.7818609E-02  0.8953165E-01
       -1   -1    0    0    0  501  0.00000000000E+00  0.00000000000E+00  0.30990466636E+03  0.30990466640E+03  0.50400001928E-02 0. -1.
        1   -1    0    0  501    0  0.00000000000E+00  0.00000000000E+00 -0.15831720088E+04  0.15831720088E+04  0.50400001928E-02 0.  1.
    10030    2    1    2    0    0  0.00000000000E+00  0.00000000000E+00 -0.12732673424E+04  0.18930766752E+04  0.14009031276E+04 0.  0.
        1    1    3    3  502    0 -0.58432794647E+03 -0.96995100641E+02 -0.13140186013E+03  0.60672369943E+03  0.50400001928E-02 0. -1.
       -1    1    3    3    0  502  0.58432794647E+03  0.96995100641E+02 -0.11418654823E+04  0.12863529758E+04  0.50400001928E-02 0.  1.
</event>
<event>
 5   0  0.2427569E-05  0.1398960E+04  0.7818609E-02  0.8954572E-01
       -1   -1    0    0    0  501  0.00000000000E+00  0.00000000000E+00  0.25460663317E+03  0.25460663322E+03  0.50400001928E-02 0.  1.
        1   -1    0    0  501    0  0.00000000000E+00  0.00000000000E+00 -0.19216798747E+04  0.19216798747E+04  0.50400001928E-02 0. -1.
    10030    2    1    2    0    0  0.00000000000E+00  0.00000000000E+00 -0.16670732416E+04  0.21762865080E+04  0.13989602467E+04 0.  0.
        1    1    3    3  502    0  0.20232914878E+03  0.11270364513E+03 -0.18603019715E+04  0.18746633355E+04  0.50400001928E-02 0. -1.
       -1    1    3    3    0  502 -0.20232914878E+03 -0.11270364513E+03  0.19322872996E+03  0.30162317248E+03  0.50400001928E-02 0.  1.
</event>
<event>
 5   0  0.4460282E-05  0.1400159E+04  0.7818609E-02  0.8953703E-01
        2   -1    0    0  501    0  0.00000000000E+00  0.00000000000E+00  0.12849106547E+04  0.12849106547E+04  0.25500000920E-02 0. -1.
       -2   -1    0    0    0  501  0.00000000000E+00  0.00000000000E+00 -0.38143616601E+03  0.38143616601E+03  0.25500000920E-02 0.  1.
    10030    2    1    2    0    0  0.00000000000E+00  0.00000000000E+00  0.90347448866E+03  0.16663468207E+04  0.14001591249E+04 0.  0.
        1    1    3    3  502    0 -0.13792028967E+03  0.38260609044E+03  0.11298945769E+04  0.12008626823E+04  0.50400001928E-02 0. -1.
       -1    1    3    3    0  502  0.13792028967E+03 -0.38260609044E+03 -0.22642008823E+03  0.46548413842E+03  0.50400001928E-02 0.  1.
</event>
<event>
 5   0  0.2427569E-05  0.1402668E+04  0.7818609E-02  0.8951889E-01
        1   -1    0    0  501    0  0.00000000000E+00  0.00000000000E+00  0.68804893741E+03  0.68804893742E+03  0.50400001928E-02 0. -1.
       -1   -1    0    0    0  501  0.00000000000E+00  0.00000000000E+00 -0.71487581528E+03  0.71487581529E+03  0.50400001928E-02 0.  1.
    10030    2    1    2    0    0  0.00000000000E+00  0.00000000000E+00 -0.26826877870E+02  0.14029247527E+04  0.14026682360E+04 0.  0.
        1    1    3    3  502    0  0.55041389389E+03 -0.32938322143E+02  0.42005843237E+03  0.69317348066E+03  0.50400001928E-02 0. -1.
       -1    1    3    3    0  502 -0.55041389389E+03  0.32938322143E+02 -0.44688531024E+03  0.70975127206E+03  0.50400001928E-02 0.  1.
</event>
<event>
 5   0  0.2427569E-05  0.1400191E+04  0.7818609E-02  0.8953680E-01
        1   -1    0    0  501    0  0.00000000000E+00  0.00000000000E+00  0.16232255732E+04  0.16232255732E+04  0.50400001928E-02 0.  1.
       -1   -1    0    0    0  501  0.00000000000E+00  0.00000000000E+00 -0.30195063714E+03  0.30195063718E+03  0.50400001928E-02 0. -1.
    10030    2    1    2    0    0  0.00000000000E+00  0.00000000000E+00  0.13212749360E+04  0.19251762103E+04  0.14001914099E+04 0.  0.
        1    1    3    3  502    0 -0.49071701725E+03  0.34056051655E+03  0.11627239307E+04  0.13071769565E+04  0.50400001928E-02 0.  1.
       -1    1    3    3    0  502  0.49071701725E+03 -0.34056051655E+03  0.15855100527E+03  0.61799925384E+03  0.50400001928E-02 0. -1.
</event>
<event>
 5   0  0.4441253E-05  0.1400088E+04  0.7818609E-02  0.8953755E-01
       -2   -1    0    0    0  501  0.00000000000E+00  0.00000000000E+00  0.53208965496E+03  0.53208965496E+03  0.25500000920E-02 0.  1.
        2   -1    0    0  501    0  0.00000000000E+00  0.00000000000E+00 -0.92101308200E+03  0.92101308200E+03  0.25500000920E-02 0. -1.
    10030    2    1    2    0    0  0.00000000000E+00  0.00000000000E+00 -0.38892342704E+03  0.14531027370E+04  0.14000879016E+04 0.  0.
        3    1    3    3  502    0  0.22943839562E+03 -0.56932275182E+03  0.15487080105E+03  0.63305240569E+03  0.10100000352E+00 0.  1.
       -3    1    3    3    0  502 -0.22943839562E+03  0.56932275182E+03 -0.54379422808E+03  0.82005033128E+03  0.10100000352E+00 0. -1.
</event>
<event>
 5   0  0.4621450E-05  0.1399756E+04  0.7818609E-02  0.8953995E-01
       -2   -1    0    0    0  501  0.00000000000E+00  0.00000000000E+00  0.31680486630E+03  0.31680486631E+03  0.25500000920E-02 0.  1.
        2   -1    0    0  501    0  0.00000000000E+00  0.00000000000E+00 -0.15461539463E+04  0.15461539463E+04  0.25500000920E-02 0. -1.
    10030    2    1    2    0    0  0.00000000000E+00  0.00000000000E+00 -0.12293490800E+04  0.18629588126E+04  0.13997558276E+04 0.  0.
        5    1    3    3  502    0  0.46169364557E+02  0.16193188808E+03 -0.15187713176E+04  0.15280844060E+04  0.46999998093E+01 0. -1.
       -5    1    3    3    0  502 -0.46169364557E+02 -0.16193188808E+03  0.28942223761E+03  0.33487440664E+03  0.46999998093E+01 0.  1.
</event>
<event>
 5   0  0.4243281E-05  0.1400085E+04  0.7818609E-02  0.8953757E-01
       -2   -1    0    0    0  501  0.00000000000E+00  0.00000000000E+00  0.78726995628E+03  0.78726995629E+03  0.25500000920E-02 0. -1.
        2   -1    0    0  501    0  0.00000000000E+00  0.00000000000E+00 -0.62247926751E+03  0.62247926752E+03  0.25500000920E-02 0.  1.
    10030    2    1    2    0    0  0.00000000000E+00  0.00000000000E+00  0.16479068877E+03  0.14097492238E+04  0.14000846056E+04 0.  0.
        2    1    3    3  502    0 -0.29107505109E+03  0.15037065861E+03  0.70531205467E+03  0.77768960056E+03  0.25500000920E-02 0. -1.
       -2    1    3    3    0  502  0.29107505109E+03 -0.15037065861E+03 -0.54052136590E+03  0.63205962325E+03  0.25500000920E-02 0.  1.
</event>
<event>
 5   0  0.4243281E-05  0.1399849E+04  0.7818609E-02  0.8953928E-01
       -2   -1    0    0    0  501  0.00000000000E+00  0.00000000000E+00  0.51260631593E+03  0.51260631594E+03  0.25500000920E-02 0.  1.
        2   -1    0    0  501    0  0.00000000000E+00  0.00000000000E+00 -0.95569267657E+03  0.95569267658E+03  0.25500000920E-02 0. -1.
    10030    2    1    2    0    0  0.00000000000E+00  0.00000000000E+00 -0.44308636064E+03  0.14682989925E+04  0.13998487091E+04 0.  0.
        2    1    3    3  502    0  0.47050553002E+03  0.49080741093E+03 -0.39588363343E+03  0.78675995045E+03  0.25500000920E-02 0. -1.
       -2    1    3    3    0  502 -0.47050553002E+03 -0.49080741093E+03 -0.47202727213E+02  0.68153904207E+03  0.25500000920E-02 0.  1.
</event>
<event>
 5   0  0.4441253E-05  0.1399777E+04  0.7818609E-02  0.8953980E-01
       -2   -1    0    0    0  501  0.00000000000E+00  0.00000000000E+00  0.54271000762E+03  0.54271000763E+03  0.25500000920E-02 0.  1.
        2   -1    0    0  501    0  0.00000000000E+00  0.00000000000E+00 -0.90258895427E+03  0.90258895427E+03  0.25500000920E-02 0. -1.
    10030    2    1    2    0    0  0.00000000000E+00  0.00000000000E+00 -0.35987894665E+03  0.14452989619E+04  0.13997772084E+04 0.  0.
        3    1    3    3  502    0  0.44667062673E+03  0.47061327346E+03 -0.45087052027E+03  0.79011121887E+03  0.10100000352E+00 0. -1.
       -3    1    3    3    0  502 -0.44667062673E+03 -0.47061327346E+03  0.90991573619E+02  0.65518774302E+03  0.10100000352E+00 0.  1.
</event>
<event>
 5   0  0.2363419E-05  0.1400206E+04  0.7818609E-02  0.8953669E-01
       -1   -1    0    0    0  501  0.00000000000E+00  0.00000000000E+00  0.30371280373E+03  0.30371280378E+03  0.50400001928E-02 0.  1.
        1   -1    0    0  501    0  0.00000000000E+00  0.00000000000E+00 -0.16138412692E+04  0.16138412692E+04  0.50400001928E-02 0. -1.
    10030    2    1    2    0    0  0.00000000000E+00  0.00000000000E+00 -0.13101284655E+04  0.19175540730E+04  0.14002060658E+04 0.  0.
        2    1    3    3  502    0  0.69847054911E+02 -0.49442955488E+03 -0.13270939371E+04  0.14179271892E+04  0.25500000920E-02 0. -1.
       -2    1    3    3    0  502 -0.69847054911E+02  0.49442955488E+03  0.16965471633E+02  0.49962688384E+03  0.25500000920E-02 0.  1.
</event>
<event>
 5   0  0.4460282E-05  0.1399873E+04  0.7818609E-02  0.8953910E-01
       -2   -1    0    0    0  501  0.00000000000E+00  0.00000000000E+00  0.23698778770E+03  0.23698778772E+03  0.25500000920E-02 0.  1.
        2   -1    0    0  501    0  0.00000000000E+00  0.00000000000E+00 -0.20672433789E+04  0.20672433789E+04  0.25500000920E-02 0. -1.
    10030    2    1    2    0    0  0.00000000000E+00  0.00000000000E+00 -0.18302555912E+04  0.23042311667E+04  0.13998734729E+04 0.  0.
        1    1    3    3  502    0  0.63225962717E+03 -0.29855394255E+03 -0.96781978362E+03  0.11939689386E+04  0.50400001928E-02 0.  1.
       -1    1    3    3    0  502 -0.63225962717E+03  0.29855394255E+03 -0.86243580762E+03  0.11102622281E+04  0.50400001928E-02 0. -1.
</event>
<event>
 5   0  0.2467303E-05  0.1401739E+04  0.7818609E-02  0.8952561E-01
       -1   -1    0    0    0  501  0.00000000000E+00  0.00000000000E+00  0.27490362562E+03  0.27490362566E+03  0.50400001928E-02 0.  1.
        1   -1    0    0  501    0  0.00000000000E+00  0.00000000000E+00 -0.17868726640E+04  0.17868726640E+04  0.50400001928E-02 0. -1.
    10030    2    1    2    0    0  0.00000000000E+00  0.00000000000E+00 -0.15119690384E+04  0.20617762897E+04  0.14017385975E+04 0.  0.
        3    1    3    3  502    0  0.41740562394E+03  0.13783445880E+03 -0.15589128651E+04  0.16197021714E+04  0.10100000352E+00 0. -1.
       -3    1    3    3    0  502 -0.41740562394E+03 -0.13783445880E+03  0.46943826742E+02  0.44207411822E+03  0.10100000352E+00 0.  1.
</event>
<event>
 5   0  0.2467303E-05  0.1397261E+04  0.7818609E-02  0.8955803E-01
        1   -1    0    0  501    0  0.00000000000E+00  0.00000000000E+00  0.16133764787E+04  0.16133764788E+04  0.50400001928E-02 0.  1.
       -1   -1    0    0    0  501  0.00000000000E+00  0.00000000000E+00 -0.30252381094E+03  0.30252381098E+03  0.50400001928E-02 0. -1.
    10030    2    1    2    0    0  0.00000000000E+00  0.00000000000E+00  0.13108526678E+04  0.19159002897E+04  0.13972613226E+04 0.  0.
        3    1    3    3  502    0  0.22567827712E+03  0.44851519279E+03 -0.10675201800E+02  0.50220566809E+03  0.10100000352E+00 0. -1.
       -3    1    3    3    0  502 -0.22567827712E+03 -0.44851519279E+03  0.13215278696E+04  0.14136946217E+04  0.10100000352E+00 0.  1.
</event>
<event>
 5   0  0.2428507E-05  0.1400165E+04  0.7818609E-02  0.8953699E-01
       -1   -1    0    0    0  501  0.00000000000E+00  0.00000000000E+00  0.38415215788E+03  0.38415215791E+03  0.50400001928E-02 0.  1.
        1   -1    0    0  501    0  0.00000000000E+00  0.00000000000E+00 -0.12758369364E+04  0.12758369365E+04  0.50400001928E-02 0. -1.
    10030    2    1    2    0    0  0.00000000000E+00  0.00000000000E+00 -0.89168477857E+03  0.16599890944E+04  0.14001650078E+04 0.  0.
        4    1    3    3  502    0 -0.38911793569E+03  0.55055445844E+03 -0.22217862958E+03  0.70985064339E+03  0.12699999809E+01 0. -1.
       -4    1    3    3    0  502  0.38911793569E+03 -0.55055445844E+03 -0.66950614898E+03  0.95013845097E+03  0.12699999809E+01 0.  1.
</event>
<event>
 5   0  0.4527503E-05  0.1400905E+04  0.7818609E-02  0.8953163E-01
        2   -1    0    0  501    0  0.00000000000E+00  0.00000000000E+00  0.11415810183E+04  0.11415810183E+04  0.25500000920E-02 0. -1.
       -2   -1    0    0    0  501  0.00000000000E+00  0.00000000000E+00 -0.42978465139E+03  0.42978465140E+03  0.25500000920E-02 0.  1.
    10030    2    1    2    0    0  0.00000000000E+00  0.00000000000E+00  0.71179636687E+03  0.15713656697E+04  0.14009054215E+04 0.  0.
        4    1    3    3  502    0  0.19996281426E+03  0.24245489639E+03  0.10580572524E+04  0.11037464682E+04  0.12699999809E+01 0. -1.
       -4    1    3    3    0  502 -0.19996281426E+03 -0.24245489639E+03 -0.34626088549E+03  0.46761920148E+03  0.12699999809E+01 0.  1.
</event>
<event>
 5   0  0.2467303E-05  0.1398894E+04  0.7818609E-02  0.8954620E-01
        1   -1    0    0  501    0  0.00000000000E+00  0.00000000000E+00  0.12051385118E+04  0.12051385118E+04  0.50400001928E-02 0.  1.
       -1   -1    0    0    0  501  0.00000000000E+00  0.00000000000E+00 -0.40594986815E+03  0.40594986818E+03  0.50400001928E-02 0. -1.
    10030    2    1    2    0    0  0.00000000000E+00  0.00000000000E+00  0.79918864366E+03  0.16110883800E+04  0.13988935914E+04 0.  0.
        3    1    3    3  502    0 -0.66645906244E+03  0.21151302240E+03  0.42020821842E+03  0.81576981899E+03  0.10100000352E+00 0. -1.
       -3    1    3    3    0  502  0.66645906244E+03 -0.21151302240E+03  0.37898042525E+03  0.79531856100E+03  0.10100000352E+00 0.  1.
</event>
<event>
 5   0  0.4621450E-05  0.1400115E+04  0.7818609E-02  0.8953735E-01
       -2   -1    0    0    0  501  0.00000000000E+00  0.00000000000E+00  0.13579347445E+04  0.13579347445E+04  0.25500000920E-02 0.  1.
        2   -1    0    0  501    0  0.00000000000E+00  0.00000000000E+00 -0.36090151642E+03  0.36090151643E+03  0.25500000920E-02 0. -1.
    10030    2    1    2    0    0  0.00000000000E+00  0.00000000000E+00  0.99703322813E+03  0.17188362610E+04  0.14001152931E+04 0.  0.
        5    1    3    3  502    0  0.46106211104E+03  0.30878214950E+03 -0.25404788449E+02  0.55551073739E+03  0.46999998093E+01 0. -1.
       -5    1    3    3    0  502 -0.46106211104E+03 -0.30878214950E+03  0.10224380166E+04  0.11633255236E+04  0.46999998093E+01 0.  1.
</event>
<event>
 5   0  0.2467303E-05  0.1400231E+04  0.7818609E-02  0.8953652E-01
        1   -1    0    0  501    0  0.00000000000E+00  0.00000000000E+00  0.11033919265E+04  0.11033919265E+04  0.50400001928E-02 0. -1.
       -1   -1    0    0    0  501  0.00000000000E+00  0.00000000000E+00 -0.44423151836E+03  0.44423151839E+03  0.50400001928E-02 0.  1.
    10030    2    1    2    0    0  0.00000000000E+00  0.00000000000E+00  0.65916040818E+03  0.15476234449E+04  0.14002306537E+04 0.  0.
        3    1    3    3  502    0  0.21892206441E+03  0.53801274393E+03 -0.10243052667E+03  0.58981065260E+03  0.10100000352E+00 0.  1.
       -3    1    3    3    0  502 -0.21892206441E+03 -0.53801274393E+03  0.76159093485E+03  0.95781279234E+03  0.10100000352E+00 0. -1.
</event>
<event>
 5   0  0.4460282E-05  0.1398911E+04  0.7818609E-02  0.8954607E-01
       -2   -1    0    0    0  501  0.00000000000E+00  0.00000000000E+00  0.58878337742E+03  0.58878337743E+03  0.25500000920E-02 0.  1.
        2   -1    0    0  501    0  0.00000000000E+00  0.00000000000E+00 -0.83093041141E+03  0.83093041142E+03  0.25500000920E-02 0. -1.
    10030    2    1    2    0    0  0.00000000000E+00  0.00000000000E+00 -0.24214703399E+03  0.14197137888E+04  0.13989110251E+04 0.  0.
        1    1    3    3  502    0 -0.40815093151E+03 -0.56442542617E+03 -0.18585669167E+03  0.72090634236E+03  0.50400001928E-02 0.  1.
       -1    1    3    3    0  502  0.40815093151E+03  0.56442542617E+03 -0.56290342322E+02  0.69880744648E+03  0.50400001928E-02 0. -1.
</event>
<event>
 5   0  0.2467303E-05  0.1400285E+04  0.7818609E-02  0.8953612E-01
       -1   -1    0    0    0  501  0.00000000000E+00  0.00000000000E+00  0.37626419940E+03  0.37626419943E+03  0.50400001928E-02 0.  1.
        1   -1    0    0  501    0  0.00000000000E+00  0.00000000000E+00 -0.13028063748E+04  0.13028063749E+04  0.50400001928E-02 0. -1.
    10030    2    1    2    0    0  0.00000000000E+00  0.00000000000E+00 -0.92654217545E+03  0.16790705743E+04  0.14002848248E+04 0.  0.
        3    1    3    3  502    0 -0.20450297468E+03 -0.42802984048E+03 -0.10807376343E+04  0.11802647396E+04  0.10100000352E+00 0. -1.
       -3    1    3    3    0  502  0.20450297468E+03  0.42802984048E+03  0.15419545889E+03  0.49880583471E+03  0.10100000352E+00 0.  1.
</event>
<event>
 5   0  0.4621450E-05  0.1400532E+04  0.7818609E-02  0.8953433E-01
        2   -1    0    0  501    0  0.00000000000E+00  0.00000000000E+00  0.99130745526E+03  0.99130745526E+03  0.25500000920E-02 0. -1.
       -2   -1    0    0    0  501  0.00000000000E+00  0.00000000000E+00 -0.49467251467E+03  0.49467251468E+03  0.25500000920E-02 0.  1.
    10030    2    1    2    0    0  0.00000000000E+00  0.00000000000E+00  0.49663494059E+03  0.14859799699E+04  0.14005321156E+04 0.  0.
        5    1    3    3  502    0 -0.17016300949E+03  0.43866728263E+03  0.79857829834E+03  0.92689472068E+03  0.46999998093E+01 0. -1.
       -5    1    3    3    0  502  0.17016300949E+03 -0.43866728263E+03 -0.30194335775E+03  0.55908524926E+03  0.46999998093E+01 0.  1.
</event>
<event>
 5   0  0.4441253E-05  0.1401382E+04  0.7818609E-02  0.8952819E-01
       -2   -1    0    0    0  501  0.00000000000E+00  0.00000000000E+00  0.21755534267E+03  0.21755534269E+03  0.25500000920E-02 0. -1.
        2   -1    0    0  501    0  0.00000000000E+00  0.00000000000E+00 -0.22567503842E+04  0.22567503842E+04  0.25500000920E-02 0.  1.
    10030    2    1    2    0    0  0.00000000000E+00  0.00000000000E+00 -0.20391950415E+04  0.24743057269E+04  0.14013823221E+04 0.  0.
        3    1    3    3  502    0 -0.68566397983E+02 -0.58176108254E+03 -0.34076212750E+03  0.67769177790E+03  0.10100000352E+00 0. -1.
       -3    1    3    3    0  502  0.68566397983E+02  0.58176108254E+03 -0.16984329140E+04  0.17966139490E+04  0.10100000352E+00 0.  1.
</event>
<event>
 5   0  0.4441253E-05  0.1399336E+04  0.7818609E-02  0.8954299E-01
        2   -1    0    0  501    0  0.00000000000E+00  0.00000000000E+00  0.15000087957E+04  0.15000087957E+04  0.25500000920E-02 0. -1.
       -2   -1    0    0    0  501  0.00000000000E+00  0.00000000000E+00 -0.32635511289E+03  0.32635511290E+03  0.25500000920E-02 0.  1.
    10030    2    1    2    0    0  0.00000000000E+00  0.00000000000E+00  0.11736536828E+04  0.18263639086E+04  0.13993363282E+04 0.  0.
        3    1    3    3  502    0 -0.46315330679E+03  0.21080779083E+03 -0.39903001581E+02  0.51043429548E+03  0.10100000352E+00 0.  1.
       -3    1    3    3    0  502  0.46315330679E+03 -0.21080779083E+03  0.12135566843E+04  0.13159296131E+04  0.10100000352E+00 0. -1.
</event>
<event>
 5   0  0.2427569E-05  0.1400014E+04  0.7818609E-02  0.8953809E-01
       -1   -1    0    0    0  501  0.00000000000E+00  0.00000000000E+00  0.40959152728E+03  0.40959152731E+03  0.50400001928E-02 0.  1.
        1   -1    0    0  501    0  0.00000000000E+00  0.00000000000E+00 -0.11963372126E+04  0.11963372126E+04  0.50400001928E-02 0. -1.
    10030    2    1    2    0    0  0.00000000000E+00  0.00000000000E+00 -0.78674568528E+03  0.16059287399E+04  0.14000136943E+04 0.  0.
        1    1    3    3  502    0 -0.12212585496E+03 -0.62217970806E+03 -0.73362737124E+03  0.96965531682E+03  0.50400001928E-02 0. -1.
       -1    1    3    3    0  502  0.12212585496E+03  0.62217970806E+03 -0.53118314032E+02  0.63627342305E+03  0.50400001928E-02 0.  1.
</event>
<event>
 5   0  0.2428507E-05  0.1399675E+04  0.7818609E-02  0.8954054E-01
        1   -1    0    0  501    0  0.00000000000E+00  0.00000000000E+00  0.97130547948E+03  0.97130547949E+03  0.50400001928E-02 0.  1.
       -1   -1    0    0    0  501  0.00000000000E+00  0.00000000000E+00 -0.50424147080E+03  0.50424147082E+03  0.50400001928E-02 0. -1.
    10030    2    1    2    0    0  0.00000000000E+00  0.00000000000E+00  0.46706400868E+03  0.14755469503E+04  0.13996749674E+04 0.  0.
        4    1    3    3  502    0  0.41896704895E+03 -0.24719460637E+03  0.76392727744E+03  0.90566277369E+03  0.12699999809E+01 0.  1.
       -4    1    3    3    0  502 -0.41896704895E+03  0.24719460637E+03 -0.29686326876E+03  0.56988417663E+03  0.12699999809E+01 0. -1.
</event>
<event>
 5   0  0.2427569E-05  0.1399214E+04  0.7818609E-02  0.8954387E-01
        1   -1    0    0  501    0  0.00000000000E+00  0.00000000000E+00  0.14526389300E+04  0.14526389300E+04  0.50400001928E-02 0. -1.
       -1   -1    0    0    0  501  0.00000000000E+00  0.00000000000E+00 -0.33693864802E+03  0.33693864806E+03  0.50400001928E-02 0.  1.
    10030    2    1    2    0    0  0.00000000000E+00  0.00000000000E+00  0.11157002819E+04  0.17895775780E+04  0.13992143469E+04 0.  0.
        1    1    3    3  502    0  0.65838237478E+03 -0.23391122247E+03  0.51229976649E+03  0.86639070990E+03  0.50400001928E-02 0. -1.
       -1    1    3    3    0  502 -0.65838237478E+03  0.23391122247E+03  0.60340051544E+03  0.92318686812E+03  0.50400001928E-02 0.  1.
</event>
<event>
 5   0  0.2316714E-05  0.1399948E+04  0.7818609E-02  0.8953856E-01
       -1   -1    0    0    0  501  0.00000000000E+00  0.00000000000E+00  0.42467291530E+03  0.42467291533E+03  0.50400001928E-02 0.  1.
        1   -1    0    0  501    0  0.00000000000E+00  0.00000000000E+00 -0.11537440547E+04  0.11537440547E+04  0.50400001928E-02 0. -1.
    10030    2    1    2    0    0  0.00000000000E+00  0.00000000000E+00 -0.72907113940E+03  0.15784169700E+04  0.13999483580E+04 0.  0.
        5    1    3    3  502    0 -0.60002495416E+03 -0.11298551562E+03 -0.75043454274E+03  0.96745530402E+03  0.46999998093E+01 0. -1.
       -5    1    3    3    0  502  0.60002495416E+03  0.11298551562E+03  0.21363403336E+02  0.61096166602E+03  0.46999998093E+01 0.  1.
</event>
<event>
 5   0  0.2467303E-05  0.1399792E+04  0.7818609E-02  0.8953969E-01
        1   -1    0    0  501    0  0.00000000000E+00  0.00000000000E+00  0.59821960065E+03  0.59821960067E+03  0.50400001928E-02 0. -1.
       -1   -1    0    0    0  501  0.00000000000E+00  0.00000000000E+00 -0.81885375784E+03  0.81885375785E+03  0.50400001928E-02 0.  1.
    10030    2    1    2    0    0  0.00000000000E+00  0.00000000000E+00 -0.22063415718E+03  0.14170733585E+04  0.13997919389E+04 0.  0.
        3    1    3    3  502    0  0.49396680535E+03  0.20205580212E+03 -0.56870359888E+03  0.77990611329E+03  0.10100000352E+00 0.  1.
       -3    1    3    3    0  502 -0.49396680535E+03 -0.20205580212E+03  0.34806944170E+03  0.63716724524E+03  0.10100000352E+00 0. -1.
</event>
<event>
 5   0  0.2428507E-05  0.1399511E+04  0.7818609E-02  0.8954172E-01
       -1   -1    0    0    0  501  0.00000000000E+00  0.00000000000E+00  0.87393981678E+03  0.87393981679E+03  0.50400001928E-02 0.  1.
        1   -1    0    0  501    0  0.00000000000E+00  0.00000000000E+00 -0.56028789724E+03  0.56028789726E+03  0.50400001928E-02 0. -1.
    10030    2    1    2    0    0  0.00000000000E+00  0.00000000000E+00  0.31365191954E+03  0.14342277141E+04  0.13995112036E+04 0.  0.
        4    1    3    3  502    0 -0.46331420170E+03 -0.10533314103E+03 -0.36963041395E+03  0.60198287012E+03  0.12699999809E+01 0. -1.
       -4    1    3    3    0  502  0.46331420170E+03  0.10533314103E+03  0.68328233349E+03  0.83224484393E+03  0.12699999809E+01 0.  1.
</event>
<event>
 5   0  0.2363419E-05  0.1397733E+04  0.7818609E-02  0.8955461E-01
       -1   -1    0    0    0  501  0.00000000000E+00  0.00000000000E+00  0.66734500456E+03  0.66734500458E+03  0.50400001928E-02 0. -1.
        1   -1    0    0  501    0  0.00000000000E+00  0.00000000000E+00 -0.73187694805E+03  0.73187694807E+03  0.50400001928E-02 0.  1.
    10030    2    1    2    0    0  0.00000000000E+00  0.00000000000E+00 -0.64531943485E+02  0.13992219527E+04  0.13977330579E+04 0.  0.
        2    1    3    3  502    0 -0.29769961552E+03 -0.44690557342E+03  0.41549649439E+03  0.67896022674E+03  0.25500000920E-02 0. -1.
       -2    1    3    3    0  502  0.29769961552E+03  0.44690557342E+03 -0.48002843788E+03  0.72026172591E+03  0.25500000920E-02 0.  1.
</event>
<event>
 5   0  0.4243281E-05  0.1400379E+04  0.7818609E-02  0.8953544E-01
        2   -1    0    0  501    0  0.00000000000E+00  0.00000000000E+00  0.19320718430E+04  0.19320718430E+04  0.25500000920E-02 0. -1.
       -2   -1    0    0    0  501  0.00000000000E+00  0.00000000000E+00 -0.25375119422E+03  0.25375119424E+03  0.25500000920E-02 0.  1.
    10030    2    1    2    0    0  0.00000000000E+00  0.00000000000E+00  0.16783206488E+04  0.21858230372E+04  0.14003792879E+04 0.  0.
        2    1    3    3  502    0  0.66860579241E+03 -0.20290052037E+03  0.76826116120E+03  0.10384736581E+04  0.25500000920E-02 0. -1.
       -2    1    3    3    0  502 -0.66860579241E+03  0.20290052037E+03  0.91005948759E+03  0.11473493791E+04  0.25500000920E-02 0.  1.
</event>
<event>
 5   0  0.2316714E-05  0.1399933E+04  0.7818609E-02  0.8953867E-01
       -1   -1    0    0    0  501  0.00000000000E+00  0.00000000000E+00  0.51190799362E+03  0.51190799365E+03  0.50400001928E-02 0.  1.
        1   -1    0    0  501    0  0.00000000000E+00  0.00000000000E+00 -0.95711152911E+03  0.95711152913E+03  0.50400001928E-02 0. -1.
    10030    2    1    2    0    0  0.00000000000E+00  0.00000000000E+00 -0.44520353549E+03  0.14690195228E+04  0.13999329163E+04 0.  0.
        5    1    3    3  502    0  0.40953817044E+03 -0.54880447302E+03 -0.70452938006E+02  0.68839928030E+03  0.46999998093E+01 0.  1.
       -5    1    3    3    0  502 -0.40953817044E+03  0.54880447302E+03 -0.37475059748E+03  0.78062024247E+03  0.46999998093E+01 0. -1.
</event>
<event>
 5   0  0.2467303E-05  0.1400692E+04  0.7818609E-02  0.8953318E-01
       -1   -1    0    0    0  501  0.00000000000E+00  0.00000000000E+00  0.38021779530E+03  0.38021779534E+03  0.50400001928E-02 0.  1.
        1   -1    0    0  501    0  0.00000000000E+00  0.00000000000E+00 -0.12900088781E+04  0.12900088781E+04  0.50400001928E-02 0. -1.
    10030    2    1    2    0    0  0.00000000000E+00  0.00000000000E+00 -0.90979108280E+03  0.16702266734E+04  0.14006917314E+04 0.  0.
        3    1    3    3  502    0  0.23293767701E+03 -0.51843215696E+03 -0.94284924021E+03  0.11009071544E+04  0.10100000352E+00 0. -1.
       -3    1    3    3    0  502 -0.23293767701E+03  0.51843215696E+03  0.33058157409E+02  0.56931951900E+03  0.10100000352E+00 0.  1.
</event>
<event>
 5   0  0.4243281E-05  0.1400789E+04  0.7818609E-02  0.8953247E-01
       -2   -1    0    0    0  501  0.00000000000E+00  0.00000000000E+00  0.46346184148E+03  0.46346184148E+03  0.25500000920E-02 0.  1.
        2   -1    0    0  501    0  0.00000000000E+00  0.00000000000E+00 -0.10584533475E+04  0.10584533475E+04  0.25500000920E-02 0. -1.
    10030    2    1    2    0    0  0.00000000000E+00  0.00000000000E+00 -0.59499150602E+03  0.15219151890E+04  0.14007894025E+04 0.  0.
        2    1    3    3  502    0  0.25958868073E+03 -0.11850408684E+02  0.40914901157E+03  0.48469539819E+03  0.25500000920E-02 0.  1.
       -2    1    3    3    0  502 -0.25958868073E+03  0.11850408684E+02 -0.10041405176E+04  0.10372197908E+04  0.25500000920E-02 0. -1.
</event>
<event>
 5   0  0.2363419E-05  0.1399860E+04  0.7818609E-02  0.8953920E-01
        1   -1    0    0  501    0  0.00000000000E+00  0.00000000000E+00  0.21735216140E+04  0.21735216140E+04  0.50400001928E-02 0. -1.
       -1   -1    0    0    0  501  0.00000000000E+00  0.00000000000E+00 -0.22539538751E+03  0.22539538757E+03  0.50400001928E-02 0.  1.
    10030    2    1    2    0    0  0.00000000000E+00  0.00000000000E+00  0.19481262265E+04  0.23989170016E+04  0.13998596309E+04 0.  0.
        2    1    3    3  502    0 -0.52341388758E+03 -0.25762546700E+03  0.16368153321E+04  0.17376701098E+04  0.25500000920E-02 0. -1.
       -2    1    3    3    0  502  0.52341388758E+03  0.25762546700E+03  0.31131089439E+03  0.66124689181E+03  0.25500000920E-02 0.  1.
</event>
<event>
 5   0  0.2316714E-05  0.1400031E+04  0.7818609E-02  0.8953796E-01
       -1   -1    0    0    0  501  0.00000000000E+00  0.00000000000E+00  0.84885706027E+03  0.84885706029E+03  0.50400001928E-02 0. -1.
        1   -1    0    0  501    0  0.00000000000E+00  0.00000000000E+00 -0.57727212207E+03  0.57727212209E+03  0.50400001928E-02 0.  1.
    10030    2    1    2    0    0  0.00000000000E+00  0.00000000000E+00  0.27158493820E+03  0.14261291824E+04  0.14000307376E+04 0.  0.
        5    1    3    3  502    0 -0.43869646184E+03 -0.29775526482E+03  0.60135351108E+03  0.80172371715E+03  0.46999998093E+01 0. -1.
       -5    1    3    3    0  502  0.43869646184E+03  0.29775526482E+03 -0.32976857287E+03  0.62440546523E+03  0.46999998093E+01 0.  1.
</event>
<event>
 5   0  0.4460282E-05  0.1400505E+04  0.7818609E-02  0.8953453E-01
        2   -1    0    0  501    0  0.00000000000E+00  0.00000000000E+00  0.82510357208E+03  0.82510357208E+03  0.25500000920E-02 0.  1.
       -2   -1    0    0    0  501  0.00000000000E+00  0.00000000000E+00 -0.59429338650E+03  0.59429338650E+03  0.25500000920E-02 0. -1.
    10030    2    1    2    0    0  0.00000000000E+00  0.00000000000E+00  0.23081018558E+03  0.14193969586E+04  0.14005050461E+04 0.  0.
        1    1    3    3  502    0 -0.40232021052E+03  0.33212918999E+03 -0.35799560727E+03  0.63271810902E+03  0.50400001928E-02 0. -1.
       -1    1    3    3    0  502  0.40232021052E+03 -0.33212918999E+03  0.58880579285E+03  0.78667884957E+03  0.50400001928E-02 0.  1.
</event>
<event>
 5   0  0.4243281E-05  0.1400055E+04  0.7818609E-02  0.8953779E-01
       -2   -1    0    0    0  501  0.00000000000E+00  0.00000000000E+00  0.19309906737E+03  0.19309906739E+03  0.25500000920E-02 0. -1.
        2   -1    0    0  501    0  0.00000000000E+00  0.00000000000E+00 -0.25377579062E+04  0.25377579062E+04  0.25500000920E-02 0.  1.
    10030    2    1    2    0    0  0.00000000000E+00  0.00000000000E+00 -0.23446588389E+04  0.27308569736E+04  0.14000552631E+04 0.  0.
        2    1    3    3  502    0 -0.77409464474E+02 -0.40904459382E+03 -0.22700648392E+04  0.23079220262E+04  0.25500000920E-02 0.  1.
       -2    1    3    3    0  502  0.77409464474E+02  0.40904459382E+03 -0.74593999629E+02  0.42293494737E+03  0.25500000920E-02 0. -1.
</event>
<event>
 5   0  0.4527503E-05  0.1400419E+04  0.7818609E-02  0.8953515E-01
        2   -1    0    0  501    0  0.00000000000E+00  0.00000000000E+00  0.14722631643E+04  0.14722631643E+04  0.25500000920E-02 0. -1.
       -2   -1    0    0    0  501  0.00000000000E+00  0.00000000000E+00 -0.33302007737E+03  0.33302007738E+03  0.25500000920E-02 0.  1.
    10030    2    1    2    0    0  0.00000000000E+00  0.00000000000E+00  0.11392430870E+04  0.18052832417E+04  0.14004187844E+04 0.  0.
        4    1    3    3  502    0 -0.23835488445E+03  0.33000153882E+03 -0.16480207938E+03  0.43917582451E+03  0.12699999809E+01 0.  1.
       -4    1    3    3    0  502  0.23835488445E+03 -0.33000153882E+03  0.13040451664E+04  0.13661074172E+04  0.12699999809E+01 0. -1.
</event>
<event>
 5   0  0.4621450E-05  0.1400072E+04  0.7818609E-02  0.8953766E-01
       -2   -1    0    0    0  501  0.00000000000E+00  0.00000000000E+00  0.46935971995E+03  0.46935971996E+03  0.25500000920E-02 0.  1.
        2   -1    0    0  501    0  0.00000000000E+00  0.00000000000E+00 -0.10440834745E+04  0.10440834745E+04  0.25500000920E-02 0. -1.
    10030    2    1    2    0    0  0.00000000000E+00  0.00000000000E+00 -0.57472375452E+03  0.15134431944E+04  0.14000724655E+04 0.  0.
        5    1    3    3  502    0  0.57457521467E+02  0.55526606313E+03  0.16922286715E+03  0.58333544072E+03  0.46999998093E+01 0.  1.
       -5    1    3    3    0  502 -0.57457521467E+02 -0.55526606313E+03 -0.74394662168E+03  0.93010775372E+03  0.46999998093E+01 0. -1.
</event>
<event>
 5   0  0.4527503E-05  0.1399985E+04  0.7818609E-02  0.8953829E-01
        2   -1    0    0  501    0  0.00000000000E+00  0.00000000000E+00  0.12391476136E+04  0.12391476136E+04  0.25500000920E-02 0.  1.
       -2   -1    0    0    0  501  0.00000000000E+00  0.00000000000E+00 -0.39542485766E+03  0.39542485767E+03  0.25500000920E-02 0. -1.
    10030    2    1    2    0    0  0.00000000000E+00  0.00000000000E+00  0.84372275595E+03  0.16345724713E+04  0.13999853838E+04 0.  0.
        4    1    3    3  502    0  0.24249111384E+03  0.58423392884E+03  0.77185205181E+03  0.99794209586E+03  0.12699999809E+01 0.  1.
       -4    1    3    3    0  502 -0.24249111384E+03 -0.58423392884E+03  0.71870704138E+02  0.63663037542E+03  0.12699999809E+01 0. -1.
</event>
<event>
 5   0  0.4460282E-05  0.1389328E+04  0.7818609E-02  0.8961580E-01
        2   -1    0    0  501    0  0.00000000000E+00  0.00000000000E+00  0.83767531614E+03  0.83767531614E+03  0.25500000920E-02 0. -1.
       -2   -1    0    0    0  501  0.00000000000E+00  0.00000000000E+00 -0.57606833534E+03  0.57606833534E+03  0.25500000920E-02 0.  1.
    10030    2    1    2    0    0  0.00000000000E+00  0.00000000000E+00  0.26160698080E+03  0.14137436515E+04  0.13893282189E+04 0.  0.
        1    1    3    3  502    0  0.36579457637E+03  0.58951291514E+03  0.16644872565E+03  0.71346781814E+03  0.50400001928E-02 0.  1.
       -1    1    3    3    0  502 -0.36579457637E+03 -0.58951291514E+03  0.95158255154E+02  0.70027583335E+03  0.50400001928E-02 0. -1.
</event>
<event>
 5   0  0.2363419E-05  0.1400147E+04  0.7818609E-02  0.8953712E-01
        1   -1    0    0  501    0  0.00000000000E+00  0.00000000000E+00  0.39200416874E+03  0.39200416877E+03  0.50400001928E-02 0.  1.
       -1   -1    0    0    0  501  0.00000000000E+00  0.00000000000E+00 -0.12502495154E+04  0.12502495154E+04  0.50400001928E-02 0. -1.
    10030    2    1    2    0    0  0.00000000000E+00  0.00000000000E+00 -0.85824534664E+03  0.16422536842E+04  0.14001471666E+04 0.  0.
        2    1    3    3  502    0  0.61110187146E+03 -0.18820471572E+03 -0.76342714582E+03  0.99583508639E+03  0.25500000920E-02 0.  1.
       -2    1    3    3    0  502 -0.61110187146E+03  0.18820471572E+03 -0.94818200828E+02  0.64641859776E+03  0.25500000920E-02 0. -1.
</event>
<event>
 5   0  0.4243281E-05  0.1401333E+04  0.7818609E-02  0.8952854E-01
        2   -1    0    0  501    0  0.00000000000E+00  0.00000000000E+00  0.74019410807E+03  0.74019410807E+03  0.25500000920E-02 0.  1.
       -2   -1    0    0    0  501  0.00000000000E+00  0.00000000000E+00 -0.66324977063E+03  0.66324977064E+03  0.25500000920E-02 0. -1.
    10030    2    1    2    0    0  0.00000000000E+00  0.00000000000E+00  0.76944337436E+02  0.14034438787E+04  0.14013330402E+04 0.  0.
        2    1    3    3  502    0 -0.48347720594E+03  0.43081012027E+03 -0.22948646150E+03  0.68703100688E+03  0.25500000920E-02 0. -1.
       -2    1    3    3    0  502  0.48347720594E+03 -0.43081012027E+03  0.30643079894E+03  0.71641287184E+03  0.25500000920E-02 0.  1.
</event>
<event>
 5   0  0.4441253E-05  0.1396313E+04  0.7818609E-02  0.8956491E-01
       -2   -1    0    0    0  501  0.00000000000E+00  0.00000000000E+00  0.31209071858E+03  0.31209071859E+03  0.25500000920E-02 0. -1.
        2   -1    0    0  501    0  0.00000000000E+00  0.00000000000E+00 -0.15617981454E+04  0.15617981454E+04  0.25500000920E-02 0.  1.
    10030    2    1    2    0    0  0.00000000000E+00  0.00000000000E+00 -0.12497074269E+04  0.18738888640E+04  0.13963132965E+04 0.  0.
        3    1    3    3  502    0  0.28979814072E+03  0.63418871050E+03 -0.57751209278E+03  0.90537202873E+03  0.10100000352E+00 0. -1.
       -3    1    3    3    0  502 -0.28979814072E+03 -0.63418871050E+03 -0.67219533407E+03  0.96851683529E+03  0.10100000352E+00 0.  1.
</event>
<event>
 5   0  0.1661000E-05  0.1399729E+04  0.7818609E-02  0.8954015E-01
        4   -1    0    0  501    0  0.00000000000E+00  0.00000000000E+00  0.16978362916E+04  0.16978367666E+04  0.12699999809E+01 0.  1.
       -4   -1    0    0    0  501  0.00000000000E+00  0.00000000000E+00 -0.28848901517E+03  0.28849181058E+03  0.12699999809E+01 0. -1.
    10030    2    1    2    0    0  0.00000000000E+00  0.00000000000E+00  0.14093472764E+04  0.19863285772E+04  0.13997290705E+04 0.  0.
        4    1    3    3  502    0 -0.21673302218E+03 -0.33168838658E+03  0.15233471717E+04  0.15740325940E+04  0.12699999809E+01 0.  1.
       -4    1    3    3    0  502  0.21673302218E+03  0.33168838658E+03 -0.11399989526E+03  0.41229598314E+03  0.12699999809E+01 0. -1.
</event>
<event>
 5   0  0.4460282E-05  0.1400095E+04  0.7818609E-02  0.8953750E-01
       -2   -1    0    0    0  501  0.00000000000E+00  0.00000000000E+00  0.96777109568E+03  0.96777109568E+03  0.25500000920E-02 0.  1.
        2   -1    0    0  501    0  0.00000000000E+00  0.00000000000E+00 -0.50638689665E+03  0.50638689666E+03  0.25500000920E-02 0. -1.
    10030    2    1    2    0    0  0.00000000000E+00  0.00000000000E+00  0.46138419903E+03  0.14741579923E+04  0.14000951422E+04 0.  0.
        1    1    3    3  502    0 -0.54374804652E+03  0.44064708869E+03  0.24682609524E+03  0.74212863857E+03  0.50400001928E-02 0. -1.
       -1    1    3    3    0  502  0.54374804652E+03 -0.44064708869E+03  0.21455810379E+03  0.73202935377E+03  0.50400001928E-02 0.  1.
</event>
<event>
 5   0  0.2427569E-05  0.1399828E+04  0.7818609E-02  0.8953943E-01
        1   -1    0    0  501    0  0.00000000000E+00  0.00000000000E+00  0.31565081816E+03  0.31565081820E+03  0.50400001928E-02 0.  1.
       -1   -1    0    0    0  501  0.00000000000E+00  0.00000000000E+00 -0.15519667322E+04  0.15519667322E+04  0.50400001928E-02 0. -1.
    10030    2    1    2    0    0  0.00000000000E+00  0.00000000000E+00 -0.12363159141E+04  0.18676175504E+04  0.13998279449E+04 0.  0.
        1    1    3    3  502    0 -0.26344986119E+03  0.28371250277E+03  0.15977215457E+03  0.41883857867E+03  0.50400001928E-02 0.  1.
       -1    1    3    3    0  502  0.26344986119E+03 -0.28371250277E+03 -0.13960880686E+04  0.14487789717E+04  0.50400001928E-02 0. -1.
</event>
<event>
 5   0  0.4243281E-05  0.1400090E+04  0.7818609E-02  0.8953753E-01
       -2   -1    0    0    0  501  0.00000000000E+00  0.00000000000E+00  0.28878806228E+03  0.28878806230E+03  0.25500000920E-02 0. -1.
        2   -1    0    0  501    0  0.00000000000E+00  0.00000000000E+00 -0.16969642729E+04  0.16969642729E+04  0.25500000920E-02 0.  1.
    10030    2    1    2    0    0  0.00000000000E+00  0.00000000000E+00 -0.14081762106E+04  0.19857523352E+04  0.14000900316E+04 0.  0.
        2    1    3    3  502    0 -0.36975364685E+03  0.53842325457E+03 -0.34683987106E+03  0.73953719081E+03  0.25500000920E-02 0. -1.
       -2    1    3    3    0  502  0.36975364685E+03 -0.53842325457E+03 -0.10613363395E+04  0.12462151443E+04  0.25500000920E-02 0.  1.
</event>
<event>
 5   0  0.2316714E-05  0.1399718E+04  0.7818609E-02  0.8954022E-01
        1   -1    0    0  501    0  0.00000000000E+00  0.00000000000E+00  0.58941067181E+03  0.58941067183E+03  0.50400001928E-02 0.  1.
       -1   -1    0    0    0  501  0.00000000000E+00  0.00000000000E+00 -0.83100456673E+03  0.83100456674E+03  0.50400001928E-02 0. -1.
    10030    2    1    2    0    0  0.00000000000E+00  0.00000000000E+00 -0.24159389491E+03  0.14204152386E+04  0.13997184860E+04 0.  0.
        5    1    3    3  502    0  0.33551235219E+03 -0.66727465951E+02  0.49877129110E+03  0.60482723484E+03  0.46999998093E+01 0.  1.
       -5    1    3    3    0  502 -0.33551235219E+03  0.66727465951E+02 -0.74036518601E+03  0.81558800374E+03  0.46999998093E+01 0. -1.
</event>
<event>
 5   0  0.4621450E-05  0.1399566E+04  0.7818609E-02  0.8954133E-01
        2   -1    0    0  501    0  0.00000000000E+00  0.00000000000E+00  0.15169760832E+04  0.15169760832E+04  0.25500000920E-02 0. -1.
       -2   -1    0    0    0  501  0.00000000000E+00  0.00000000000E+00 -0.32281090419E+03  0.32281090420E+03  0.25500000920E-02 0.  1.
    10030    2    1    2    0    0  0.00000000000E+00  0.00000000000E+00  0.11941651790E+04  0.18397869874E+04  0.13995662486E+04 0.  0.
        5    1    3    3  502    0  0.60693545271E+03  0.18986755375E+03  0.98090600241E+03  0.11690248104E+04  0.46999998093E+01 0. -1.
       -5    1    3    3    0  502 -0.60693545271E+03 -0.18986755375E+03  0.21325917660E+03  0.67076217702E+03  0.46999998093E+01 0.  1.
</event>
<event>
 5   0  0.2428507E-05  0.1400730E+04  0.7818609E-02  0.8953290E-01
        1   -1    0    0  501    0  0.00000000000E+00  0.00000000000E+00  0.18979257848E+04  0.18979257849E+04  0.50400001928E-02 0.  1.
       -1   -1    0    0    0  501  0.00000000000E+00  0.00000000000E+00 -0.25844590487E+03  0.25844590492E+03  0.50400001928E-02 0. -1.
    10030    2    1    2    0    0  0.00000000000E+00  0.00000000000E+00  0.16394798800E+04  0.21563716898E+04  0.14007300195E+04 0.  0.
        4    1    3    3  502    0  0.67122659012E+03  0.86554310670E+02  0.10971541607E+04  0.12891026527E+04  0.12699999809E+01 0.  1.
       -4    1    3    3    0  502 -0.67122659012E+03 -0.86554310670E+02  0.54232571932E+03  0.86726903710E+03  0.12699999809E+01 0. -1.
</event>
<event>
 5   0  0.4527503E-05  0.1399691E+04  0.7818609E-02  0.8954042E-01
        2   -1    0    0  501    0  0.00000000000E+00  0.00000000000E+00  0.12327756477E+04  0.12327756477E+04  0.25500000920E-02 0.  1.
       -2   -1    0    0    0  501  0.00000000000E+00  0.00000000000E+00 -0.39730175935E+03  0.39730175936E+03  0.25500000920E-02 0. -1.
    10030    2    1    2    0    0  0.00000000000E+00  0.00000000000E+00  0.83547388835E+03  0.16300774071E+04  0.13996912999E+04 0.  0.
        4    1    3    3  502    0  0.59131972511E+03  0.24525993632E+03  0.74707496224E+03  0.98383640193E+03  0.12699999809E+01 0.  1.
       -4    1    3    3    0  502 -0.59131972511E+03 -0.24525993632E+03  0.88398926107E+02  0.64624100512E+03  0.12699999809E+01 0. -1.
</event>
<event>
 5   0  0.2427569E-05  0.1400429E+04  0.7818609E-02  0.8953508E-01
       -1   -1    0    0    0  501  0.00000000000E+00  0.00000000000E+00  0.10806210989E+04  0.10806210989E+04  0.50400001928E-02 0. -1.
        1   -1    0    0  501    0  0.00000000000E+00  0.00000000000E+00 -0.45372082747E+03  0.45372082750E+03  0.50400001928E-02 0.  1.
    10030    2    1    2    0    0  0.00000000000E+00  0.00000000000E+00  0.62690027139E+03  0.15343419264E+04  0.14004289331E+04 0.  0.
        1    1    3    3  502    0 -0.21190187521E+03 -0.38656486435E+03 -0.28259839586E+03  0.52363790203E+03  0.50400001928E-02 0.  1.
       -1    1    3    3    0  502  0.21190187521E+03  0.38656486435E+03  0.90949866725E+03  0.10107040243E+04  0.50400001928E-02 0. -1.
</event>
<event>
 5   0  0.4460282E-05  0.1400630E+04  0.7818609E-02  0.8953362E-01
        2   -1    0    0  501    0  0.00000000000E+00  0.00000000000E+00  0.75201652478E+03  0.75201652479E+03  0.25500000920E-02 0. -1.
       -2   -1    0    0    0  501  0.00000000000E+00  0.00000000000E+00 -0.65216822733E+03  0.65216822733E+03  0.25500000920E-02 0.  1.
    10030    2    1    2    0    0  0.00000000000E+00  0.00000000000E+00  0.99848297453E+02  0.14041847521E+04  0.14006302637E+04 0.  0.
        1    1    3    3  502    0 -0.52523979901E+03 -0.26655851965E+03  0.42971397915E+03  0.72909834369E+03  0.50400001928E-02 0. -1.
       -1    1    3    3    0  502  0.52523979901E+03  0.26655851965E+03 -0.32986568170E+03  0.67508640843E+03  0.50400001928E-02 0.  1.
</event>
<event>
 5   0  0.2428507E-05  0.1400820E+04  0.7818609E-02  0.8953225E-01
       -1   -1    0    0    0  501  0.00000000000E+00  0.00000000000E+00  0.37185185660E+03  0.37185185664E+03  0.50400001928E-02 0. -1.
        1   -1    0    0  501    0  0.00000000000E+00  0.00000000000E+00 -0.13192729940E+04  0.13192729941E+04  0.50400001928E-02 0.  1.
    10030    2    1    2    0    0  0.00000000000E+00  0.00000000000E+00 -0.94742113744E+03  0.16911248507E+04  0.14008199202E+04 0.  0.
        4    1    3    3  502    0 -0.13842459477E+03  0.31073247391E+03 -0.12128491339E+04  0.12596510125E+04  0.12699999809E+01 0.  1.
       -4    1    3    3    0  502  0.13842459477E+03 -0.31073247391E+03  0.26542799651E+03  0.43147383815E+03  0.12699999809E+01 0. -1.
</event>
<event>
 5   0  0.1661000E-05  0.1394414E+04  0.7818609E-02  0.8957872E-01
       -3   -1    0    0    0  501  0.00000000000E+00  0.00000000000E+00  0.50638097737E+03  0.50638098744E+03  0.10100000352E+00 0.  1.
        3   -1    0    0  501    0  0.00000000000E+00  0.00000000000E+00 -0.95994417103E+03  0.95994417635E+03  0.10100000352E+00 0. -1.
    10030    2    1    2    0    0  0.00000000000E+00  0.00000000000E+00 -0.45356319366E+03  0.14663251638E+04  0.13944138250E+04 0.  0.
        3    1    3    3  502    0  0.60548108634E+03 -0.17766779469E+03  0.85030537276E+02  0.63671296017E+03  0.10100000352E+00 0.  1.
       -3    1    3    3    0  502 -0.60548108634E+03  0.17766779469E+03 -0.53859373094E+03  0.82961220362E+03  0.10100000352E+00 0. -1.
</event>
<event>
 5   0  0.4441253E-05  0.1400125E+04  0.7818609E-02  0.8953728E-01
       -2   -1    0    0    0  501  0.00000000000E+00  0.00000000000E+00  0.20199846500E+03  0.20199846502E+03  0.25500000920E-02 0.  1.
        2   -1    0    0  501    0  0.00000000000E+00  0.00000000000E+00 -0.24261938623E+04  0.24261938623E+04  0.25500000920E-02 0. -1.
    10030    2    1    2    0    0  0.00000000000E+00  0.00000000000E+00 -0.22241953973E+04  0.26281923273E+04  0.14001249030E+04 0.  0.
        3    1    3    3  502    0 -0.46610480338E+03  0.13696924960E+03 -0.16592642201E+03  0.51336716957E+03  0.10100000352E+00 0.  1.
       -3    1    3    3    0  502  0.46610480338E+03 -0.13696924960E+03 -0.20582689753E+04  0.21148251578E+04  0.10100000352E+00 0. -1.
</event>
<event>
 5   0  0.2467303E-05  0.1398877E+04  0.7818609E-02  0.8954632E-01
       -1   -1    0    0    0  501  0.00000000000E+00  0.00000000000E+00  0.37113031591E+03  0.37113031594E+03  0.50400001928E-02 0. -1.
        1   -1    0    0  501    0  0.00000000000E+00  0.00000000000E+00 -0.13181733207E+04  0.13181733207E+04  0.50400001928E-02 0.  1.
    10030    2    1    2    0    0  0.00000000000E+00  0.00000000000E+00 -0.94704300481E+03  0.16893036367E+04  0.13988768080E+04 0.  0.
        3    1    3    3  502    0 -0.97318881163E+02  0.33495003832E+03  0.25860713166E+03  0.43421210433E+03  0.10100000352E+00 0. -1.
       -3    1    3    3    0  502  0.97318881163E+02 -0.33495003832E+03 -0.12056501365E+04  0.12550915323E+04  0.10100000352E+00 0.  1.
</event>
<event>
 5   0  0.4460282E-05  0.1398850E+04  0.7818609E-02  0.8954651E-01
       -2   -1    0    0    0  501  0.00000000000E+00  0.00000000000E+00  0.81368086747E+03  0.81368086747E+03  0.25500000920E-02 0.  1.
        2   -1    0    0  501    0  0.00000000000E+00  0.00000000000E+00 -0.60121277232E+03  0.60121277232E+03  0.25500000920E-02 0. -1.
    10030    2    1    2    0    0  0.00000000000E+00  0.00000000000E+00  0.21246809515E+03  0.14148936398E+04  0.13988499993E+04 0.  0.
        1    1    3    3  502    0  0.42257655676E+03  0.47311994479E+03 -0.19173230764E+03  0.66270257755E+03  0.50400001928E-02 0. -1.
       -1    1    3    3    0  502 -0.42257655676E+03 -0.47311994479E+03  0.40420040279E+03  0.75219106224E+03  0.50400001928E-02 0.  1.
</event>
<event>
 5   0  0.2428507E-05  0.1400143E+04  0.7818609E-02  0.8953715E-01
        1   -1    0    0  501    0  0.00000000000E+00  0.00000000000E+00  0.89898858429E+03  0.89898858431E+03  0.50400001928E-02 0. -1.
       -1   -1    0    0    0  501  0.00000000000E+00  0.00000000000E+00 -0.54516815962E+03  0.54516815964E+03  0.50400001928E-02 0.  1.
    10030    2    1    2    0    0  0.00000000000E+00  0.00000000000E+00  0.35382042467E+03  0.14441567440E+04  0.14001427814E+04 0.  0.
        4    1    3    3  502    0 -0.92717719720E+01 -0.69997398755E+03  0.18411478237E+03  0.72384350173E+03  0.12699999809E+01 0.  1.
       -4    1    3    3    0  502  0.92717719720E+01  0.69997398755E+03  0.16970564230E+03  0.72031324223E+03  0.12699999809E+01 0. -1.
</event>
<event>
 5   0  0.4441253E-05  0.1399898E+04  0.7818609E-02  0.8953893E-01
       -2   -1    0    0    0  501  0.00000000000E+00  0.00000000000E+00  0.11695753759E+04  0.11695753759E+04  0.25500000920E-02 0. -1.
        2   -1    0    0  501    0  0.00000000000E+00  0.00000000000E+00 -0.41889430789E+03  0.41889430790E+03  0.25500000920E-02 0.  1.
    10030    2    1    2    0    0  0.00000000000E+00  0.00000000000E+00  0.75068106803E+03  0.15884696838E+04  0.13998978072E+04 0.  0.
        3    1    3    3  502    0  0.51931058163E+03 -0.29123611245E+03 -0.42234409654E+02  0.59689673222E+03  0.10100000352E+00 0. -1.
       -3    1    3    3    0  502 -0.51931058163E+03  0.29123611245E+03  0.79291547769E+03  0.99157295160E+03  0.10100000352E+00 0.  1.
</event>
<event>
 5   0  0.2428507E-05  0.1400184E+04  0.7818609E-02  0.8953685E-01
       -1   -1    0    0    0  501  0.00000000000E+00  0.00000000000E+00  0.24841962665E+03  0.24841962670E+03  0.50400001928E-02 0.  1.
        1   -1    0    0  501    0  0.00000000000E+00  0.00000000000E+00 -0.19729887010E+04  0.19729887010E+04  0.50400001928E-02 0. -1.
    10030    2    1    2    0    0  0.00000000000E+00  0.00000000000E+00 -0.17245690743E+04  0.22214083277E+04  0.14001844401E+04 0.  0.
        4    1    3    3  502    0  0.54959675491E+03 -0.12727215952E+03 -0.20455611627E+03  0.60008300526E+03  0.12699999809E+01 0.  1.
       -4    1    3    3    0  502 -0.54959675491E+03  0.12727215952E+03 -0.15200129581E+04  0.16213253224E+04  0.12699999809E+01 0. -1.
</event>
<event>
 5   0  0.1661000E-05  0.1399912E+04  0.7818609E-02  0.8953882E-01
        3   -1    0    0  501    0  0.00000000000E+00  0.00000000000E+00  0.62216635486E+03  0.62216636305E+03  0.10100000352E+00 0.  1.
       -3   -1    0    0    0  501  0.00000000000E+00  0.00000000000E+00 -0.78747209627E+03  0.78747210274E+03  0.10100000352E+00 0. -1.
    10030    2    1    2    0    0  0.00000000000E+00  0.00000000000E+00 -0.16530574141E+03  0.14096384658E+04  0.13999123602E+04 0.  0.
        2    1    3    3  502    0  0.68734134341E+03 -0.70951841397E+02  0.29775744934E+02  0.69163493344E+03  0.25500000920E-02 0.  1.
       -2    1    3    3    0  502 -0.68734134341E+03  0.70951841397E+02 -0.19508148634E+03  0.71800353236E+03  0.25500000920E-02 0. -1.
</event>
<event>
 5   0  0.2428507E-05  0.1399544E+04  0.7818609E-02  0.8954149E-01
        1   -1    0    0  501    0  0.00000000000E+00  0.00000000000E+00  0.84093714567E+03  0.84093714568E+03  0.50400001928E-02 0.  1.
       -1   -1    0    0    0  501  0.00000000000E+00  0.00000000000E+00 -0.58230349958E+03  0.58230349960E+03  0.50400001928E-02 0. -1.
    10030    2    1    2    0    0  0.00000000000E+00  0.00000000000E+00  0.25863364608E+03  0.14232406453E+04  0.13995437012E+04 0.  0.
        4    1    3    3  502    0  0.41978549724E+03  0.36911728932E+03  0.55740963799E+03  0.78941405764E+03  0.12699999809E+01 0.  1.
       -4    1    3    3    0  502 -0.41978549724E+03 -0.36911728932E+03 -0.29877599191E+03  0.63382658765E+03  0.12699999809E+01 0. -1.
</event>
<event>
 5   0  0.2316714E-05  0.1398979E+04  0.7818609E-02  0.8954558E-01
       -1   -1    0    0    0  501  0.00000000000E+00  0.00000000000E+00  0.24094456890E+03  0.24094456895E+03  0.50400001928E-02 0.  1.
        1   -1    0    0  501    0  0.00000000000E+00  0.00000000000E+00 -0.20306972571E+04  0.20306972571E+04  0.50400001928E-02 0. -1.
    10030    2    1    2    0    0  0.00000000000E+00  0.00000000000E+00 -0.17897526882E+04  0.22716418260E+04  0.13989788780E+04 0.  0.
        5    1    3    3  502    0 -0.69093756498E+03  0.10570742687E+03 -0.85208084414E+03  0.11021037309E+04  0.46999998093E+01 0. -1.
       -5    1    3    3    0  502  0.69093756498E+03 -0.10570742687E+03 -0.93767184403E+03  0.11695380951E+04  0.46999998093E+01 0.  1.
</event>
<event>
 5   0  0.4243281E-05  0.1399522E+04  0.7818609E-02  0.8954165E-01
       -2   -1    0    0    0  501  0.00000000000E+00  0.00000000000E+00  0.40423046170E+03  0.40423046171E+03  0.25500000920E-02 0. -1.
        2   -1    0    0  501    0  0.00000000000E+00  0.00000000000E+00 -0.12113522790E+04  0.12113522790E+04  0.25500000920E-02 0.  1.
    10030    2    1    2    0    0  0.00000000000E+00  0.00000000000E+00 -0.80712181726E+03  0.16155827407E+04  0.13995220484E+04 0.  0.
        2    1    3    3  502    0  0.15185834776E+03 -0.66100985088E+03 -0.20471714820E+03  0.70845189782E+03  0.25500000920E-02 0. -1.
       -2    1    3    3    0  502 -0.15185834776E+03  0.66100985088E+03 -0.60240466907E+03  0.90713084286E+03  0.25500000920E-02 0.  1.
</event>
<event>
 5   0  0.4527503E-05  0.1401444E+04  0.7818609E-02  0.8952774E-01
       -2   -1    0    0    0  501  0.00000000000E+00  0.00000000000E+00  0.29480148412E+03  0.29480148413E+03  0.25500000920E-02 0. -1.
        2   -1    0    0  501    0  0.00000000000E+00  0.00000000000E+00 -0.16655657127E+04  0.16655657127E+04  0.25500000920E-02 0.  1.
    10030    2    1    2    0    0  0.00000000000E+00  0.00000000000E+00 -0.13707642286E+04  0.19603671968E+04  0.14014438897E+04 0.  0.
        4    1    3    3  502    0 -0.38353830805E+03 -0.37905982732E+03 -0.13112998023E+04  0.14178493470E+04  0.12699999809E+01 0.  1.
       -4    1    3    3    0  502  0.38353830805E+03  0.37905982732E+03 -0.59464426237E+02  0.54251784977E+03  0.12699999809E+01 0. -1.
</event>
<event>
 5   0  0.4621450E-05  0.1396933E+04  0.7818609E-02  0.8956041E-01
        2   -1    0    0  501    0  0.00000000000E+00  0.00000000000E+00  0.87608708822E+03  0.87608708822E+03  0.25500000920E-02 0.  1.
       -2   -1    0    0    0  501  0.00000000000E+00  0.00000000000E+00 -0.55685750823E+03  0.55685750824E+03  0.25500000920E-02 0. -1.
    10030    2    1    2    0    0  0.00000000000E+00  0.00000000000E+00  0.31922957999E+03  0.14329445965E+04  0.13969333169E+04 0.  0.
        5    1    3    3  502    0  0.56668634826E+03  0.19036320419E+03  0.53012123465E+03  0.79901325411E+03  0.46999998093E+01 0.  1.
       -5    1    3    3    0  502 -0.56668634826E+03 -0.19036320419E+03 -0.21089165466E+03  0.63393134235E+03  0.46999998093E+01 0. -1.
</event>
<event>
 5   0  0.1661000E-05  0.1400296E+04  0.7818609E-02  0.8953604E-01
       -4   -1    0    0    0  501  0.00000000000E+00  0.00000000000E+00  0.64923099465E+03  0.64923223681E+03  0.12699999809E+01 0.  1.
        4   -1    0    0  501    0  0.00000000000E+00  0.00000000000E+00 -0.75505561889E+03  0.75505668695E+03  0.12699999809E+01 0. -1.
    10030    2    1    2    0    0  0.00000000000E+00  0.00000000000E+00 -0.10582462424E+03  0.14042889238E+04  0.14002958724E+04 0.  0.
        2    1    3    3  502    0  0.14807901090E+03 -0.64435861681E+03  0.17813936359E+03  0.68473283359E+03  0.25500000920E-02 0. -1.
       -2    1    3    3    0  502 -0.14807901090E+03  0.64435861681E+03 -0.28396398782E+03  0.71955609018E+03  0.25500000920E-02 0.  1.
</event>
<event>
 5   0  0.2428507E-05  0.1399840E+04  0.7818609E-02  0.8953934E-01
       -1   -1    0    0    0  501  0.00000000000E+00  0.00000000000E+00  0.76899958883E+03  0.76899958885E+03  0.50400001928E-02 0. -1.
        1   -1    0    0  501    0  0.00000000000E+00  0.00000000000E+00 -0.63704578689E+03  0.63704578691E+03  0.50400001928E-02 0.  1.
    10030    2    1    2    0    0  0.00000000000E+00  0.00000000000E+00  0.13195380195E+03  0.14060453758E+04  0.13998399169E+04 0.  0.
        4    1    3    3  502    0  0.27989402034E+03  0.54669996953E+03 -0.27116685355E+03  0.67138259931E+03  0.12699999809E+01 0. -1.
       -4    1    3    3    0  502 -0.27989402034E+03 -0.54669996953E+03  0.40312065549E+03  0.73466277644E+03  0.12699999809E+01 0.  1.
</event>
<event>
 5   0  0.2427569E-05  0.1399815E+04  0.7818609E-02  0.8953953E-01
        1   -1    0    0  501    0  0.00000000000E+00  0.00000000000E+00  0.14881392506E+04  0.14881392506E+04  0.50400001928E-02 0.  1.
       -1   -1    0    0    0  501  0.00000000000E+00  0.00000000000E+00 -0.32918315401E+03  0.32918315405E+03  0.50400001928E-02 0. -1.
    10030    2    1    2    0    0  0.00000000000E+00  0.00000000000E+00  0.11589560966E+04  0.18173224046E+04  0.13998148051E+04 0.  0.
        1    1    3    3  502    0 -0.25947372032E+03 -0.39344764677E+03 -0.92291364559E+02  0.48025551353E+03  0.50400001928E-02 0. -1.
       -1    1    3    3    0  502  0.25947372032E+03  0.39344764677E+03  0.12512474611E+04  0.13370668911E+04  0.50400001928E-02 0.  1.
</event>
<event>
 5   0  0.4441253E-05  0.1399512E+04  0.7818609E-02  0.8954172E-01
        2   -1    0    0  501    0  0.00000000000E+00  0.00000000000E+00  0.91541717819E+03  0.91541717820E+03  0.25500000920E-02 0.  1.
       -2   -1    0    0    0  501  0.00000000000E+00  0.00000000000E+00 -0.53490172247E+03  0.53490172248E+03  0.25500000920E-02 0. -1.
    10030    2    1    2    0    0  0.00000000000E+00  0.00000000000E+00  0.38051545572E+03  0.14503189007E+04  0.13995116654E+04 0.  0.
        3    1    3    3  502    0 -0.55040124779E+03 -0.27109707135E+03  0.53895971887E+03  0.81664725827E+03  0.10100000352E+00 0.  1.
       -3    1    3    3    0  502  0.55040124779E+03  0.27109707135E+03 -0.15844426315E+03  0.63367164241E+03  0.10100000352E+00 0. -1.
</event>
<event>
 5   0  0.4460282E-05  0.1399835E+04  0.7818609E-02  0.8953938E-01
       -2   -1    0    0    0  501  0.00000000000E+00  0.00000000000E+00  0.28458642611E+03  0.28458642613E+03  0.25500000920E-02 0.  1.
        2   -1    0    0  501    0  0.00000000000E+00  0.00000000000E+00 -0.17213911809E+04  0.17213911809E+04  0.25500000920E-02 0. -1.
    10030    2    1    2    0    0  0.00000000000E+00  0.00000000000E+00 -0.14368047548E+04  0.20059776071E+04  0.13998350819E+04 0.  0.
        1    1    3    3  502    0 -0.82161783507E+02  0.56189808530E+03 -0.13208491034E+03  0.58303210932E+03  0.50400001928E-02 0.  1.
       -1    1    3    3    0  502  0.82161783507E+02 -0.56189808530E+03 -0.13047198445E+04  0.14229454977E+04  0.50400001928E-02 0. -1.
</event>
<event>
 5   0  0.1661000E-05  0.1400919E+04  0.7818609E-02  0.8953153E-01
       -3   -1    0    0    0  501  0.00000000000E+00  0.00000000000E+00  0.22082946874E+04  0.22082946897E+04  0.10100000352E+00 0. -1.
        3   -1    0    0  501    0  0.00000000000E+00  0.00000000000E+00 -0.22218221630E+03  0.22218223926E+03  0.10100000352E+00 0.  1.
    10030    2    1    2    0    0  0.00000000000E+00  0.00000000000E+00  0.19861124711E+04  0.24304769289E+04  0.14009194675E+04 0.  0.
        3    1    3    3  502    0 -0.69130177388E+03  0.91670077055E+02  0.11073802286E+04  0.13086605849E+04  0.10100000352E+00 0. -1.
       -3    1    3    3    0  502  0.69130177388E+03 -0.91670077055E+02  0.87873224248E+03  0.11218163440E+04  0.10100000352E+00 0.  1.
</event>
<event>
 5   0  0.4621450E-05  0.1399841E+04  0.7818609E-02  0.8953933E-01
       -2   -1    0    0    0  501  0.00000000000E+00  0.00000000000E+00  0.57899600877E+03  0.57899600878E+03  0.25500000920E-02 0.  1.
        2   -1    0    0  501    0  0.00000000000E+00  0.00000000000E+00 -0.84610083221E+03  0.84610083222E+03  0.25500000920E-02 0. -1.
    10030    2    1    2    0    0  0.00000000000E+00  0.00000000000E+00 -0.26710482344E+03  0.14250968410E+04  0.13998414266E+04 0.  0.
        5    1    3    3  502    0  0.39745607008E+03 -0.14239924425E+03 -0.70185133492E+03  0.81906425800E+03  0.46999998093E+01 0. -1.
       -5    1    3    3    0  502 -0.39745607008E+03  0.14239924425E+03  0.43474651148E+03  0.60603258300E+03  0.46999998093E+01 0.  1.
</event>
<event>
 5   0  0.2467303E-05  0.1401150E+04  0.7818609E-02  0.8952986E-01
        1   -1    0    0  501    0  0.00000000000E+00  0.00000000000E+00  0.56337380706E+03  0.56337380708E+03  0.50400001928E-02 0.  1.
       -1   -1    0    0    0  501  0.00000000000E+00  0.00000000000E+00 -0.87118968190E+03  0.87118968191E+03  0.50400001928E-02 0. -1.
    10030    2    1    2    0    0  0.00000000000E+00  0.00000000000E+00 -0.30781587484E+03  0.14345634890E+04  0.14011501672E+04 0.  0.
        3    1    3    3  502    0  0.15806810283E+03 -0.55797457695E+03 -0.55632579309E+03  0.80362898897E+03  0.10100000352E+00 0. -1.
       -3    1    3    3    0  502 -0.15806810283E+03  0.55797457695E+03  0.24850991825E+03  0.63093450003E+03  0.10100000352E+00 0.  1.
</event>
<event>
 5   0  0.4243281E-05  0.1399943E+04  0.7818609E-02  0.8953860E-01
        2   -1    0    0  501    0  0.00000000000E+00  0.00000000000E+00  0.86465451804E+03  0.86465451804E+03  0.25500000920E-02 0.  1.
       -2   -1    0    0    0  501  0.00000000000E+00  0.00000000000E+00 -0.56665399407E+03  0.56665399408E+03  0.25500000920E-02 0. -1.
    10030    2    1    2    0    0  0.00000000000E+00  0.00000000000E+00  0.29800052397E+03  0.14313085121E+04  0.13999427648E+04 0.  0.
        2    1    3    3  502    0  0.54382832811E+03 -0.11850963635E+01  0.59956579274E+03  0.80946265803E+03  0.25500000920E-02 0.  1.
       -2    1    3    3    0  502 -0.54382832811E+03  0.11850963635E+01 -0.30156526878E+03  0.62184585409E+03  0.25500000920E-02 0. -1.
</event>
<event>
 5   0  0.2427569E-05  0.1399928E+04  0.7818609E-02  0.8953871E-01
        1   -1    0    0  501    0  0.00000000000E+00  0.00000000000E+00  0.57586207180E+03  0.57586207182E+03  0.50400001928E-02 0.  1.
       -1   -1    0    0    0  501  0.00000000000E+00  0.00000000000E+00 -0.85081072350E+03  0.85081072351E+03  0.50400001928E-02 0. -1.
    10030    2    1    2    0    0  0.00000000000E+00  0.00000000000E+00 -0.27494865170E+03  0.14266727953E+04  0.13999280352E+04 0.  0.
        1    1    3    3  502    0  0.37432741070E+03 -0.38276324587E+03  0.32205125724E+03  0.62477654014E+03  0.50400001928E-02 0.  1.
       -1    1    3    3    0  502 -0.37432741070E+03  0.38276324587E+03 -0.59699990894E+03  0.80189625520E+03  0.50400001928E-02 0. -1.
</event>
<event>
 5   0  0.4441253E-05  0.1400762E+04  0.7818609E-02  0.8953267E-01
       -2   -1    0    0    0  501  0.00000000000E+00  0.00000000000E+00  0.11222557858E+04  0.11222557858E+04  0.25500000920E-02 0.  1.
        2   -1    0    0  501    0  0.00000000000E+00  0.00000000000E+00 -0.43709601182E+03  0.43709601183E+03  0.25500000920E-02 0. -1.
    10030    2    1    2    0    0  0.00000000000E+00  0.00000000000E+00  0.68515977402E+03  0.15593517977E+04  0.14007619758E+04 0.  0.
        3    1    3    3  502    0 -0.49158529962E+03 -0.36768410192E+03 -0.32767067112E+02  0.61475311833E+03  0.10100000352E+00 0. -1.
       -3    1    3    3    0  502  0.49158529962E+03  0.36768410192E+03  0.71792684113E+03  0.94459867935E+03  0.10100000352E+00 0.  1.
</event>
<event>
 5   0  0.4243281E-05  0.1399989E+04  0.7818609E-02  0.8953826E-01
       -2   -1    0    0    0  501  0.00000000000E+00  0.00000000000E+00  0.41568750247E+03  0.41568750248E+03  0.25500000920E-02 0.  1.
        2   -1    0    0  501    0  0.00000000000E+00  0.00000000000E+00 -0.11787519590E+04  0.11787519590E+04  0.25500000920E-02 0. -1.
    10030    2    1    2    0    0  0.00000000000E+00  0.00000000000E+00 -0.76306445652E+03  0.15944394615E+04  0.13999892255E+04 0.  0.
        2    1    3    3  502    0 -0.24592887572E+03 -0.53113801441E+03  0.55725770502E+02  0.58795745064E+03  0.25500000920E-02 0.  1.
       -2    1    3    3    0  502  0.24592887572E+03  0.53113801441E+03 -0.81879022702E+03  0.10064820108E+04  0.25500000920E-02 0. -1.
</event>
<event>
 5   0  0.2427569E-05  0.1400377E+04  0.7818609E-02  0.8953546E-01
       -1   -1    0    0    0  501  0.00000000000E+00  0.00000000000E+00  0.37138331897E+03  0.37138331901E+03  0.50400001928E-02 0. -1.
        1   -1    0    0  501    0  0.00000000000E+00  0.00000000000E+00 -0.13201015272E+04  0.13201015272E+04  0.50400001928E-02 0.  1.
    10030    2    1    2    0    0  0.00000000000E+00  0.00000000000E+00 -0.94871820819E+03  0.16914848462E+04  0.14003766444E+04 0.  0.
        1    1    3    3  502    0  0.21235955609E+03  0.37858260650E+03  0.18925149561E+03  0.47353722095E+03  0.50400001928E-02 0. -1.
       -1    1    3    3    0  502 -0.21235955609E+03 -0.37858260650E+03 -0.11379697038E+04  0.12179476252E+04  0.50400001928E-02 0.  1.
</event>
<event>
 5   0  0.4621450E-05  0.1400488E+04  0.7818609E-02  0.8953466E-01
       -2   -1    0    0    0  501  0.00000000000E+00  0.00000000000E+00  0.37223707464E+03  0.37223707465E+03  0.25500000920E-02 0.  1.
        2   -1    0    0  501    0  0.00000000000E+00  0.00000000000E+00 -0.13172823035E+04  0.13172823035E+04  0.25500000920E-02 0. -1.
    10030    2    1    2    0    0  0.00000000000E+00  0.00000000000E+00 -0.94504522884E+03  0.16895193781E+04  0.14004875025E+04 0.  0.
        5    1    3    3  502    0  0.32834406280E+03 -0.23838063737E+03 -0.11609881390E+04  0.12298580003E+04  0.46999998093E+01 0. -1.
       -5    1    3    3    0  502 -0.32834406280E+03  0.23838063737E+03  0.21594291019E+03  0.45966137787E+03  0.46999998093E+01 0.  1.
</event>
<event>
 5   0  0.4243281E-05  0.1398516E+04  0.7818609E-02  0.8954894E-01
        2   -1    0    0  501    0  0.00000000000E+00  0.00000000000E+00  0.33400037718E+03  0.33400037719E+03  0.25500000920E-02 0. -1.
       -2   -1    0    0    0  501  0.00000000000E+00  0.00000000000E+00 -0.14639547273E+04  0.14639547273E+04  0.25500000920E-02 0.  1.
    10030    2    1    2    0    0  0.00000000000E+00  0.00000000000E+00 -0.11299543501E+04  0.17979551045E+04  0.13985155431E+04 0.  0.
        2    1    3    3  502    0 -0.80744138648E+01  0.68898199690E+03 -0.71817633129E+03  0.99525807259E+03  0.25500000920E-02 0. -1.
       -2    1    3    3    0  502  0.80744138648E+01 -0.68898199690E+03 -0.41177801880E+03  0.80269703188E+03  0.25500000920E-02 0.  1.
</event>
<event>
 5   0  0.4621450E-05  0.1400143E+04  0.7818609E-02  0.8953715E-01
       -2   -1    0    0    0  501  0.00000000000E+00  0.00000000000E+00  0.24399461223E+03  0.24399461224E+03  0.25500000920E-02 0. -1.
        2   -1    0    0  501    0  0.00000000000E+00  0.00000000000E+00 -0.20086526992E+04  0.20086526992E+04  0.25500000920E-02 0.  1.
    10030    2    1    2    0    0  0.00000000000E+00  0.00000000000E+00 -0.17646580870E+04  0.22526473115E+04  0.14001434733E+04 0.  0.
        5    1    3    3  502    0  0.21192285991E+03  0.66713668066E+03 -0.86659028931E+03  0.11139943756E+04  0.46999998093E+01 0. -1.
       -5    1    3    3    0  502 -0.21192285991E+03 -0.66713668066E+03 -0.89806779769E+03  0.11386529359E+04  0.46999998093E+01 0.  1.
</event>
<event>
 5   0  0.2427569E-05  0.1399841E+04  0.7818609E-02  0.8953934E-01
        1   -1    0    0  501    0  0.00000000000E+00  0.00000000000E+00  0.12209178104E+04  0.12209178104E+04  0.50400001928E-02 0.  1.
       -1   -1    0    0    0  501  0.00000000000E+00  0.00000000000E+00 -0.40124604756E+03  0.40124604759E+03  0.50400001928E-02 0. -1.
    10030    2    1    2    0    0  0.00000000000E+00  0.00000000000E+00  0.81967176283E+03  0.16221638580E+04  0.13998406279E+04 0.  0.
        1    1    3    3  502    0  0.69846244276E+03  0.27103165455E+02  0.36798849932E+03  0.78993664377E+03  0.50400001928E-02 0. -1.
       -1    1    3    3    0  502 -0.69846244276E+03 -0.27103165455E+02  0.45168326351E+03  0.83222721422E+03  0.50400001928E-02 0.  1.
</event>
<event>
 5   0  0.4527503E-05  0.1399715E+04  0.7818609E-02  0.8954025E-01
        2   -1    0    0  501    0  0.00000000000E+00  0.00000000000E+00  0.12095040531E+04  0.12095040531E+04  0.25500000920E-02 0.  1.
       -2   -1    0    0    0  501  0.00000000000E+00  0.00000000000E+00 -0.40495987284E+03  0.40495987285E+03  0.25500000920E-02 0. -1.
    10030    2    1    2    0    0  0.00000000000E+00  0.00000000000E+00  0.80454418028E+03  0.16144639260E+04  0.13997151247E+04 0.  0.
        4    1    3    3  502    0  0.15811804905E+03 -0.44680437869E+03  0.99621620227E+03  0.11032152124E+04  0.12699999809E+01 0.  1.
       -4    1    3    3    0  502 -0.15811804905E+03  0.44680437869E+03 -0.19167202199E+03  0.51124871360E+03  0.12699999809E+01 0. -1.
</event>
<event>
 5   0  0.4441253E-05  0.1398951E+04  0.7818609E-02  0.8954578E-01
       -2   -1    0    0    0  501  0.00000000000E+00  0.00000000000E+00  0.38944283875E+03  0.38944283876E+03  0.25500000920E-02 0.  1.
        2   -1    0    0  501    0  0.00000000000E+00  0.00000000000E+00 -0.12563231468E+04  0.12563231468E+04  0.25500000920E-02 0. -1.
    10030    2    1    2    0    0  0.00000000000E+00  0.00000000000E+00 -0.86688030802E+03  0.16457659855E+04  0.13989511109E+04 0.  0.
        3    1    3    3  502    0  0.34061875786E+02  0.11932913849E+03  0.37638916690E+03  0.39631864684E+03  0.10100000352E+00 0.  1.
       -3    1    3    3    0  502 -0.34061875786E+02 -0.11932913849E+03 -0.12432694749E+04  0.12494473387E+04  0.10100000352E+00 0. -1.
</event>
<event>
 5   0  0.1661000E-05  0.1403036E+04  0.7818609E-02  0.8951624E-01
        4   -1    0    0  501    0  0.00000000000E+00  0.00000000000E+00  0.40755378180E+03  0.40755576055E+03  0.12699999809E+01 0.  1.
       -4   -1    0    0    0  501  0.00000000000E+00  0.00000000000E+00 -0.12075097512E+04  0.12075104191E+04  0.12699999809E+01 0. -1.
    10030    2    1    2    0    0  0.00000000000E+00  0.00000000000E+00 -0.79995596940E+03  0.16150661796E+04  0.14030357129E+04 0.  0.
        2    1    3    3  502    0 -0.57635507731E+03 -0.22269749602E+03 -0.78236552939E+03  0.99693288213E+03  0.25500000920E-02 0. -1.
       -2    1    3    3    0  502  0.57635507731E+03  0.22269749602E+03 -0.17590440005E+02  0.61813329749E+03  0.25500000920E-02 0.  1.
</event>
<event>
 5   0  0.4441253E-05  0.1400644E+04  0.7818609E-02  0.8953353E-01
        2   -1    0    0  501    0  0.00000000000E+00  0.00000000000E+00  0.10500444912E+04  0.10500444912E+04  0.25500000920E-02 0.  1.
       -2   -1    0    0    0  501  0.00000000000E+00  0.00000000000E+00 -0.46707606152E+03  0.46707606153E+03  0.25500000920E-02 0. -1.
    10030    2    1    2    0    0  0.00000000000E+00  0.00000000000E+00  0.58296842963E+03  0.15171205527E+04  0.14006436311E+04 0.  0.
        3    1    3    3  502    0  0.41862736862E+03  0.53668833178E+03  0.47001636974E+03  0.82716300525E+03  0.10100000352E+00 0.  1.
       -3    1    3    3    0  502 -0.41862736862E+03 -0.53668833178E+03  0.11295205989E+03  0.68995754744E+03  0.10100000352E+00 0. -1.
</event>
<event>
 5   0  0.2467303E-05  0.1399551E+04  0.7818609E-02  0.8954144E-01
       -1   -1    0    0    0  501  0.00000000000E+00  0.00000000000E+00  0.47286564467E+03  0.47286564470E+03  0.50400001928E-02 0.  1.
        1   -1    0    0  501    0  0.00000000000E+00  0.00000000000E+00 -0.10355706583E+04  0.10355706583E+04  0.50400001928E-02 0. -1.
    10030    2    1    2    0    0  0.00000000000E+00  0.00000000000E+00 -0.56270501363E+03  0.15084363030E+04  0.13995510523E+04 0.  0.
        3    1    3    3  502    0  0.16188000507E+03 -0.38065364208E+03 -0.88969735312E+03  0.98115428023E+03  0.10100000352E+00 0. -1.
       -3    1    3    3    0  502 -0.16188000507E+03  0.38065364208E+03  0.32699233948E+03  0.52728202278E+03  0.10100000352E+00 0.  1.
</event>
<event>
 5   0  0.2467303E-05  0.1399384E+04  0.7818609E-02  0.8954264E-01
        1   -1    0    0  501    0  0.00000000000E+00  0.00000000000E+00  0.94100032390E+03  0.94100032392E+03  0.50400001928E-02 0. -1.
       -1   -1    0    0    0  501  0.00000000000E+00  0.00000000000E+00 -0.52026444827E+03  0.52026444829E+03  0.50400001928E-02 0.  1.
    10030    2    1    2    0    0  0.00000000000E+00  0.00000000000E+00  0.42073587564E+03  0.14612647722E+04  0.13993841708E+04 0.  0.
        3    1    3    3  502    0  0.51909537900E+02  0.60306567127E+03 -0.15613122508E+03  0.62510780961E+03  0.10100000352E+00 0.  1.
       -3    1    3    3    0  502 -0.51909537900E+02 -0.60306567127E+03  0.57686710072E+03  0.83615696259E+03  0.10100000352E+00 0. -1.
</event>
<event>
 5   0  0.4527503E-05  0.1401354E+04  0.7818609E-02  0.8952839E-01
       -2   -1    0    0    0  501  0.00000000000E+00  0.00000000000E+00  0.77152502056E+03  0.77152502057E+03  0.25500000920E-02 0.  1.
        2   -1    0    0  501    0  0.00000000000E+00  0.00000000000E+00 -0.63633528726E+03  0.63633528727E+03  0.25500000920E-02 0. -1.
    10030    2    1    2    0    0  0.00000000000E+00  0.00000000000E+00  0.13518973330E+03  0.14078603078E+04  0.14013544813E+04 0.  0.
        4    1    3    3  502    0 -0.51562562121E+03  0.35500700031E+03 -0.24858391965E+03  0.67356909781E+03  0.12699999809E+01 0. -1.
       -4    1    3    3    0  502  0.51562562121E+03 -0.35500700031E+03  0.38377365295E+03  0.73429121002E+03  0.12699999809E+01 0.  1.
</event>
<event>
 5   0  0.2316714E-05  0.1400014E+04  0.7818609E-02  0.8953808E-01
        1   -1    0    0  501    0  0.00000000000E+00  0.00000000000E+00  0.15748133536E+04  0.15748133536E+04  0.50400001928E-02 0.  1.
       -1   -1    0    0    0  501  0.00000000000E+00  0.00000000000E+00 -0.31115438069E+03  0.31115438073E+03  0.50400001928E-02 0. -1.
    10030    2    1    2    0    0  0.00000000000E+00  0.00000000000E+00  0.12636589729E+04  0.18859677344E+04  0.14000143911E+04 0.  0.
        5    1    3    3  502    0  0.60532178394E+03  0.19419046938E+03  0.23709391648E+03  0.67849835353E+03  0.46999998093E+01 0. -1.
       -5    1    3    3    0  502 -0.60532178394E+03 -0.19419046938E+03  0.10265650564E+04  0.12074693808E+04  0.46999998093E+01 0.  1.
</event>
<event>
 5   0  0.1661000E-05  0.1399797E+04  0.7818609E-02  0.8953966E-01
        3   -1    0    0  501    0  0.00000000000E+00  0.00000000000E+00  0.27969814070E+03  0.27969815893E+03  0.10100000352E+00 0.  1.
       -3   -1    0    0    0  501  0.00000000000E+00  0.00000000000E+00 -0.17513794621E+04  0.17513794650E+04  0.10100000352E+00 0. -1.
    10030    2    1    2    0    0  0.00000000000E+00  0.00000000000E+00 -0.14716813214E+04  0.20310776239E+04  0.13997965576E+04 0.  0.
        1    1    3    3  502    0  0.35601835778E+02  0.40945522508E+03 -0.15578394462E+04  0.16111439452E+04  0.50400001928E-02 0. -1.
       -1    1    3    3    0  502 -0.35601835778E+02 -0.40945522508E+03  0.86158124778E+02  0.41993367875E+03  0.50400001928E-02 0.  1.
</event>
<event>
 5   0  0.2467303E-05  0.1400466E+04  0.7818609E-02  0.8953481E-01
       -1   -1    0    0    0  501  0.00000000000E+00  0.00000000000E+00  0.66256287158E+03  0.66256287160E+03  0.50400001928E-02 0.  1.
        1   -1    0    0  501    0  0.00000000000E+00  0.00000000000E+00 -0.74004462844E+03  0.74004462845E+03  0.50400001928E-02 0. -1.
    10030    2    1    2    0    0  0.00000000000E+00  0.00000000000E+00 -0.77481756861E+02  0.14026075001E+04  0.14004657713E+04 0.  0.
        3    1    3    3  502    0  0.28160397314E+03  0.56803158562E+02 -0.67830864823E+03  0.73663425727E+03  0.10100000352E+00 0. -1.
       -3    1    3    3    0  502 -0.28160397314E+03 -0.56803158562E+02  0.60082689137E+03  0.66597324278E+03  0.10100000352E+00 0.  1.
</event>
<event>
 5   0  0.1661000E-05  0.1400229E+04  0.7818609E-02  0.8953653E-01
       -3   -1    0    0    0  501  0.00000000000E+00  0.00000000000E+00  0.20488771205E+03  0.20488773695E+03  0.10100000352E+00 0. -1.
        3   -1    0    0  501    0  0.00000000000E+00  0.00000000000E+00 -0.23923356890E+04  0.23923356912E+04  0.10100000352E+00 0.  1.
    10030    2    1    2    0    0  0.00000000000E+00  0.00000000000E+00 -0.21874479770E+04  0.25972234281E+04  0.14002288683E+04 0.  0.
        2    1    3    3  502    0  0.77117915416E+02 -0.54646922696E+03 -0.29466092572E+03  0.62562037214E+03  0.25500000920E-02 0. -1.
       -2    1    3    3    0  502 -0.77117915416E+02  0.54646922696E+03 -0.18927870513E+04  0.19716030560E+04  0.25500000920E-02 0.  1.
</event>
<event>
 5   0  0.2467303E-05  0.1396013E+04  0.7818609E-02  0.8956709E-01
       -1   -1    0    0    0  501  0.00000000000E+00  0.00000000000E+00  0.32739629852E+03  0.32739629856E+03  0.50400001928E-02 0. -1.
        1   -1    0    0  501    0  0.00000000000E+00  0.00000000000E+00 -0.14881453894E+04  0.14881453894E+04  0.50400001928E-02 0.  1.
    10030    2    1    2    0    0  0.00000000000E+00  0.00000000000E+00 -0.11607490908E+04  0.18155416879E+04  0.13960133125E+04 0.  0.
        3    1    3    3  502    0  0.27034838648E+03  0.61401614822E+03 -0.32984585323E+03  0.74759773771E+03  0.10100000352E+00 0. -1.
       -3    1    3    3    0  502 -0.27034838648E+03 -0.61401614822E+03 -0.83090323761E+03  0.10679439502E+04  0.10100000352E+00 0.  1.
</event>
<event>
 5   0  0.4460282E-05  0.1401560E+04  0.7818609E-02  0.8952690E-01
        2   -1    0    0  501    0  0.00000000000E+00  0.00000000000E+00  0.19332840816E+04  0.19332840816E+04  0.25500000920E-02 0. -1.
       -2   -1    0    0    0  501  0.00000000000E+00  0.00000000000E+00 -0.25402006774E+03  0.25402006776E+03  0.25500000920E-02 0.  1.
    10030    2    1    2    0    0  0.00000000000E+00  0.00000000000E+00  0.16792640138E+04  0.21873041493E+04  0.14015604923E+04 0.  0.
        1    1    3    3  502    0  0.94716763803E+02 -0.42448081944E+03 -0.17911211682E+02  0.43528845947E+03  0.50400001928E-02 0.  1.
       -1    1    3    3    0  502 -0.94716763803E+02  0.42448081944E+03  0.16971752255E+04  0.17520156899E+04  0.50400001928E-02 0. -1.
</event>
<event>
 5   0  0.2363419E-05  0.1399974E+04  0.7818609E-02  0.8953837E-01
       -1   -1    0    0    0  501  0.00000000000E+00  0.00000000000E+00  0.35192473544E+03  0.35192473547E+03  0.50400001928E-02 0. -1.
        1   -1    0    0  501    0  0.00000000000E+00  0.00000000000E+00 -0.13922918999E+04  0.13922918999E+04  0.50400001928E-02 0.  1.
    10030    2    1    2    0    0  0.00000000000E+00  0.00000000000E+00 -0.10403671645E+04  0.17442166354E+04  0.13999742263E+04 0.  0.
        2    1    3    3  502    0 -0.66348356544E+03  0.21076137043E+03 -0.42904454845E+03  0.81774691772E+03  0.25500000920E-02 0.  1.
       -2    1    3    3    0  502  0.66348356544E+03 -0.21076137043E+03 -0.61132261601E+03  0.92646971765E+03  0.25500000920E-02 0. -1.
</event>
<event>
 5   0  0.2467303E-05  0.1399899E+04  0.7818609E-02  0.8953891E-01
        1   -1    0    0  501    0  0.00000000000E+00  0.00000000000E+00  0.32209614782E+03  0.32209614786E+03  0.50400001928E-02 0. -1.
       -1   -1    0    0    0  501  0.00000000000E+00  0.00000000000E+00 -0.15210663906E+04  0.15210663906E+04  0.50400001928E-02 0.  1.
    10030    2    1    2    0    0  0.00000000000E+00  0.00000000000E+00 -0.11989702427E+04  0.18431625384E+04  0.13998994607E+04 0.  0.
        3    1    3    3  502    0 -0.43885179581E+03  0.38992944844E+03 -0.11013539732E+04  0.12480450545E+04  0.10100000352E+00 0.  1.
       -3    1    3    3    0  502  0.43885179581E+03 -0.38992944844E+03 -0.97616269511E+02  0.59511748396E+03  0.10100000352E+00 0. -1.
</event>
<event>
 5   0  0.2363419E-05  0.1401750E+04  0.7818609E-02  0.8952553E-01
       -1   -1    0    0    0  501  0.00000000000E+00  0.00000000000E+00  0.25960381648E+03  0.25960381653E+03  0.50400001928E-02 0. -1.
        1   -1    0    0  501    0  0.00000000000E+00  0.00000000000E+00 -0.18922127957E+04  0.18922127957E+04  0.50400001928E-02 0.  1.
    10030    2    1    2    0    0  0.00000000000E+00  0.00000000000E+00 -0.16326089792E+04  0.21518166122E+04  0.14017498542E+04 0.  0.
        2    1    3    3  502    0  0.47447762428E+03 -0.16130027473E+03 -0.64141942579E+02  0.50523359288E+03  0.25500000920E-02 0. -1.
       -2    1    3    3    0  502 -0.47447762428E+03  0.16130027473E+03 -0.15684670366E+04  0.16465830193E+04  0.25500000920E-02 0.  1.
</event>
<event>
 5   0  0.2467303E-05  0.1399727E+04  0.7818609E-02  0.8954016E-01
        1   -1    0    0  501    0  0.00000000000E+00  0.00000000000E+00  0.44103814381E+03  0.44103814384E+03  0.50400001928E-02 0.  1.
       -1   -1    0    0    0  501  0.00000000000E+00  0.00000000000E+00 -0.11105825187E+04  0.11105825187E+04  0.50400001928E-02 0. -1.
    10030    2    1    2    0    0  0.00000000000E+00  0.00000000000E+00 -0.66954437490E+03  0.15516206626E+04  0.13997274772E+04 0.  0.
        3    1    3    3  502    0  0.37230978060E+03 -0.27109499200E+03  0.24938766635E+03  0.52373780248E+03  0.10100000352E+00 0.  1.
       -3    1    3    3    0  502 -0.37230978060E+03  0.27109499200E+03 -0.91893204125E+03  0.10278828601E+04  0.10100000352E+00 0. -1.
</event>
<event>
 5   0  0.4621450E-05  0.1400502E+04  0.7818609E-02  0.8953455E-01
        2   -1    0    0  501    0  0.00000000000E+00  0.00000000000E+00  0.23645475081E+04  0.23645475081E+04  0.25500000920E-02 0. -1.
       -2   -1    0    0    0  501  0.00000000000E+00  0.00000000000E+00 -0.20737652975E+03  0.20737652977E+03  0.25500000920E-02 0.  1.
    10030    2    1    2    0    0  0.00000000000E+00  0.00000000000E+00  0.21571709783E+04  0.25719240379E+04  0.14005022766E+04 0.  0.
        5    1    3    3  502    0  0.39514159555E+03 -0.38395010424E+03  0.28492694670E+03  0.62029026918E+03  0.46999998093E+01 0.  1.
       -5    1    3    3    0  502 -0.39514159555E+03  0.38395010424E+03  0.18722440316E+04  0.19516337687E+04  0.46999998093E+01 0. -1.
</event>
<event>
 5   0  0.4460282E-05  0.1401010E+04  0.7818609E-02  0.8953088E-01
       -2   -1    0    0    0  501  0.00000000000E+00  0.00000000000E+00  0.16350710635E+03  0.16350710637E+03  0.25500000920E-02 0. -1.
        2   -1    0    0  501    0  0.00000000000E+00  0.00000000000E+00 -0.30011354687E+04  0.30011354687E+04  0.25500000920E-02 0.  1.
    10030    2    1    2    0    0  0.00000000000E+00  0.00000000000E+00 -0.28376283624E+04  0.31646425751E+04  0.14010096021E+04 0.  0.
        1    1    3    3  502    0  0.36589247423E+02 -0.45635516932E+03 -0.22119075353E+03  0.50845271468E+03  0.50400001928E-02 0. -1.
       -1    1    3    3    0  502 -0.36589247423E+02  0.45635516932E+03 -0.26164376089E+04  0.26561898604E+04  0.50400001928E-02 0.  1.
</event>
<event>
 5   0  0.2427569E-05  0.1400693E+04  0.7818609E-02  0.8953317E-01
       -1   -1    0    0    0  501  0.00000000000E+00  0.00000000000E+00  0.90064497602E+03  0.90064497603E+03  0.50400001928E-02 0.  1.
        1   -1    0    0  501    0  0.00000000000E+00  0.00000000000E+00 -0.54459305674E+03  0.54459305677E+03  0.50400001928E-02 0. -1.
    10030    2    1    2    0    0  0.00000000000E+00  0.00000000000E+00  0.35605191927E+03  0.14452380328E+04  0.14006926866E+04 0.  0.
        1    1    3    3  502    0  0.30863514734E+03  0.34007684448E+03 -0.36754005416E+03  0.58821221150E+03  0.50400001928E-02 0. -1.
       -1    1    3    3    0  502 -0.30863514734E+03 -0.34007684448E+03  0.72359197343E+03  0.85702582129E+03  0.50400001928E-02 0.  1.
</event>
<event>
 5   0  0.4243281E-05  0.1399851E+04  0.7818609E-02  0.8953927E-01
       -2   -1    0    0    0  501  0.00000000000E+00  0.00000000000E+00  0.43399918401E+03  0.43399918401E+03  0.25500000920E-02 0. -1.
        2   -1    0    0  501    0  0.00000000000E+00  0.00000000000E+00 -0.11287933459E+04  0.11287933459E+04  0.25500000920E-02 0.  1.
    10030    2    1    2    0    0  0.00000000000E+00  0.00000000000E+00 -0.69479416192E+03  0.15627925299E+04  0.13998505507E+04 0.  0.
        2    1    3    3  502    0 -0.20641482738E+03 -0.65674828723E+03 -0.48847923299E+03  0.84411927759E+03  0.25500000920E-02 0. -1.
       -2    1    3    3    0  502  0.20641482738E+03  0.65674828723E+03 -0.20631492893E+03  0.71867325235E+03  0.25500000920E-02 0.  1.
</event>
<event>
 5   0  0.4621450E-05  0.1401795E+04  0.7818609E-02  0.8952520E-01
       -2   -1    0    0    0  501  0.00000000000E+00  0.00000000000E+00  0.50415539593E+03  0.50415539594E+03  0.25500000920E-02 0.  1.
        2   -1    0    0  501    0  0.00000000000E+00  0.00000000000E+00 -0.97441638077E+03  0.97441638078E+03  0.25500000920E-02 0. -1.
    10030    2    1    2    0    0  0.00000000000E+00  0.00000000000E+00 -0.47026098484E+03  0.14785717767E+04  0.14017949583E+04 0.  0.
        5    1    3    3  502    0 -0.62276089951E+03 -0.17273551239E+03 -0.52121737100E+03  0.83027605832E+03  0.46999998093E+01 0. -1.
       -5    1    3    3    0  502  0.62276089951E+03  0.17273551239E+03  0.50956386164E+02  0.64829571839E+03  0.46999998093E+01 0.  1.
</event>
<event>
 5   0  0.2363419E-05  0.1399723E+04  0.7818609E-02  0.8954019E-01
        1   -1    0    0  501    0  0.00000000000E+00  0.00000000000E+00  0.44041510935E+03  0.44041510937E+03  0.50400001928E-02 0.  1.
       -1   -1    0    0    0  501  0.00000000000E+00  0.00000000000E+00 -0.11121458573E+04  0.11121458573E+04  0.50400001928E-02 0. -1.
    10030    2    1    2    0    0  0.00000000000E+00  0.00000000000E+00 -0.67173074795E+03  0.15525609667E+04  0.13997226002E+04 0.  0.
        2    1    3    3  502    0  0.18998237625E+03  0.67351900410E+03 -0.34607278476E+03  0.78069681985E+03  0.25500000920E-02 0. -1.
       -2    1    3    3    0  502 -0.18998237625E+03 -0.67351900410E+03 -0.32565796319E+03  0.77186414683E+03  0.25500000920E-02 0.  1.
</event>
<event>
 5   0  0.4243281E-05  0.1399571E+04  0.7818609E-02  0.8954129E-01
       -2   -1    0    0    0  501  0.00000000000E+00  0.00000000000E+00  0.21558487892E+03  0.21558487894E+03  0.25500000920E-02 0.  1.
        2   -1    0    0  501    0  0.00000000000E+00  0.00000000000E+00 -0.22714942428E+04  0.22714942428E+04  0.25500000920E-02 0. -1.
    10030    2    1    2    0    0  0.00000000000E+00  0.00000000000E+00 -0.20559093639E+04  0.24870791217E+04  0.13995710933E+04 0.  0.
        2    1    3    3  502    0 -0.31857663108E+03  0.30322115900E+03 -0.19951970307E+04  0.20430969953E+04  0.25500000920E-02 0. -1.
       -2    1    3    3    0  502  0.31857663108E+03 -0.30322115900E+03 -0.60712333181E+02  0.44398212638E+03  0.25500000920E-02 0.  1.
</event>
<event>
 5   0  0.4441253E-05  0.1399925E+04  0.7818609E-02  0.8953873E-01
       -2   -1    0    0    0  501  0.00000000000E+00  0.00000000000E+00  0.31540665947E+03  0.31540665948E+03  0.25500000920E-02 0.  1.
        2   -1    0    0  501    0  0.00000000000E+00  0.00000000000E+00 -0.15533829024E+04  0.15533829025E+04  0.25500000920E-02 0. -1.
    10030    2    1    2    0    0  0.00000000000E+00  0.00000000000E+00 -0.12379762430E+04  0.18687895619E+04  0.13999247296E+04 0.  0.
        3    1    3    3  502    0 -0.48064875942E+03 -0.92719088197E+02  0.48909308221E+02  0.49194734463E+03  0.10100000352E+00 0. -1.
       -3    1    3    3    0  502  0.48064875942E+03  0.92719088197E+02 -0.12868855512E+04  0.13768422173E+04  0.10100000352E+00 0.  1.
</event>
<event>
 5   0  0.2316714E-05  0.1399910E+04  0.7818609E-02  0.8953884E-01
        1   -1    0    0  501    0  0.00000000000E+00  0.00000000000E+00  0.95973417528E+03  0.95973417529E+03  0.50400001928E-02 0. -1.
       -1   -1    0    0    0  501  0.00000000000E+00  0.00000000000E+00 -0.51049249967E+03  0.51049249969E+03  0.50400001928E-02 0.  1.
    10030    2    1    2    0    0  0.00000000000E+00  0.00000000000E+00  0.44924167561E+03  0.14702266750E+04  0.13999101374E+04 0.  0.
        5    1    3    3  502    0 -0.61949357127E+02 -0.44053597898E+02  0.95536958967E+03  0.95840053485E+03  0.46999998093E+01 0. -1.
       -5    1    3    3    0  502  0.61949357127E+02  0.44053597898E+02 -0.50612791406E+03  0.51182614013E+03  0.46999998093E+01 0.  1.
</event>
<event>
 5   0  0.2316714E-05  0.1401617E+04  0.7818609E-02  0.8952649E-01
        1   -1    0    0  501    0  0.00000000000E+00  0.00000000000E+00  0.10724959723E+04  0.10724959723E+04  0.50400001928E-02 0.  1.
       -1   -1    0    0    0  501  0.00000000000E+00  0.00000000000E+00 -0.45793432103E+03  0.45793432106E+03  0.50400001928E-02 0. -1.
    10030    2    1    2    0    0  0.00000000000E+00  0.00000000000E+00  0.61456165125E+03  0.15304302933E+04  0.14016172301E+04 0.  0.
        5    1    3    3  502    0  0.25294276972E+03  0.54881136946E+03 -0.80208919095E+02  0.60961424254E+03  0.46999998093E+01 0. -1.
       -5    1    3    3    0  502 -0.25294276972E+03 -0.54881136946E+03  0.69477057034E+03  0.92081605081E+03  0.46999998093E+01 0.  1.
</event>
<event>
 5   0  0.4460282E-05  0.1399925E+04  0.7818609E-02  0.8953873E-01
        2   -1    0    0  501    0  0.00000000000E+00  0.00000000000E+00  0.11699555944E+04  0.11699555944E+04  0.25500000920E-02 0.  1.
       -2   -1    0    0    0  501  0.00000000000E+00  0.00000000000E+00 -0.41877426525E+03  0.41877426526E+03  0.25500000920E-02 0. -1.
    10030    2    1    2    0    0  0.00000000000E+00  0.00000000000E+00  0.75118132913E+03  0.15887298596E+04  0.13999247043E+04 0.  0.
        1    1    3    3  502    0 -0.58168025028E+03  0.19182341492E+03  0.76010694490E+03  0.97617145204E+03  0.50400001928E-02 0.  1.
       -1    1    3    3    0  502  0.58168025028E+03 -0.19182341492E+03 -0.89256157717E+01  0.61255840759E+03  0.50400001928E-02 0. -1.
</event>
<event>
 5   0  0.2428507E-05  0.1400474E+04  0.7818609E-02  0.8953475E-01
       -1   -1    0    0    0  501  0.00000000000E+00  0.00000000000E+00  0.48363097297E+03  0.48363097299E+03  0.50400001928E-02 0. -1.
        1   -1    0    0  501    0  0.00000000000E+00  0.00000000000E+00 -0.10138559137E+04  0.10138559138E+04  0.50400001928E-02 0.  1.
    10030    2    1    2    0    0  0.00000000000E+00  0.00000000000E+00 -0.53022494078E+03  0.14974868867E+04  0.14004743797E+04 0.  0.
        4    1    3    3  502    0  0.32239494454E+03  0.62125307286E+03 -0.28745559044E+03  0.75665461749E+03  0.12699999809E+01 0. -1.
       -4    1    3    3    0  502 -0.32239494454E+03 -0.62125307286E+03 -0.24276935034E+03  0.74083226925E+03  0.12699999809E+01 0.  1.
</event>
<event>
 5   0  0.2363419E-05  0.1400372E+04  0.7818609E-02  0.8953550E-01
        1   -1    0    0  501    0  0.00000000000E+00  0.00000000000E+00  0.81527026818E+03  0.81527026819E+03  0.50400001928E-02 0.  1.
       -1   -1    0    0    0  501  0.00000000000E+00  0.00000000000E+00 -0.60134677480E+03  0.60134677482E+03  0.50400001928E-02 0. -1.
    10030    2    1    2    0    0  0.00000000000E+00  0.00000000000E+00  0.21392349338E+03  0.14166170430E+04  0.14003715884E+04 0.  0.
        2    1    3    3  502    0  0.12343952079E+03 -0.19882458390E+03  0.77453521911E+03  0.80911886401E+03  0.25500000920E-02 0.  1.
       -2    1    3    3    0  502 -0.12343952079E+03  0.19882458390E+03 -0.56061172573E+03  0.60749817900E+03  0.25500000920E-02 0. -1.
</event>
<event>
 5   0  0.4527503E-05  0.1399980E+04  0.7818609E-02  0.8953833E-01
       -2   -1    0    0    0  501  0.00000000000E+00  0.00000000000E+00  0.27769079217E+03  0.27769079219E+03  0.25500000920E-02 0. -1.
        2   -1    0    0  501    0  0.00000000000E+00  0.00000000000E+00 -0.17645013037E+04  0.17645013037E+04  0.25500000920E-02 0.  1.
    10030    2    1    2    0    0  0.00000000000E+00  0.00000000000E+00 -0.14868105115E+04  0.20421920959E+04  0.13999796639E+04 0.  0.
        4    1    3    3  502    0  0.92816928440E+02  0.68576778848E+03 -0.89703457888E+03  0.11329453167E+04  0.12699999809E+01 0.  1.
       -4    1    3    3    0  502 -0.92816928440E+02 -0.68576778848E+03 -0.58977593267E+03  0.90924677925E+03  0.12699999809E+01 0. -1.
</event>
<event>
 5   0  0.4243281E-05  0.1399800E+04  0.7818609E-02  0.8953963E-01
       -2   -1    0    0    0  501  0.00000000000E+00  0.00000000000E+00  0.23062999185E+03  0.23062999187E+03  0.25500000920E-02 0.  1.
        2   -1    0    0  501    0  0.00000000000E+00  0.00000000000E+00 -0.21240084509E+04  0.21240084509E+04  0.25500000920E-02 0. -1.
    10030    2    1    2    0    0  0.00000000000E+00  0.00000000000E+00 -0.18933784590E+04  0.23546384428E+04  0.13998000596E+04 0.  0.
        2    1    3    3  502    0 -0.19720384163E+03 -0.38167598001E+03 -0.18761208822E+04  0.19246806159E+04  0.25500000920E-02 0. -1.
       -2    1    3    3    0  502  0.19720384163E+03  0.38167598001E+03 -0.17257576859E+02  0.42995782681E+03  0.25500000920E-02 0.  1.
</event>
<event>
 5   0  0.4621450E-05  0.1400145E+04  0.7818609E-02  0.8953714E-01
        2   -1    0    0  501    0  0.00000000000E+00  0.00000000000E+00  0.85447894879E+03  0.85447894879E+03  0.25500000920E-02 0. -1.
       -2   -1    0    0    0  501  0.00000000000E+00  0.00000000000E+00 -0.57356751954E+03  0.57356751955E+03  0.25500000920E-02 0.  1.
    10030    2    1    2    0    0  0.00000000000E+00  0.00000000000E+00  0.28091142925E+03  0.14280464683E+04  0.14001448085E+04 0.  0.
        5    1    3    3  502    0 -0.15870678727E+03  0.41603450158E+03 -0.41050043802E+03  0.60564449179E+03  0.46999998093E+01 0.  1.
       -5    1    3    3    0  502  0.15870678727E+03 -0.41603450158E+03  0.69141186727E+03  0.82240197655E+03  0.46999998093E+01 0. -1.
</event>
<event>
 5   0  0.1661000E-05  0.1399895E+04  0.7818609E-02  0.8953894E-01
       -4   -1    0    0    0  501  0.00000000000E+00  0.00000000000E+00  0.45916575408E+03  0.45916751041E+03  0.12699999809E+01 0. -1.
        4   -1    0    0  501    0  0.00000000000E+00  0.00000000000E+00 -0.10669892563E+04  0.10669900121E+04  0.12699999809E+01 0.  1.
    10030    2    1    2    0    0  0.00000000000E+00  0.00000000000E+00 -0.60782350225E+03  0.15261575226E+04  0.13998954867E+04 0.  0.
        5    1    3    3  502    0 -0.51447294011E+03 -0.24206799537E+03  0.14110298644E+03  0.58584252430E+03  0.46999998093E+01 0. -1.
       -5    1    3    3    0  502  0.51447294011E+03  0.24206799537E+03 -0.74892648869E+03  0.94031499826E+03  0.46999998093E+01 0.  1.
</event>
<event>
 5   0  0.4527503E-05  0.1400084E+04  0.7818609E-02  0.8953758E-01
        2   -1    0    0  501    0  0.00000000000E+00  0.00000000000E+00  0.64611447767E+03  0.64611447768E+03  0.25500000920E-02 0.  1.
       -2   -1    0    0    0  501  0.00000000000E+00  0.00000000000E+00 -0.75847027422E+03  0.75847027422E+03  0.25500000920E-02 0. -1.
    10030    2    1    2    0    0  0.00000000000E+00  0.00000000000E+00 -0.11235579655E+03  0.14045847519E+04  0.14000837476E+04 0.  0.
        4    1    3    3  502    0 -0.23574384422E+03 -0.50879342738E+03  0.36422908096E+03  0.66866310512E+03  0.12699999809E+01 0.  1.
       -4    1    3    3    0  502  0.23574384422E+03  0.50879342738E+03 -0.47658487750E+03  0.73592164678E+03  0.12699999809E+01 0. -1.
</event>
<event>
 5   0  0.4441253E-05  0.1400270E+04  0.7818609E-02  0.8953623E-01
        2   -1    0    0  501    0  0.00000000000E+00  0.00000000000E+00  0.12171674564E+04  0.12171674564E+04  0.25500000920E-02 0.  1.
       -2   -1    0    0    0  501  0.00000000000E+00  0.00000000000E+00 -0.40272912646E+03  0.40272912647E+03  0.25500000920E-02 0. -1.
    10030    2    1    2    0    0  0.00000000000E+00  0.00000000000E+00  0.81443832991E+03  0.16198965828E+04  0.14002696690E+04 0.  0.
        3    1    3    3  502    0  0.61421857944E+03  0.31819628475E+03  0.28221853965E+03  0.74710150133E+03  0.10100000352E+00 0. -1.
       -3    1    3    3    0  502 -0.61421857944E+03 -0.31819628475E+03  0.53221979026E+03  0.87279508151E+03  0.10100000352E+00 0.  1.
</event>
<event>
 5   0  0.2467303E-05  0.1399339E+04  0.7818609E-02  0.8954297E-01
        1   -1    0    0  501    0  0.00000000000E+00  0.00000000000E+00  0.51119578225E+03  0.51119578228E+03  0.50400001928E-02 0.  1.
       -1   -1    0    0    0  501  0.00000000000E+00  0.00000000000E+00 -0.95763240512E+03  0.95763240513E+03  0.50400001928E-02 0. -1.
    10030    2    1    2    0    0  0.00000000000E+00  0.00000000000E+00 -0.44643662287E+03  0.14688281874E+04  0.13993393391E+04 0.  0.
        3    1    3    3  502    0 -0.60856057464E+03  0.35267858809E+02  0.13727146565E+03  0.62484658946E+03  0.10100000352E+00 0.  1.
       -3    1    3    3    0  502  0.60856057464E+03 -0.35267858809E+02 -0.58370808852E+03  0.84398159795E+03  0.10100000352E+00 0. -1.
</event>
<event>
 5   0  0.4441253E-05  0.1401989E+04  0.7818609E-02  0.8952380E-01
        2   -1    0    0  501    0  0.00000000000E+00  0.00000000000E+00  0.11941797335E+04  0.11941797335E+04  0.25500000920E-02 0.  1.
       -2   -1    0    0    0  501  0.00000000000E+00  0.00000000000E+00 -0.41149022014E+03  0.41149022015E+03  0.25500000920E-02 0. -1.
    10030    2    1    2    0    0  0.00000000000E+00  0.00000000000E+00  0.78268951339E+03  0.16056699537E+04  0.14019889892E+04 0.  0.
        3    1    3    3  502    0  0.26666304526E+02 -0.46614883657E+03  0.99017118393E+03  0.10947350425E+04  0.10100000352E+00 0.  1.
       -3    1    3    3    0  502 -0.26666304526E+02  0.46614883657E+03 -0.20748167054E+03  0.51093491116E+03  0.10100000352E+00 0. -1.
</event>
<event>
 5   0  0.2363419E-05  0.1401711E+04  0.7818609E-02  0.8952581E-01
       -1   -1    0    0    0  501  0.00000000000E+00  0.00000000000E+00  0.82349533582E+03  0.82349533583E+03  0.50400001928E-02 0. -1.
        1   -1    0    0  501    0  0.00000000000E+00  0.00000000000E+00 -0.59647949497E+03  0.59647949499E+03  0.50400001928E-02 0.  1.
    10030    2    1    2    0    0  0.00000000000E+00  0.00000000000E+00  0.22701584085E+03  0.14199748308E+04  0.14017105008E+04 0.  0.
        2    1    3    3  502    0 -0.16635145071E+03 -0.51036435447E+03  0.56999402517E+03  0.78296728425E+03  0.25500000920E-02 0. -1.
       -2    1    3    3    0  502  0.16635145071E+03  0.51036435447E+03 -0.34297818432E+03  0.63700754658E+03  0.25500000920E-02 0.  1.
</event>
<event>
 5   0  0.2427569E-05  0.1399577E+04  0.7818609E-02  0.8954125E-01
        1   -1    0    0  501    0  0.00000000000E+00  0.00000000000E+00  0.87756814888E+03  0.87756814889E+03  0.50400001928E-02 0.  1.
       -1   -1    0    0    0  501  0.00000000000E+00  0.00000000000E+00 -0.55802398988E+03  0.55802398990E+03  0.50400001928E-02 0. -1.
    10030    2    1    2    0    0  0.00000000000E+00  0.00000000000E+00  0.31954415900E+03  0.14355921388E+04  0.13995771931E+04 0.  0.
        1    1    3    3  502    0 -0.30364338245E+03  0.61194241948E+03  0.41063603690E+01  0.68314690271E+03  0.50400001928E-02 0.  1.
       -1    1    3    3    0  502  0.30364338245E+03 -0.61194241948E+03  0.31543779863E+03  0.75244523608E+03  0.50400001928E-02 0. -1.
</event>
<event>
 5   0  0.4527503E-05  0.1400834E+04  0.7818609E-02  0.8953215E-01
       -2   -1    0    0    0  501  0.00000000000E+00  0.00000000000E+00  0.52621246423E+03  0.52621246423E+03  0.25500000920E-02 0. -1.
        2   -1    0    0  501    0  0.00000000000E+00  0.00000000000E+00 -0.93229257504E+03  0.93229257504E+03  0.25500000920E-02 0.  1.
    10030    2    1    2    0    0  0.00000000000E+00  0.00000000000E+00 -0.40608011081E+03  0.14585050393E+04  0.14008339992E+04 0.  0.
        4    1    3    3  502    0 -0.26435771903E+03  0.48517642428E+03 -0.65122820486E+03  0.85403802843E+03  0.12699999809E+01 0. -1.
       -4    1    3    3    0  502  0.26435771903E+03 -0.48517642428E+03  0.24514809406E+03  0.60446701085E+03  0.12699999809E+01 0.  1.
</event>
<event>
 5   0  0.4527503E-05  0.1399376E+04  0.7818609E-02  0.8954270E-01
        2   -1    0    0  501    0  0.00000000000E+00  0.00000000000E+00  0.17878390124E+04  0.17878390124E+04  0.25500000920E-02 0. -1.
       -2   -1    0    0    0  501  0.00000000000E+00  0.00000000000E+00 -0.27382966101E+03  0.27382966103E+03  0.25500000920E-02 0.  1.
    10030    2    1    2    0    0  0.00000000000E+00  0.00000000000E+00  0.15140093514E+04  0.20616686734E+04  0.13993760763E+04 0.  0.
        4    1    3    3  502    0 -0.48721020223E+03 -0.43110889717E+03  0.11364502517E+04  0.13094844214E+04  0.12699999809E+01 0. -1.
       -4    1    3    3    0  502  0.48721020223E+03  0.43110889717E+03  0.37755909971E+03  0.75218425206E+03  0.12699999809E+01 0.  1.
</event>
<event>
 5   0  0.4527503E-05  0.1400156E+04  0.7818609E-02  0.8953706E-01
       -2   -1    0    0    0  501  0.00000000000E+00  0.00000000000E+00  0.25261318989E+03  0.25261318990E+03  0.25500000920E-02 0. -1.
        2   -1    0    0  501    0  0.00000000000E+00  0.00000000000E+00 -0.19401565515E+04  0.19401565516E+04  0.25500000920E-02 0.  1.
    10030    2    1    2    0    0  0.00000000000E+00  0.00000000000E+00 -0.16875433617E+04  0.21927697415E+04  0.14001558990E+04 0.  0.
        4    1    3    3  502    0 -0.20062829216E+03 -0.31358569892E+03  0.84748920430E+02  0.38180059533E+03  0.12699999809E+01 0. -1.
       -4    1    3    3    0  502  0.20062829216E+03  0.31358569892E+03 -0.17722922821E+04  0.18109691461E+04  0.12699999809E+01 0.  1.
</event>
<event>
 5   0  0.1661000E-05  0.1399760E+04  0.7818609E-02  0.8953992E-01
        3   -1    0    0  501    0  0.00000000000E+00  0.00000000000E+00  0.12124728357E+04  0.12124728399E+04  0.10100000352E+00 0.  1.
       -3   -1    0    0    0  501  0.00000000000E+00  0.00000000000E+00 -0.40399442306E+03  0.40399443569E+03  0.10100000352E+00 0. -1.
    10030    2    1    2    0    0  0.00000000000E+00  0.00000000000E+00  0.80847841260E+03  0.16164672756E+04  0.13997603757E+04 0.  0.
        3    1    3    3  502    0 -0.69062463721E+03  0.57823724044E+02  0.29152589094E+03  0.75185991240E+03  0.10100000352E+00 0. -1.
       -3    1    3    3    0  502  0.69062463721E+03 -0.57823724044E+02  0.51695252165E+03  0.86460736316E+03  0.10100000352E+00 0.  1.
</event>
<event>
 5   0  0.2427569E-05  0.1401113E+04  0.7818609E-02  0.8953013E-01
       -1   -1    0    0    0  501  0.00000000000E+00  0.00000000000E+00  0.93312905398E+03  0.93312905399E+03  0.50400001928E-02 0.  1.
        1   -1    0    0  501    0  0.00000000000E+00  0.00000000000E+00 -0.52595039650E+03  0.52595039653E+03  0.50400001928E-02 0. -1.
    10030    2    1    2    0    0  0.00000000000E+00  0.00000000000E+00  0.40717865747E+03  0.14590794505E+04  0.14011132659E+04 0.  0.
        1    1    3    3  502    0  0.67691613065E+03  0.16559805392E+02  0.39071750547E+03  0.78176073334E+03  0.50400001928E-02 0.  1.
       -1    1    3    3    0  502 -0.67691613065E+03 -0.16559805392E+02  0.16461152005E+02  0.67731871718E+03  0.50400001928E-02 0. -1.
</event>
<event>
 5   0  0.1661000E-05  0.1399746E+04  0.7818609E-02  0.8954003E-01
       -3   -1    0    0    0  501  0.00000000000E+00  0.00000000000E+00  0.45890722133E+03  0.45890723245E+03  0.10100000352E+00 0. -1.
        3   -1    0    0  501    0  0.00000000000E+00  0.00000000000E+00 -0.10673663051E+04  0.10673663099E+04  0.10100000352E+00 0.  1.
    10030    2    1    2    0    0  0.00000000000E+00  0.00000000000E+00 -0.60845908379E+03  0.15262735423E+04  0.13997458589E+04 0.  0.
        3    1    3    3  502    0  0.38794730615E+03 -0.16287162199E+03  0.30560340615E+03  0.52002281647E+03  0.10100000352E+00 0. -1.
       -3    1    3    3    0  502 -0.38794730615E+03  0.16287162199E+03 -0.91406248994E+03  0.10062507259E+04  0.10100000352E+00 0.  1.
</event>
<event>
 5   0  0.4441253E-05  0.1400313E+04  0.7818609E-02  0.8953592E-01
        2   -1    0    0  501    0  0.00000000000E+00  0.00000000000E+00  0.13661944756E+04  0.13661944756E+04  0.25500000920E-02 0.  1.
       -2   -1    0    0    0  501  0.00000000000E+00  0.00000000000E+00 -0.35882092295E+03  0.35882092296E+03  0.25500000920E-02 0. -1.
    10030    2    1    2    0    0  0.00000000000E+00  0.00000000000E+00  0.10073735526E+04  0.17250153985E+04  0.14003130545E+04 0.  0.
        3    1    3    3  502    0 -0.15527385122E+03 -0.32709637962E+03  0.12419069458E+04  0.12936131116E+04  0.10100000352E+00 0.  1.
       -3    1    3    3    0  502  0.15527385122E+03  0.32709637962E+03 -0.23453339315E+03  0.43140228689E+03  0.10100000352E+00 0. -1.
</event>
<event>
 5   0  0.4460282E-05  0.1399757E+04  0.7818609E-02  0.8953994E-01
       -2   -1    0    0    0  501  0.00000000000E+00  0.00000000000E+00  0.30388977633E+03  0.30388977634E+03  0.25500000920E-02 0. -1.
        2   -1    0    0  501    0  0.00000000000E+00  0.00000000000E+00 -0.16118673775E+04  0.16118673775E+04  0.25500000920E-02 0.  1.
    10030    2    1    2    0    0  0.00000000000E+00  0.00000000000E+00 -0.13079776012E+04  0.19157571538E+04  0.13997571458E+04 0.  0.
        1    1    3    3  502    0  0.61908828767E+03  0.25613532928E+03 -0.37701540391E+03  0.76877579933E+03  0.50400001928E-02 0. -1.
       -1    1    3    3    0  502 -0.61908828767E+03 -0.25613532928E+03 -0.93096219726E+03  0.11469813545E+04  0.50400001928E-02 0.  1.
</event>
<event>
 5   0  0.2363419E-05  0.1400095E+04  0.7818609E-02  0.8953750E-01
        1   -1    0    0  501    0  0.00000000000E+00  0.00000000000E+00  0.78232766890E+03  0.78232766892E+03  0.50400001928E-02 0.  1.
       -1   -1    0    0    0  501  0.00000000000E+00  0.00000000000E+00 -0.62642079913E+03  0.62642079915E+03  0.50400001928E-02 0. -1.
    10030    2    1    2    0    0  0.00000000000E+00  0.00000000000E+00  0.15590686977E+03  0.14087484681E+04  0.14000947447E+04 0.  0.
        2    1    3    3  502    0 -0.36780109550E+03  0.34860190540E+03 -0.40800730417E+03  0.65059272557E+03  0.25500000920E-02 0. -1.
       -2    1    3    3    0  502  0.36780109550E+03 -0.34860190540E+03  0.56391417394E+03  0.75815574250E+03  0.25500000920E-02 0.  1.
</event>
<event>
 5   0  0.2427569E-05  0.1399875E+04  0.7818609E-02  0.8953909E-01
       -1   -1    0    0    0  501  0.00000000000E+00  0.00000000000E+00  0.28152756057E+03  0.28152756061E+03  0.50400001928E-02 0.  1.
        1   -1    0    0  501    0  0.00000000000E+00  0.00000000000E+00 -0.17401936346E+04  0.17401936346E+04  0.50400001928E-02 0. -1.
    10030    2    1    2    0    0  0.00000000000E+00  0.00000000000E+00 -0.14586660740E+04  0.20217211952E+04  0.13998749500E+04 0.  0.
        1    1    3    3  502    0 -0.23129905145E+01  0.13697511435E+03 -0.17206425783E+04  0.17260876032E+04  0.50400001928E-02 0. -1.
       -1    1    3    3    0  502  0.23129905145E+01 -0.13697511435E+03  0.26197650426E+03  0.29563359195E+03  0.50400001928E-02 0.  1.
</event>
<event>
 5   0  0.2363419E-05  0.1398524E+04  0.7818609E-02  0.8954888E-01
       -1   -1    0    0    0  501  0.00000000000E+00  0.00000000000E+00  0.43612082825E+03  0.43612082828E+03  0.50400001928E-02 0.  1.
        1   -1    0    0  501    0  0.00000000000E+00  0.00000000000E+00 -0.11211734267E+04  0.11211734267E+04  0.50400001928E-02 0. -1.
    10030    2    1    2    0    0  0.00000000000E+00  0.00000000000E+00 -0.68505259846E+03  0.15572942550E+04  0.13985236265E+04 0.  0.
        2    1    3    3  502    0 -0.16893743633E+03 -0.67454192543E+03 -0.42450805602E+03  0.81471084207E+03  0.25500000920E-02 0. -1.
       -2    1    3    3    0  502  0.16893743633E+03  0.67454192543E+03 -0.26054454244E+03  0.74258341293E+03  0.25500000920E-02 0.  1.
</event>
<event>
 5   0  0.4441253E-05  0.1400120E+04  0.7818609E-02  0.8953731E-01
       -2   -1    0    0    0  501  0.00000000000E+00  0.00000000000E+00  0.90453851113E+03  0.90453851113E+03  0.25500000920E-02 0. -1.
        2   -1    0    0  501    0  0.00000000000E+00  0.00000000000E+00 -0.54180583384E+03  0.54180583384E+03  0.25500000920E-02 0.  1.
    10030    2    1    2    0    0  0.00000000000E+00  0.00000000000E+00  0.36273267729E+03  0.14463443450E+04  0.14001203409E+04 0.  0.
        3    1    3    3  502    0 -0.54426365172E+02  0.55630133043E+03 -0.25403520100E+03  0.61397662253E+03  0.10100000352E+00 0.  1.
       -3    1    3    3    0  502  0.54426365172E+02 -0.55630133043E+03  0.61676787829E+03  0.83236772244E+03  0.10100000352E+00 0. -1.
</event>
<event>
 5   0  0.2363419E-05  0.1399334E+04  0.7818609E-02  0.8954301E-01
       -1   -1    0    0    0  501  0.00000000000E+00  0.00000000000E+00  0.32375802489E+03  0.32375802493E+03  0.50400001928E-02 0.  1.
        1   -1    0    0  501    0  0.00000000000E+00  0.00000000000E+00 -0.15120363377E+04  0.15120363377E+04  0.50400001928E-02 0. -1.
    10030    2    1    2    0    0  0.00000000000E+00  0.00000000000E+00 -0.11882783128E+04  0.18357943626E+04  0.13993339820E+04 0.  0.
        2    1    3    3  502    0  0.20771471965E+03  0.56208551924E+03 -0.12030979683E+03  0.61119553575E+03  0.25500000920E-02 0.  1.
       -2    1    3    3    0  502 -0.20771471965E+03 -0.56208551924E+03 -0.10679685160E+04  0.12245988269E+04  0.25500000920E-02 0. -1.
</event>
<event>
 5   0  0.4243281E-05  0.1399828E+04  0.7818609E-02  0.8953943E-01
       -2   -1    0    0    0  501  0.00000000000E+00  0.00000000000E+00  0.82453257647E+03  0.82453257648E+03  0.25500000920E-02 0. -1.
        2   -1    0    0  501    0  0.00000000000E+00  0.00000000000E+00 -0.59412982623E+03  0.59412982623E+03  0.25500000920E-02 0.  1.
    10030    2    1    2    0    0  0.00000000000E+00  0.00000000000E+00  0.23040275024E+03  0.14186624027E+04  0.13998276985E+04 0.  0.
        2    1    3    3  502    0 -0.28821418560E+03 -0.42803126298E+03 -0.36402593384E+03  0.63150064084E+03  0.25500000920E-02 0.  1.
       -2    1    3    3    0  502  0.28821418560E+03  0.42803126298E+03  0.59442868408E+03  0.78716176186E+03  0.25500000920E-02 0. -1.
</event>
<event>
 5   0  0.2467303E-05  0.1400662E+04  0.7818609E-02  0.8953340E-01
        1   -1    0    0  501    0  0.00000000000E+00  0.00000000000E+00  0.70574391222E+03  0.70574391224E+03  0.50400001928E-02 0. -1.
       -1   -1    0    0    0  501  0.00000000000E+00  0.00000000000E+00 -0.69495946061E+03  0.69495946063E+03  0.50400001928E-02 0.  1.
    10030    2    1    2    0    0  0.00000000000E+00  0.00000000000E+00  0.10784451611E+02  0.14007033729E+04  0.14006618558E+04 0.  0.
        3    1    3    3  502    0  0.15008287781E+03  0.15367554448E+03  0.67198707722E+03  0.70548400785E+03  0.10100000352E+00 0. -1.
       -3    1    3    3    0  502 -0.15008287781E+03 -0.15367554448E+03 -0.66120262561E+03  0.69521936502E+03  0.10100000352E+00 0.  1.
</event>
<event>
 5   0  0.2427569E-05  0.1400570E+04  0.7818609E-02  0.8953406E-01
        1   -1    0    0  501    0  0.00000000000E+00  0.00000000000E+00  0.12312896780E+04  0.12312896780E+04  0.50400001928E-02 0.  1.
       -1   -1    0    0    0  501  0.00000000000E+00  0.00000000000E+00 -0.39828098801E+03  0.39828098804E+03  0.50400001928E-02 0. -1.
    10030    2    1    2    0    0  0.00000000000E+00  0.00000000000E+00  0.83300868997E+03  0.16295706660E+04  0.14005702689E+04 0.  0.
        1    1    3    3  502    0 -0.71859410136E+01  0.29042221644E+03 -0.32486169041E+03  0.43581167890E+03  0.50400001928E-02 0. -1.
       -1    1    3    3    0  502  0.71859410136E+01 -0.29042221644E+03  0.11578703804E+04  0.11937589871E+04  0.50400001928E-02 0.  1.
</event>
<event>
 5   0  0.4527503E-05  0.1399857E+04  0.7818609E-02  0.8953922E-01
       -2   -1    0    0    0  501  0.00000000000E+00  0.00000000000E+00  0.55918690437E+03  0.55918690437E+03  0.25500000920E-02 0.  1.
        2   -1    0    0  501    0  0.00000000000E+00  0.00000000000E+00 -0.87609312330E+03  0.87609312330E+03  0.25500000920E-02 0. -1.
    10030    2    1    2    0    0  0.00000000000E+00  0.00000000000E+00 -0.31690621893E+03  0.14352800277E+04  0.13998568521E+04 0.  0.
        4    1    3    3  502    0 -0.37833192127E+03  0.52459876531E+03 -0.43272796793E+03  0.77819921251E+03  0.12699999809E+01 0. -1.
       -4    1    3    3    0  502  0.37833192127E+03 -0.52459876531E+03  0.11582174900E+03  0.65708081517E+03  0.12699999809E+01 0.  1.
</event>
<event>
 5   0  0.4621450E-05  0.1400377E+04  0.7818609E-02  0.8953546E-01
       -2   -1    0    0    0  501  0.00000000000E+00  0.00000000000E+00  0.79500638270E+03  0.79500638270E+03  0.25500000920E-02 0. -1.
        2   -1    0    0  501    0  0.00000000000E+00  0.00000000000E+00 -0.61667933600E+03  0.61667933600E+03  0.25500000920E-02 0.  1.
    10030    2    1    2    0    0  0.00000000000E+00  0.00000000000E+00  0.17832704670E+03  0.14116857187E+04  0.14003771038E+04 0.  0.
        5    1    3    3  502    0 -0.34385965504E+03 -0.12412301447E+03 -0.51281529857E+03  0.62979965507E+03  0.46999998093E+01 0.  1.
       -5    1    3    3    0  502  0.34385965504E+03  0.12412301447E+03  0.69114234527E+03  0.78188606364E+03  0.46999998093E+01 0. -1.
</event>
<event>
 5   0  0.2363419E-05  0.1403228E+04  0.7818609E-02  0.8951485E-01
       -1   -1    0    0    0  501  0.00000000000E+00  0.00000000000E+00  0.72206964507E+03  0.72206964508E+03  0.50400001928E-02 0. -1.
        1   -1    0    0  501    0  0.00000000000E+00  0.00000000000E+00 -0.68173783433E+03  0.68173783435E+03  0.50400001928E-02 0.  1.
    10030    2    1    2    0    0  0.00000000000E+00  0.00000000000E+00  0.40331810736E+02  0.14038074794E+04  0.14032279873E+04 0.  0.
        2    1    3    3  502    0  0.12273677562E+03 -0.67496974334E+03 -0.12691088045E+03  0.69767817946E+03  0.25500000920E-02 0.  1.
       -2    1    3    3    0  502 -0.12273677562E+03  0.67496974334E+03  0.16724269118E+03  0.70612929997E+03  0.25500000920E-02 0. -1.
</event>
<event>
 5   0  0.2363419E-05  0.1399853E+04  0.7818609E-02  0.8953925E-01
        1   -1    0    0  501    0  0.00000000000E+00  0.00000000000E+00  0.12535809183E+04  0.12535809183E+04  0.50400001928E-02 0.  1.
       -1   -1    0    0    0  501  0.00000000000E+00  0.00000000000E+00 -0.39079809971E+03  0.39079809974E+03  0.50400001928E-02 0. -1.
    10030    2    1    2    0    0  0.00000000000E+00  0.00000000000E+00  0.86278281856E+03  0.16443790180E+04  0.13998529076E+04 0.  0.
        2    1    3    3  502    0  0.12424481471E+03  0.41848963790E+03 -0.21128483096E+03  0.48498621713E+03  0.25500000920E-02 0. -1.
       -2    1    3    3    0  502 -0.12424481471E+03 -0.41848963790E+03  0.10740676495E+04  0.11593928009E+04  0.25500000920E-02 0.  1.
</event>
<event>
 5   0  0.2427569E-05  0.1400466E+04  0.7818609E-02  0.8953482E-01
        1   -1    0    0  501    0  0.00000000000E+00  0.00000000000E+00  0.17440115287E+04  0.17440115287E+04  0.50400001928E-02 0. -1.
       -1   -1    0    0    0  501  0.00000000000E+00  0.00000000000E+00 -0.28114837587E+03  0.28114837592E+03  0.50400001928E-02 0.  1.
    10030    2    1    2    0    0  0.00000000000E+00  0.00000000000E+00  0.14628631529E+04  0.20251599047E+04  0.14004656495E+04 0.  0.
        1    1    3    3  502    0 -0.38526745465E+03 -0.34732952207E+02  0.15754767144E+04  0.16222713297E+04  0.50400001928E-02 0. -1.
       -1    1    3    3    0  502  0.38526745465E+03  0.34732952207E+02 -0.11261356151E+03  0.40288857497E+03  0.50400001928E-02 0.  1.
</event>
<event>
 5   0  0.2316714E-05  0.1400270E+04  0.7818609E-02  0.8953623E-01
        1   -1    0    0  501    0  0.00000000000E+00  0.00000000000E+00  0.11388446718E+04  0.11388446718E+04  0.50400001928E-02 0. -1.
       -1   -1    0    0    0  501  0.00000000000E+00  0.00000000000E+00 -0.43042664431E+03  0.43042664434E+03  0.50400001928E-02 0.  1.
    10030    2    1    2    0    0  0.00000000000E+00  0.00000000000E+00  0.70841802751E+03  0.15692713162E+04  0.14002701033E+04 0.  0.
        5    1    3    3  502    0 -0.41911136097E+03  0.56012173006E+03  0.32298381231E+03  0.77053962805E+03  0.46999998093E+01 0. -1.
       -5    1    3    3    0  502  0.41911136097E+03 -0.56012173006E+03  0.38543421520E+03  0.79873168813E+03  0.46999998093E+01 0.  1.
</event>
<event>
 5   0  0.2467303E-05  0.1399539E+04  0.7818609E-02  0.8954153E-01
       -1   -1    0    0    0  501  0.00000000000E+00  0.00000000000E+00  0.43417391860E+03  0.43417391863E+03  0.50400001928E-02 0. -1.
        1   -1    0    0  501    0  0.00000000000E+00  0.00000000000E+00 -0.11278362212E+04  0.11278362212E+04  0.50400001928E-02 0.  1.
    10030    2    1    2    0    0  0.00000000000E+00  0.00000000000E+00 -0.69366230255E+03  0.15620101398E+04  0.13995385978E+04 0.  0.
        3    1    3    3  502    0 -0.52840808713E+03 -0.89524974846E+02 -0.84900592433E+03  0.10040123990E+04  0.10100000352E+00 0.  1.
       -3    1    3    3    0  502  0.52840808713E+03  0.89524974846E+02  0.15534362178E+03  0.55799774076E+03  0.10100000352E+00 0. -1.
</event>
<event>
 5   0  0.4460282E-05  0.1398412E+04  0.7818609E-02  0.8954969E-01
       -2   -1    0    0    0  501  0.00000000000E+00  0.00000000000E+00  0.33074299190E+03  0.33074299191E+03  0.25500000920E-02 0.  1.
        2   -1    0    0  501    0  0.00000000000E+00  0.00000000000E+00 -0.14781529170E+04  0.14781529170E+04  0.25500000920E-02 0. -1.
    10030    2    1    2    0    0  0.00000000000E+00  0.00000000000E+00 -0.11474099251E+04  0.18088959089E+04  0.13984115535E+04 0.  0.
        1    1    3    3  502    0  0.37287819604E+03 -0.59143205460E+03 -0.58361499830E+03  0.91073403942E+03  0.50400001928E-02 0.  1.
       -1    1    3    3    0  502 -0.37287819604E+03  0.59143205460E+03 -0.56379492680E+03  0.89816186949E+03  0.50400001928E-02 0. -1.
</event>
<event>
 5   0  0.2316714E-05  0.1400065E+04  0.7818609E-02  0.8953771E-01
       -1   -1    0    0    0  501  0.00000000000E+00  0.00000000000E+00  0.20188089250E+03  0.20188089257E+03  0.50400001928E-02 0. -1.
        1   -1    0    0  501    0  0.00000000000E+00  0.00000000000E+00 -0.24274004207E+04  0.24274004208E+04  0.50400001928E-02 0.  1.
    10030    2    1    2    0    0  0.00000000000E+00  0.00000000000E+00 -0.22255195282E+04  0.26292813133E+04  0.14000653749E+04 0.  0.
        5    1    3    3  502    0  0.29713723257E+03  0.63377629604E+03 -0.11273965039E+04  0.13270297267E+04  0.46999998093E+01 0.  1.
       -5    1    3    3    0  502 -0.29713723257E+03 -0.63377629604E+03 -0.10981230243E+04  0.13022515867E+04  0.46999998093E+01 0. -1.
</event>
<event>
 5   0  0.2427569E-05  0.1400075E+04  0.7818609E-02  0.8953764E-01
        1   -1    0    0  501    0  0.00000000000E+00  0.00000000000E+00  0.10868362315E+04  0.10868362315E+04  0.50400001928E-02 0. -1.
       -1   -1    0    0    0  501  0.00000000000E+00  0.00000000000E+00 -0.45089800358E+03  0.45089800361E+03  0.50400001928E-02 0.  1.
    10030    2    1    2    0    0  0.00000000000E+00  0.00000000000E+00  0.63593822788E+03  0.15377342351E+04  0.14000746937E+04 0.  0.
        1    1    3    3  502    0 -0.33363453552E+03  0.24886014475E+03  0.93616878911E+03  0.10245269038E+04  0.50400001928E-02 0. -1.
       -1    1    3    3    0  502  0.33363453552E+03 -0.24886014475E+03 -0.30023056123E+03  0.51320733126E+03  0.50400001928E-02 0.  1.
</event>
<event>
 5   0  0.2427569E-05  0.1400086E+04  0.7818609E-02  0.8953756E-01
        1   -1    0    0  501    0  0.00000000000E+00  0.00000000000E+00  0.58296805279E+03  0.58296805281E+03  0.50400001928E-02 0. -1.
       -1   -1    0    0    0  501  0.00000000000E+00  0.00000000000E+00 -0.84062964441E+03  0.84062964442E+03  0.50400001928E-02 0.  1.
    10030    2    1    2    0    0  0.00000000000E+00  0.00000000000E+00 -0.25766159162E+03  0.14235976972E+04  0.14000860358E+04 0.  0.
        1    1    3    3  502    0  0.42661130629E+03 -0.49211114824E+03 -0.38983116020E+03  0.75903815606E+03  0.50400001928E-02 0.  1.
       -1    1    3    3    0  502 -0.42661130629E+03  0.49211114824E+03  0.13216956858E+03  0.66455954117E+03  0.50400001928E-02 0. -1.
</event>
<event>
 5   0  0.2428507E-05  0.1399943E+04  0.7818609E-02  0.8953860E-01
       -1   -1    0    0    0  501  0.00000000000E+00  0.00000000000E+00  0.59749197260E+03  0.59749197262E+03  0.50400001928E-02 0.  1.
        1   -1    0    0  501    0  0.00000000000E+00  0.00000000000E+00 -0.82002795742E+03  0.82002795744E+03  0.50400001928E-02 0. -1.
    10030    2    1    2    0    0  0.00000000000E+00  0.00000000000E+00 -0.22253598482E+03  0.14175199301E+04  0.13999430301E+04 0.  0.
        4    1    3    3  502    0 -0.22899669188E+03 -0.89522076043E+02  0.55232659188E+03  0.60458247080E+03  0.12699999809E+01 0.  1.
       -4    1    3    3    0  502  0.22899669188E+03  0.89522076043E+02 -0.77486257670E+03  0.81293745926E+03  0.12699999809E+01 0. -1.
</event>
<event>
 5   0  0.2467303E-05  0.1402672E+04  0.7818609E-02  0.8951886E-01
       -1   -1    0    0    0  501  0.00000000000E+00  0.00000000000E+00  0.51576089776E+03  0.51576089778E+03  0.50400001928E-02 0. -1.
        1   -1    0    0  501    0  0.00000000000E+00  0.00000000000E+00 -0.95368311383E+03  0.95368311384E+03  0.50400001928E-02 0.  1.
    10030    2    1    2    0    0  0.00000000000E+00  0.00000000000E+00 -0.43792221607E+03  0.14694440116E+04  0.14026723908E+04 0.  0.
        3    1    3    3  502    0 -0.48069124177E+03 -0.45676081394E+03  0.20337542578E+02  0.66340646432E+03  0.10100000352E+00 0. -1.
       -3    1    3    3    0  502  0.48069124177E+03  0.45676081394E+03 -0.45825975865E+03  0.80603754730E+03  0.10100000352E+00 0.  1.
</event>
<event>
 5   0  0.4460282E-05  0.1399108E+04  0.7818609E-02  0.8954464E-01
        2   -1    0    0  501    0  0.00000000000E+00  0.00000000000E+00  0.74232950080E+03  0.74232950080E+03  0.25500000920E-02 0. -1.
       -2   -1    0    0    0  501  0.00000000000E+00  0.00000000000E+00 -0.65924368280E+03  0.65924368280E+03  0.25500000920E-02 0.  1.
    10030    2    1    2    0    0  0.00000000000E+00  0.00000000000E+00  0.83085818003E+02  0.14015731836E+04  0.13991083360E+04 0.  0.
        1    1    3    3  502    0 -0.24331740421E+03 -0.14230782926E+03  0.68292171086E+03  0.73880778329E+03  0.50400001928E-02 0. -1.
       -1    1    3    3    0  502  0.24331740421E+03  0.14230782926E+03 -0.59983589286E+03  0.66276540031E+03  0.50400001928E-02 0.  1.
</event>
<event>
 5   0  0.4441253E-05  0.1399021E+04  0.7818609E-02  0.8954528E-01
       -2   -1    0    0    0  501  0.00000000000E+00  0.00000000000E+00  0.97736876429E+03  0.97736876429E+03  0.25500000920E-02 0. -1.
        2   -1    0    0  501    0  0.00000000000E+00  0.00000000000E+00 -0.50064513413E+03  0.50064513413E+03  0.25500000920E-02 0.  1.
    10030    2    1    2    0    0  0.00000000000E+00  0.00000000000E+00  0.47672363016E+03  0.14780138984E+04  0.13990209664E+04 0.  0.
        3    1    3    3  502    0 -0.33568577167E+03 -0.61948865641E+02 -0.40667984643E+03  0.53095301764E+03  0.10100000352E+00 0.  1.
       -3    1    3    3    0  502  0.33568577167E+03  0.61948865641E+02  0.88340347658E+03  0.94706088078E+03  0.10100000352E+00 0. -1.
</event>
<event>
 5   0  0.2467303E-05  0.1399882E+04  0.7818609E-02  0.8953904E-01
       -1   -1    0    0    0  501  0.00000000000E+00  0.00000000000E+00  0.42875487756E+03  0.42875487759E+03  0.50400001928E-02 0. -1.
        1   -1    0    0  501    0  0.00000000000E+00  0.00000000000E+00 -0.11426514618E+04  0.11426514618E+04  0.50400001928E-02 0.  1.
    10030    2    1    2    0    0  0.00000000000E+00  0.00000000000E+00 -0.71389658423E+03  0.15714063394E+04  0.13998819774E+04 0.  0.
        3    1    3    3  502    0 -0.40322571577E+03 -0.50529992280E+03 -0.65815071691E+03  0.92254071250E+03  0.10100000352E+00 0.  1.
       -3    1    3    3    0  502  0.40322571577E+03  0.50529992280E+03 -0.55745867318E+02  0.64886562690E+03  0.10100000352E+00 0. -1.
</event>
<event>
 5   0  0.1661000E-05  0.1399584E+04  0.7818609E-02  0.8954120E-01
       -4   -1    0    0    0  501  0.00000000000E+00  0.00000000000E+00  0.99758183499E+03  0.99758264339E+03  0.12699999809E+01 0. -1.
        4   -1    0    0  501    0  0.00000000000E+00  0.00000000000E+00 -0.49089425283E+03  0.49089589565E+03  0.12699999809E+01 0.  1.
    10030    2    1    2    0    0  0.00000000000E+00  0.00000000000E+00  0.50668758215E+03  0.14884785390E+04  0.13995842437E+04 0.  0.
        4    1    3    3  502    0  0.10195378054E+03  0.84800225875E+01 -0.48289802089E+03  0.49361786397E+03  0.12699999809E+01 0.  1.
       -4    1    3    3    0  502 -0.10195378054E+03 -0.84800225875E+01  0.98958560305E+03  0.99486067507E+03  0.12699999809E+01 0. -1.
</event>
<event>
 5   0  0.2428507E-05  0.1400789E+04  0.7818609E-02  0.8953248E-01
       -1   -1    0    0    0  501  0.00000000000E+00  0.00000000000E+00  0.53409049780E+03  0.53409049782E+03  0.50400001928E-02 0.  1.
        1   -1    0    0  501    0  0.00000000000E+00  0.00000000000E+00 -0.91848165323E+03  0.91848165325E+03  0.50400001928E-02 0. -1.
    10030    2    1    2    0    0  0.00000000000E+00  0.00000000000E+00 -0.38439115543E+03  0.14525721511E+04  0.14007888112E+04 0.  0.
        4    1    3    3  502    0 -0.60706536097E+03 -0.26767486288E+03  0.40539536735E+02  0.66469786494E+03  0.12699999809E+01 0. -1.
       -4    1    3    3    0  502  0.60706536097E+03  0.26767486288E+03 -0.42493069217E+03  0.78787428614E+03  0.12699999809E+01 0.  1.
</event>
<event>
 5   0  0.2363419E-05  0.1400256E+04  0.7818609E-02  0.8953633E-01
        1   -1    0    0  501    0  0.00000000000E+00  0.00000000000E+00  0.90682027771E+03  0.90682027773E+03  0.50400001928E-02 0. -1.
       -1   -1    0    0    0  501  0.00000000000E+00  0.00000000000E+00 -0.54054752729E+03  0.54054752731E+03  0.50400001928E-02 0.  1.
    10030    2    1    2    0    0  0.00000000000E+00  0.00000000000E+00  0.36627275042E+03  0.14473678050E+04  0.14002563463E+04 0.  0.
        2    1    3    3  502    0 -0.16445816603E+03 -0.66425332804E+03  0.30169202026E+02  0.68497383377E+03  0.25500000920E-02 0.  1.
       -2    1    3    3    0  502  0.16445816603E+03  0.66425332804E+03  0.33610354840E+03  0.76239397128E+03  0.25500000920E-02 0. -1.
</event>
<event>
 5   0  0.2427569E-05  0.1400159E+04  0.7818609E-02  0.8953704E-01
       -1   -1    0    0    0  501  0.00000000000E+00  0.00000000000E+00  0.14925532677E+04  0.14925532677E+04  0.50400001928E-02 0.  1.
        1   -1    0    0  501    0  0.00000000000E+00  0.00000000000E+00 -0.32837104041E+03  0.32837104045E+03  0.50400001928E-02 0. -1.
    10030    2    1    2    0    0  0.00000000000E+00  0.00000000000E+00  0.11641822273E+04  0.18209243081E+04  0.14001589473E+04 0.  0.
        1    1    3    3  502    0  0.60694797404E+02 -0.51785864673E+03  0.11896543873E+04  0.12988991484E+04  0.50400001928E-02 0.  1.
       -1    1    3    3    0  502 -0.60694797404E+02  0.51785864673E+03 -0.25472160068E+02  0.52202515972E+03  0.50400001928E-02 0. -1.
</event>
<event>
 5   0  0.2316714E-05  0.1396935E+04  0.7818609E-02  0.8956040E-01
        1   -1    0    0  501    0  0.00000000000E+00  0.00000000000E+00  0.35397758445E+03  0.35397758449E+03  0.50400001928E-02 0.  1.
       -1   -1    0    0    0  501  0.00000000000E+00  0.00000000000E+00 -0.13782143268E+04  0.13782143268E+04  0.50400001928E-02 0. -1.
    10030    2    1    2    0    0  0.00000000000E+00  0.00000000000E+00 -0.10242367423E+04  0.17321919113E+04  0.13969351857E+04 0.  0.
        5    1    3    3  502    0  0.38174809831E+03 -0.19269100313E+03 -0.11968979015E+04  0.12710027970E+04  0.46999998093E+01 0. -1.
       -5    1    3    3    0  502 -0.38174809831E+03  0.19269100313E+03  0.17266115920E+03  0.46118911430E+03  0.46999998093E+01 0.  1.
</event>
<event>
 5   0  0.4621450E-05  0.1399529E+04  0.7818609E-02  0.8954160E-01
        2   -1    0    0  501    0  0.00000000000E+00  0.00000000000E+00  0.39483393915E+03  0.39483393915E+03  0.25500000920E-02 0.  1.
       -2   -1    0    0    0  501  0.00000000000E+00  0.00000000000E+00 -0.12401925613E+04  0.12401925613E+04  0.25500000920E-02 0. -1.
    10030    2    1    2    0    0  0.00000000000E+00  0.00000000000E+00 -0.84535862216E+03  0.16350265005E+04  0.13995286553E+04 0.  0.
        5    1    3    3  502    0  0.41545810418E+02 -0.51195186442E+03  0.13249732631E+03  0.53046997778E+03  0.46999998093E+01 0. -1.
       -5    1    3    3    0  502 -0.41545810418E+02  0.51195186442E+03 -0.97785594846E+03  0.11045565227E+04  0.46999998093E+01 0.  1.
</event>
<event>
 5   0  0.4527503E-05  0.1399840E+04  0.7818609E-02  0.8953934E-01
       -2   -1    0    0    0  501  0.00000000000E+00  0.00000000000E+00  0.31211336136E+03  0.31211336137E+03  0.25500000920E-02 0. -1.
        2   -1    0    0  501    0  0.00000000000E+00  0.00000000000E+00 -0.15695839471E+04  0.15695839471E+04  0.25500000920E-02 0.  1.
    10030    2    1    2    0    0  0.00000000000E+00  0.00000000000E+00 -0.12574705858E+04  0.18816973085E+04  0.13998401647E+04 0.  0.
        4    1    3    3  502    0 -0.30662709925E+03 -0.72720367971E+02 -0.14688241918E+04  0.15022498291E+04  0.12699999809E+01 0.  1.
       -4    1    3    3    0  502  0.30662709925E+03  0.72720367971E+02  0.21135360602E+03  0.37944747935E+03  0.12699999809E+01 0. -1.
</event>
<event>
 5   0  0.2316714E-05  0.1400304E+04  0.7818609E-02  0.8953598E-01
       -1   -1    0    0    0  501  0.00000000000E+00  0.00000000000E+00  0.36140052322E+03  0.36140052325E+03  0.50400001928E-02 0. -1.
        1   -1    0    0  501    0  0.00000000000E+00  0.00000000000E+00 -0.13564256170E+04  0.13564256170E+04  0.50400001928E-02 0.  1.
    10030    2    1    2    0    0  0.00000000000E+00  0.00000000000E+00 -0.99502509377E+03  0.17178261403E+04  0.14003041494E+04 0.  0.
        5    1    3    3  502    0  0.57486809509E+03  0.27455613061E+03 -0.14125467508E+03  0.65255602736E+03  0.46999998093E+01 0. -1.
       -5    1    3    3    0  502 -0.57486809509E+03 -0.27455613061E+03 -0.85377041869E+03  0.10652701129E+04  0.46999998093E+01 0.  1.
</event>
<event>
 5   0  0.1661000E-05  0.1399957E+04  0.7818609E-02  0.8953850E-01
        3   -1    0    0  501    0  0.00000000000E+00  0.00000000000E+00  0.61014261507E+03  0.61014262343E+03  0.10100000352E+00 0. -1.
       -3   -1    0    0    0  501  0.00000000000E+00  0.00000000000E+00 -0.80304142147E+03  0.80304142782E+03  0.10100000352E+00 0.  1.
    10030    2    1    2    0    0  0.00000000000E+00  0.00000000000E+00 -0.19289880640E+03  0.14131840512E+04  0.13999568612E+04 0.  0.
        2    1    3    3  502    0 -0.19634927189E+03 -0.66751957953E+03 -0.19344615994E+02  0.69606726672E+03  0.25500000920E-02 0. -1.
       -2    1    3    3    0  502  0.19634927189E+03  0.66751957953E+03 -0.17355419041E+03  0.71711678452E+03  0.25500000920E-02 0.  1.
</event>
<event>
 5   0  0.4460282E-05  0.1400639E+04  0.7818609E-02  0.8953356E-01
       -2   -1    0    0    0  501  0.00000000000E+00  0.00000000000E+00  0.47318927228E+03  0.47318927229E+03  0.25500000920E-02 0. -1.
        2   -1    0    0  501    0  0.00000000000E+00  0.00000000000E+00 -0.10364723043E+04  0.10364723043E+04  0.25500000920E-02 0.  1.
    10030    2    1    2    0    0  0.00000000000E+00  0.00000000000E+00 -0.56328303202E+03  0.15096615766E+04  0.14006392475E+04 0.  0.
        1    1    3    3  502    0  0.12746711463E+03  0.13922331355E+03  0.44525310264E+03  0.48361278083E+03  0.50400001928E-02 0. -1.
       -1    1    3    3    0  502 -0.12746711463E+03 -0.13922331355E+03 -0.10085361347E+04  0.10260487958E+04  0.50400001928E-02 0.  1.
</event>
<event>
 5   0  0.4527503E-05  0.1399874E+04  0.7818609E-02  0.8953910E-01
       -2   -1    0    0    0  501  0.00000000000E+00  0.00000000000E+00  0.23551135597E+03  0.23551135598E+03  0.25500000920E-02 0.  1.
        2   -1    0    0  501    0  0.00000000000E+00  0.00000000000E+00 -0.20802041866E+04  0.20802041866E+04  0.25500000920E-02 0. -1.
    10030    2    1    2    0    0  0.00000000000E+00  0.00000000000E+00 -0.18446928306E+04  0.23157155426E+04  0.13998738639E+04 0.  0.
        4    1    3    3  502    0  0.22582587194E+03  0.20109532023E+03  0.12188317784E+03  0.32602725990E+03  0.12699999809E+01 0.  1.
       -4    1    3    3    0  502 -0.22582587194E+03 -0.20109532023E+03 -0.19665760084E+04  0.19896882827E+04  0.12699999809E+01 0. -1.
</event>
<event>
 5   0  0.4527503E-05  0.1399234E+04  0.7818609E-02  0.8954373E-01
        2   -1    0    0  501    0  0.00000000000E+00  0.00000000000E+00  0.97844868658E+03  0.97844868658E+03  0.25500000920E-02 0.  1.
       -2   -1    0    0    0  501  0.00000000000E+00  0.00000000000E+00 -0.50024510024E+03  0.50024510024E+03  0.25500000920E-02 0. -1.
    10030    2    1    2    0    0  0.00000000000E+00  0.00000000000E+00  0.47820358634E+03  0.14786937868E+04  0.13992343068E+04 0.  0.
        4    1    3    3  502    0  0.27823116044E+03  0.22019463407E+03 -0.39810209144E+03  0.53327773591E+03  0.12699999809E+01 0. -1.
       -4    1    3    3    0  502 -0.27823116044E+03 -0.22019463407E+03  0.87630567778E+03  0.94541605091E+03  0.12699999809E+01 0.  1.
</event>
<event>
 5   0  0.2428507E-05  0.1399058E+04  0.7818609E-02  0.8954500E-01
        1   -1    0    0  501    0  0.00000000000E+00  0.00000000000E+00  0.12021079249E+04  0.12021079249E+04  0.50400001928E-02 0.  1.
       -1   -1    0    0    0  501  0.00000000000E+00  0.00000000000E+00 -0.40706921764E+03  0.40706921767E+03  0.50400001928E-02 0. -1.
    10030    2    1    2    0    0  0.00000000000E+00  0.00000000000E+00  0.79503870726E+03  0.16091771426E+04  0.13990584441E+04 0.  0.
        4    1    3    3  502    0  0.16513069408E+03  0.66812292100E+03  0.25347890959E+03  0.73342317539E+03  0.12699999809E+01 0. -1.
       -4    1    3    3    0  502 -0.16513069408E+03 -0.66812292100E+03  0.54155979767E+03  0.87575396719E+03  0.12699999809E+01 0.  1.
</event>
<event>
 5   0  0.2467303E-05  0.1400366E+04  0.7818609E-02  0.8953554E-01
        1   -1    0    0  501    0  0.00000000000E+00  0.00000000000E+00  0.75370786180E+03  0.75370786182E+03  0.50400001928E-02 0. -1.
       -1   -1    0    0    0  501  0.00000000000E+00  0.00000000000E+00 -0.65045894766E+03  0.65045894768E+03  0.50400001928E-02 0.  1.
    10030    2    1    2    0    0  0.00000000000E+00  0.00000000000E+00  0.10324891414E+03  0.14041668095E+04  0.14003656989E+04 0.  0.
        3    1    3    3  502    0 -0.91849726947E+02 -0.29380503999E+03 -0.57896908050E+03  0.65571562452E+03  0.10100000352E+00 0.  1.
       -3    1    3    3    0  502  0.91849726947E+02  0.29380503999E+03  0.68221799465E+03  0.74845118497E+03  0.10100000352E+00 0. -1.
</event>
<event>
 5   0  0.2467303E-05  0.1400049E+04  0.7818609E-02  0.8953783E-01
        1   -1    0    0  501    0  0.00000000000E+00  0.00000000000E+00  0.85792880275E+03  0.85792880276E+03  0.50400001928E-02 0. -1.
       -1   -1    0    0    0  501  0.00000000000E+00  0.00000000000E+00 -0.57118277067E+03  0.57118277069E+03  0.50400001928E-02 0.  1.
    10030    2    1    2    0    0  0.00000000000E+00  0.00000000000E+00  0.28674603208E+03  0.14291115735E+04  0.14000487857E+04 0.  0.
        3    1    3    3  502    0  0.50216954700E+02  0.42619975747E+03  0.70790517351E+03  0.82782710797E+03  0.10100000352E+00 0. -1.
       -3    1    3    3    0  502 -0.50216954700E+02 -0.42619975747E+03 -0.42115914144E+03  0.60128446548E+03  0.10100000352E+00 0.  1.
</event>
<event>
 5   0  0.4527503E-05  0.1400450E+04  0.7818609E-02  0.8953493E-01
       -2   -1    0    0    0  501  0.00000000000E+00  0.00000000000E+00  0.23107718678E+03  0.23107718679E+03  0.25500000920E-02 0. -1.
        2   -1    0    0  501    0  0.00000000000E+00  0.00000000000E+00 -0.21218663722E+04  0.21218663722E+04  0.25500000920E-02 0.  1.
    10030    2    1    2    0    0  0.00000000000E+00  0.00000000000E+00 -0.18907891855E+04  0.23529435590E+04  0.14004498021E+04 0.  0.
        4    1    3    3  502    0 -0.39774012382E+03  0.57586814696E+03 -0.98266064849E+03  0.12064182077E+04  0.12699999809E+01 0.  1.
       -4    1    3    3    0  502  0.39774012382E+03 -0.57586814696E+03 -0.90812853696E+03  0.11465253514E+04  0.12699999809E+01 0. -1.
</event>
<event>
 5   0  0.2428507E-05  0.1400723E+04  0.7818609E-02  0.8953295E-01
        1   -1    0    0  501    0  0.00000000000E+00  0.00000000000E+00  0.10952308989E+04  0.10952308989E+04  0.50400001928E-02 0.  1.
       -1   -1    0    0    0  501  0.00000000000E+00  0.00000000000E+00 -0.44785671916E+03  0.44785671919E+03  0.50400001928E-02 0. -1.
    10030    2    1    2    0    0  0.00000000000E+00  0.00000000000E+00  0.64737417977E+03  0.15430876181E+04  0.14007234090E+04 0.  0.
        4    1    3    3  502    0 -0.14118388469E+03  0.31492563401E+03  0.99504724042E+03  0.10532006778E+04  0.12699999809E+01 0.  1.
       -4    1    3    3    0  502  0.14118388469E+03 -0.31492563401E+03 -0.34767306065E+03  0.48988694028E+03  0.12699999809E+01 0. -1.
</event>
<event>
 5   0  0.4460282E-05  0.1401060E+04  0.7818609E-02  0.8953052E-01
        2   -1    0    0  501    0  0.00000000000E+00  0.00000000000E+00  0.12923566438E+04  0.12923566438E+04  0.25500000920E-02 0.  1.
       -2   -1    0    0    0  501  0.00000000000E+00  0.00000000000E+00 -0.37972649159E+03  0.37972649160E+03  0.25500000920E-02 0. -1.
    10030    2    1    2    0    0  0.00000000000E+00  0.00000000000E+00  0.91263015219E+03  0.16720831354E+04  0.14010596764E+04 0.  0.
        1    1    3    3  502    0  0.63371416742E+03  0.63276611887E+02  0.80455573660E+03  0.10261128149E+04  0.50400001928E-02 0.  1.
       -1    1    3    3    0  502 -0.63371416742E+03 -0.63276611887E+02  0.10807441558E+03  0.64597032047E+03  0.50400001928E-02 0. -1.
</event>
<event>
 5   0  0.2316714E-05  0.1399249E+04  0.7818609E-02  0.8954363E-01
        1   -1    0    0  501    0  0.00000000000E+00  0.00000000000E+00  0.72071055256E+03  0.72071055258E+03  0.50400001928E-02 0. -1.
       -1   -1    0    0    0  501  0.00000000000E+00  0.00000000000E+00 -0.67915511563E+03  0.67915511565E+03  0.50400001928E-02 0.  1.
    10030    2    1    2    0    0  0.00000000000E+00  0.00000000000E+00  0.41555436932E+02  0.13998656682E+04  0.13992487394E+04 0.  0.
        5    1    3    3  502    0  0.13837927414E+03  0.56454918852E+03  0.41029184954E+03  0.71149567923E+03  0.46999998093E+01 0. -1.
       -5    1    3    3    0  502 -0.13837927414E+03 -0.56454918852E+03 -0.36873641260E+03  0.68836998900E+03  0.46999998093E+01 0.  1.
</event>
<event>
 5   0  0.4441253E-05  0.1400247E+04  0.7818609E-02  0.8953640E-01
       -2   -1    0    0    0  501  0.00000000000E+00  0.00000000000E+00  0.61163214681E+03  0.61163214681E+03  0.25500000920E-02 0.  1.
        2   -1    0    0  501    0  0.00000000000E+00  0.00000000000E+00 -0.80141752461E+03  0.80141752461E+03  0.25500000920E-02 0. -1.
    10030    2    1    2    0    0  0.00000000000E+00  0.00000000000E+00 -0.18978537780E+03  0.14130496714E+04  0.14002467226E+04 0.  0.
        3    1    3    3  502    0 -0.27245139264E+03 -0.44011162889E+03  0.38084611195E+03  0.64262880298E+03  0.10100000352E+00 0.  1.
       -3    1    3    3    0  502  0.27245139264E+03  0.44011162889E+03 -0.57063148974E+03  0.77042086844E+03  0.10100000352E+00 0. -1.
</event>
<event>
 5   0  0.4460282E-05  0.1401475E+04  0.7818609E-02  0.8952752E-01
       -2   -1    0    0    0  501  0.00000000000E+00  0.00000000000E+00  0.10527149569E+04  0.10527149569E+04  0.25500000920E-02 0. -1.
        2   -1    0    0  501    0  0.00000000000E+00  0.00000000000E+00 -0.46644427554E+03  0.46644427555E+03  0.25500000920E-02 0.  1.
    10030    2    1    2    0    0  0.00000000000E+00  0.00000000000E+00  0.58627068135E+03  0.15191592324E+04  0.14014747453E+04 0.  0.
        1    1    3    3  502    0 -0.70684971625E+01  0.50673985746E+03 -0.23144167558E+03  0.55713597623E+03  0.50400001928E-02 0.  1.
       -1    1    3    3    0  502  0.70684971625E+01 -0.50673985746E+03  0.81771235694E+03  0.96202325622E+03  0.50400001928E-02 0. -1.
</event>
<event>
 5   0  0.2316714E-05  0.1399749E+04  0.7818609E-02  0.8954000E-01
       -1   -1    0    0    0  501  0.00000000000E+00  0.00000000000E+00  0.27247345169E+04  0.27247345169E+04  0.50400001928E-02 0.  1.
        1   -1    0    0  501    0  0.00000000000E+00  0.00000000000E+00 -0.17976963162E+03  0.17976963170E+03  0.50400001928E-02 0. -1.
    10030    2    1    2    0    0  0.00000000000E+00  0.00000000000E+00  0.25449648852E+04  0.29045041486E+04  0.13997492925E+04 0.  0.
        5    1    3    3  502    0  0.24289707675E+03  0.42669008213E+03  0.23073712716E+04  0.23590353307E+04  0.46999998093E+01 0.  1.
       -5    1    3    3    0  502 -0.24289707675E+03 -0.42669008213E+03  0.23759361358E+03  0.54546881790E+03  0.46999998093E+01 0. -1.
</event>
<event>
 5   0  0.2363419E-05  0.1399962E+04  0.7818609E-02  0.8953846E-01
        1   -1    0    0  501    0  0.00000000000E+00  0.00000000000E+00  0.30113555399E+04  0.30113555399E+04  0.50400001928E-02 0.  1.
       -1   -1    0    0    0  501  0.00000000000E+00  0.00000000000E+00 -0.16270863094E+03  0.16270863102E+03  0.50400001928E-02 0. -1.
    10030    2    1    2    0    0  0.00000000000E+00  0.00000000000E+00  0.28486469090E+04  0.31740641709E+04  0.13999621956E+04 0.  0.
        2    1    3    3  502    0  0.95263497523E+02 -0.60106221636E+03  0.64016100590E+03  0.88326498594E+03  0.25500000920E-02 0. -1.
       -2    1    3    3    0  502 -0.95263497523E+02  0.60106221636E+03  0.22084859031E+04  0.22907991850E+04  0.25500000920E-02 0.  1.
</event>
<event>
 5   0  0.4243281E-05  0.1399352E+04  0.7818609E-02  0.8954288E-01
       -2   -1    0    0    0  501  0.00000000000E+00  0.00000000000E+00  0.51167384307E+03  0.51167384307E+03  0.25500000920E-02 0.  1.
        2   -1    0    0  501    0  0.00000000000E+00  0.00000000000E+00 -0.95675523296E+03  0.95675523296E+03  0.25500000920E-02 0. -1.
    10030    2    1    2    0    0  0.00000000000E+00  0.00000000000E+00 -0.44508138989E+03  0.14684290760E+04  0.13993521743E+04 0.  0.
        2    1    3    3  502    0 -0.28166981432E+03  0.32763498521E+03 -0.80003780820E+03  0.90925412421E+03  0.25500000920E-02 0. -1.
       -2    1    3    3    0  502  0.28166981432E+03 -0.32763498521E+03  0.35495641831E+03  0.55917495182E+03  0.25500000920E-02 0.  1.
</event>
<event>
 5   0  0.4243281E-05  0.1400208E+04  0.7818609E-02  0.8953668E-01
        2   -1    0    0  501    0  0.00000000000E+00  0.00000000000E+00  0.60859802464E+03  0.60859802465E+03  0.25500000920E-02 0. -1.
       -2   -1    0    0    0  501  0.00000000000E+00  0.00000000000E+00 -0.80536883373E+03  0.80536883374E+03  0.25500000920E-02 0.  1.
    10030    2    1    2    0    0  0.00000000000E+00  0.00000000000E+00 -0.19677080909E+03  0.14139668584E+04  0.14002083864E+04 0.  0.
        2    1    3    3  502    0 -0.29513051934E+03 -0.59823191888E+03  0.11621730558E+03  0.67711883325E+03  0.25500000920E-02 0. -1.
       -2    1    3    3    0  502  0.29513051934E+03  0.59823191888E+03 -0.31298811467E+03  0.73684802514E+03  0.25500000920E-02 0.  1.
</event>
<event>
 5   0  0.2467303E-05  0.1399612E+04  0.7818609E-02  0.8954100E-01
       -1   -1    0    0    0  501  0.00000000000E+00  0.00000000000E+00  0.24532753478E+03  0.24532753483E+03  0.50400001928E-02 0.  1.
        1   -1    0    0  501    0  0.00000000000E+00  0.00000000000E+00 -0.19962224742E+04  0.19962224742E+04  0.50400001928E-02 0. -1.
    10030    2    1    2    0    0  0.00000000000E+00  0.00000000000E+00 -0.17508949395E+04  0.22415500091E+04  0.13996118584E+04 0.  0.
        3    1    3    3  502    0  0.39987377139E+03  0.44526397033E+03 -0.14563698228E+04  0.15745386967E+04  0.10100000352E+00 0. -1.
       -3    1    3    3    0  502 -0.39987377139E+03 -0.44526397033E+03 -0.29452511662E+03  0.66701131238E+03  0.10100000352E+00 0.  1.
</event>
<event>
 5   0  0.2363419E-05  0.1400974E+04  0.7818609E-02  0.8953114E-01
        1   -1    0    0  501    0  0.00000000000E+00  0.00000000000E+00  0.66386786618E+03  0.66386786620E+03  0.50400001928E-02 0. -1.
       -1   -1    0    0    0  501  0.00000000000E+00  0.00000000000E+00 -0.73912590911E+03  0.73912590912E+03  0.50400001928E-02 0.  1.
    10030    2    1    2    0    0  0.00000000000E+00  0.00000000000E+00 -0.75258042925E+02  0.14029937753E+04  0.14009738615E+04 0.  0.
        2    1    3    3  502    0  0.86985321565E+02  0.61551464501E+03  0.28572537708E+03  0.68415182196E+03  0.25500000920E-02 0. -1.
       -2    1    3    3    0  502 -0.86985321565E+02 -0.61551464501E+03 -0.36098342000E+03  0.71884195336E+03  0.25500000920E-02 0.  1.
</event>
<event>
 5   0  0.4460282E-05  0.1396207E+04  0.7818609E-02  0.8956569E-01
        2   -1    0    0  501    0  0.00000000000E+00  0.00000000000E+00  0.11250849661E+04  0.11250849661E+04  0.25500000920E-02 0. -1.
       -2   -1    0    0    0  501  0.00000000000E+00  0.00000000000E+00 -0.43316575301E+03  0.43316575302E+03  0.25500000920E-02 0.  1.
    10030    2    1    2    0    0  0.00000000000E+00  0.00000000000E+00  0.69191921310E+03  0.15582507191E+04  0.13962066846E+04 0.  0.
        1    1    3    3  502    0 -0.46123902920E+03  0.49593219784E+03  0.53489409462E+03  0.86301904927E+03  0.50400001928E-02 0. -1.
       -1    1    3    3    0  502  0.46123902920E+03 -0.49593219784E+03  0.15702511848E+03  0.69523166986E+03  0.50400001928E-02 0.  1.
</event>
<event>
 5   0  0.2428507E-05  0.1400020E+04  0.7818609E-02  0.8953804E-01
        1   -1    0    0  501    0  0.00000000000E+00  0.00000000000E+00  0.12236322694E+04  0.12236322694E+04  0.50400001928E-02 0. -1.
       -1   -1    0    0    0  501  0.00000000000E+00  0.00000000000E+00 -0.40045874402E+03  0.40045874405E+03  0.50400001928E-02 0.  1.
    10030    2    1    2    0    0  0.00000000000E+00  0.00000000000E+00  0.82317352535E+03  0.16240910134E+04  0.14000203452E+04 0.  0.
        4    1    3    3  502    0  0.24689527228E+03 -0.53608604946E+03  0.84821369405E+03  0.10333506721E+04  0.12699999809E+01 0. -1.
       -4    1    3    3    0  502 -0.24689527228E+03  0.53608604946E+03 -0.25040168701E+02  0.59074034131E+03  0.12699999809E+01 0.  1.
</event>
<event>
 5   0  0.4460282E-05  0.1399952E+04  0.7818609E-02  0.8953853E-01
       -2   -1    0    0    0  501  0.00000000000E+00  0.00000000000E+00  0.78309845106E+03  0.78309845106E+03  0.25500000920E-02 0.  1.
        2   -1    0    0  501    0  0.00000000000E+00  0.00000000000E+00 -0.62567641578E+03  0.62567641579E+03  0.25500000920E-02 0. -1.
    10030    2    1    2    0    0  0.00000000000E+00  0.00000000000E+00  0.15742203528E+03  0.14087748668E+04  0.13999517593E+04 0.  0.
        1    1    3    3  502    0 -0.59642474050E+03  0.28261587239E+03  0.31335871506E+03  0.73060788850E+03  0.50400001928E-02 0.  1.
       -1    1    3    3    0  502  0.59642474050E+03 -0.28261587239E+03 -0.15593667979E+03  0.67816697835E+03  0.50400001928E-02 0. -1.
</event>
<event>
 5   0  0.2427569E-05  0.1400339E+04  0.7818609E-02  0.8953573E-01
       -1   -1    0    0    0  501  0.00000000000E+00  0.00000000000E+00  0.47987863125E+03  0.47987863127E+03  0.50400001928E-02 0.  1.
        1   -1    0    0  501    0  0.00000000000E+00  0.00000000000E+00 -0.10215867117E+04  0.10215867117E+04  0.50400001928E-02 0. -1.
    10030    2    1    2    0    0  0.00000000000E+00  0.00000000000E+00 -0.54170808046E+03  0.15014653430E+04  0.14003394345E+04 0.  0.
        1    1    3    3  502    0 -0.39214815509E+03  0.57351309790E+03 -0.17774904915E+03  0.71714166906E+03  0.50400001928E-02 0.  1.
       -1    1    3    3    0  502  0.39214815509E+03 -0.57351309790E+03 -0.36395903132E+03  0.78432367394E+03  0.50400001928E-02 0. -1.
</event>
<event>
 5   0  0.4527503E-05  0.1400213E+04  0.7818609E-02  0.8953664E-01
       -2   -1    0    0    0  501  0.00000000000E+00  0.00000000000E+00  0.47551763122E+03  0.47551763122E+03  0.25500000920E-02 0. -1.
        2   -1    0    0  501    0  0.00000000000E+00  0.00000000000E+00 -0.10307699645E+04  0.10307699645E+04  0.25500000920E-02 0.  1.
    10030    2    1    2    0    0  0.00000000000E+00  0.00000000000E+00 -0.55525233328E+03  0.15062875957E+04  0.14002132578E+04 0.  0.
        4    1    3    3  502    0  0.57289373416E+03  0.13240417854E+03  0.13117461682E+03  0.60245040471E+03  0.12699999809E+01 0. -1.
       -4    1    3    3    0  502 -0.57289373416E+03 -0.13240417854E+03 -0.68642695010E+03  0.90383719101E+03  0.12699999809E+01 0.  1.
</event>
<event>
 5   0  0.1661000E-05  0.1400011E+04  0.7818609E-02  0.8953810E-01
        3   -1    0    0  501    0  0.00000000000E+00  0.00000000000E+00  0.42763862600E+03  0.42763863793E+03  0.10100000352E+00 0. -1.
       -3   -1    0    0    0  501  0.00000000000E+00  0.00000000000E+00 -0.11458458618E+04  0.11458458662E+04  0.10100000352E+00 0.  1.
    10030    2    1    2    0    0  0.00000000000E+00  0.00000000000E+00 -0.71820723579E+03  0.15734845042E+04  0.14000113754E+04 0.  0.
        2    1    3    3  502    0  0.16180493482E+03 -0.11115317711E+03  0.39606922372E+03  0.44204829566E+03  0.25500000920E-02 0. -1.
       -2    1    3    3    0  502 -0.16180493482E+03  0.11115317711E+03 -0.11142764595E+04  0.11314362085E+04  0.25500000920E-02 0.  1.
</event>
<event>
 5   0  0.4441253E-05  0.1399916E+04  0.7818609E-02  0.8953879E-01
       -2   -1    0    0    0  501  0.00000000000E+00  0.00000000000E+00  0.94311589305E+03  0.94311589305E+03  0.25500000920E-02 0. -1.
        2   -1    0    0  501    0  0.00000000000E+00  0.00000000000E+00 -0.51949211484E+03  0.51949211485E+03  0.25500000920E-02 0.  1.
    10030    2    1    2    0    0  0.00000000000E+00  0.00000000000E+00  0.42362377820E+03  0.14626080079E+04  0.13999160972E+04 0.  0.
        3    1    3    3  502    0  0.44048108082E+03 -0.36256761623E+03  0.63551265815E+03  0.85402295506E+03  0.10100000352E+00 0.  1.
       -3    1    3    3    0  502 -0.44048108082E+03  0.36256761623E+03 -0.21188887995E+03  0.60858505284E+03  0.10100000352E+00 0. -1.
</event>
<event>
 5   0  0.4243281E-05  0.1399527E+04  0.7818609E-02  0.8954161E-01
       -2   -1    0    0    0  501  0.00000000000E+00  0.00000000000E+00  0.36971334915E+03  0.36971334916E+03  0.25500000920E-02 0. -1.
        2   -1    0    0  501    0  0.00000000000E+00  0.00000000000E+00 -0.13244564789E+04  0.13244564790E+04  0.25500000920E-02 0.  1.
    10030    2    1    2    0    0  0.00000000000E+00  0.00000000000E+00 -0.95474312980E+03  0.16941698281E+04  0.13995274069E+04 0.  0.
        2    1    3    3  502    0  0.58324879546E+03 -0.38506429710E+03 -0.43516640183E+03  0.82330035078E+03  0.25500000920E-02 0. -1.
       -2    1    3    3    0  502 -0.58324879546E+03  0.38506429710E+03 -0.51957672796E+03  0.87086947733E+03  0.25500000920E-02 0.  1.
</event>
<event>
 5   0  0.4460282E-05  0.1398978E+04  0.7818609E-02  0.8954559E-01
       -2   -1    0    0    0  501  0.00000000000E+00  0.00000000000E+00  0.26033225031E+03  0.26033225032E+03  0.25500000920E-02 0.  1.
        2   -1    0    0  501    0  0.00000000000E+00  0.00000000000E+00 -0.18794625909E+04  0.18794625909E+04  0.25500000920E-02 0. -1.
    10030    2    1    2    0    0  0.00000000000E+00  0.00000000000E+00 -0.16191303406E+04  0.21397948412E+04  0.13989778063E+04 0.  0.
        1    1    3    3  502    0 -0.36465933110E+03 -0.81836185739E+02 -0.17139513987E+04  0.17542243260E+04  0.50400001928E-02 0. -1.
       -1    1    3    3    0  502  0.36465933110E+03  0.81836185739E+02  0.94821058121E+02  0.38557051514E+03  0.50400001928E-02 0.  1.
</event>
<event>
 5   0  0.2363419E-05  0.1401349E+04  0.7818609E-02  0.8952843E-01
        1   -1    0    0  501    0  0.00000000000E+00  0.00000000000E+00  0.56691925285E+03  0.56691925288E+03  0.50400001928E-02 0. -1.
       -1   -1    0    0    0  501  0.00000000000E+00  0.00000000000E+00 -0.86598653154E+03  0.86598653155E+03  0.50400001928E-02 0.  1.
    10030    2    1    2    0    0  0.00000000000E+00  0.00000000000E+00 -0.29906727868E+03  0.14329057844E+04  0.14013485469E+04 0.  0.
        2    1    3    3  502    0  0.15735120167E+03 -0.23571120896E+03 -0.80476443470E+03  0.85320863220E+03  0.25500000920E-02 0.  1.
       -2    1    3    3    0  502 -0.15735120167E+03  0.23571120896E+03  0.50569715602E+03  0.57969715223E+03  0.25500000920E-02 0. -1.
</event>
<event>
 5   0  0.4243281E-05  0.1400074E+04  0.7818609E-02  0.8953765E-01
       -2   -1    0    0    0  501  0.00000000000E+00  0.00000000000E+00  0.89662318217E+03  0.89662318218E+03  0.25500000920E-02 0. -1.
        2   -1    0    0  501    0  0.00000000000E+00  0.00000000000E+00 -0.54655245011E+03  0.54655245011E+03  0.25500000920E-02 0.  1.
    10030    2    1    2    0    0  0.00000000000E+00  0.00000000000E+00  0.35007073207E+03  0.14431756323E+04  0.14000737081E+04 0.  0.
        2    1    3    3  502    0  0.36604640314E+03  0.79150227454E+02  0.78467928513E+03  0.86946898063E+03  0.25500000920E-02 0. -1.
       -2    1    3    3    0  502 -0.36604640314E+03 -0.79150227454E+02 -0.43460855306E+03  0.57370665166E+03  0.25500000920E-02 0.  1.
</event>
<event>
 5   0  0.2467303E-05  0.1399727E+04  0.7818609E-02  0.8954016E-01
        1   -1    0    0  501    0  0.00000000000E+00  0.00000000000E+00  0.11867229467E+04  0.11867229467E+04  0.50400001928E-02 0. -1.
       -1   -1    0    0    0  501  0.00000000000E+00  0.00000000000E+00 -0.41274072487E+03  0.41274072490E+03  0.50400001928E-02 0.  1.
    10030    2    1    2    0    0  0.00000000000E+00  0.00000000000E+00  0.77398222183E+03  0.15994636716E+04  0.13997269580E+04 0.  0.
        3    1    3    3  502    0  0.65566326431E+03  0.92753581302E+02  0.64583487998E+03  0.92498661904E+03  0.10100000352E+00 0.  1.
       -3    1    3    3    0  502 -0.65566326431E+03 -0.92753581302E+02  0.12814734185E+03  0.67447705256E+03  0.10100000352E+00 0. -1.
</event>
<event>
 5   0  0.2428507E-05  0.1399346E+04  0.7818609E-02  0.8954292E-01
       -1   -1    0    0    0  501  0.00000000000E+00  0.00000000000E+00  0.53543027008E+03  0.53543027011E+03  0.50400001928E-02 0. -1.
        1   -1    0    0  501    0  0.00000000000E+00  0.00000000000E+00 -0.91429642341E+03  0.91429642342E+03  0.50400001928E-02 0.  1.
    10030    2    1    2    0    0  0.00000000000E+00  0.00000000000E+00 -0.37886615333E+03  0.14497266935E+04  0.13993455341E+04 0.  0.
        4    1    3    3  502    0 -0.22674069101E+03 -0.31139966889E+02  0.49555189774E+03  0.54585193482E+03  0.12699999809E+01 0. -1.
       -4    1    3    3    0  502  0.22674069101E+03  0.31139966889E+02 -0.87441805107E+03  0.90387475871E+03  0.12699999809E+01 0.  1.
</event>
<event>
 5   0  0.2363419E-05  0.1399723E+04  0.7818609E-02  0.8954019E-01
        1   -1    0    0  501    0  0.00000000000E+00  0.00000000000E+00  0.79349935213E+03  0.79349935215E+03  0.50400001928E-02 0. -1.
       -1   -1    0    0    0  501  0.00000000000E+00  0.00000000000E+00 -0.61727357440E+03  0.61727357442E+03  0.50400001928E-02 0.  1.
    10030    2    1    2    0    0  0.00000000000E+00  0.00000000000E+00  0.17622577773E+03  0.14107729266E+04  0.13997230889E+04 0.  0.
        2    1    3    3  502    0  0.15400039213E+03 -0.37645413439E+03  0.66214594290E+03  0.77709142691E+03  0.25500000920E-02 0. -1.
       -2    1    3    3    0  502 -0.15400039213E+03  0.37645413439E+03 -0.48592016517E+03  0.63368149965E+03  0.25500000920E-02 0.  1.
</event>
<event>
 5   0  0.2316714E-05  0.1400068E+04  0.7818609E-02  0.8953769E-01
        1   -1    0    0  501    0  0.00000000000E+00  0.00000000000E+00  0.15254313759E+04  0.15254313759E+04  0.50400001928E-02 0. -1.
       -1   -1    0    0    0  501  0.00000000000E+00  0.00000000000E+00 -0.32125203974E+03  0.32125203978E+03  0.50400001928E-02 0.  1.
    10030    2    1    2    0    0  0.00000000000E+00  0.00000000000E+00  0.12041793362E+04  0.18466834157E+04  0.14000684855E+04 0.  0.
        5    1    3    3  502    0 -0.57054403453E+03 -0.37239485368E+03  0.39011510233E+03  0.78511802007E+03  0.46999998093E+01 0.  1.
       -5    1    3    3    0  502  0.57054403453E+03  0.37239485368E+03  0.81406423383E+03  0.10615653956E+04  0.46999998093E+01 0. -1.
</event>
<event>
 5   0  0.4441253E-05  0.1400191E+04  0.7818609E-02  0.8953680E-01
       -2   -1    0    0    0  501  0.00000000000E+00  0.00000000000E+00  0.35549177026E+03  0.35549177027E+03  0.25500000920E-02 0. -1.
        2   -1    0    0  501    0  0.00000000000E+00  0.00000000000E+00 -0.13787489885E+04  0.13787489885E+04  0.25500000920E-02 0.  1.
    10030    2    1    2    0    0  0.00000000000E+00  0.00000000000E+00 -0.10232572182E+04  0.17342407588E+04  0.14001912993E+04 0.  0.
        3    1    3    3  502    0 -0.47569218434E+03  0.44783562299E+03 -0.82323306522E+03  0.10509769214E+04  0.10100000352E+00 0.  1.
       -3    1    3    3    0  502  0.47569218434E+03 -0.44783562299E+03 -0.20002415302E+03  0.68326383736E+03  0.10100000352E+00 0. -1.
</event>
<event>
 5   0  0.4527503E-05  0.1398621E+04  0.7818609E-02  0.8954817E-01
        2   -1    0    0  501    0  0.00000000000E+00  0.00000000000E+00  0.13382548599E+04  0.13382548599E+04  0.25500000920E-02 0. -1.
       -2   -1    0    0    0  501  0.00000000000E+00  0.00000000000E+00 -0.36542745807E+03  0.36542745808E+03  0.25500000920E-02 0.  1.
    10030    2    1    2    0    0  0.00000000000E+00  0.00000000000E+00  0.97282740183E+03  0.17036823180E+04  0.13986208517E+04 0.  0.
        4    1    3    3  502    0  0.50111933726E+03  0.46677930050E+03  0.65881025677E+03  0.95028210173E+03  0.12699999809E+01 0. -1.
       -4    1    3    3    0  502 -0.50111933726E+03 -0.46677930050E+03  0.31401714506E+03  0.75340021625E+03  0.12699999809E+01 0.  1.
</event>
<event>
 5   0  0.4621450E-05  0.1399620E+04  0.7818609E-02  0.8954094E-01
        2   -1    0    0  501    0  0.00000000000E+00  0.00000000000E+00  0.11314800750E+04  0.11314800750E+04  0.25500000920E-02 0.  1.
       -2   -1    0    0    0  501  0.00000000000E+00  0.00000000000E+00 -0.43282593318E+03  0.43282593318E+03  0.25500000920E-02 0. -1.
    10030    2    1    2    0    0  0.00000000000E+00  0.00000000000E+00  0.69865414179E+03  0.15643060082E+04  0.13996198331E+04 0.  0.
        5    1    3    3  502    0  0.51865996121E+03 -0.29063726494E+02  0.87339034236E+03  0.10162114129E+04  0.46999998093E+01 0.  1.
       -5    1    3    3    0  502 -0.51865996121E+03  0.29063726494E+02 -0.17473620058E+03  0.54809459526E+03  0.46999998093E+01 0. -1.
</event>
<event>
 5   0  0.2363419E-05  0.1399510E+04  0.7818609E-02  0.8954173E-01
       -1   -1    0    0    0  501  0.00000000000E+00  0.00000000000E+00  0.52410334583E+03  0.52410334585E+03  0.50400001928E-02 0. -1.
        1   -1    0    0  501    0  0.00000000000E+00  0.00000000000E+00 -0.93427558862E+03  0.93427558863E+03  0.50400001928E-02 0.  1.
    10030    2    1    2    0    0  0.00000000000E+00  0.00000000000E+00 -0.41017224279E+03  0.14583789345E+04  0.13995098598E+04 0.  0.
        2    1    3    3  502    0  0.23322504637E+03 -0.61230680635E+02  0.47944277582E+03  0.53666422816E+03  0.25500000920E-02 0. -1.
       -2    1    3    3    0  502 -0.23322504637E+03  0.61230680635E+02 -0.88961501861E+03  0.92171470632E+03  0.25500000920E-02 0.  1.
</event>
<event>
 5   0  0.1661000E-05  0.1404071E+04  0.7818609E-02  0.8950877E-01
       -4   -1    0    0    0  501  0.00000000000E+00  0.00000000000E+00  0.59841903961E+03  0.59842038724E+03  0.12699999809E+01 0. -1.
        4   -1    0    0  501    0  0.00000000000E+00  0.00000000000E+00 -0.82359052584E+03  0.82359150503E+03  0.12699999809E+01 0.  1.
    10030    2    1    2    0    0  0.00000000000E+00  0.00000000000E+00 -0.22517148623E+03  0.14220118923E+04  0.14040710892E+04 0.  0.
        5    1    3    3  502    0  0.57745315963E+03  0.21391022382E+02  0.29115842597E+03  0.64707422018E+03  0.46999998093E+01 0. -1.
       -5    1    3    3    0  502 -0.57745315963E+03 -0.21391022382E+02 -0.51632991220E+03  0.77493767210E+03  0.46999998093E+01 0.  1.
</event>
<event>
 5   0  0.1661000E-05  0.1401311E+04  0.7818609E-02  0.8952870E-01
       -3   -1    0    0    0  501  0.00000000000E+00  0.00000000000E+00  0.25775207265E+03  0.25775209244E+03  0.10100000352E+00 0. -1.
        3   -1    0    0  501    0  0.00000000000E+00  0.00000000000E+00 -0.19046137311E+04  0.19046137338E+04  0.10100000352E+00 0.  1.
    10030    2    1    2    0    0  0.00000000000E+00  0.00000000000E+00 -0.16468616585E+04  0.21623658262E+04  0.14013110448E+04 0.  0.
        4    1    3    3  502    0 -0.13789318492E+03 -0.56399756931E+03 -0.21825000431E+03  0.62027612070E+03  0.12699999809E+01 0. -1.
       -4    1    3    3    0  502  0.13789318492E+03  0.56399756931E+03 -0.14286116542E+04  0.15420897055E+04  0.12699999809E+01 0.  1.
</event>
<event>
 5   0  0.1661000E-05  0.1399822E+04  0.7818609E-02  0.8953947E-01
       -3   -1    0    0    0  501  0.00000000000E+00  0.00000000000E+00  0.84491659058E+03  0.84491659661E+03  0.10100000352E+00 0. -1.
        3   -1    0    0  501    0  0.00000000000E+00  0.00000000000E+00 -0.57979132953E+03  0.57979133833E+03  0.10100000352E+00 0.  1.
    10030    2    1    2    0    0  0.00000000000E+00  0.00000000000E+00  0.26512526105E+03  0.14247079349E+04  0.13998218800E+04 0.  0.
        2    1    3    3  502    0 -0.56263536659E+03 -0.14506478066E+03 -0.26459644008E+03  0.63844625650E+03  0.25500000920E-02 0.  1.
       -2    1    3    3    0  502  0.56263536659E+03  0.14506478066E+03  0.52972170113E+03  0.78626167844E+03  0.25500000920E-02 0. -1.
</event>
<event>
 5   0  0.2428507E-05  0.1399213E+04  0.7818609E-02  0.8954389E-01
       -1   -1    0    0    0  501  0.00000000000E+00  0.00000000000E+00  0.37917900111E+03  0.37917900114E+03  0.50400001928E-02 0. -1.
        1   -1    0    0  501    0  0.00000000000E+00  0.00000000000E+00 -0.12908124717E+04  0.12908124717E+04  0.50400001928E-02 0.  1.
    10030    2    1    2    0    0  0.00000000000E+00  0.00000000000E+00 -0.91163347063E+03  0.16699914729E+04  0.13992126124E+04 0.  0.
        4    1    3    3  502    0  0.53521627332E+03  0.43954174989E+03 -0.57393301031E+03  0.89947435891E+03  0.12699999809E+01 0. -1.
       -4    1    3    3    0  502 -0.53521627332E+03 -0.43954174989E+03 -0.33770046032E+03  0.77051711397E+03  0.12699999809E+01 0.  1.
</event>
<event>
 5   0  0.2427569E-05  0.1400422E+04  0.7818609E-02  0.8953513E-01
        1   -1    0    0  501    0  0.00000000000E+00  0.00000000000E+00  0.68270375485E+03  0.68270375487E+03  0.50400001928E-02 0.  1.
       -1   -1    0    0    0  501  0.00000000000E+00  0.00000000000E+00 -0.71816760731E+03  0.71816760733E+03  0.50400001928E-02 0. -1.
    10030    2    1    2    0    0  0.00000000000E+00  0.00000000000E+00 -0.35463852465E+02  0.14008713622E+04  0.14004223965E+04 0.  0.
        1    1    3    3  502    0 -0.56706430780E+02 -0.64452407289E+03  0.25006423267E+03  0.69365626956E+03  0.50400001928E-02 0.  1.
       -1    1    3    3    0  502  0.56706430780E+02  0.64452407289E+03 -0.28552808513E+03  0.70721509263E+03  0.50400001928E-02 0. -1.
</event>
<event>
 5   0  0.4527503E-05  0.1400328E+04  0.7818609E-02  0.8953581E-01
        2   -1    0    0  501    0  0.00000000000E+00  0.00000000000E+00  0.15846996750E+04  0.15846996750E+04  0.25500000920E-02 0.  1.
       -2   -1    0    0    0  501  0.00000000000E+00  0.00000000000E+00 -0.30935193374E+03  0.30935193375E+03  0.25500000920E-02 0. -1.
    10030    2    1    2    0    0  0.00000000000E+00  0.00000000000E+00  0.12753477413E+04  0.18940516088E+04  0.14003284027E+04 0.  0.
        4    1    3    3  502    0 -0.26521872856E+01  0.21558296685E+03  0.15386821206E+04  0.15537140441E+04  0.12699999809E+01 0.  1.
       -4    1    3    3    0  502  0.26521872856E+01 -0.21558296685E+03 -0.26333437932E+03  0.34033756467E+03  0.12699999809E+01 0. -1.
</event>
<event>
 5   0  0.4621450E-05  0.1398984E+04  0.7818609E-02  0.8954554E-01
        2   -1    0    0  501    0  0.00000000000E+00  0.00000000000E+00  0.91388404919E+03  0.91388404919E+03  0.25500000920E-02 0. -1.
       -2   -1    0    0    0  501  0.00000000000E+00  0.00000000000E+00 -0.53539495936E+03  0.53539495936E+03  0.25500000920E-02 0.  1.
    10030    2    1    2    0    0  0.00000000000E+00  0.00000000000E+00  0.37848908983E+03  0.14492790086E+04  0.13989837932E+04 0.  0.
        5    1    3    3  502    0 -0.20996392081E+03 -0.53747588354E+03 -0.22031881754E+03  0.61767924102E+03  0.46999998093E+01 0. -1.
       -5    1    3    3    0  502  0.20996392081E+03  0.53747588354E+03  0.59880790737E+03  0.83159976753E+03  0.46999998093E+01 0.  1.
</event>
<event>
 5   0  0.2316714E-05  0.1398505E+04  0.7818609E-02  0.8954901E-01
       -1   -1    0    0    0  501  0.00000000000E+00  0.00000000000E+00  0.63539860364E+03  0.63539860366E+03  0.50400001928E-02 0. -1.
        1   -1    0    0  501    0  0.00000000000E+00  0.00000000000E+00 -0.76952340064E+03  0.76952340066E+03  0.50400001928E-02 0.  1.
    10030    2    1    2    0    0  0.00000000000E+00  0.00000000000E+00 -0.13412479700E+03  0.14049220043E+04  0.13985050508E+04 0.  0.
        5    1    3    3  502    0 -0.30566914856E+03  0.47157447087E+03 -0.48504350106E+03  0.74236473372E+03  0.46999998093E+01 0.  1.
       -5    1    3    3    0  502  0.30566914856E+03 -0.47157447087E+03  0.35091870407E+03  0.66255727059E+03  0.46999998093E+01 0. -1.
</event>
<event>
 5   0  0.4460282E-05  0.1400054E+04  0.7818609E-02  0.8953780E-01
       -2   -1    0    0    0  501  0.00000000000E+00  0.00000000000E+00  0.63983969889E+03  0.63983969889E+03  0.25500000920E-02 0.  1.
        2   -1    0    0  501    0  0.00000000000E+00  0.00000000000E+00 -0.76587579244E+03  0.76587579244E+03  0.25500000920E-02 0. -1.
    10030    2    1    2    0    0  0.00000000000E+00  0.00000000000E+00 -0.12603609355E+03  0.14057154913E+04  0.14000539081E+04 0.  0.
        1    1    3    3  502    0 -0.22106517568E+02 -0.25709076617E+03  0.59034636123E+03  0.64427725896E+03  0.50400001928E-02 0.  1.
       -1    1    3    3    0  502  0.22106517568E+02  0.25709076617E+03 -0.71638245478E+03  0.76143823237E+03  0.50400001928E-02 0. -1.
</event>
<event>
 5   0  0.4243281E-05  0.1400516E+04  0.7818609E-02  0.8953445E-01
       -2   -1    0    0    0  501  0.00000000000E+00  0.00000000000E+00  0.45182399567E+03  0.45182399568E+03  0.25500000920E-02 0. -1.
        2   -1    0    0  501    0  0.00000000000E+00  0.00000000000E+00 -0.10852927275E+04  0.10852927275E+04  0.25500000920E-02 0.  1.
    10030    2    1    2    0    0  0.00000000000E+00  0.00000000000E+00 -0.63346873181E+03  0.15371167232E+04  0.14005160429E+04 0.  0.
        2    1    3    3  502    0  0.10126659057E+03 -0.34006726496E+03  0.34585440273E+03  0.49549564575E+03  0.25500000920E-02 0. -1.
       -2    1    3    3    0  502 -0.10126659057E+03  0.34006726496E+03 -0.97932313454E+03  0.10416210774E+04  0.25500000920E-02 0.  1.
</event>
<event>
 5   0  0.4243281E-05  0.1400000E+04  0.7818609E-02  0.8953819E-01
       -2   -1    0    0    0  501  0.00000000000E+00  0.00000000000E+00  0.25194552506E+03  0.25194552507E+03  0.25500000920E-02 0.  1.
        2   -1    0    0  501    0  0.00000000000E+00  0.00000000000E+00 -0.19448641039E+04  0.19448641039E+04  0.25500000920E-02 0. -1.
    10030    2    1    2    0    0  0.00000000000E+00  0.00000000000E+00 -0.16929185789E+04  0.21968096290E+04  0.13999997255E+04 0.  0.
        2    1    3    3  502    0 -0.45110808285E+03 -0.23766097830E+03 -0.15990275839E+04  0.16783534959E+04  0.25500000920E-02 0. -1.
       -2    1    3    3    0  502  0.45110808285E+03  0.23766097830E+03 -0.93890994939E+02  0.51845613311E+03  0.25500000920E-02 0.  1.
</event>
<event>
 5   0  0.2428507E-05  0.1404438E+04  0.7818609E-02  0.8950612E-01
       -1   -1    0    0    0  501  0.00000000000E+00  0.00000000000E+00  0.81397449482E+03  0.81397449484E+03  0.50400001928E-02 0.  1.
        1   -1    0    0  501    0  0.00000000000E+00  0.00000000000E+00 -0.60580715045E+03  0.60580715047E+03  0.50400001928E-02 0. -1.
    10030    2    1    2    0    0  0.00000000000E+00  0.00000000000E+00  0.20816734438E+03  0.14197816453E+04  0.14044380645E+04 0.  0.
        4    1    3    3  502    0  0.47644173857E+03  0.44744247518E+03 -0.15544750682E+03  0.67183855138E+03  0.12699999809E+01 0. -1.
       -4    1    3    3    0  502 -0.47644173857E+03 -0.44744247518E+03  0.36361485119E+03  0.74794309393E+03  0.12699999809E+01 0.  1.
</event>
<event>
 5   0  0.2427569E-05  0.1401641E+04  0.7818609E-02  0.8952632E-01
        1   -1    0    0  501    0  0.00000000000E+00  0.00000000000E+00  0.14552930338E+04  0.14552930338E+04  0.50400001928E-02 0.  1.
       -1   -1    0    0    0  501  0.00000000000E+00  0.00000000000E+00 -0.33749163833E+03  0.33749163837E+03  0.50400001928E-02 0. -1.
    10030    2    1    2    0    0  0.00000000000E+00  0.00000000000E+00  0.11178013954E+04  0.17927846722E+04  0.14016407960E+04 0.  0.
        1    1    3    3  502    0  0.62614908196E+03 -0.23012426597E+02  0.15735487996E+03  0.64602848458E+03  0.50400001928E-02 0. -1.
       -1    1    3    3    0  502 -0.62614908196E+03  0.23012426597E+02  0.96044651548E+03  0.11467561876E+04  0.50400001928E-02 0.  1.
</event>
<event>
 5   0  0.4621450E-05  0.1399108E+04  0.7818609E-02  0.8954464E-01
        2   -1    0    0  501    0  0.00000000000E+00  0.00000000000E+00  0.13064257641E+04  0.13064257641E+04  0.25500000920E-02 0.  1.
       -2   -1    0    0    0  501  0.00000000000E+00  0.00000000000E+00 -0.37459153851E+03  0.37459153852E+03  0.25500000920E-02 0. -1.
    10030    2    1    2    0    0  0.00000000000E+00  0.00000000000E+00  0.93183422560E+03  0.16810173026E+04  0.13991083402E+04 0.  0.
        5    1    3    3  502    0  0.25482030106E+03 -0.48865596620E+03  0.98358572266E+03  0.11274666305E+04  0.46999998093E+01 0.  1.
       -5    1    3    3    0  502 -0.25482030106E+03  0.48865596620E+03 -0.51751497063E+02  0.55355067210E+03  0.46999998093E+01 0. -1.
</event>
<event>
 5   0  0.2316714E-05  0.1399766E+04  0.7818609E-02  0.8953988E-01
        1   -1    0    0  501    0  0.00000000000E+00  0.00000000000E+00  0.77421206632E+03  0.77421206634E+03  0.50400001928E-02 0.  1.
       -1   -1    0    0    0  501  0.00000000000E+00  0.00000000000E+00 -0.63268964702E+03  0.63268964704E+03  0.50400001928E-02 0. -1.
    10030    2    1    2    0    0  0.00000000000E+00  0.00000000000E+00  0.14152241930E+03  0.14069017134E+04  0.13997656361E+04 0.  0.
        5    1    3    3  502    0 -0.64961294975E+03  0.14934857958E+03 -0.14366153405E+03  0.68188174127E+03  0.46999998093E+01 0. -1.
       -5    1    3    3    0  502  0.64961294975E+03 -0.14934857958E+03  0.28518395335E+03  0.72501997211E+03  0.46999998093E+01 0.  1.
</event>
<event>
 5   0  0.4243281E-05  0.1400224E+04  0.7818609E-02  0.8953656E-01
        2   -1    0    0  501    0  0.00000000000E+00  0.00000000000E+00  0.97088699673E+03  0.97088699673E+03  0.25500000920E-02 0. -1.
       -2   -1    0    0    0  501  0.00000000000E+00  0.00000000000E+00 -0.50485466816E+03  0.50485466817E+03  0.25500000920E-02 0.  1.
    10030    2    1    2    0    0  0.00000000000E+00  0.00000000000E+00  0.46603232856E+03  0.14757416649E+04  0.14002240286E+04 0.  0.
        2    1    3    3  502    0 -0.48157077982E+03 -0.49052486578E+03  0.37296226464E+03  0.78206515763E+03  0.25500000920E-02 0. -1.
       -2    1    3    3    0  502  0.48157077982E+03  0.49052486578E+03  0.93070063927E+02  0.69367650727E+03  0.25500000920E-02 0.  1.
</event>
<event>
 5   0  0.4527503E-05  0.1399653E+04  0.7818609E-02  0.8954070E-01
        2   -1    0    0  501    0  0.00000000000E+00  0.00000000000E+00  0.72732337791E+03  0.72732337792E+03  0.25500000920E-02 0.  1.
       -2   -1    0    0    0  501  0.00000000000E+00  0.00000000000E+00 -0.67336918386E+03  0.67336918387E+03  0.25500000920E-02 0. -1.
    10030    2    1    2    0    0  0.00000000000E+00  0.00000000000E+00  0.53954194050E+02  0.14006925618E+04  0.13996530276E+04 0.  0.
        4    1    3    3  502    0 -0.25835105843E+03  0.11694487245E+03  0.66724455805E+03  0.72500916251E+03  0.12699999809E+01 0.  1.
       -4    1    3    3    0  502  0.25835105843E+03 -0.11694487245E+03 -0.61329036400E+03  0.67568339927E+03  0.12699999809E+01 0. -1.
</event>
<event>
 5   0  0.2428507E-05  0.1399362E+04  0.7818609E-02  0.8954281E-01
        1   -1    0    0  501    0  0.00000000000E+00  0.00000000000E+00  0.89608260993E+03  0.89608260994E+03  0.50400001928E-02 0.  1.
       -1   -1    0    0    0  501  0.00000000000E+00  0.00000000000E+00 -0.54632619310E+03  0.54632619312E+03  0.50400001928E-02 0. -1.
    10030    2    1    2    0    0  0.00000000000E+00  0.00000000000E+00  0.34975641683E+03  0.14424088031E+04  0.13993618560E+04 0.  0.
        4    1    3    3  502    0  0.29983167551E+03 -0.46999070915E+03  0.61068632342E+03  0.82687949476E+03  0.12699999809E+01 0.  1.
       -4    1    3    3    0  502 -0.29983167551E+03  0.46999070915E+03 -0.26092990660E+03  0.61552930831E+03  0.12699999809E+01 0. -1.
</event>
<event>
 5   0  0.4621450E-05  0.1399829E+04  0.7818609E-02  0.8953943E-01
        2   -1    0    0  501    0  0.00000000000E+00  0.00000000000E+00  0.19564931061E+04  0.19564931061E+04  0.25500000920E-02 0. -1.
       -2   -1    0    0    0  501  0.00000000000E+00  0.00000000000E+00 -0.25038681363E+03  0.25038681365E+03  0.25500000920E-02 0.  1.
    10030    2    1    2    0    0  0.00000000000E+00  0.00000000000E+00  0.17061062924E+04  0.22068799197E+04  0.13998286677E+04 0.  0.
        5    1    3    3  502    0 -0.72838133848E+02  0.68767667134E+03  0.68286476844E+03  0.97186983698E+03  0.46999998093E+01 0.  1.
       -5    1    3    3    0  502  0.72838133848E+02 -0.68767667134E+03  0.10232415240E+04  0.12350100827E+04  0.46999998093E+01 0. -1.
</event>
<event>
 5   0  0.4441253E-05  0.1400160E+04  0.7818609E-02  0.8953703E-01
       -2   -1    0    0    0  501  0.00000000000E+00  0.00000000000E+00  0.42173020900E+03  0.42173020901E+03  0.25500000920E-02 0. -1.
        2   -1    0    0  501    0  0.00000000000E+00  0.00000000000E+00 -0.11621457693E+04  0.11621457693E+04  0.25500000920E-02 0.  1.
    10030    2    1    2    0    0  0.00000000000E+00  0.00000000000E+00 -0.74041556025E+03  0.15838759783E+04  0.14001599597E+04 0.  0.
        3    1    3    3  502    0 -0.22493075642E+03 -0.13329873432E+03  0.36442591239E+03  0.44851828678E+03  0.10100000352E+00 0. -1.
       -3    1    3    3    0  502  0.22493075642E+03  0.13329873432E+03 -0.11048414726E+04  0.11353576915E+04  0.10100000352E+00 0.  1.
</event>
<event>
 5   0  0.4527503E-05  0.1402996E+04  0.7818609E-02  0.8951653E-01
       -2   -1    0    0    0  501  0.00000000000E+00  0.00000000000E+00  0.83547307392E+03  0.83547307392E+03  0.25500000920E-02 0. -1.
        2   -1    0    0  501    0  0.00000000000E+00  0.00000000000E+00 -0.58900661364E+03  0.58900661364E+03  0.25500000920E-02 0.  1.
    10030    2    1    2    0    0  0.00000000000E+00  0.00000000000E+00  0.24646646028E+03  0.14244796876E+04  0.14029956038E+04 0.  0.
        4    1    3    3  502    0  0.57106254114E+03 -0.23372995730E+00 -0.29041813984E+03  0.64066901702E+03  0.12699999809E+01 0.  1.
       -4    1    3    3    0  502 -0.57106254114E+03  0.23372995730E+00  0.53688460012E+03  0.78381067055E+03  0.12699999809E+01 0. -1.
</event>
<event>
 5   0  0.2363419E-05  0.1400114E+04  0.7818609E-02  0.8953736E-01
        1   -1    0    0  501    0  0.00000000000E+00  0.00000000000E+00  0.16399825169E+04  0.16399825169E+04  0.50400001928E-02 0. -1.
       -1   -1    0    0    0  501  0.00000000000E+00  0.00000000000E+00 -0.29883225683E+03  0.29883225687E+03  0.50400001928E-02 0.  1.
    10030    2    1    2    0    0  0.00000000000E+00  0.00000000000E+00  0.13411502601E+04  0.19388147738E+04  0.14001138193E+04 0.  0.
        2    1    3    3  502    0 -0.61109785364E+02 -0.43476085186E+03 -0.84501592481E+02  0.44709274577E+03  0.25500000920E-02 0.  1.
       -2    1    3    3    0  502  0.61109785364E+02  0.43476085186E+03  0.14256518526E+04  0.14917220280E+04  0.25500000920E-02 0. -1.
</event>
<event>
 5   0  0.4621450E-05  0.1399795E+04  0.7818609E-02  0.8953967E-01
        2   -1    0    0  501    0  0.00000000000E+00  0.00000000000E+00  0.10753007849E+04  0.10753007849E+04  0.25500000920E-02 0.  1.
       -2   -1    0    0    0  501  0.00000000000E+00  0.00000000000E+00 -0.45555291258E+03  0.45555291259E+03  0.25500000920E-02 0. -1.
    10030    2    1    2    0    0  0.00000000000E+00  0.00000000000E+00  0.61974787233E+03  0.15308536975E+04  0.13997948485E+04 0.  0.
        5    1    3    3  502    0 -0.44618499328E+03 -0.16117061328E+03  0.87261637828E+03  0.99324641880E+03  0.46999998093E+01 0.  1.
       -5    1    3    3    0  502  0.44618499328E+03  0.16117061328E+03 -0.25286850595E+03  0.53760727870E+03  0.46999998093E+01 0. -1.
</event>
<event>
 5   0  0.2316714E-05  0.1400085E+04  0.7818609E-02  0.8953757E-01
        1   -1    0    0  501    0  0.00000000000E+00  0.00000000000E+00  0.18478086892E+04  0.18478086892E+04  0.50400001928E-02 0.  1.
       -1   -1    0    0    0  501  0.00000000000E+00  0.00000000000E+00 -0.26521101433E+03  0.26521101438E+03  0.50400001928E-02 0. -1.
    10030    2    1    2    0    0  0.00000000000E+00  0.00000000000E+00  0.15825976749E+04  0.21130197036E+04  0.14000845929E+04 0.  0.
        5    1    3    3  502    0 -0.57109315671E+03 -0.40209805392E+03  0.86219772757E+03  0.11096113058E+04  0.46999998093E+01 0.  1.
       -5    1    3    3    0  502  0.57109315671E+03  0.40209805392E+03  0.72039994729E+03  0.10034083977E+04  0.46999998093E+01 0. -1.
</event>
<event>
 5   0  0.4527503E-05  0.1397505E+04  0.7818609E-02  0.8955627E-01
       -2   -1    0    0    0  501  0.00000000000E+00  0.00000000000E+00  0.32794911776E+03  0.32794911777E+03  0.25500000920E-02 0. -1.
        2   -1    0    0  501    0  0.00000000000E+00  0.00000000000E+00 -0.14888129524E+04  0.14888129524E+04  0.25500000920E-02 0.  1.
    10030    2    1    2    0    0  0.00000000000E+00  0.00000000000E+00 -0.11608638346E+04  0.18167620701E+04  0.13975047681E+04 0.  0.
        4    1    3    3  502    0 -0.48769794199E+03  0.11098956080E+03 -0.12147557975E+04  0.13136975397E+04  0.12699999809E+01 0.  1.
       -4    1    3    3    0  502  0.48769794199E+03 -0.11098956080E+03  0.53891962923E+02  0.50306453045E+03  0.12699999809E+01 0. -1.
</event>
<event>
 5   0  0.2427569E-05  0.1401746E+04  0.7818609E-02  0.8952556E-01
       -1   -1    0    0    0  501  0.00000000000E+00  0.00000000000E+00  0.58797807827E+03  0.58797807829E+03  0.50400001928E-02 0.  1.
        1   -1    0    0  501    0  0.00000000000E+00  0.00000000000E+00 -0.83544426530E+03  0.83544426531E+03  0.50400001928E-02 0. -1.
    10030    2    1    2    0    0  0.00000000000E+00  0.00000000000E+00 -0.24746618703E+03  0.14234223436E+04  0.14017459308E+04 0.  0.
        1    1    3    3  502    0 -0.67213247401E+03 -0.79117077178E+02  0.61296960155E+02  0.67954314938E+03  0.50400001928E-02 0. -1.
       -1    1    3    3    0  502  0.67213247401E+03  0.79117077178E+02 -0.30876314719E+03  0.74387919423E+03  0.50400001928E-02 0.  1.
</event>
<event>
 5   0  0.4621450E-05  0.1391486E+04  0.7818609E-02  0.8960004E-01
       -2   -1    0    0    0  501  0.00000000000E+00  0.00000000000E+00  0.38933196626E+03  0.38933196627E+03  0.25500000920E-02 0. -1.
        2   -1    0    0  501    0  0.00000000000E+00  0.00000000000E+00 -0.12433050949E+04  0.12433050949E+04  0.25500000920E-02 0.  1.
    10030    2    1    2    0    0  0.00000000000E+00  0.00000000000E+00 -0.85397312861E+03  0.16326370611E+04  0.13914861368E+04 0.  0.
        5    1    3    3  502    0  0.51777417519E+03 -0.36161331917E+03 -0.76942679472E+03  0.99543657333E+03  0.46999998093E+01 0.  1.
       -5    1    3    3    0  502 -0.51777417519E+03  0.36161331917E+03 -0.84546333884E+02  0.63720048781E+03  0.46999998093E+01 0. -1.
</event>
<event>
 5   0  0.2316714E-05  0.1399742E+04  0.7818609E-02  0.8954005E-01
        1   -1    0    0  501    0  0.00000000000E+00  0.00000000000E+00  0.19819591395E+04  0.19819591395E+04  0.50400001928E-02 0.  1.
       -1   -1    0    0    0  501  0.00000000000E+00  0.00000000000E+00 -0.24713900115E+03  0.24713900120E+03  0.50400001928E-02 0. -1.
    10030    2    1    2    0    0  0.00000000000E+00  0.00000000000E+00  0.17348201383E+04  0.22290981407E+04  0.13997419793E+04 0.  0.
        5    1    3    3  502    0  0.65301258573E+03 -0.13460268155E+03  0.12061837441E+04  0.13782034079E+04  0.46999998093E+01 0. -1.
       -5    1    3    3    0  502 -0.65301258573E+03  0.13460268155E+03  0.52863639425E+03  0.85089473281E+03  0.46999998093E+01 0.  1.
</event>
<event>
 5   0  0.2316714E-05  0.1400151E+04  0.7818609E-02  0.8953709E-01
       -1   -1    0    0    0  501  0.00000000000E+00  0.00000000000E+00  0.37802925786E+03  0.37802925790E+03  0.50400001928E-02 0.  1.
        1   -1    0    0  501    0  0.00000000000E+00  0.00000000000E+00 -0.12964749663E+04  0.12964749663E+04  0.50400001928E-02 0. -1.
    10030    2    1    2    0    0  0.00000000000E+00  0.00000000000E+00 -0.91844570847E+03  0.16745042242E+04  0.14001506625E+04 0.  0.
        5    1    3    3  502    0  0.33911462781E+03 -0.40567833871E+03 -0.10079387843E+04  0.11382162923E+04  0.46999998093E+01 0. -1.
       -5    1    3    3    0  502 -0.33911462781E+03  0.40567833871E+03  0.89493075805E+02  0.53628793191E+03  0.46999998093E+01 0.  1.
</event>
<event>
 5   0  0.4621450E-05  0.1398603E+04  0.7818609E-02  0.8954830E-01
        2   -1    0    0  501    0  0.00000000000E+00  0.00000000000E+00  0.18319715342E+04  0.18319715342E+04  0.25500000920E-02 0.  1.
       -2   -1    0    0    0  501  0.00000000000E+00  0.00000000000E+00 -0.26693805276E+03  0.26693805277E+03  0.25500000920E-02 0. -1.
    10030    2    1    2    0    0  0.00000000000E+00  0.00000000000E+00  0.15650334815E+04  0.20989095870E+04  0.13986034664E+04 0.  0.
        5    1    3    3  502    0  0.24072494856E+03 -0.42429422525E+03  0.15344150677E+04  0.16101011709E+04  0.46999998093E+01 0.  1.
       -5    1    3    3    0  502 -0.24072494856E+03  0.42429422525E+03  0.30618413784E+02  0.48880841616E+03  0.46999998093E+01 0. -1.
</event>
<event>
 5   0  0.2428507E-05  0.1400009E+04  0.7818609E-02  0.8953812E-01
       -1   -1    0    0    0  501  0.00000000000E+00  0.00000000000E+00  0.69512605523E+03  0.69512605525E+03  0.50400001928E-02 0.  1.
        1   -1    0    0  501    0  0.00000000000E+00  0.00000000000E+00 -0.70491746056E+03  0.70491746057E+03  0.50400001928E-02 0. -1.
    10030    2    1    2    0    0  0.00000000000E+00  0.00000000000E+00 -0.97914053233E+01  0.14000435158E+04  0.14000092766E+04 0.  0.
        4    1    3    3  502    0  0.47147206917E+03  0.21441711233E+03  0.46601311755E+03  0.69672838947E+03  0.12699999809E+01 0.  1.
       -4    1    3    3    0  502 -0.47147206917E+03 -0.21441711233E+03 -0.47580452287E+03  0.70331512635E+03  0.12699999809E+01 0. -1.
</event>
<event>
 5   0  0.2428507E-05  0.1400211E+04  0.7818609E-02  0.8953665E-01
        1   -1    0    0  501    0  0.00000000000E+00  0.00000000000E+00  0.12332095493E+04  0.12332095493E+04  0.50400001928E-02 0.  1.
       -1   -1    0    0    0  501  0.00000000000E+00  0.00000000000E+00 -0.39745721632E+03  0.39745721635E+03  0.50400001928E-02 0. -1.
    10030    2    1    2    0    0  0.00000000000E+00  0.00000000000E+00  0.83575233299E+03  0.16306667657E+04  0.14002114621E+04 0.  0.
        4    1    3    3  502    0  0.50456558118E+03  0.31476590068E+03  0.84811534420E+03  0.10358403583E+04  0.12699999809E+01 0.  1.
       -4    1    3    3    0  502 -0.50456558118E+03 -0.31476590068E+03 -0.12363011201E+02  0.59482640736E+03  0.12699999809E+01 0. -1.
</event>
<event>
 5   0  0.2316714E-05  0.1399244E+04  0.7818609E-02  0.8954366E-01
        1   -1    0    0  501    0  0.00000000000E+00  0.00000000000E+00  0.64857407878E+03  0.64857407880E+03  0.50400001928E-02 0.  1.
       -1   -1    0    0    0  501  0.00000000000E+00  0.00000000000E+00 -0.75468792001E+03  0.75468792003E+03  0.50400001928E-02 0. -1.
    10030    2    1    2    0    0  0.00000000000E+00  0.00000000000E+00 -0.10611384123E+03  0.14032619988E+04  0.13992441138E+04 0.  0.
        5    1    3    3  502    0  0.69105312933E+02 -0.48483850209E+03 -0.55409637909E+03  0.73951930651E+03  0.46999998093E+01 0. -1.
       -5    1    3    3    0  502 -0.69105312933E+02  0.48483850209E+03  0.44798253785E+03  0.66374269232E+03  0.46999998093E+01 0.  1.
</event>
<event>
 5   0  0.2428507E-05  0.1400302E+04  0.7818609E-02  0.8953600E-01
        1   -1    0    0  501    0  0.00000000000E+00  0.00000000000E+00  0.59178790216E+03  0.59178790218E+03  0.50400001928E-02 0.  1.
       -1   -1    0    0    0  501  0.00000000000E+00  0.00000000000E+00 -0.82835608908E+03  0.82835608909E+03  0.50400001928E-02 0. -1.
    10030    2    1    2    0    0  0.00000000000E+00  0.00000000000E+00 -0.23656818692E+03  0.14201439913E+04  0.14003015564E+04 0.  0.
        4    1    3    3  502    0 -0.58188769201E+03  0.37526783850E+03 -0.12935967069E+02  0.69252306017E+03  0.12699999809E+01 0.  1.
       -4    1    3    3    0  502  0.58188769201E+03 -0.37526783850E+03 -0.22363221985E+03  0.72762093110E+03  0.12699999809E+01 0. -1.
</event>
<event>
 5   0  0.2428507E-05  0.1399163E+04  0.7818609E-02  0.8954425E-01
        1   -1    0    0  501    0  0.00000000000E+00  0.00000000000E+00  0.11872163451E+04  0.11872163451E+04  0.50400001928E-02 0. -1.
       -1   -1    0    0    0  501  0.00000000000E+00  0.00000000000E+00 -0.41223656140E+03  0.41223656143E+03  0.50400001928E-02 0.  1.
    10030    2    1    2    0    0  0.00000000000E+00  0.00000000000E+00  0.77497978368E+03  0.15994529065E+04  0.13991625835E+04 0.  0.
        4    1    3    3  502    0  0.31440023451E+02 -0.68367378019E+03  0.22177625878E+03  0.71943355124E+03  0.12699999809E+01 0. -1.
       -4    1    3    3    0  502 -0.31440023451E+02  0.68367378019E+03  0.55320352490E+03  0.88001935527E+03  0.12699999809E+01 0.  1.
</event>
<event>
 5   0  0.2428507E-05  0.1400067E+04  0.7818609E-02  0.8953770E-01
        1   -1    0    0  501    0  0.00000000000E+00  0.00000000000E+00  0.13941850230E+04  0.13941850231E+04  0.50400001928E-02 0.  1.
       -1   -1    0    0    0  501  0.00000000000E+00  0.00000000000E+00 -0.35149339975E+03  0.35149339978E+03  0.50400001928E-02 0. -1.
    10030    2    1    2    0    0  0.00000000000E+00  0.00000000000E+00  0.10426916233E+04  0.17456784228E+04  0.14000669036E+04 0.  0.
        4    1    3    3  502    0 -0.13350551233E+03 -0.57417396300E+03  0.99209827923E+03  0.11540190944E+04  0.12699999809E+01 0.  1.
       -4    1    3    3    0  502  0.13350551233E+03  0.57417396300E+03  0.50593344071E+02  0.59165932847E+03  0.12699999809E+01 0. -1.
</event>
<event>
 5   0  0.2427569E-05  0.1400318E+04  0.7818609E-02  0.8953588E-01
       -1   -1    0    0    0  501  0.00000000000E+00  0.00000000000E+00  0.72223393125E+03  0.72223393127E+03  0.50400001928E-02 0. -1.
        1   -1    0    0  501    0  0.00000000000E+00  0.00000000000E+00 -0.67875865180E+03  0.67875865182E+03  0.50400001928E-02 0.  1.
    10030    2    1    2    0    0  0.00000000000E+00  0.00000000000E+00  0.43475279449E+02  0.14009925831E+04  0.14003178632E+04 0.  0.
        1    1    3    3  502    0  0.64307314399E+02  0.67168737931E+03  0.20870508516E+03  0.70629822229E+03  0.50400001928E-02 0. -1.
       -1    1    3    3    0  502 -0.64307314399E+02 -0.67168737931E+03 -0.16522980572E+03  0.69469436080E+03  0.50400001928E-02 0.  1.
</event>
<event>
 5   0  0.4243281E-05  0.1399730E+04  0.7818609E-02  0.8954014E-01
        2   -1    0    0  501    0  0.00000000000E+00  0.00000000000E+00  0.16787102304E+04  0.16787102304E+04  0.25500000920E-02 0.  1.
       -2   -1    0    0    0  501  0.00000000000E+00  0.00000000000E+00 -0.29177833751E+03  0.29177833752E+03  0.25500000920E-02 0. -1.
    10030    2    1    2    0    0  0.00000000000E+00  0.00000000000E+00  0.13869318929E+04  0.19704885680E+04  0.13997303743E+04 0.  0.
        2    1    3    3  502    0 -0.46681573702E+03 -0.18533577856E+03  0.73421583253E+01  0.50231483200E+03  0.25500000920E-02 0. -1.
       -2    1    3    3    0  502  0.46681573702E+03  0.18533577856E+03  0.13795897346E+04  0.14681737360E+04  0.25500000920E-02 0.  1.
</event>
<event>
 5   0  0.2427569E-05  0.1400043E+04  0.7818609E-02  0.8953788E-01
       -1   -1    0    0    0  501  0.00000000000E+00  0.00000000000E+00  0.21839957058E+03  0.21839957064E+03  0.50400001928E-02 0. -1.
        1   -1    0    0  501    0  0.00000000000E+00  0.00000000000E+00 -0.22437308486E+04  0.22437308486E+04  0.50400001928E-02 0.  1.
    10030    2    1    2    0    0  0.00000000000E+00  0.00000000000E+00 -0.20253312780E+04  0.24621304193E+04  0.14000426478E+04 0.  0.
        1    1    3    3  502    0  0.71251758695E+02 -0.44118011437E+03 -0.65113446895E+02  0.45161539768E+03  0.50400001928E-02 0. -1.
       -1    1    3    3    0  502 -0.71251758695E+02  0.44118011437E+03 -0.19602178311E+04  0.20105150216E+04  0.50400001928E-02 0.  1.
</event>
<event>
 5   0  0.2428507E-05  0.1399597E+04  0.7818609E-02  0.8954110E-01
       -1   -1    0    0    0  501  0.00000000000E+00  0.00000000000E+00  0.91980407074E+03  0.91980407075E+03  0.50400001928E-02 0.  1.
        1   -1    0    0  501    0  0.00000000000E+00  0.00000000000E+00 -0.53241567094E+03  0.53241567097E+03  0.50400001928E-02 0. -1.
    10030    2    1    2    0    0  0.00000000000E+00  0.00000000000E+00  0.38738839980E+03  0.14522197417E+04  0.13995972299E+04 0.  0.
        4    1    3    3  502    0  0.43952805693E+03 -0.26723892596E+03  0.68599598866E+03  0.85743435068E+03  0.12699999809E+01 0.  1.
       -4    1    3    3    0  502 -0.43952805693E+03  0.26723892596E+03 -0.29860758886E+03  0.59478539104E+03  0.12699999809E+01 0. -1.
</event>
<event>
 5   0  0.4621450E-05  0.1400016E+04  0.7818609E-02  0.8953807E-01
        2   -1    0    0  501    0  0.00000000000E+00  0.00000000000E+00  0.93636671627E+03  0.93636671628E+03  0.25500000920E-02 0.  1.
       -2   -1    0    0    0  501  0.00000000000E+00  0.00000000000E+00 -0.52331133747E+03  0.52331133747E+03  0.25500000920E-02 0. -1.
    10030    2    1    2    0    0  0.00000000000E+00  0.00000000000E+00  0.41305537881E+03  0.14596780537E+04  0.14000161694E+04 0.  0.
        5    1    3    3  502    0  0.12946928522E+03  0.53172419412E+03 -0.24853089922E+03  0.60106789325E+03  0.46999998093E+01 0. -1.
       -5    1    3    3    0  502 -0.12946928522E+03 -0.53172419412E+03  0.66158627803E+03  0.85861016050E+03  0.46999998093E+01 0.  1.
</event>
<event>
 5   0  0.1661000E-05  0.1398276E+04  0.7818609E-02  0.8955067E-01
       -4   -1    0    0    0  501  0.00000000000E+00  0.00000000000E+00  0.11458194260E+04  0.11458201298E+04  0.12699999809E+01 0.  1.
        4   -1    0    0  501    0  0.00000000000E+00  0.00000000000E+00 -0.42658737391E+03  0.42658926437E+03  0.12699999809E+01 0. -1.
    10030    2    1    2    0    0  0.00000000000E+00  0.00000000000E+00  0.71923205211E+03  0.15724093942E+04  0.13982762811E+04 0.  0.
        1    1    3    3  502    0 -0.39328943923E+03  0.41386438211E+03  0.81339561531E+03  0.99376694291E+03  0.50400001928E-02 0.  1.
       -1    1    3    3    0  502  0.39328943923E+03 -0.41386438211E+03 -0.94163563200E+02  0.57864245130E+03  0.50400001928E-02 0. -1.
</event>
<event>
 5   0  0.2467303E-05  0.1401665E+04  0.7818609E-02  0.8952614E-01
       -1   -1    0    0    0  501  0.00000000000E+00  0.00000000000E+00  0.35867638414E+03  0.35867638418E+03  0.50400001928E-02 0.  1.
        1   -1    0    0  501    0  0.00000000000E+00  0.00000000000E+00 -0.13693861688E+04  0.13693861689E+04  0.50400001928E-02 0. -1.
    10030    2    1    2    0    0  0.00000000000E+00  0.00000000000E+00 -0.10107097847E+04  0.17280625530E+04  0.14016654088E+04 0.  0.
        3    1    3    3  502    0 -0.48534009910E+03 -0.29733494689E+03 -0.10094792002E+04  0.11588836647E+04  0.10100000352E+00 0. -1.
       -3    1    3    3    0  502  0.48534009910E+03  0.29733494689E+03 -0.12305845402E+01  0.56917888838E+03  0.10100000352E+00 0.  1.
</event>
<event>
 5   0  0.2428507E-05  0.1397762E+04  0.7818609E-02  0.8955440E-01
        1   -1    0    0  501    0  0.00000000000E+00  0.00000000000E+00  0.42611121303E+03  0.42611121306E+03  0.50400001928E-02 0. -1.
       -1   -1    0    0    0  501  0.00000000000E+00  0.00000000000E+00 -0.11462610543E+04  0.11462610543E+04  0.50400001928E-02 0.  1.
    10030    2    1    2    0    0  0.00000000000E+00  0.00000000000E+00 -0.72014984125E+03  0.15723722673E+04  0.13977620517E+04 0.  0.
        4    1    3    3  502    0  0.11639835656E+03 -0.45594618146E+03  0.22119224371E+03  0.51996453665E+03  0.12699999809E+01 0. -1.
       -4    1    3    3    0  502 -0.11639835656E+03  0.45594618146E+03 -0.94134208495E+03  0.10524077307E+04  0.12699999809E+01 0.  1.
</event>
<event>
 5   0  0.2428507E-05  0.1399808E+04  0.7818609E-02  0.8953957E-01
        1   -1    0    0  501    0  0.00000000000E+00  0.00000000000E+00  0.86619244823E+03  0.86619244824E+03  0.50400001928E-02 0. -1.
       -1   -1    0    0    0  501  0.00000000000E+00  0.00000000000E+00 -0.56553908023E+03  0.56553908025E+03  0.50400001928E-02 0.  1.
    10030    2    1    2    0    0  0.00000000000E+00  0.00000000000E+00  0.30065336800E+03  0.14317315285E+04  0.13998081018E+04 0.  0.
        4    1    3    3  502    0 -0.35464454984E+03  0.60332653097E+03  0.15994366217E+03  0.71788526079E+03  0.12699999809E+01 0. -1.
       -4    1    3    3    0  502  0.35464454984E+03 -0.60332653097E+03  0.14070970583E+03  0.71384626770E+03  0.12699999809E+01 0.  1.
</event>
<event>
 5   0  0.4527503E-05  0.1399869E+04  0.7818609E-02  0.8953913E-01
       -2   -1    0    0    0  501  0.00000000000E+00  0.00000000000E+00  0.45368151620E+03  0.45368151621E+03  0.25500000920E-02 0. -1.
        2   -1    0    0  501    0  0.00000000000E+00  0.00000000000E+00 -0.10798507414E+04  0.10798507414E+04  0.25500000920E-02 0.  1.
    10030    2    1    2    0    0  0.00000000000E+00  0.00000000000E+00 -0.62616922517E+03  0.15335322576E+04  0.13998690248E+04 0.  0.
        4    1    3    3  502    0  0.30943813406E+03 -0.59535324746E+03 -0.53138344473E+03  0.85590152839E+03  0.12699999809E+01 0.  1.
       -4    1    3    3    0  502 -0.30943813406E+03  0.59535324746E+03 -0.94785780446E+02  0.67763072919E+03  0.12699999809E+01 0. -1.
</event>
<event>
 5   0  0.1661000E-05  0.1399687E+04  0.7818609E-02  0.8954045E-01
       -3   -1    0    0    0  501  0.00000000000E+00  0.00000000000E+00  0.38408937084E+03  0.38408938412E+03  0.10100000352E+00 0. -1.
        3   -1    0    0  501    0  0.00000000000E+00  0.00000000000E+00 -0.12751747382E+04  0.12751747422E+04  0.10100000352E+00 0.  1.
    10030    2    1    2    0    0  0.00000000000E+00  0.00000000000E+00 -0.89108536733E+03  0.16592641263E+04  0.13996872182E+04 0.  0.
        4    1    3    3  502    0 -0.35340356815E+03 -0.59821138222E+03 -0.54492671507E+03  0.88300491363E+03  0.12699999809E+01 0. -1.
       -4    1    3    3    0  502  0.35340356815E+03  0.59821138222E+03 -0.34615865225E+03  0.77625921265E+03  0.12699999809E+01 0.  1.
</event>
<event>
 5   0  0.2467303E-05  0.1399644E+04  0.7818609E-02  0.8954076E-01
       -1   -1    0    0    0  501  0.00000000000E+00  0.00000000000E+00  0.89258000337E+03  0.89258000338E+03  0.50400001928E-02 0.  1.
        1   -1    0    0  501    0  0.00000000000E+00  0.00000000000E+00 -0.54869146772E+03  0.54869146775E+03  0.50400001928E-02 0. -1.
    10030    2    1    2    0    0  0.00000000000E+00  0.00000000000E+00  0.34388853565E+03  0.14412714711E+04  0.13996442864E+04 0.  0.
        3    1    3    3  502    0 -0.13570635159E+03 -0.57357910641E+03  0.56044725898E+03  0.81333286265E+03  0.10100000352E+00 0.  1.
       -3    1    3    3    0  502  0.13570635159E+03  0.57357910641E+03 -0.21655872333E+03  0.62793860848E+03  0.10100000352E+00 0. -1.
</event>
<event>
 5   0  0.4243281E-05  0.1400894E+04  0.7818609E-02  0.8953172E-01
        2   -1    0    0  501    0  0.00000000000E+00  0.00000000000E+00  0.65985054552E+03  0.65985054553E+03  0.25500000920E-02 0. -1.
       -2   -1    0    0    0  501  0.00000000000E+00  0.00000000000E+00 -0.74354112821E+03  0.74354112821E+03  0.25500000920E-02 0.  1.
    10030    2    1    2    0    0  0.00000000000E+00  0.00000000000E+00 -0.83690582684E+02  0.14033916737E+04  0.14008940275E+04 0.  0.
        2    1    3    3  502    0  0.30901653456E+03 -0.25660769206E+03 -0.61670397704E+03  0.73597725614E+03  0.25500000920E-02 0.  1.
       -2    1    3    3    0  502 -0.30901653456E+03  0.25660769206E+03  0.53301339435E+03  0.66741441760E+03  0.25500000920E-02 0. -1.
</event>
<event>
 5   0  0.4621450E-05  0.1399743E+04  0.7818609E-02  0.8954005E-01
        2   -1    0    0  501    0  0.00000000000E+00  0.00000000000E+00  0.18472782621E+04  0.18472782621E+04  0.25500000920E-02 0. -1.
       -2   -1    0    0    0  501  0.00000000000E+00  0.00000000000E+00 -0.26515761367E+03  0.26515761368E+03  0.25500000920E-02 0.  1.
    10030    2    1    2    0    0  0.00000000000E+00  0.00000000000E+00  0.15821206485E+04  0.21124358758E+04  0.13997426846E+04 0.  0.
        5    1    3    3  502    0 -0.32492270943E+03 -0.56840687372E+03  0.41790795892E+03  0.77674338962E+03  0.46999998093E+01 0.  1.
       -5    1    3    3    0  502  0.32492270943E+03  0.56840687372E+03  0.11642126895E+04  0.13356924862E+04  0.46999998093E+01 0. -1.
</event>
<event>
 5   0  0.4441253E-05  0.1400280E+04  0.7818609E-02  0.8953616E-01
        2   -1    0    0  501    0  0.00000000000E+00  0.00000000000E+00  0.17459880267E+04  0.17459880267E+04  0.25500000920E-02 0. -1.
       -2   -1    0    0    0  501  0.00000000000E+00  0.00000000000E+00 -0.28075562342E+03  0.28075562343E+03  0.25500000920E-02 0.  1.
    10030    2    1    2    0    0  0.00000000000E+00  0.00000000000E+00  0.14652324033E+04  0.20267436502E+04  0.14002799105E+04 0.  0.
        3    1    3    3  502    0 -0.51268067484E+03  0.45414524233E+02  0.14196163672E+04  0.15100379445E+04  0.10100000352E+00 0. -1.
       -3    1    3    3    0  502  0.51268067484E+03 -0.45414524233E+02  0.45616036078E+02  0.51670570571E+03  0.10100000352E+00 0.  1.
</event>
<event>
 5   0  0.2363419E-05  0.1400424E+04  0.7818609E-02  0.8953512E-01
        1   -1    0    0  501    0  0.00000000000E+00  0.00000000000E+00  0.10901524822E+04  0.10901524822E+04  0.50400001928E-02 0. -1.
       -1   -1    0    0    0  501  0.00000000000E+00  0.00000000000E+00 -0.44975059232E+03  0.44975059235E+03  0.50400001928E-02 0.  1.
    10030    2    1    2    0    0  0.00000000000E+00  0.00000000000E+00  0.64040188986E+03  0.15399030745E+04  0.14004238281E+04 0.  0.
        2    1    3    3  502    0 -0.61677337426E+03  0.24131327017E+03  0.70286668833E+02  0.66601929805E+03  0.25500000920E-02 0. -1.
       -2    1    3    3    0  502  0.61677337426E+03 -0.24131327017E+03  0.57011522103E+03  0.87388377649E+03  0.25500000920E-02 0.  1.
</event>
<event>
 5   0  0.4441253E-05  0.1400221E+04  0.7818609E-02  0.8953659E-01
       -2   -1    0    0    0  501  0.00000000000E+00  0.00000000000E+00  0.23013674934E+03  0.23013674935E+03  0.25500000920E-02 0. -1.
        2   -1    0    0  501    0  0.00000000000E+00  0.00000000000E+00 -0.21298400948E+04  0.21298400948E+04  0.25500000920E-02 0.  1.
    10030    2    1    2    0    0  0.00000000000E+00  0.00000000000E+00 -0.18997033455E+04  0.23599768442E+04  0.14002206627E+04 0.  0.
        3    1    3    3  502    0 -0.47327205687E+03 -0.51081815664E+03 -0.82793029600E+03  0.10818457442E+04  0.10100000352E+00 0.  1.
       -3    1    3    3    0  502  0.47327205687E+03  0.51081815664E+03 -0.10717730495E+04  0.12781311000E+04  0.10100000352E+00 0. -1.
</event>
<event>
 5   0  0.2316714E-05  0.1400279E+04  0.7818609E-02  0.8953616E-01
        1   -1    0    0  501    0  0.00000000000E+00  0.00000000000E+00  0.20792573698E+03  0.20792573704E+03  0.50400001928E-02 0. -1.
       -1   -1    0    0    0  501  0.00000000000E+00  0.00000000000E+00 -0.23575506020E+04  0.23575506020E+04  0.50400001928E-02 0.  1.
    10030    2    1    2    0    0  0.00000000000E+00  0.00000000000E+00 -0.21496248651E+04  0.25654763391E+04  0.14002791814E+04 0.  0.
        5    1    3    3  502    0  0.35796211995E+03  0.59353886993E+03 -0.89392304811E+03  0.11311700913E+04  0.46999998093E+01 0. -1.
       -5    1    3    3    0  502 -0.35796211995E+03 -0.59353886993E+03 -0.12557018169E+04  0.14343062478E+04  0.46999998093E+01 0.  1.
</event>
<event>
 5   0  0.2467303E-05  0.1399467E+04  0.7818609E-02  0.8954204E-01
        1   -1    0    0  501    0  0.00000000000E+00  0.00000000000E+00  0.77907918720E+03  0.77907918722E+03  0.50400001928E-02 0.  1.
       -1   -1    0    0    0  501  0.00000000000E+00  0.00000000000E+00 -0.62846886438E+03  0.62846886440E+03  0.50400001928E-02 0. -1.
    10030    2    1    2    0    0  0.00000000000E+00  0.00000000000E+00  0.15061032282E+03  0.14075480516E+04  0.13994670587E+04 0.  0.
        3    1    3    3  502    0  0.35619615445E+03  0.19884766348E+03  0.64710437590E+03  0.76495763100E+03  0.10100000352E+00 0.  1.
       -3    1    3    3    0  502 -0.35619615445E+03 -0.19884766348E+03 -0.49649405309E+03  0.64259042062E+03  0.10100000352E+00 0. -1.
</event>
<event>
 5   0  0.2428507E-05  0.1399623E+04  0.7818609E-02  0.8954091E-01
        1   -1    0    0  501    0  0.00000000000E+00  0.00000000000E+00  0.92481244626E+03  0.92481244628E+03  0.50400001928E-02 0. -1.
       -1   -1    0    0    0  501  0.00000000000E+00  0.00000000000E+00 -0.52955199439E+03  0.52955199441E+03  0.50400001928E-02 0.  1.
    10030    2    1    2    0    0  0.00000000000E+00  0.00000000000E+00  0.39526045187E+03  0.14543644407E+04  0.13996231998E+04 0.  0.
        4    1    3    3  502    0  0.16988804343E+03 -0.20151070682E+03 -0.47600427310E+03  0.54410494684E+03  0.12699999809E+01 0.  1.
       -4    1    3    3    0  502 -0.16988804343E+03  0.20151070682E+03  0.87126472497E+03  0.91025949385E+03  0.12699999809E+01 0. -1.
</event>
<event>
 5   0  0.4527503E-05  0.1398948E+04  0.7818609E-02  0.8954581E-01
       -2   -1    0    0    0  501  0.00000000000E+00  0.00000000000E+00  0.67737621907E+03  0.67737621907E+03  0.25500000920E-02 0.  1.
        2   -1    0    0  501    0  0.00000000000E+00  0.00000000000E+00 -0.72229223586E+03  0.72229223586E+03  0.25500000920E-02 0. -1.
    10030    2    1    2    0    0  0.00000000000E+00  0.00000000000E+00 -0.44916016788E+02  0.13996684549E+04  0.13989475813E+04 0.  0.
        4    1    3    3  502    0 -0.39267276312E+03 -0.34780234900E+02 -0.60056229874E+03  0.71838586512E+03  0.12699999809E+01 0. -1.
       -4    1    3    3    0  502  0.39267276312E+03  0.34780234900E+02  0.55564628195E+03  0.68128258982E+03  0.12699999809E+01 0.  1.
</event>
<event>
 5   0  0.2428507E-05  0.1399764E+04  0.7818609E-02  0.8953990E-01
       -1   -1    0    0    0  501  0.00000000000E+00  0.00000000000E+00  0.98717536414E+03  0.98717536416E+03  0.50400001928E-02 0.  1.
        1   -1    0    0  501    0  0.00000000000E+00  0.00000000000E+00 -0.49619822804E+03  0.49619822806E+03  0.50400001928E-02 0. -1.
    10030    2    1    2    0    0  0.00000000000E+00  0.00000000000E+00  0.49097713611E+03  0.14833735922E+04  0.13997637893E+04 0.  0.
        4    1    3    3  502    0 -0.24323596407E+03 -0.42893554408E+03  0.77182804403E+03  0.91589823542E+03  0.12699999809E+01 0.  1.
       -4    1    3    3    0  502  0.24323596407E+03  0.42893554408E+03 -0.28085090792E+03  0.56747535680E+03  0.12699999809E+01 0. -1.
</event>
<event>
 5   0  0.1661000E-05  0.1400203E+04  0.7818609E-02  0.8953672E-01
        4   -1    0    0  501    0  0.00000000000E+00  0.00000000000E+00  0.77324589807E+03  0.77324694101E+03  0.12699999809E+01 0. -1.
       -4   -1    0    0    0  501  0.00000000000E+00  0.00000000000E+00 -0.63387405218E+03  0.63387532444E+03  0.12699999809E+01 0.  1.
    10030    2    1    2    0    0  0.00000000000E+00  0.00000000000E+00  0.13937184589E+03  0.14071222655E+04  0.14002030419E+04 0.  0.
        4    1    3    3  502    0 -0.14906672773E+03  0.42440946100E+03 -0.46943151726E+03  0.65016293512E+03  0.12699999809E+01 0.  1.
       -4    1    3    3    0  502  0.14906672773E+03 -0.42440946100E+03  0.60880336314E+03  0.75695933034E+03  0.12699999809E+01 0. -1.
</event>
<event>
 5   0  0.2467303E-05  0.1400577E+04  0.7818609E-02  0.8953401E-01
       -1   -1    0    0    0  501  0.00000000000E+00  0.00000000000E+00  0.78920260056E+03  0.78920260058E+03  0.50400001928E-02 0. -1.
        1   -1    0    0  501    0  0.00000000000E+00  0.00000000000E+00 -0.62139138938E+03  0.62139138940E+03  0.50400001928E-02 0.  1.
    10030    2    1    2    0    0  0.00000000000E+00  0.00000000000E+00  0.16781121118E+03  0.14105939900E+04  0.14005765963E+04 0.  0.
        3    1    3    3  502    0  0.65873314642E+02 -0.68993764282E+03  0.18487455224E+03  0.71730875837E+03  0.10100000352E+00 0.  1.
       -3    1    3    3    0  502 -0.65873314642E+02  0.68993764282E+03 -0.17063341061E+02  0.69328523161E+03  0.10100000352E+00 0. -1.
</event>
<event>
 5   0  0.4243281E-05  0.1399806E+04  0.7818609E-02  0.8953959E-01
       -2   -1    0    0    0  501  0.00000000000E+00  0.00000000000E+00  0.51801440196E+03  0.51801440197E+03  0.25500000920E-02 0.  1.
        2   -1    0    0  501    0  0.00000000000E+00  0.00000000000E+00 -0.94565690886E+03  0.94565690887E+03  0.25500000920E-02 0. -1.
    10030    2    1    2    0    0  0.00000000000E+00  0.00000000000E+00 -0.42764250690E+03  0.14636713108E+04  0.13998055552E+04 0.  0.
        2    1    3    3  502    0  0.12520996582E+03 -0.73595790102E+02  0.50208435233E+03  0.52266870264E+03  0.25500000920E-02 0.  1.
       -2    1    3    3    0  502 -0.12520996582E+03  0.73595790102E+02 -0.92972685923E+03  0.94100260820E+03  0.25500000920E-02 0. -1.
</event>
<event>
 5   0  0.4527503E-05  0.1400043E+04  0.7818609E-02  0.8953788E-01
       -2   -1    0    0    0  501  0.00000000000E+00  0.00000000000E+00  0.33194865443E+03  0.33194865444E+03  0.25500000920E-02 0.  1.
        2   -1    0    0  501    0  0.00000000000E+00  0.00000000000E+00 -0.14762216517E+04  0.14762216517E+04  0.25500000920E-02 0. -1.
    10030    2    1    2    0    0  0.00000000000E+00  0.00000000000E+00 -0.11442729973E+04  0.18081703061E+04  0.14000425578E+04 0.  0.
        4    1    3    3  502    0 -0.22827306583E+03  0.65345279030E+03 -0.43718110374E+03  0.81868068996E+03  0.12699999809E+01 0. -1.
       -4    1    3    3    0  502  0.22827306583E+03 -0.65345279030E+03 -0.70709189352E+03  0.98948961618E+03  0.12699999809E+01 0.  1.
</event>
<event>
 5   0  0.4243281E-05  0.1403504E+04  0.7818609E-02  0.8951286E-01
       -2   -1    0    0    0  501  0.00000000000E+00  0.00000000000E+00  0.40102525513E+03  0.40102525513E+03  0.25500000920E-02 0.  1.
        2   -1    0    0  501    0  0.00000000000E+00  0.00000000000E+00 -0.12279928577E+04  0.12279928577E+04  0.25500000920E-02 0. -1.
    10030    2    1    2    0    0  0.00000000000E+00  0.00000000000E+00 -0.82696760255E+03  0.16290181128E+04  0.14035043984E+04 0.  0.
        2    1    3    3  502    0 -0.63167417795E+03 -0.17362254259E+03 -0.70550265002E+03  0.96275180788E+03  0.25500000920E-02 0. -1.
       -2    1    3    3    0  502  0.63167417795E+03  0.17362254259E+03 -0.12146495252E+03  0.66626630493E+03  0.25500000920E-02 0.  1.
</event>
<event>
 5   0  0.2428507E-05  0.1400164E+04  0.7818609E-02  0.8953700E-01
        1   -1    0    0  501    0  0.00000000000E+00  0.00000000000E+00  0.10391571711E+04  0.10391571711E+04  0.50400001928E-02 0. -1.
       -1   -1    0    0    0  501  0.00000000000E+00  0.00000000000E+00 -0.47164669750E+03  0.47164669753E+03  0.50400001928E-02 0.  1.
    10030    2    1    2    0    0  0.00000000000E+00  0.00000000000E+00  0.56751047358E+03  0.15108038686E+04  0.14001643446E+04 0.  0.
        4    1    3    3  502    0 -0.27553249807E+03  0.45214308068E+03 -0.21043298541E+03  0.56976765190E+03  0.12699999809E+01 0.  1.
       -4    1    3    3    0  502  0.27553249807E+03 -0.45214308068E+03  0.77794345899E+03  0.94103621672E+03  0.12699999809E+01 0. -1.
</event>
<event>
 5   0  0.4621450E-05  0.1397909E+04  0.7818609E-02  0.8955333E-01
        2   -1    0    0  501    0  0.00000000000E+00  0.00000000000E+00  0.14438158170E+04  0.14438158170E+04  0.25500000920E-02 0.  1.
       -2   -1    0    0    0  501  0.00000000000E+00  0.00000000000E+00 -0.33836547157E+03  0.33836547158E+03  0.25500000920E-02 0. -1.
    10030    2    1    2    0    0  0.00000000000E+00  0.00000000000E+00  0.11054503454E+04  0.17821812886E+04  0.13979090382E+04 0.  0.
        5    1    3    3  502    0 -0.23923968711E+03 -0.35485973450E+03 -0.15176504337E+03  0.45410987376E+03  0.46999998093E+01 0. -1.
       -5    1    3    3    0  502  0.23923968711E+03  0.35485973450E+03  0.12572153888E+04  0.13280714148E+04  0.46999998093E+01 0.  1.
</event>
<event>
 5   0  0.2363419E-05  0.1400023E+04  0.7818609E-02  0.8953802E-01
        1   -1    0    0  501    0  0.00000000000E+00  0.00000000000E+00  0.17001124612E+04  0.17001124612E+04  0.50400001928E-02 0. -1.
       -1   -1    0    0    0  501  0.00000000000E+00  0.00000000000E+00 -0.28822576765E+03  0.28822576770E+03  0.50400001928E-02 0.  1.
    10030    2    1    2    0    0  0.00000000000E+00  0.00000000000E+00  0.14118866935E+04  0.19883382289E+04  0.14000231702E+04 0.  0.
        2    1    3    3  502    0  0.60162326751E+02  0.68231592727E+03  0.50091141868E+03  0.84857927122E+03  0.25500000920E-02 0.  1.
       -2    1    3    3    0  502 -0.60162326751E+02 -0.68231592727E+03  0.91097527483E+03  0.11397589576E+04  0.25500000920E-02 0. -1.
</event>
<event>
 5   0  0.2427569E-05  0.1399742E+04  0.7818609E-02  0.8954005E-01
        1   -1    0    0  501    0  0.00000000000E+00  0.00000000000E+00  0.42227469901E+03  0.42227469904E+03  0.50400001928E-02 0.  1.
       -1   -1    0    0    0  501  0.00000000000E+00  0.00000000000E+00 -0.11599542499E+04  0.11599542499E+04  0.50400001928E-02 0. -1.
    10030    2    1    2    0    0  0.00000000000E+00  0.00000000000E+00 -0.73767955093E+03  0.15822289490E+04  0.13997418788E+04 0.  0.
        1    1    3    3  502    0  0.41625874065E+03  0.67597075161E+02  0.26253000579E+03  0.49675215923E+03  0.50400001928E-02 0.  1.
       -1    1    3    3    0  502 -0.41625874065E+03 -0.67597075161E+02 -0.10002095567E+04  0.10854767898E+04  0.50400001928E-02 0. -1.
</event>
<event>
 5   0  0.2316714E-05  0.1399556E+04  0.7818609E-02  0.8954140E-01
        1   -1    0    0  501    0  0.00000000000E+00  0.00000000000E+00  0.88146522733E+03  0.88146522734E+03  0.50400001928E-02 0. -1.
       -1   -1    0    0    0  501  0.00000000000E+00  0.00000000000E+00 -0.55554025132E+03  0.55554025134E+03  0.50400001928E-02 0.  1.
    10030    2    1    2    0    0  0.00000000000E+00  0.00000000000E+00  0.32592497601E+03  0.14370054787E+04  0.13995562353E+04 0.  0.
        5    1    3    3  502    0 -0.50423742289E+03  0.34515678361E+03 -0.18715856751E+03  0.63909232769E+03  0.46999998093E+01 0.  1.
       -5    1    3    3    0  502  0.50423742289E+03 -0.34515678361E+03  0.51308354352E+03  0.79791315100E+03  0.46999998093E+01 0. -1.
</event>
<event>
 5   0  0.2428507E-05  0.1400036E+04  0.7818609E-02  0.8953792E-01
       -1   -1    0    0    0  501  0.00000000000E+00  0.00000000000E+00  0.56956226101E+03  0.56956226104E+03  0.50400001928E-02 0. -1.
        1   -1    0    0  501    0  0.00000000000E+00  0.00000000000E+00 -0.86035460786E+03  0.86035460787E+03  0.50400001928E-02 0.  1.
    10030    2    1    2    0    0  0.00000000000E+00  0.00000000000E+00 -0.29079234684E+03  0.14299168689E+04  0.14000364506E+04 0.  0.
        4    1    3    3  502    0 -0.10564191976E+03  0.21630739366E+03 -0.81674914425E+03  0.85148686502E+03  0.12699999809E+01 0.  1.
       -4    1    3    3    0  502  0.10564191976E+03 -0.21630739366E+03  0.52595679741E+03  0.57843000389E+03  0.12699999809E+01 0. -1.
</event>
<event>
 5   0  0.4460282E-05  0.1398485E+04  0.7818609E-02  0.8954916E-01
        2   -1    0    0  501    0  0.00000000000E+00  0.00000000000E+00  0.55115951807E+03  0.55115951807E+03  0.25500000920E-02 0.  1.
       -2   -1    0    0    0  501  0.00000000000E+00  0.00000000000E+00 -0.88711130352E+03  0.88711130352E+03  0.25500000920E-02 0. -1.
    10030    2    1    2    0    0  0.00000000000E+00  0.00000000000E+00 -0.33595178545E+03  0.14382708216E+04  0.13984846635E+04 0.  0.
        1    1    3    3  502    0  0.19145386975E+03  0.32583310399E+03  0.43707942384E+03  0.57780638511E+03  0.50400001928E-02 0.  1.
       -1    1    3    3    0  502 -0.19145386975E+03 -0.32583310399E+03 -0.77303120930E+03  0.86046443649E+03  0.50400001928E-02 0. -1.
</event>
<event>
 5   0  0.2427569E-05  0.1400462E+04  0.7818609E-02  0.8953484E-01
       -1   -1    0    0    0  501  0.00000000000E+00  0.00000000000E+00  0.30271828017E+03  0.30271828021E+03  0.50400001928E-02 0. -1.
        1   -1    0    0  501    0  0.00000000000E+00  0.00000000000E+00 -0.16197348157E+04  0.16197348157E+04  0.50400001928E-02 0.  1.
    10030    2    1    2    0    0  0.00000000000E+00  0.00000000000E+00 -0.13170165355E+04  0.19224530959E+04  0.14004618349E+04 0.  0.
        1    1    3    3  502    0 -0.46917013700E+03 -0.36616102896E+03 -0.15203151452E+03  0.61425409889E+03  0.50400001928E-02 0. -1.
       -1    1    3    3    0  502  0.46917013700E+03  0.36616102896E+03 -0.11649850210E+04  0.13081989970E+04  0.50400001928E-02 0.  1.
</event>
<event>
 5   0  0.4441253E-05  0.1398889E+04  0.7818609E-02  0.8954623E-01
       -2   -1    0    0    0  501  0.00000000000E+00  0.00000000000E+00  0.29928705594E+03  0.29928705596E+03  0.25500000920E-02 0. -1.
        2   -1    0    0  501    0  0.00000000000E+00  0.00000000000E+00 -0.16346263585E+04  0.16346263585E+04  0.25500000920E-02 0.  1.
    10030    2    1    2    0    0  0.00000000000E+00  0.00000000000E+00 -0.13353393025E+04  0.19339134144E+04  0.13988888596E+04 0.  0.
        3    1    3    3  502    0  0.31994939237E+03  0.49541784939E+03 -0.14778960162E+03  0.60798703582E+03  0.10100000352E+00 0. -1.
       -3    1    3    3    0  502 -0.31994939237E+03 -0.49541784939E+03 -0.11875497009E+04  0.13259263786E+04  0.10100000352E+00 0.  1.
</event>
<event>
 5   0  0.4460282E-05  0.1399953E+04  0.7818609E-02  0.8953853E-01
       -2   -1    0    0    0  501  0.00000000000E+00  0.00000000000E+00  0.27648928645E+03  0.27648928646E+03  0.25500000920E-02 0.  1.
        2   -1    0    0  501    0  0.00000000000E+00  0.00000000000E+00 -0.17721008036E+04  0.17721008036E+04  0.25500000920E-02 0. -1.
    10030    2    1    2    0    0  0.00000000000E+00  0.00000000000E+00 -0.14956115171E+04  0.20485900901E+04  0.13999526945E+04 0.  0.
        1    1    3    3  502    0  0.20851503483E+02  0.50424097698E+03 -0.38019021722E+02  0.50610196018E+03  0.50400001928E-02 0.  1.
       -1    1    3    3    0  502 -0.20851503483E+02 -0.50424097698E+03 -0.14575924954E+04  0.15424881299E+04  0.50400001928E-02 0. -1.
</event>
<event>
 5   0  0.4460282E-05  0.1399931E+04  0.7818609E-02  0.8953868E-01
       -2   -1    0    0    0  501  0.00000000000E+00  0.00000000000E+00  0.34676785213E+03  0.34676785214E+03  0.25500000920E-02 0.  1.
        2   -1    0    0  501    0  0.00000000000E+00  0.00000000000E+00 -0.14129099753E+04  0.14129099753E+04  0.25500000920E-02 0. -1.
    10030    2    1    2    0    0  0.00000000000E+00  0.00000000000E+00 -0.10661421232E+04  0.17596778275E+04  0.13999310803E+04 0.  0.
        1    1    3    3  502    0 -0.69586086899E+03  0.56092321519E+02 -0.46918682034E+03  0.84113314638E+03  0.50400001928E-02 0. -1.
       -1    1    3    3    0  502  0.69586086899E+03 -0.56092321519E+02 -0.59695530284E+03  0.91854468108E+03  0.50400001928E-02 0.  1.
</event>
<event>
 5   0  0.4621450E-05  0.1400720E+04  0.7818609E-02  0.8953298E-01
        2   -1    0    0  501    0  0.00000000000E+00  0.00000000000E+00  0.10915493373E+04  0.10915493373E+04  0.25500000920E-02 0. -1.
       -2   -1    0    0    0  501  0.00000000000E+00  0.00000000000E+00 -0.44936493902E+03  0.44936493903E+03  0.25500000920E-02 0.  1.
    10030    2    1    2    0    0  0.00000000000E+00  0.00000000000E+00  0.64218439830E+03  0.15409142764E+04  0.14007198170E+04 0.  0.
        5    1    3    3  502    0 -0.25446348666E+03  0.62295700465E+03  0.10762189484E+03  0.68149222882E+03  0.46999998093E+01 0.  1.
       -5    1    3    3    0  502  0.25446348666E+03 -0.62295700465E+03  0.53456250346E+03  0.85942204754E+03  0.46999998093E+01 0. -1.
</event>
<event>
 5   0  0.2316714E-05  0.1399761E+04  0.7818609E-02  0.8953991E-01
       -1   -1    0    0    0  501  0.00000000000E+00  0.00000000000E+00  0.28645238086E+03  0.28645238091E+03  0.50400001928E-02 0. -1.
        1   -1    0    0  501    0  0.00000000000E+00  0.00000000000E+00 -0.17099974586E+04  0.17099974586E+04  0.50400001928E-02 0.  1.
    10030    2    1    2    0    0  0.00000000000E+00  0.00000000000E+00 -0.14235450777E+04  0.19964498395E+04  0.13997611844E+04 0.  0.
        5    1    3    3  502    0  0.50280783238E+02 -0.49753586329E+02 -0.17048633808E+04  0.17063366648E+04  0.46999998093E+01 0.  1.
       -5    1    3    3    0  502 -0.50280783238E+02  0.49753586329E+02  0.28131830304E+03  0.29011317471E+03  0.46999998093E+01 0. -1.
</event>
<event>
 5   0  0.4441253E-05  0.1400050E+04  0.7818609E-02  0.8953783E-01
       -2   -1    0    0    0  501  0.00000000000E+00  0.00000000000E+00  0.50346710683E+03  0.50346710684E+03  0.25500000920E-02 0. -1.
        2   -1    0    0  501    0  0.00000000000E+00  0.00000000000E+00 -0.97332020905E+03  0.97332020905E+03  0.25500000920E-02 0.  1.
    10030    2    1    2    0    0  0.00000000000E+00  0.00000000000E+00 -0.46985310222E+03  0.14767873159E+04  0.14000495844E+04 0.  0.
        3    1    3    3  502    0  0.53193580490E+02  0.50412325400E+03  0.27430225293E+03  0.57637795620E+03  0.10100000352E+00 0. -1.
       -3    1    3    3    0  502 -0.53193580490E+02 -0.50412325400E+03 -0.74415535514E+03  0.90040935969E+03  0.10100000352E+00 0.  1.
</event>
<event>
 5   0  0.2363419E-05  0.1400153E+04  0.7818609E-02  0.8953708E-01
        1   -1    0    0  501    0  0.00000000000E+00  0.00000000000E+00  0.10539268954E+04  0.10539268955E+04  0.50400001928E-02 0.  1.
       -1   -1    0    0    0  501  0.00000000000E+00  0.00000000000E+00 -0.46502953593E+03  0.46502953595E+03  0.50400001928E-02 0. -1.
    10030    2    1    2    0    0  0.00000000000E+00  0.00000000000E+00  0.58889735952E+03  0.15189564314E+04  0.14001530418E+04 0.  0.
        2    1    3    3  502    0 -0.80896389791E+01 -0.51642662850E+03 -0.21824521979E+03  0.56070748243E+03  0.25500000920E-02 0. -1.
       -2    1    3    3    0  502  0.80896389791E+01  0.51642662850E+03  0.80714257930E+03  0.95824894898E+03  0.25500000920E-02 0.  1.
</event>
<event>
 5   0  0.2427569E-05  0.1399039E+04  0.7818609E-02  0.8954515E-01
        1   -1    0    0  501    0  0.00000000000E+00  0.00000000000E+00  0.76255032084E+03  0.76255032086E+03  0.50400001928E-02 0.  1.
       -1   -1    0    0    0  501  0.00000000000E+00  0.00000000000E+00 -0.64169846401E+03  0.64169846403E+03  0.50400001928E-02 0. -1.
    10030    2    1    2    0    0  0.00000000000E+00  0.00000000000E+00  0.12085185684E+03  0.14042487849E+04  0.13990387695E+04 0.  0.
        1    1    3    3  502    0 -0.24806318837E+03 -0.36726881842E+03  0.60364895847E+03  0.74887501994E+03  0.50400001928E-02 0.  1.
       -1    1    3    3    0  502  0.24806318837E+03  0.36726881842E+03 -0.48279710163E+03  0.65537376494E+03  0.50400001928E-02 0. -1.
</event>
<event>
 5   0  0.2467303E-05  0.1398687E+04  0.7818609E-02  0.8954770E-01
       -1   -1    0    0    0  501  0.00000000000E+00  0.00000000000E+00  0.12769155330E+04  0.12769155330E+04  0.50400001928E-02 0. -1.
        1   -1    0    0  501    0  0.00000000000E+00  0.00000000000E+00 -0.38301754212E+03  0.38301754216E+03  0.50400001928E-02 0.  1.
    10030    2    1    2    0    0  0.00000000000E+00  0.00000000000E+00  0.89389799083E+03  0.16599330751E+04  0.13986865967E+04 0.  0.
        3    1    3    3  502    0 -0.43338483046E+03  0.54427659201E+03  0.53104822933E+03  0.87525519248E+03  0.10100000352E+00 0.  1.
       -3    1    3    3    0  502  0.43338483046E+03 -0.54427659201E+03  0.36284976150E+03  0.78467788264E+03  0.10100000352E+00 0. -1.
</event>
<event>
 5   0  0.2467303E-05  0.1400217E+04  0.7818609E-02  0.8953662E-01
        1   -1    0    0  501    0  0.00000000000E+00  0.00000000000E+00  0.16145315165E+04  0.16145315165E+04  0.50400001928E-02 0.  1.
       -1   -1    0    0    0  501  0.00000000000E+00  0.00000000000E+00 -0.30358769011E+03  0.30358769016E+03  0.50400001928E-02 0. -1.
    10030    2    1    2    0    0  0.00000000000E+00  0.00000000000E+00  0.13109438264E+04  0.19181192066E+04  0.14002169743E+04 0.  0.
        3    1    3    3  502    0  0.22165471616E+02  0.22214015465E+02  0.16135675925E+04  0.16138727200E+04  0.10100000352E+00 0.  1.
       -3    1    3    3    0  502 -0.22165471616E+02 -0.22214015465E+02 -0.30262376612E+03  0.30424648665E+03  0.10100000352E+00 0. -1.
</event>
<event>
 5   0  0.4243281E-05  0.1399586E+04  0.7818609E-02  0.8954118E-01
        2   -1    0    0  501    0  0.00000000000E+00  0.00000000000E+00  0.10087920516E+04  0.10087920516E+04  0.25500000920E-02 0. -1.
       -2   -1    0    0    0  501  0.00000000000E+00  0.00000000000E+00 -0.48544230643E+03  0.48544230644E+03  0.25500000920E-02 0.  1.
    10030    2    1    2    0    0  0.00000000000E+00  0.00000000000E+00  0.52334974513E+03  0.14942343580E+04  0.13995861392E+04 0.  0.
        2    1    3    3  502    0 -0.33476329654E+03  0.59504851907E+03  0.97798178715E+02  0.68972000733E+03  0.25500000920E-02 0. -1.
       -2    1    3    3    0  502  0.33476329654E+03 -0.59504851907E+03  0.42555156641E+03  0.80451435067E+03  0.25500000920E-02 0.  1.
</event>
<event>
 5   0  0.2316714E-05  0.1399931E+04  0.7818609E-02  0.8953869E-01
        1   -1    0    0  501    0  0.00000000000E+00  0.00000000000E+00  0.66380369974E+03  0.66380369976E+03  0.50400001928E-02 0. -1.
       -1   -1    0    0    0  501  0.00000000000E+00  0.00000000000E+00 -0.73809688013E+03  0.73809688015E+03  0.50400001928E-02 0.  1.
    10030    2    1    2    0    0  0.00000000000E+00  0.00000000000E+00 -0.74293180388E+02  0.14019005799E+04  0.13999306266E+04 0.  0.
        5    1    3    3  502    0  0.39029032735E+03 -0.53136391201E+02  0.54226879284E+03  0.67024439526E+03  0.46999998093E+01 0. -1.
       -5    1    3    3    0  502 -0.39029032735E+03  0.53136391201E+02 -0.61656197323E+03  0.73165618464E+03  0.46999998093E+01 0.  1.
</event>
<event>
 5   0  0.4621450E-05  0.1399743E+04  0.7818609E-02  0.8954004E-01
       -2   -1    0    0    0  501  0.00000000000E+00  0.00000000000E+00  0.70430805598E+03  0.70430805598E+03  0.25500000920E-02 0.  1.
        2   -1    0    0  501    0  0.00000000000E+00  0.00000000000E+00 -0.69546315784E+03  0.69546315784E+03  0.25500000920E-02 0. -1.
    10030    2    1    2    0    0  0.00000000000E+00  0.00000000000E+00  0.88448981422E+01  0.13997712138E+04  0.13997432689E+04 0.  0.
        5    1    3    3  502    0 -0.26596021206E+03  0.62912951385E+03  0.15693593649E+03  0.70084931173E+03  0.46999998093E+01 0.  1.
       -5    1    3    3    0  502  0.26596021206E+03 -0.62912951385E+03 -0.14809103835E+03  0.69892190210E+03  0.46999998093E+01 0. -1.
</event>
<event>
 5   0  0.2363419E-05  0.1400301E+04  0.7818609E-02  0.8953601E-01
       -1   -1    0    0    0  501  0.00000000000E+00  0.00000000000E+00  0.51455944049E+03  0.51455944051E+03  0.50400001928E-02 0. -1.
        1   -1    0    0  501    0  0.00000000000E+00  0.00000000000E+00 -0.95268031661E+03  0.95268031662E+03  0.50400001928E-02 0.  1.
    10030    2    1    2    0    0  0.00000000000E+00  0.00000000000E+00 -0.43812087612E+03  0.14672397571E+04  0.14003008972E+04 0.  0.
        2    1    3    3  502    0 -0.50507178850E+03 -0.17041311035E+03  0.25659202586E+03  0.59158905286E+03  0.25500000920E-02 0. -1.
       -2    1    3    3    0  502  0.50507178850E+03  0.17041311035E+03 -0.69471290197E+03  0.87565070428E+03  0.25500000920E-02 0.  1.
</event>
<event>
 5   0  0.1661000E-05  0.1399744E+04  0.7818609E-02  0.8954004E-01
        4   -1    0    0  501    0  0.00000000000E+00  0.00000000000E+00  0.54947006345E+03  0.54947153113E+03  0.12699999809E+01 0. -1.
       -4   -1    0    0    0  501  0.00000000000E+00  0.00000000000E+00 -0.89143905460E+03  0.89143995926E+03  0.12699999809E+01 0.  1.
    10030    2    1    2    0    0  0.00000000000E+00  0.00000000000E+00 -0.34196899115E+03  0.14409114904E+04  0.13997439524E+04 0.  0.
        3    1    3    3  502    0  0.52272053562E+03  0.45588274900E+03 -0.26730419858E+03  0.74331513100E+03  0.10100000352E+00 0. -1.
       -3    1    3    3    0  502 -0.52272053562E+03 -0.45588274900E+03 -0.74664792570E+02  0.69759635939E+03  0.10100000352E+00 0.  1.
</event>
<event>
 5   0  0.2427569E-05  0.1399968E+04  0.7818609E-02  0.8953842E-01
        1   -1    0    0  501    0  0.00000000000E+00  0.00000000000E+00  0.59800386840E+03  0.59800386842E+03  0.50400001928E-02 0. -1.
       -1   -1    0    0    0  501  0.00000000000E+00  0.00000000000E+00 -0.81935499729E+03  0.81935499730E+03  0.50400001928E-02 0.  1.
    10030    2    1    2    0    0  0.00000000000E+00  0.00000000000E+00 -0.22135112888E+03  0.14173588657E+04  0.13999677968E+04 0.  0.
        1    1    3    3  502    0 -0.21555973250E+03 -0.16411639418E+03 -0.76412135256E+03  0.81072907347E+03  0.50400001928E-02 0.  1.
       -1    1    3    3    0  502  0.21555973250E+03  0.16411639418E+03  0.54277022368E+03  0.60662979225E+03  0.50400001928E-02 0. -1.
</event>
<event>
 5   0  0.2363419E-05  0.1401026E+04  0.7818609E-02  0.8953076E-01
       -1   -1    0    0    0  501  0.00000000000E+00  0.00000000000E+00  0.21239464356E+03  0.21239464362E+03  0.50400001928E-02 0.  1.
        1   -1    0    0  501    0  0.00000000000E+00  0.00000000000E+00 -0.23104081234E+04  0.23104081234E+04  0.50400001928E-02 0. -1.
    10030    2    1    2    0    0  0.00000000000E+00  0.00000000000E+00 -0.20980134798E+04  0.25228027670E+04  0.14010257812E+04 0.  0.
        2    1    3    3  502    0 -0.18560645091E+03 -0.67036207006E+03 -0.11984010143E+04  0.13856406644E+04  0.25500000920E-02 0. -1.
       -2    1    3    3    0  502  0.18560645091E+03  0.67036207006E+03 -0.89961246547E+03  0.11371621026E+04  0.25500000920E-02 0.  1.
</event>
<event>
 5   0  0.4460282E-05  0.1399891E+04  0.7818609E-02  0.8953897E-01
       -2   -1    0    0    0  501  0.00000000000E+00  0.00000000000E+00  0.60394774642E+03  0.60394774642E+03  0.25500000920E-02 0. -1.
        2   -1    0    0  501    0  0.00000000000E+00  0.00000000000E+00 -0.81120262430E+03  0.81120262430E+03  0.25500000920E-02 0.  1.
    10030    2    1    2    0    0  0.00000000000E+00  0.00000000000E+00 -0.20725487788E+03  0.14151503707E+04  0.13998914198E+04 0.  0.
        1    1    3    3  502    0 -0.34951369624E+02 -0.69740719363E+03 -0.15237761628E+03  0.71471485918E+03  0.50400001928E-02 0.  1.
       -1    1    3    3    0  502  0.34951369624E+02  0.69740719363E+03 -0.54877261602E+02  0.70043551154E+03  0.50400001928E-02 0. -1.
</event>
<event>
 5   0  0.4460282E-05  0.1396657E+04  0.7818609E-02  0.8956242E-01
        2   -1    0    0  501    0  0.00000000000E+00  0.00000000000E+00  0.59649923029E+03  0.59649923030E+03  0.25500000920E-02 0. -1.
       -2   -1    0    0    0  501  0.00000000000E+00  0.00000000000E+00 -0.81754086992E+03  0.81754086993E+03  0.25500000920E-02 0.  1.
    10030    2    1    2    0    0  0.00000000000E+00  0.00000000000E+00 -0.22104163963E+03  0.14140401002E+04  0.13966567218E+04 0.  0.
        1    1    3    3  502    0 -0.25730073058E+03 -0.24892833498E+03  0.49651956093E+03  0.61212797381E+03  0.50400001928E-02 0. -1.
       -1    1    3    3    0  502  0.25730073058E+03  0.24892833498E+03 -0.71756120056E+03  0.80191212641E+03  0.50400001928E-02 0.  1.
</event>
<event>
 5   0  0.1661000E-05  0.1399250E+04  0.7818609E-02  0.8954362E-01
       -3   -1    0    0    0  501  0.00000000000E+00  0.00000000000E+00  0.12071673999E+04  0.12071674041E+04  0.10100000352E+00 0.  1.
        3   -1    0    0  501    0  0.00000000000E+00  0.00000000000E+00 -0.40547393220E+03  0.40547394478E+03  0.10100000352E+00 0. -1.
    10030    2    1    2    0    0  0.00000000000E+00  0.00000000000E+00  0.80169346771E+03  0.16126413489E+04  0.13992496933E+04 0.  0.
        4    1    3    3  502    0  0.75450445435E+02 -0.50091682517E+03  0.95699770612E+03  0.10828003777E+04  0.12699999809E+01 0.  1.
       -4    1    3    3    0  502 -0.75450445435E+02  0.50091682517E+03 -0.15530423841E+03  0.52984097125E+03  0.12699999809E+01 0. -1.
</event>
<event>
 5   0  0.2428507E-05  0.1400285E+04  0.7818609E-02  0.8953612E-01
        1   -1    0    0  501    0  0.00000000000E+00  0.00000000000E+00  0.46770724905E+03  0.46770724908E+03  0.50400001928E-02 0. -1.
       -1   -1    0    0    0  501  0.00000000000E+00  0.00000000000E+00 -0.10480906223E+04  0.10480906223E+04  0.50400001928E-02 0.  1.
    10030    2    1    2    0    0  0.00000000000E+00  0.00000000000E+00 -0.58038337322E+03  0.15157978714E+04  0.14002850877E+04 0.  0.
        4    1    3    3  502    0  0.14642095161E+03 -0.54372992404E+03 -0.74058739173E+03  0.93035080645E+03  0.12699999809E+01 0.  1.
       -4    1    3    3    0  502 -0.14642095161E+03  0.54372992404E+03  0.16020401851E+03  0.58544706491E+03  0.12699999809E+01 0. -1.
</event>
<event>
 5   0  0.4621450E-05  0.1398570E+04  0.7818609E-02  0.8954854E-01
       -2   -1    0    0    0  501  0.00000000000E+00  0.00000000000E+00  0.24893940874E+03  0.24893940875E+03  0.25500000920E-02 0. -1.
        2   -1    0    0  501    0  0.00000000000E+00  0.00000000000E+00 -0.19643315425E+04  0.19643315425E+04  0.25500000920E-02 0.  1.
    10030    2    1    2    0    0  0.00000000000E+00  0.00000000000E+00 -0.17153921338E+04  0.22132709513E+04  0.13985700308E+04 0.  0.
        5    1    3    3  502    0  0.54817580638E+03  0.26936233009E+03 -0.13965093426E+04  0.15242418488E+04  0.46999998093E+01 0.  1.
       -5    1    3    3    0  502 -0.54817580638E+03 -0.26936233009E+03 -0.31888279116E+03  0.68902910249E+03  0.46999998093E+01 0. -1.
</event>
<event>
 5   0  0.2316714E-05  0.1400178E+04  0.7818609E-02  0.8953690E-01
       -1   -1    0    0    0  501  0.00000000000E+00  0.00000000000E+00  0.58286821992E+03  0.58286821995E+03  0.50400001928E-02 0. -1.
        1   -1    0    0  501    0  0.00000000000E+00  0.00000000000E+00 -0.84088410048E+03  0.84088410049E+03  0.50400001928E-02 0.  1.
    10030    2    1    2    0    0  0.00000000000E+00  0.00000000000E+00 -0.25801588055E+03  0.14237523204E+04  0.14001780156E+04 0.  0.
        5    1    3    3  502    0 -0.32380728429E+03 -0.33331400271E+03 -0.66141990696E+03  0.80836116005E+03  0.46999998093E+01 0.  1.
       -5    1    3    3    0  502  0.32380728429E+03  0.33331400271E+03  0.40340402641E+03  0.61539116038E+03  0.46999998093E+01 0. -1.
</event>
<event>
 5   0  0.2363419E-05  0.1399635E+04  0.7818609E-02  0.8954083E-01
       -1   -1    0    0    0  501  0.00000000000E+00  0.00000000000E+00  0.80104960429E+03  0.80104960430E+03  0.50400001928E-02 0.  1.
        1   -1    0    0  501    0  0.00000000000E+00  0.00000000000E+00 -0.61137867182E+03  0.61137867184E+03  0.50400001928E-02 0. -1.
    10030    2    1    2    0    0  0.00000000000E+00  0.00000000000E+00  0.18967093247E+03  0.14124282761E+04  0.13996351570E+04 0.  0.
        2    1    3    3  502    0 -0.36347217812E+03  0.24193304342E+03  0.64673561171E+03  0.78032722189E+03  0.25500000920E-02 0.  1.
       -2    1    3    3    0  502  0.36347217812E+03 -0.24193304342E+03 -0.45706467924E+03  0.63210105425E+03  0.25500000920E-02 0. -1.
</event>
<event>
 5   0  0.4621450E-05  0.1399487E+04  0.7818609E-02  0.8954190E-01
       -2   -1    0    0    0  501  0.00000000000E+00  0.00000000000E+00  0.17898385863E+03  0.17898385865E+03  0.25500000920E-02 0.  1.
        2   -1    0    0  501    0  0.00000000000E+00  0.00000000000E+00 -0.27356704852E+04  0.27356704852E+04  0.25500000920E-02 0. -1.
    10030    2    1    2    0    0  0.00000000000E+00  0.00000000000E+00 -0.25566866265E+04  0.29146543438E+04  0.13994868480E+04 0.  0.
        5    1    3    3  502    0 -0.40253873612E+03 -0.17407405098E+03 -0.24138789321E+04  0.24534002524E+04  0.46999998093E+01 0. -1.
       -5    1    3    3    0  502  0.40253873612E+03  0.17407405098E+03 -0.14280769440E+03  0.46125409145E+03  0.46999998093E+01 0.  1.
</event>
<event>
 5   0  0.4460282E-05  0.1400129E+04  0.7818609E-02  0.8953725E-01
        2   -1    0    0  501    0  0.00000000000E+00  0.00000000000E+00  0.12518265241E+04  0.12518265241E+04  0.25500000920E-02 0.  1.
       -2   -1    0    0    0  501  0.00000000000E+00  0.00000000000E+00 -0.39150044182E+03  0.39150044183E+03  0.25500000920E-02 0. -1.
    10030    2    1    2    0    0  0.00000000000E+00  0.00000000000E+00  0.86032608223E+03  0.16433269659E+04  0.14001294758E+04 0.  0.
        1    1    3    3  502    0  0.61011331365E+03  0.13137731446E+03  0.57909933924E+02  0.62677892013E+03  0.50400001928E-02 0. -1.
       -1    1    3    3    0  502 -0.61011331365E+03 -0.13137731446E+03  0.80241614831E+03  0.10165480458E+04  0.50400001928E-02 0.  1.
</event>
<event>
 5   0  0.2363419E-05  0.1399761E+04  0.7818609E-02  0.8953991E-01
       -1   -1    0    0    0  501  0.00000000000E+00  0.00000000000E+00  0.12128553831E+04  0.12128553831E+04  0.50400001928E-02 0.  1.
        1   -1    0    0  501    0  0.00000000000E+00  0.00000000000E+00 -0.40386759323E+03  0.40386759326E+03  0.50400001928E-02 0. -1.
    10030    2    1    2    0    0  0.00000000000E+00  0.00000000000E+00  0.80898778985E+03  0.16167229764E+04  0.13997613862E+04 0.  0.
        2    1    3    3  502    0 -0.46685023301E+03 -0.42021738168E+03  0.47935407796E+02  0.62994411756E+03  0.25500000920E-02 0. -1.
       -2    1    3    3    0  502  0.46685023301E+03  0.42021738168E+03  0.76105238205E+03  0.98677885879E+03  0.25500000920E-02 0.  1.
</event>
<event>
 5   0  0.2316714E-05  0.1399842E+04  0.7818609E-02  0.8953933E-01
       -1   -1    0    0    0  501  0.00000000000E+00  0.00000000000E+00  0.61394271884E+03  0.61394271886E+03  0.50400001928E-02 0.  1.
        1   -1    0    0  501    0  0.00000000000E+00  0.00000000000E+00 -0.79793985890E+03  0.79793985891E+03  0.50400001928E-02 0. -1.
    10030    2    1    2    0    0  0.00000000000E+00  0.00000000000E+00 -0.18399714006E+03  0.14118825778E+04  0.13998419432E+04 0.  0.
        5    1    3    3  502    0  0.34985897663E+03  0.16962631261E+03 -0.67897763911E+03  0.78243665166E+03  0.46999998093E+01 0. -1.
       -5    1    3    3    0  502 -0.34985897663E+03 -0.16962631261E+03  0.49498049906E+03  0.62944592611E+03  0.46999998093E+01 0.  1.
</event>
<event>
 5   0  0.2467303E-05  0.1395971E+04  0.7818609E-02  0.8956740E-01
        1   -1    0    0  501    0  0.00000000000E+00  0.00000000000E+00  0.18822168669E+04  0.18822168669E+04  0.50400001928E-02 0. -1.
       -1   -1    0    0    0  501  0.00000000000E+00  0.00000000000E+00 -0.25883516552E+03  0.25883516557E+03  0.50400001928E-02 0.  1.
    10030    2    1    2    0    0  0.00000000000E+00  0.00000000000E+00  0.16233817014E+04  0.21410520325E+04  0.13959712237E+04 0.  0.
        3    1    3    3  502    0 -0.52724267862E+03 -0.39972054085E+03  0.47072307539E+03  0.81199850790E+03  0.10100000352E+00 0.  1.
       -3    1    3    3    0  502  0.52724267862E+03  0.39972054085E+03  0.11526586260E+04  0.13290535246E+04  0.10100000352E+00 0. -1.
</event>
<event>
 5   0  0.2467303E-05  0.1398871E+04  0.7818609E-02  0.8954636E-01
        1   -1    0    0  501    0  0.00000000000E+00  0.00000000000E+00  0.11408310210E+04  0.11408310210E+04  0.50400001928E-02 0.  1.
       -1   -1    0    0    0  501  0.00000000000E+00  0.00000000000E+00 -0.42881898187E+03  0.42881898190E+03  0.50400001928E-02 0. -1.
    10030    2    1    2    0    0  0.00000000000E+00  0.00000000000E+00  0.71201203911E+03  0.15696500029E+04  0.13988709689E+04 0.  0.
        3    1    3    3  502    0  0.17883760717E+03 -0.12869223465E+03  0.11008745850E+04  0.11227063031E+04  0.10100000352E+00 0.  1.
       -3    1    3    3    0  502 -0.17883760717E+03  0.12869223465E+03 -0.38886254586E+03  0.44694369978E+03  0.10100000352E+00 0. -1.
</event>
<event>
 5   0  0.2316714E-05  0.1400201E+04  0.7818609E-02  0.8953673E-01
        1   -1    0    0  501    0  0.00000000000E+00  0.00000000000E+00  0.18529600421E+04  0.18529600421E+04  0.50400001928E-02 0.  1.
       -1   -1    0    0    0  501  0.00000000000E+00  0.00000000000E+00 -0.26451752044E+03  0.26451752049E+03  0.50400001928E-02 0. -1.
    10030    2    1    2    0    0  0.00000000000E+00  0.00000000000E+00  0.15884425217E+04  0.21174775626E+04  0.14002005512E+04 0.  0.
        5    1    3    3  502    0 -0.15166398033E+03 -0.67959713762E+03  0.90394220713E+03  0.11410468160E+04  0.46999998093E+01 0. -1.
       -5    1    3    3    0  502  0.15166398033E+03  0.67959713762E+03  0.68450031455E+03  0.97643074665E+03  0.46999998093E+01 0.  1.
</event>
<event>
 5   0  0.2428507E-05  0.1399732E+04  0.7818609E-02  0.8954013E-01
       -1   -1    0    0    0  501  0.00000000000E+00  0.00000000000E+00  0.69571484218E+03  0.69571484220E+03  0.50400001928E-02 0.  1.
        1   -1    0    0  501    0  0.00000000000E+00  0.00000000000E+00 -0.70404189944E+03  0.70404189946E+03  0.50400001928E-02 0. -1.
    10030    2    1    2    0    0  0.00000000000E+00  0.00000000000E+00 -0.83270572627E+01  0.13997567417E+04  0.13997319729E+04 0.  0.
        4    1    3    3  502    0 -0.53178966376E+02  0.39735440750E+03 -0.57783931283E+03  0.70329112889E+03  0.12699999809E+01 0. -1.
       -4    1    3    3    0  502  0.53178966376E+02 -0.39735440750E+03  0.56951225557E+03  0.69646561277E+03  0.12699999809E+01 0.  1.
</event>
<event>
 5   0  0.2316714E-05  0.1399728E+04  0.7818609E-02  0.8954015E-01
        1   -1    0    0  501    0  0.00000000000E+00  0.00000000000E+00  0.12309778962E+04  0.12309778962E+04  0.50400001928E-02 0.  1.
       -1   -1    0    0    0  501  0.00000000000E+00  0.00000000000E+00 -0.39790305215E+03  0.39790305218E+03  0.50400001928E-02 0. -1.
    10030    2    1    2    0    0  0.00000000000E+00  0.00000000000E+00  0.83307484407E+03  0.16288809484E+04  0.13997283480E+04 0.  0.
        5    1    3    3  502    0  0.18950421304E+03 -0.87308338344E+02 -0.36084774033E+03  0.41685462022E+03  0.46999998093E+01 0. -1.
       -5    1    3    3    0  502 -0.18950421304E+03  0.87308338344E+02  0.11939225844E+04  0.12120263282E+04  0.46999998093E+01 0.  1.
</event>
<event>
 5   0  0.4527503E-05  0.1403962E+04  0.7818609E-02  0.8950956E-01
        2   -1    0    0  501    0  0.00000000000E+00  0.00000000000E+00  0.11674834779E+04  0.11674834779E+04  0.25500000920E-02 0.  1.
       -2   -1    0    0    0  501  0.00000000000E+00  0.00000000000E+00 -0.42208508350E+03  0.42208508351E+03  0.25500000920E-02 0. -1.
    10030    2    1    2    0    0  0.00000000000E+00  0.00000000000E+00  0.74539839437E+03  0.15895685614E+04  0.14039620526E+04 0.  0.
        4    1    3    3  502    0  0.98662878790E+02 -0.10884568933E+03 -0.40448465998E+03  0.43033847236E+03  0.12699999809E+01 0. -1.
       -4    1    3    3    0  502 -0.98662878790E+02  0.10884568933E+03  0.11498830543E+04  0.11592300890E+04  0.12699999809E+01 0.  1.
</event>
<event>
 5   0  0.2316714E-05  0.1399735E+04  0.7818609E-02  0.8954010E-01
       -1   -1    0    0    0  501  0.00000000000E+00  0.00000000000E+00  0.62129499020E+03  0.62129499022E+03  0.50400001928E-02 0. -1.
        1   -1    0    0  501    0  0.00000000000E+00  0.00000000000E+00 -0.78837725888E+03  0.78837725889E+03  0.50400001928E-02 0.  1.
    10030    2    1    2    0    0  0.00000000000E+00  0.00000000000E+00 -0.16708226867E+03  0.14096722491E+04  0.13997354627E+04 0.  0.
        5    1    3    3  502    0  0.43578036187E+03 -0.10220162908E+03 -0.62535953621E+03  0.76905548324E+03  0.46999998093E+01 0.  1.
       -5    1    3    3    0  502 -0.43578036187E+03  0.10220162908E+03  0.45827726754E+03  0.64061676587E+03  0.46999998093E+01 0. -1.
</event>
<event>
 5   0  0.4441253E-05  0.1399923E+04  0.7818609E-02  0.8953875E-01
       -2   -1    0    0    0  501  0.00000000000E+00  0.00000000000E+00  0.19363273045E+03  0.19363273047E+03  0.25500000920E-02 0. -1.
        2   -1    0    0  501    0  0.00000000000E+00  0.00000000000E+00 -0.25302841260E+04  0.25302841260E+04  0.25500000920E-02 0.  1.
    10030    2    1    2    0    0  0.00000000000E+00  0.00000000000E+00 -0.23366513956E+04  0.27239168565E+04  0.13999226038E+04 0.  0.
        3    1    3    3  502    0  0.17244634942E+03  0.63040736807E+03 -0.68073990524E+03  0.94369381789E+03  0.10100000352E+00 0. -1.
       -3    1    3    3    0  502 -0.17244634942E+03 -0.63040736807E+03 -0.16559114903E+04  0.17802230386E+04  0.10100000352E+00 0.  1.
</event>
<event>
 5   0  0.4441253E-05  0.1399953E+04  0.7818609E-02  0.8953852E-01
        2   -1    0    0  501    0  0.00000000000E+00  0.00000000000E+00  0.12904416224E+04  0.12904416224E+04  0.25500000920E-02 0.  1.
       -2   -1    0    0    0  501  0.00000000000E+00  0.00000000000E+00 -0.37968954395E+03  0.37968954395E+03  0.25500000920E-02 0. -1.
    10030    2    1    2    0    0  0.00000000000E+00  0.00000000000E+00  0.91075207843E+03  0.16701311663E+04  0.13999531294E+04 0.  0.
        3    1    3    3  502    0  0.32550494266E+03  0.42192444175E+02 -0.28219093894E+03  0.43285725853E+03  0.10100000352E+00 0. -1.
       -3    1    3    3    0  502 -0.32550494266E+03 -0.42192444175E+02  0.11929430174E+04  0.12372739078E+04  0.10100000352E+00 0.  1.
</event>
<event>
 5   0  0.1661000E-05  0.1400157E+04  0.7818609E-02  0.8953705E-01
        4   -1    0    0  501    0  0.00000000000E+00  0.00000000000E+00  0.95744159080E+03  0.95744243310E+03  0.12699999809E+01 0. -1.
       -4   -1    0    0    0  501  0.00000000000E+00  0.00000000000E+00 -0.51189371767E+03  0.51189529310E+03  0.12699999809E+01 0.  1.
    10030    2    1    2    0    0  0.00000000000E+00  0.00000000000E+00  0.44554787313E+03  0.14693377262E+04  0.14001572934E+04 0.  0.
        5    1    3    3  502    0  0.37042915987E+03 -0.23380178309E+03 -0.35029083123E+03  0.56089820173E+03  0.46999998093E+01 0.  1.
       -5    1    3    3    0  502 -0.37042915987E+03  0.23380178309E+03  0.79583870436E+03  0.90843952447E+03  0.46999998093E+01 0. -1.
</event>
<event>
 5   0  0.4621450E-05  0.1400178E+04  0.7818609E-02  0.8953690E-01
        2   -1    0    0  501    0  0.00000000000E+00  0.00000000000E+00  0.18819835665E+04  0.18819835665E+04  0.25500000920E-02 0. -1.
       -2   -1    0    0    0  501  0.00000000000E+00  0.00000000000E+00 -0.26042981460E+03  0.26042981461E+03  0.25500000920E-02 0.  1.
    10030    2    1    2    0    0  0.00000000000E+00  0.00000000000E+00  0.16215537519E+04  0.21424133811E+04  0.14001780334E+04 0.  0.
        5    1    3    3  502    0 -0.51155022648E+03  0.18433027697E+03  0.14854823306E+04  0.15818789871E+04  0.46999998093E+01 0. -1.
       -5    1    3    3    0  502  0.51155022648E+03 -0.18433027697E+03  0.13607142132E+03  0.56053439405E+03  0.46999998093E+01 0.  1.
</event>
<event>
 5   0  0.2316714E-05  0.1400111E+04  0.7818609E-02  0.8953738E-01
        1   -1    0    0  501    0  0.00000000000E+00  0.00000000000E+00  0.71802157032E+03  0.71802157034E+03  0.50400001928E-02 0.  1.
       -1   -1    0    0    0  501  0.00000000000E+00  0.00000000000E+00 -0.68253896549E+03  0.68253896551E+03  0.50400001928E-02 0. -1.
    10030    2    1    2    0    0  0.00000000000E+00  0.00000000000E+00  0.35482604829E+02  0.14005605358E+04  0.14001109954E+04 0.  0.
        5    1    3    3  502    0 -0.44178159552E+03  0.54073444482E+03  0.67666162586E+02  0.70154509300E+03  0.46999998093E+01 0.  1.
       -5    1    3    3    0  502  0.44178159552E+03 -0.54073444482E+03 -0.32183557757E+02  0.69901544285E+03  0.46999998093E+01 0. -1.
</event>
<event>
 5   0  0.2363419E-05  0.1399952E+04  0.7818609E-02  0.8953853E-01
       -1   -1    0    0    0  501  0.00000000000E+00  0.00000000000E+00  0.51197874040E+03  0.51197874042E+03  0.50400001928E-02 0.  1.
        1   -1    0    0  501    0  0.00000000000E+00  0.00000000000E+00 -0.95700531635E+03  0.95700531636E+03  0.50400001928E-02 0. -1.
    10030    2    1    2    0    0  0.00000000000E+00  0.00000000000E+00 -0.44502657595E+03  0.14689840568E+04  0.13999519655E+04 0.  0.
        2    1    3    3  502    0  0.25540954426E+03 -0.28103857376E+03 -0.83951281242E+03  0.92141113378E+03  0.25500000920E-02 0. -1.
       -2    1    3    3    0  502 -0.25540954426E+03  0.28103857376E+03  0.39448623646E+03  0.54757292300E+03  0.25500000920E-02 0.  1.
</event>
<event>
 5   0  0.4621450E-05  0.1400438E+04  0.7818609E-02  0.8953502E-01
        2   -1    0    0  501    0  0.00000000000E+00  0.00000000000E+00  0.82487674180E+03  0.82487674181E+03  0.25500000920E-02 0. -1.
       -2   -1    0    0    0  501  0.00000000000E+00  0.00000000000E+00 -0.59439964674E+03  0.59439964675E+03  0.25500000920E-02 0.  1.
    10030    2    1    2    0    0  0.00000000000E+00  0.00000000000E+00  0.23047709506E+03  0.14192763886E+04  0.14004377086E+04 0.  0.
        5    1    3    3  502    0 -0.42506989113E+03  0.53517844152E+03 -0.39072547574E+02  0.68457952831E+03  0.46999998093E+01 0.  1.
       -5    1    3    3    0  502  0.42506989113E+03 -0.53517844152E+03  0.26954964264E+03  0.73469686024E+03  0.46999998093E+01 0. -1.
</event>
<event>
 5   0  0.4460282E-05  0.1400974E+04  0.7818609E-02  0.8953114E-01
        2   -1    0    0  501    0  0.00000000000E+00  0.00000000000E+00  0.14223636332E+04  0.14223636332E+04  0.25500000920E-02 0. -1.
       -2   -1    0    0    0  501  0.00000000000E+00  0.00000000000E+00 -0.34497661610E+03  0.34497661611E+03  0.25500000920E-02 0.  1.
    10030    2    1    2    0    0  0.00000000000E+00  0.00000000000E+00  0.10773870171E+04  0.17673402493E+04  0.14009742226E+04 0.  0.
        1    1    3    3  502    0  0.27920231157E+02  0.24384436105E+03  0.13663452578E+04  0.13882143117E+04  0.50400001928E-02 0. -1.
       -1    1    3    3    0  502 -0.27920231157E+02 -0.24384436105E+03 -0.28895824065E+03  0.37912593764E+03  0.50400001928E-02 0.  1.
</event>
<event>
 5   0  0.2363419E-05  0.1399724E+04  0.7818609E-02  0.8954018E-01
       -1   -1    0    0    0  501  0.00000000000E+00  0.00000000000E+00  0.11045296734E+04  0.11045296734E+04  0.50400001928E-02 0. -1.
        1   -1    0    0  501    0  0.00000000000E+00  0.00000000000E+00 -0.44345280248E+03  0.44345280251E+03  0.50400001928E-02 0.  1.
    10030    2    1    2    0    0  0.00000000000E+00  0.00000000000E+00  0.66107687095E+03  0.15479824760E+04  0.13997239430E+04 0.  0.
        2    1    3    3  502    0 -0.27839055194E+03  0.51240277449E+03 -0.97423787461E+02  0.59122694212E+03  0.25500000920E-02 0.  1.
       -2    1    3    3    0  502  0.27839055194E+03 -0.51240277449E+03  0.75850065841E+03  0.95675553384E+03  0.25500000920E-02 0. -1.
</event>
<event>
 5   0  0.4460282E-05  0.1400676E+04  0.7818609E-02  0.8953330E-01
        2   -1    0    0  501    0  0.00000000000E+00  0.00000000000E+00  0.42499346993E+03  0.42499346993E+03  0.25500000920E-02 0. -1.
       -2   -1    0    0    0  501  0.00000000000E+00  0.00000000000E+00 -0.11540720079E+04  0.11540720079E+04  0.25500000920E-02 0.  1.
    10030    2    1    2    0    0  0.00000000000E+00  0.00000000000E+00 -0.72907853793E+03  0.15790654778E+04  0.14006756472E+04 0.  0.
        1    1    3    3  502    0  0.45214087410E+03  0.37991839238E+03  0.59839037032E+02  0.59359082311E+03  0.50400001928E-02 0. -1.
       -1    1    3    3    0  502 -0.45214087410E+03 -0.37991839238E+03 -0.78891757497E+03  0.98547465468E+03  0.50400001928E-02 0.  1.
</event>
<event>
 5   0  0.2428507E-05  0.1399718E+04  0.7818609E-02  0.8954022E-01
        1   -1    0    0  501    0  0.00000000000E+00  0.00000000000E+00  0.97840038044E+03  0.97840038046E+03  0.50400001928E-02 0.  1.
       -1   -1    0    0    0  501  0.00000000000E+00  0.00000000000E+00 -0.50061599902E+03  0.50061599905E+03  0.50400001928E-02 0. -1.
    10030    2    1    2    0    0  0.00000000000E+00  0.00000000000E+00  0.47778438142E+03  0.14790163795E+04  0.13997183773E+04 0.  0.
        4    1    3    3  502    0 -0.41151784968E+02 -0.26796311309E+03  0.92066140656E+03  0.95974826794E+03  0.12699999809E+01 0.  1.
       -4    1    3    3    0  502  0.41151784968E+02  0.26796311309E+03 -0.44287702515E+03  0.51926811156E+03  0.12699999809E+01 0. -1.
</event>
<event>
 5   0  0.4441253E-05  0.1400154E+04  0.7818609E-02  0.8953707E-01
       -2   -1    0    0    0  501  0.00000000000E+00  0.00000000000E+00  0.44145903622E+03  0.44145903623E+03  0.25500000920E-02 0. -1.
        2   -1    0    0  501    0  0.00000000000E+00  0.00000000000E+00 -0.11101994079E+04  0.11101994079E+04  0.25500000920E-02 0.  1.
    10030    2    1    2    0    0  0.00000000000E+00  0.00000000000E+00 -0.66874037169E+03  0.15516584441E+04  0.14001536496E+04 0.  0.
        3    1    3    3  502    0 -0.41655435967E+03  0.29458733160E+03  0.19688515152E+03  0.54686653179E+03  0.10100000352E+00 0. -1.
       -3    1    3    3    0  502  0.41655435967E+03 -0.29458733160E+03 -0.86562552322E+03  0.10047919124E+04  0.10100000352E+00 0.  1.
</event>
<event>
 5   0  0.2428507E-05  0.1400743E+04  0.7818609E-02  0.8953281E-01
        1   -1    0    0  501    0  0.00000000000E+00  0.00000000000E+00  0.27901475467E+04  0.27901475467E+04  0.50400001928E-02 0.  1.
       -1   -1    0    0    0  501  0.00000000000E+00  0.00000000000E+00 -0.17580437600E+03  0.17580437607E+03  0.50400001928E-02 0. -1.
    10030    2    1    2    0    0  0.00000000000E+00  0.00000000000E+00  0.26143431707E+04  0.29659519228E+04  0.14007428722E+04 0.  0.
        4    1    3    3  502    0  0.28157193781E+03 -0.63956553126E+03  0.12080433677E+04  0.13955992319E+04  0.12699999809E+01 0. -1.
       -4    1    3    3    0  502 -0.28157193781E+03  0.63956553126E+03  0.14062998030E+04  0.15703526909E+04  0.12699999809E+01 0.  1.
</event>
<event>
 5   0  0.4441253E-05  0.1399925E+04  0.7818609E-02  0.8953873E-01
       -2   -1    0    0    0  501  0.00000000000E+00  0.00000000000E+00  0.68214399608E+03  0.68214399608E+03  0.25500000920E-02 0.  1.
        2   -1    0    0  501    0  0.00000000000E+00  0.00000000000E+00 -0.71824661554E+03  0.71824661554E+03  0.25500000920E-02 0. -1.
    10030    2    1    2    0    0  0.00000000000E+00  0.00000000000E+00 -0.36102619461E+02  0.14003906116E+04  0.13999251644E+04 0.  0.
        3    1    3    3  502    0 -0.16244933381E+03 -0.64636164651E+03  0.19596944954E+03  0.69467776666E+03  0.10100000352E+00 0. -1.
       -3    1    3    3    0  502  0.16244933381E+03  0.64636164651E+03 -0.23207206900E+03  0.70571284496E+03  0.10100000352E+00 0.  1.
</event>
<event>
 5   0  0.4527503E-05  0.1399793E+04  0.7818609E-02  0.8953968E-01
       -2   -1    0    0    0  501  0.00000000000E+00  0.00000000000E+00  0.10335936025E+04  0.10335936025E+04  0.25500000920E-02 0.  1.
        2   -1    0    0  501    0  0.00000000000E+00  0.00000000000E+00 -0.47393389651E+03  0.47393389652E+03  0.25500000920E-02 0. -1.
    10030    2    1    2    0    0  0.00000000000E+00  0.00000000000E+00  0.55965970594E+03  0.15075274990E+04  0.13997929039E+04 0.  0.
        4    1    3    3  502    0 -0.20059370171E+03 -0.66781929533E+03  0.34474309886E+03  0.77786236668E+03  0.12699999809E+01 0. -1.
       -4    1    3    3    0  502  0.20059370171E+03  0.66781929533E+03  0.21491660708E+03  0.72966513229E+03  0.12699999809E+01 0.  1.
</event>
<event>
 5   0  0.4243281E-05  0.1399697E+04  0.7818609E-02  0.8954038E-01
        2   -1    0    0  501    0  0.00000000000E+00  0.00000000000E+00  0.89825976640E+03  0.89825976640E+03  0.25500000920E-02 0.  1.
       -2   -1    0    0    0  501  0.00000000000E+00  0.00000000000E+00 -0.54526325473E+03  0.54526325474E+03  0.25500000920E-02 0. -1.
    10030    2    1    2    0    0  0.00000000000E+00  0.00000000000E+00  0.35299651167E+03  0.14435230211E+04  0.13996971727E+04 0.  0.
        2    1    3    3  502    0  0.27497459669E+03 -0.37770975518E+03  0.71388188008E+03  0.85317233119E+03  0.25500000920E-02 0.  1.
       -2    1    3    3    0  502 -0.27497459669E+03  0.37770975518E+03 -0.36088536842E+03  0.59035068995E+03  0.25500000920E-02 0. -1.
</event>
<event>
 5   0  0.4243281E-05  0.1399813E+04  0.7818609E-02  0.8953954E-01
       -2   -1    0    0    0  501  0.00000000000E+00  0.00000000000E+00  0.23941124269E+03  0.23941124271E+03  0.25500000920E-02 0.  1.
        2   -1    0    0  501    0  0.00000000000E+00  0.00000000000E+00 -0.20461421246E+04  0.20461421246E+04  0.25500000920E-02 0. -1.
    10030    2    1    2    0    0  0.00000000000E+00  0.00000000000E+00 -0.18067308819E+04  0.22855533673E+04  0.13998134573E+04 0.  0.
        2    1    3    3  502    0  0.16712600598E+03 -0.50721513248E+03 -0.16469707153E+03  0.55885903220E+03  0.25500000920E-02 0.  1.
       -2    1    3    3    0  502 -0.16712600598E+03  0.50721513248E+03 -0.16420338104E+04  0.17266943351E+04  0.25500000920E-02 0. -1.
</event>
<event>
 5   0  0.2428507E-05  0.1398503E+04  0.7818609E-02  0.8954903E-01
        1   -1    0    0  501    0  0.00000000000E+00  0.00000000000E+00  0.62117685355E+03  0.62117685357E+03  0.50400001928E-02 0. -1.
       -1   -1    0    0    0  501  0.00000000000E+00  0.00000000000E+00 -0.78713917131E+03  0.78713917133E+03  0.50400001928E-02 0.  1.
    10030    2    1    2    0    0  0.00000000000E+00  0.00000000000E+00 -0.16596231776E+03  0.14083160249E+04  0.13985029621E+04 0.  0.
        4    1    3    3  502    0 -0.35698140612E+03  0.59220814274E+03  0.21694413029E+02  0.69182257053E+03  0.12699999809E+01 0. -1.
       -4    1    3    3    0  502  0.35698140612E+03 -0.59220814274E+03 -0.18765673079E+03  0.71649345437E+03  0.12699999809E+01 0.  1.
</event>
<event>
 5   0  0.4243281E-05  0.1400206E+04  0.7818609E-02  0.8953670E-01
       -2   -1    0    0    0  501  0.00000000000E+00  0.00000000000E+00  0.44874458220E+03  0.44874458221E+03  0.25500000920E-02 0. -1.
        2   -1    0    0  501    0  0.00000000000E+00  0.00000000000E+00 -0.10922557838E+04  0.10922557838E+04  0.25500000920E-02 0.  1.
    10030    2    1    2    0    0  0.00000000000E+00  0.00000000000E+00 -0.64351120156E+03  0.15410003660E+04  0.14002055068E+04 0.  0.
        2    1    3    3  502    0 -0.46071262443E+03  0.46918142232E+03 -0.57264216541E+02  0.66005039191E+03  0.25500000920E-02 0. -1.
       -2    1    3    3    0  502  0.46071262443E+03 -0.46918142232E+03 -0.58624698502E+03  0.88094997407E+03  0.25500000920E-02 0.  1.
</event>
<event>
 5   0  0.4621450E-05  0.1399893E+04  0.7818609E-02  0.8953896E-01
        2   -1    0    0  501    0  0.00000000000E+00  0.00000000000E+00  0.59094181851E+03  0.59094181852E+03  0.25500000920E-02 0. -1.
       -2   -1    0    0    0  501  0.00000000000E+00  0.00000000000E+00 -0.82905803980E+03  0.82905803980E+03  0.25500000920E-02 0.  1.
    10030    2    1    2    0    0  0.00000000000E+00  0.00000000000E+00 -0.23811622129E+03  0.14199998583E+04  0.13998929469E+04 0.  0.
        5    1    3    3  502    0  0.46594147489E+03 -0.45448478216E+03  0.14201993748E+03  0.66622040488E+03  0.46999998093E+01 0. -1.
       -5    1    3    3    0  502 -0.46594147489E+03  0.45448478216E+03 -0.38013615877E+03  0.75377945344E+03  0.46999998093E+01 0.  1.
</event>
<event>
 5   0  0.4621450E-05  0.1400067E+04  0.7818609E-02  0.8953770E-01
        2   -1    0    0  501    0  0.00000000000E+00  0.00000000000E+00  0.18741651850E+04  0.18741651850E+04  0.25500000920E-02 0.  1.
       -2   -1    0    0    0  501  0.00000000000E+00  0.00000000000E+00 -0.26147472976E+03  0.26147472978E+03  0.25500000920E-02 0. -1.
    10030    2    1    2    0    0  0.00000000000E+00  0.00000000000E+00  0.16126904552E+04  0.21356399147E+04  0.14000669059E+04 0.  0.
        5    1    3    3  502    0 -0.59252465936E+03  0.18126523101E+03  0.13031668357E+04  0.14429859485E+04  0.46999998093E+01 0.  1.
       -5    1    3    3    0  502  0.59252465936E+03 -0.18126523101E+03  0.30952361953E+03  0.69265396626E+03  0.46999998093E+01 0. -1.
</event>
<event>
 5   0  0.4441253E-05  0.1399867E+04  0.7818609E-02  0.8953915E-01
       -2   -1    0    0    0  501  0.00000000000E+00  0.00000000000E+00  0.40772619624E+03  0.40772619625E+03  0.25500000920E-02 0. -1.
        2   -1    0    0  501    0  0.00000000000E+00  0.00000000000E+00 -0.12015592269E+04  0.12015592269E+04  0.25500000920E-02 0.  1.
    10030    2    1    2    0    0  0.00000000000E+00  0.00000000000E+00 -0.79383303070E+03  0.16092854232E+04  0.13998673840E+04 0.  0.
        3    1    3    3  502    0 -0.44255680083E+03 -0.22857401931E+03 -0.96221578553E+03  0.10834951926E+04  0.10100000352E+00 0.  1.
       -3    1    3    3    0  502  0.44255680083E+03  0.22857401931E+03  0.16838275483E+03  0.52579023060E+03  0.10100000352E+00 0. -1.
</event>
<event>
 5   0  0.2316714E-05  0.1400051E+04  0.7818609E-02  0.8953781E-01
        1   -1    0    0  501    0  0.00000000000E+00  0.00000000000E+00  0.15722517194E+04  0.15722517195E+04  0.50400001928E-02 0.  1.
       -1   -1    0    0    0  501  0.00000000000E+00  0.00000000000E+00 -0.31167772966E+03  0.31167772970E+03  0.50400001928E-02 0. -1.
    10030    2    1    2    0    0  0.00000000000E+00  0.00000000000E+00  0.12605739898E+04  0.18839294492E+04  0.14000512082E+04 0.  0.
        5    1    3    3  502    0 -0.22447596995E+03 -0.24108783664E+03  0.14614161676E+04  0.14980894869E+04  0.46999998093E+01 0.  1.
       -5    1    3    3    0  502  0.22447596995E+03  0.24108783664E+03 -0.20084217779E+03  0.38583996221E+03  0.46999998093E+01 0. -1.
</event>
<event>
 5   0  0.2427569E-05  0.1401164E+04  0.7818609E-02  0.8952976E-01
       -1   -1    0    0    0  501  0.00000000000E+00  0.00000000000E+00  0.45927802694E+03  0.45927802696E+03  0.50400001928E-02 0.  1.
        1   -1    0    0  501    0  0.00000000000E+00  0.00000000000E+00 -0.10686672960E+04  0.10686672960E+04  0.50400001928E-02 0. -1.
    10030    2    1    2    0    0  0.00000000000E+00  0.00000000000E+00 -0.60938926909E+03  0.15279453230E+04  0.14011643832E+04 0.  0.
        1    1    3    3  502    0  0.51710918083E+02 -0.69655800782E+03 -0.36390622961E+03  0.78758797685E+03  0.50400001928E-02 0. -1.
       -1    1    3    3    0  502 -0.51710918083E+02  0.69655800782E+03 -0.24548303949E+03  0.74035734615E+03  0.50400001928E-02 0.  1.
</event>
<event>
 5   0  0.4441253E-05  0.1401189E+04  0.7818609E-02  0.8952958E-01
        2   -1    0    0  501    0  0.00000000000E+00  0.00000000000E+00  0.96338326871E+03  0.96338326871E+03  0.25500000920E-02 0. -1.
       -2   -1    0    0    0  501  0.00000000000E+00  0.00000000000E+00 -0.50948856023E+03  0.50948856024E+03  0.25500000920E-02 0.  1.
    10030    2    1    2    0    0  0.00000000000E+00  0.00000000000E+00  0.45389470848E+03  0.14728718289E+04  0.14011891443E+04 0.  0.
        3    1    3    3  502    0 -0.41540591416E+03  0.54108313099E+03  0.59091742576E+02  0.68470787377E+03  0.10100000352E+00 0.  1.
       -3    1    3    3    0  502  0.41540591416E+03 -0.54108313099E+03  0.39480296590E+03  0.78816395518E+03  0.10100000352E+00 0. -1.
</event>
<event>
 5   0  0.2363419E-05  0.1399074E+04  0.7818609E-02  0.8954489E-01
       -1   -1    0    0    0  501  0.00000000000E+00  0.00000000000E+00  0.78558257494E+03  0.78558257496E+03  0.50400001928E-02 0. -1.
        1   -1    0    0  501    0  0.00000000000E+00  0.00000000000E+00 -0.62291578816E+03  0.62291578818E+03  0.50400001928E-02 0.  1.
    10030    2    1    2    0    0  0.00000000000E+00  0.00000000000E+00  0.16266678678E+03  0.14084983631E+04  0.13990736776E+04 0.  0.
        2    1    3    3  502    0 -0.40013178178E+03  0.12490240251E+03 -0.48248008606E+03  0.63913463870E+03  0.25500000920E-02 0.  1.
       -2    1    3    3    0  502  0.40013178178E+03 -0.12490240251E+03  0.64514687284E+03  0.76936372444E+03  0.25500000920E-02 0. -1.
</event>
<event>
 5   0  0.4527503E-05  0.1400370E+04  0.7818609E-02  0.8953550E-01
       -2   -1    0    0    0  501  0.00000000000E+00  0.00000000000E+00  0.10595511437E+04  0.10595511437E+04  0.25500000920E-02 0. -1.
        2   -1    0    0  501    0  0.00000000000E+00  0.00000000000E+00 -0.46270473945E+03  0.46270473945E+03  0.25500000920E-02 0.  1.
    10030    2    1    2    0    0  0.00000000000E+00  0.00000000000E+00  0.59684640423E+03  0.15222558831E+04  0.14003704308E+04 0.  0.
        4    1    3    3  502    0  0.37314099556E+03  0.44155898943E+03 -0.13099008023E+03  0.59276349224E+03  0.12699999809E+01 0.  1.
       -4    1    3    3    0  502 -0.37314099556E+03 -0.44155898943E+03  0.72783648446E+03  0.92949239089E+03  0.12699999809E+01 0. -1.
</event>
<event>
 5   0  0.1661000E-05  0.1399765E+04  0.7818609E-02  0.8953989E-01
        3   -1    0    0  501    0  0.00000000000E+00  0.00000000000E+00  0.88751882416E+03  0.88751882991E+03  0.10100000352E+00 0.  1.
       -3   -1    0    0    0  501  0.00000000000E+00  0.00000000000E+00 -0.55191558332E+03  0.55191559257E+03  0.10100000352E+00 0. -1.
    10030    2    1    2    0    0  0.00000000000E+00  0.00000000000E+00  0.33560324084E+03  0.14394344225E+04  0.13997649522E+04 0.  0.
        5    1    3    3  502    0 -0.20886632631E+03 -0.63265836500E+03  0.38819205992E+03  0.77110110521E+03  0.46999998093E+01 0.  1.
       -5    1    3    3    0  502  0.20886632631E+03  0.63265836500E+03 -0.52588819080E+02  0.66833331727E+03  0.46999998093E+01 0. -1.
</event>
<event>
 5   0  0.2428507E-05  0.1399600E+04  0.7818609E-02  0.8954108E-01
        1   -1    0    0  501    0  0.00000000000E+00  0.00000000000E+00  0.18274110040E+04  0.18274110040E+04  0.50400001928E-02 0. -1.
       -1   -1    0    0    0  501  0.00000000000E+00  0.00000000000E+00 -0.26798588706E+03  0.26798588711E+03  0.50400001928E-02 0.  1.
    10030    2    1    2    0    0  0.00000000000E+00  0.00000000000E+00  0.15594251170E+04  0.20953968911E+04  0.13996004558E+04 0.  0.
        4    1    3    3  502    0 -0.29073251757E+03  0.42460899599E+03  0.14897111359E+04  0.15760898064E+04  0.12699999809E+01 0. -1.
       -4    1    3    3    0  502  0.29073251757E+03 -0.42460899599E+03  0.69713981013E+02  0.51930708477E+03  0.12699999809E+01 0.  1.
</event>
<event>
 5   0  0.4527503E-05  0.1400871E+04  0.7818609E-02  0.8953189E-01
       -2   -1    0    0    0  501  0.00000000000E+00  0.00000000000E+00  0.21973893512E+03  0.21973893514E+03  0.25500000920E-02 0. -1.
        2   -1    0    0  501    0  0.00000000000E+00  0.00000000000E+00 -0.22326934262E+04  0.22326934262E+04  0.25500000920E-02 0.  1.
    10030    2    1    2    0    0  0.00000000000E+00  0.00000000000E+00 -0.20129544911E+04  0.24524323614E+04  0.14008706949E+04 0.  0.
        4    1    3    3  502    0  0.39553721082E+02 -0.58386737266E+03 -0.16802892751E+04  0.17792805475E+04  0.12699999809E+01 0.  1.
       -4    1    3    3    0  502 -0.39553721082E+02  0.58386737266E+03 -0.33266521600E+03  0.67315181389E+03  0.12699999809E+01 0. -1.
</event>
<event>
 5   0  0.4460282E-05  0.1399932E+04  0.7818609E-02  0.8953868E-01
       -2   -1    0    0    0  501  0.00000000000E+00  0.00000000000E+00  0.39058960179E+03  0.39058960180E+03  0.25500000920E-02 0.  1.
        2   -1    0    0  501    0  0.00000000000E+00  0.00000000000E+00 -0.12543917812E+04  0.12543917812E+04  0.25500000920E-02 0. -1.
    10030    2    1    2    0    0  0.00000000000E+00  0.00000000000E+00 -0.86380217943E+03  0.16449813830E+04  0.13999319788E+04 0.  0.
        1    1    3    3  502    0 -0.55726580496E+03  0.38085967570E+03 -0.21411149685E+03  0.70812640331E+03  0.50400001928E-02 0.  1.
       -1    1    3    3    0  502  0.55726580496E+03 -0.38085967570E+03 -0.64969068258E+03  0.93685497971E+03  0.50400001928E-02 0. -1.
</event>
<event>
 5   0  0.4243281E-05  0.1399418E+04  0.7818609E-02  0.8954240E-01
        2   -1    0    0  501    0  0.00000000000E+00  0.00000000000E+00  0.15561980928E+04  0.15561980928E+04  0.25500000920E-02 0. -1.
       -2   -1    0    0    0  501  0.00000000000E+00  0.00000000000E+00 -0.31460814193E+03  0.31460814194E+03  0.25500000920E-02 0.  1.
    10030    2    1    2    0    0  0.00000000000E+00  0.00000000000E+00  0.12415899509E+04  0.18708062348E+04  0.13994178654E+04 0.  0.
        2    1    3    3  502    0 -0.24749780105E+03  0.17171970045E+03 -0.22348418479E+03  0.37508398780E+03  0.25500000920E-02 0.  1.
       -2    1    3    3    0  502  0.24749780105E+03 -0.17171970045E+03  0.14650741357E+04  0.14957222470E+04  0.25500000920E-02 0. -1.
</event>
<event>
 5   0  0.2467303E-05  0.1401244E+04  0.7818609E-02  0.8952919E-01
       -1   -1    0    0    0  501  0.00000000000E+00  0.00000000000E+00  0.51310019286E+03  0.51310019289E+03  0.50400001928E-02 0. -1.
        1   -1    0    0  501    0  0.00000000000E+00  0.00000000000E+00 -0.95667707644E+03  0.95667707645E+03  0.50400001928E-02 0.  1.
    10030    2    1    2    0    0  0.00000000000E+00  0.00000000000E+00 -0.44357688358E+03  0.14697772693E+04  0.14012440080E+04 0.  0.
        3    1    3    3  502    0  0.11843341138E+02  0.68360370555E+03 -0.61278337127E+02  0.68644689217E+03  0.10100000352E+00 0. -1.
       -3    1    3    3    0  502 -0.11843341138E+02 -0.68360370555E+03 -0.38229854645E+03  0.78333037717E+03  0.10100000352E+00 0.  1.
</event>
<event>
 5   0  0.1661000E-05  0.1397517E+04  0.7818609E-02  0.8955618E-01
        3   -1    0    0  501    0  0.00000000000E+00  0.00000000000E+00  0.48232640092E+03  0.48232641149E+03  0.10100000352E+00 0.  1.
       -3   -1    0    0    0  501  0.00000000000E+00  0.00000000000E+00 -0.10123095350E+04  0.10123095401E+04  0.10100000352E+00 0. -1.
    10030    2    1    2    0    0  0.00000000000E+00  0.00000000000E+00 -0.52998313412E+03  0.14946359516E+04  0.13975172647E+04 0.  0.
        3    1    3    3  502    0  0.21355925471E+02 -0.61861385966E+03  0.81769296823E+02  0.62436000114E+03  0.10100000352E+00 0.  1.
       -3    1    3    3    0  502 -0.21355925471E+02  0.61861385966E+03 -0.61175243094E+03  0.87027595042E+03  0.10100000352E+00 0. -1.
</event>
<event>
 5   0  0.2427569E-05  0.1400574E+04  0.7818609E-02  0.8953403E-01
        1   -1    0    0  501    0  0.00000000000E+00  0.00000000000E+00  0.96190410467E+03  0.96190410468E+03  0.50400001928E-02 0.  1.
       -1   -1    0    0    0  501  0.00000000000E+00  0.00000000000E+00 -0.50982385240E+03  0.50982385242E+03  0.50400001928E-02 0. -1.
    10030    2    1    2    0    0  0.00000000000E+00  0.00000000000E+00  0.45208025227E+03  0.14717279571E+04  0.14005736772E+04 0.  0.
        1    1    3    3  502    0 -0.18738022235E+03  0.31728433577E+03  0.85179433574E+03  0.92808097054E+03  0.50400001928E-02 0.  1.
       -1    1    3    3    0  502  0.18738022235E+03 -0.31728433577E+03 -0.39971408347E+03  0.54364698657E+03  0.50400001928E-02 0. -1.
</event>
<event>
 5   0  0.2363419E-05  0.1400407E+04  0.7818609E-02  0.8953524E-01
       -1   -1    0    0    0  501  0.00000000000E+00  0.00000000000E+00  0.43299238948E+03  0.43299238951E+03  0.50400001928E-02 0. -1.
        1   -1    0    0  501    0  0.00000000000E+00  0.00000000000E+00 -0.11323180108E+04  0.11323180109E+04  0.50400001928E-02 0.  1.
    10030    2    1    2    0    0  0.00000000000E+00  0.00000000000E+00 -0.69932562136E+03  0.15653104004E+04  0.14004071996E+04 0.  0.
        2    1    3    3  502    0 -0.46018407278E+03  0.24004860218E+03  0.17567237814E+03  0.54795391840E+03  0.25500000920E-02 0. -1.
       -2    1    3    3    0  502  0.46018407278E+03 -0.24004860218E+03 -0.87499799950E+03  0.10173564820E+04  0.25500000920E-02 0.  1.
</event>
<event>
 5   0  0.4243281E-05  0.1400335E+04  0.7818609E-02  0.8953576E-01
       -2   -1    0    0    0  501  0.00000000000E+00  0.00000000000E+00  0.23553867306E+03  0.23553867307E+03  0.25500000920E-02 0. -1.
        2   -1    0    0  501    0  0.00000000000E+00  0.00000000000E+00 -0.20813334709E+04  0.20813334709E+04  0.25500000920E-02 0.  1.
    10030    2    1    2    0    0  0.00000000000E+00  0.00000000000E+00 -0.18457947979E+04  0.23168721440E+04  0.14003349941E+04 0.  0.
        2    1    3    3  502    0  0.52358494776E+02  0.43995903698E+03 -0.25899426799E+02  0.44381994830E+03  0.25500000920E-02 0. -1.
       -2    1    3    3    0  502 -0.52358494776E+02 -0.43995903698E+03 -0.18198953711E+04  0.18730521957E+04  0.25500000920E-02 0.  1.
</event>
<event>
 5   0  0.4621450E-05  0.1399876E+04  0.7818609E-02  0.8953908E-01
       -2   -1    0    0    0  501  0.00000000000E+00  0.00000000000E+00  0.15163399184E+04  0.15163399184E+04  0.25500000920E-02 0. -1.
        2   -1    0    0  501    0  0.00000000000E+00  0.00000000000E+00 -0.32308930607E+03  0.32308930608E+03  0.25500000920E-02 0.  1.
    10030    2    1    2    0    0  0.00000000000E+00  0.00000000000E+00  0.11932506123E+04  0.18394292245E+04  0.13998760117E+04 0.  0.
        5    1    3    3  502    0 -0.40710712228E+03 -0.44424182519E+03  0.10645329955E+04  0.12232496053E+04  0.46999998093E+01 0.  1.
       -5    1    3    3    0  502  0.40710712228E+03  0.44424182519E+03  0.12871761682E+03  0.61617961922E+03  0.46999998093E+01 0. -1.
</event>
<event>
 5   0  0.2427569E-05  0.1400192E+04  0.7818609E-02  0.8953679E-01
       -1   -1    0    0    0  501  0.00000000000E+00  0.00000000000E+00  0.38988049815E+03  0.38988049818E+03  0.50400001928E-02 0. -1.
        1   -1    0    0  501    0  0.00000000000E+00  0.00000000000E+00 -0.12571408250E+04  0.12571408250E+04  0.50400001928E-02 0.  1.
    10030    2    1    2    0    0  0.00000000000E+00  0.00000000000E+00 -0.86726032680E+03  0.16470213231E+04  0.14001924027E+04 0.  0.
        1    1    3    3  502    0  0.69850779928E+03 -0.22322325869E+01 -0.37825034814E+03  0.79434970537E+03  0.50400001928E-02 0.  1.
       -1    1    3    3    0  502 -0.69850779928E+03  0.22322325869E+01 -0.48900997866E+03  0.85267161778E+03  0.50400001928E-02 0. -1.
</event>
<event>
 5   0  0.4460282E-05  0.1400055E+04  0.7818609E-02  0.8953779E-01
       -2   -1    0    0    0  501  0.00000000000E+00  0.00000000000E+00  0.34453878980E+03  0.34453878981E+03  0.25500000920E-02 0.  1.
        2   -1    0    0  501    0  0.00000000000E+00  0.00000000000E+00 -0.14223025556E+04  0.14223025556E+04  0.25500000920E-02 0. -1.
    10030    2    1    2    0    0  0.00000000000E+00  0.00000000000E+00 -0.10777637658E+04  0.17668413454E+04  0.14000548578E+04 0.  0.
        1    1    3    3  502    0 -0.39908470626E+02  0.47041712716E+03  0.11339635218E+03  0.48553443984E+03  0.50400001928E-02 0.  1.
       -1    1    3    3    0  502  0.39908470626E+02 -0.47041712716E+03 -0.11911601179E+04  0.12813069055E+04  0.50400001928E-02 0. -1.
</event>
<event>
 5   0  0.2427569E-05  0.1400160E+04  0.7818609E-02  0.8953702E-01
       -1   -1    0    0    0  501  0.00000000000E+00  0.00000000000E+00  0.46575630703E+03  0.46575630706E+03  0.50400001928E-02 0. -1.
        1   -1    0    0  501    0  0.00000000000E+00  0.00000000000E+00 -0.10522935451E+04  0.10522935451E+04  0.50400001928E-02 0.  1.
    10030    2    1    2    0    0  0.00000000000E+00  0.00000000000E+00 -0.58653723805E+03  0.15180498522E+04  0.14001604987E+04 0.  0.
        1    1    3    3  502    0  0.62487248236E+03 -0.28976813188E+03 -0.15750062884E+03  0.70656750390E+03  0.50400001928E-02 0. -1.
       -1    1    3    3    0  502 -0.62487248236E+03  0.28976813188E+03 -0.42903660922E+03  0.81148234826E+03  0.50400001928E-02 0.  1.
</event>
<event>
 5   0  0.4621450E-05  0.1399874E+04  0.7818609E-02  0.8953909E-01
       -2   -1    0    0    0  501  0.00000000000E+00  0.00000000000E+00  0.53403886244E+03  0.53403886244E+03  0.25500000920E-02 0.  1.
        2   -1    0    0  501    0  0.00000000000E+00  0.00000000000E+00 -0.91737157392E+03  0.91737157392E+03  0.25500000920E-02 0. -1.
    10030    2    1    2    0    0  0.00000000000E+00  0.00000000000E+00 -0.38333271148E+03  0.14514104364E+04  0.13998743826E+04 0.  0.
        5    1    3    3  502    0 -0.37176332818E+03  0.92793069824E+02 -0.79895263381E+03  0.88609589044E+03  0.46999998093E+01 0. -1.
       -5    1    3    3    0  502  0.37176332818E+03 -0.92793069824E+02  0.41561992233E+03  0.56531454592E+03  0.46999998093E+01 0.  1.
</event>
<event>
 5   0  0.4527503E-05  0.1400202E+04  0.7818609E-02  0.8953672E-01
       -2   -1    0    0    0  501  0.00000000000E+00  0.00000000000E+00  0.25911498790E+03  0.25911498792E+03  0.25500000920E-02 0. -1.
        2   -1    0    0  501    0  0.00000000000E+00  0.00000000000E+00 -0.18915982947E+04  0.18915982947E+04  0.25500000920E-02 0.  1.
    10030    2    1    2    0    0  0.00000000000E+00  0.00000000000E+00 -0.16324833068E+04  0.21507132826E+04  0.14002020844E+04 0.  0.
        4    1    3    3  502    0  0.56147646271E+03  0.17093765870E+03 -0.23001110926E+03  0.63038260178E+03  0.12699999809E+01 0.  1.
       -4    1    3    3    0  502 -0.56147646271E+03 -0.17093765870E+03 -0.14024721976E+04  0.15203306809E+04  0.12699999809E+01 0. -1.
</event>
<event>
 5   0  0.4621450E-05  0.1399761E+04  0.7818609E-02  0.8953992E-01
        2   -1    0    0  501    0  0.00000000000E+00  0.00000000000E+00  0.47896884478E+03  0.47896884479E+03  0.25500000920E-02 0.  1.
       -2   -1    0    0    0  501  0.00000000000E+00  0.00000000000E+00 -0.10226812652E+04  0.10226812652E+04  0.25500000920E-02 0. -1.
    10030    2    1    2    0    0  0.00000000000E+00  0.00000000000E+00 -0.54371242039E+03  0.15016501100E+04  0.13997606426E+04 0.  0.
        5    1    3    3  502    0  0.34174090722E+03  0.56092609036E+03 -0.12636941408E+02  0.65696781413E+03  0.46999998093E+01 0.  1.
       -5    1    3    3    0  502 -0.34174090722E+03 -0.56092609036E+03 -0.53107547898E+03  0.84468229583E+03  0.46999998093E+01 0. -1.
</event>
<event>
 5   0  0.4621450E-05  0.1399966E+04  0.7818609E-02  0.8953843E-01
       -2   -1    0    0    0  501  0.00000000000E+00  0.00000000000E+00  0.56317922211E+03  0.56317922212E+03  0.25500000920E-02 0.  1.
        2   -1    0    0  501    0  0.00000000000E+00  0.00000000000E+00 -0.87001866167E+03  0.87001866168E+03  0.25500000920E-02 0. -1.
    10030    2    1    2    0    0  0.00000000000E+00  0.00000000000E+00 -0.30683943956E+03  0.14331978838E+04  0.13999663326E+04 0.  0.
        5    1    3    3  502    0 -0.60368667078E+03  0.15262217490E+03  0.17389334578E+03  0.64652309352E+03  0.46999998093E+01 0.  1.
       -5    1    3    3    0  502  0.60368667078E+03 -0.15262217490E+03 -0.48073278535E+03  0.78667479028E+03  0.46999998093E+01 0. -1.
</event>
<event>
 5   0  0.1661000E-05  0.1400094E+04  0.7818609E-02  0.8953750E-01
       -4   -1    0    0    0  501  0.00000000000E+00  0.00000000000E+00  0.60704131861E+03  0.60704264710E+03  0.12699999809E+01 0. -1.
        4   -1    0    0  501    0  0.00000000000E+00  0.00000000000E+00 -0.80729955264E+03  0.80730055159E+03  0.12699999809E+01 0.  1.
    10030    2    1    2    0    0  0.00000000000E+00  0.00000000000E+00 -0.20025823404E+03  0.14143431987E+04  0.14000940409E+04 0.  0.
        5    1    3    3  502    0  0.49968339758E+03  0.48948808772E+03 -0.72250145301E+02  0.70322418853E+03  0.46999998093E+01 0. -1.
       -5    1    3    3    0  502 -0.49968339758E+03 -0.48948808772E+03 -0.12800808874E+03  0.71111901016E+03  0.46999998093E+01 0.  1.
</event>
<event>
 5   0  0.4460282E-05  0.1408793E+04  0.7818609E-02  0.8947478E-01
        2   -1    0    0  501    0  0.00000000000E+00  0.00000000000E+00  0.13539051803E+04  0.13539051803E+04  0.25500000920E-02 0. -1.
       -2   -1    0    0    0  501  0.00000000000E+00  0.00000000000E+00 -0.36647648808E+03  0.36647648809E+03  0.25500000920E-02 0.  1.
    10030    2    1    2    0    0  0.00000000000E+00  0.00000000000E+00  0.98742869225E+03  0.17203816684E+04  0.14087929808E+04 0.  0.
        1    1    3    3  502    0  0.88421438639E+02  0.76124269147E+00  0.13471006377E+04  0.13499996512E+04  0.50400001928E-02 0. -1.
       -1    1    3    3    0  502 -0.88421438639E+02 -0.76124269147E+00 -0.35967194542E+03  0.37038201718E+03  0.50400001928E-02 0.  1.
</event>
<event>
 5   0  0.2363419E-05  0.1398845E+04  0.7818609E-02  0.8954655E-01
       -1   -1    0    0    0  501  0.00000000000E+00  0.00000000000E+00  0.80844196886E+03  0.80844196888E+03  0.50400001928E-02 0. -1.
        1   -1    0    0  501    0  0.00000000000E+00  0.00000000000E+00 -0.60510462572E+03  0.60510462574E+03  0.50400001928E-02 0.  1.
    10030    2    1    2    0    0  0.00000000000E+00  0.00000000000E+00  0.20333734314E+03  0.14135465946E+04  0.13988452023E+04 0.  0.
        2    1    3    3  502    0 -0.44558579844E+03  0.12734996189E+02 -0.44296050034E+03  0.62842890510E+03  0.25500000920E-02 0.  1.
       -2    1    3    3    0  502  0.44558579844E+03 -0.12734996189E+02  0.64629784348E+03  0.78511768952E+03  0.25500000920E-02 0. -1.
</event>
<event>
 5   0  0.4527503E-05  0.1400845E+04  0.7818609E-02  0.8953207E-01
        2   -1    0    0  501    0  0.00000000000E+00  0.00000000000E+00  0.57132582030E+03  0.57132582030E+03  0.25500000920E-02 0.  1.
       -2   -1    0    0    0  501  0.00000000000E+00  0.00000000000E+00 -0.85869043687E+03  0.85869043687E+03  0.25500000920E-02 0. -1.
    10030    2    1    2    0    0  0.00000000000E+00  0.00000000000E+00 -0.28736461657E+03  0.14300162572E+04  0.14008454850E+04 0.  0.
        4    1    3    3  502    0  0.56982425926E+03 -0.40675580308E+03 -0.12225873443E+03  0.71070301873E+03  0.12699999809E+01 0.  1.
       -4    1    3    3    0  502 -0.56982425926E+03  0.40675580308E+03 -0.16510588214E+03  0.71931323845E+03  0.12699999809E+01 0. -1.
</event>
<event>
 5   0  0.2467303E-05  0.1396772E+04  0.7818609E-02  0.8956159E-01
        1   -1    0    0  501    0  0.00000000000E+00  0.00000000000E+00  0.52967064506E+03  0.52967064509E+03  0.50400001928E-02 0. -1.
       -1   -1    0    0    0  501  0.00000000000E+00  0.00000000000E+00 -0.92084175944E+03  0.92084175945E+03  0.50400001928E-02 0.  1.
    10030    2    1    2    0    0  0.00000000000E+00  0.00000000000E+00 -0.39117111438E+03  0.14505124045E+04  0.13967717763E+04 0.  0.
        3    1    3    3  502    0 -0.47254377091E+03 -0.50389191768E+03 -0.30219074945E+03  0.75400526482E+03  0.10100000352E+00 0.  1.
       -3    1    3    3    0  502  0.47254377091E+03  0.50389191768E+03 -0.88980364927E+02  0.69650713971E+03  0.10100000352E+00 0. -1.
</event>
<event>
 5   0  0.4441253E-05  0.1398345E+04  0.7818609E-02  0.8955018E-01
       -2   -1    0    0    0  501  0.00000000000E+00  0.00000000000E+00  0.91704607683E+03  0.91704607683E+03  0.25500000920E-02 0.  1.
        2   -1    0    0  501    0  0.00000000000E+00  0.00000000000E+00 -0.53306141584E+03  0.53306141585E+03  0.25500000920E-02 0. -1.
    10030    2    1    2    0    0  0.00000000000E+00  0.00000000000E+00  0.38398466099E+03  0.14501074927E+04  0.13983445643E+04 0.  0.
        3    1    3    3  502    0 -0.16895112850E+03  0.59229010505E+03 -0.15114886818E+03  0.63419085686E+03  0.10100000352E+00 0. -1.
       -3    1    3    3    0  502  0.16895112850E+03 -0.59229010505E+03  0.53513352917E+03  0.81591663582E+03  0.10100000352E+00 0.  1.
</event>
<event>
 5   0  0.2428507E-05  0.1400908E+04  0.7818609E-02  0.8953162E-01
       -1   -1    0    0    0  501  0.00000000000E+00  0.00000000000E+00  0.43050997552E+03  0.43050997555E+03  0.50400001928E-02 0.  1.
        1   -1    0    0  501    0  0.00000000000E+00  0.00000000000E+00 -0.11396611469E+04  0.11396611469E+04  0.50400001928E-02 0. -1.
    10030    2    1    2    0    0  0.00000000000E+00  0.00000000000E+00 -0.70915117140E+03  0.15701711225E+04  0.14009075523E+04 0.  0.
        4    1    3    3  502    0 -0.23934346471E+03  0.43469235555E+03 -0.90866549256E+03  0.10353344041E+04  0.12699999809E+01 0. -1.
       -4    1    3    3    0  502  0.23934346471E+03 -0.43469235555E+03  0.19951432116E+03  0.53483671837E+03  0.12699999809E+01 0.  1.
</event>
<event>
 5   0  0.4460282E-05  0.1399157E+04  0.7818609E-02  0.8954429E-01
        2   -1    0    0  501    0  0.00000000000E+00  0.00000000000E+00  0.16762458101E+04  0.16762458101E+04  0.25500000920E-02 0. -1.
       -2   -1    0    0    0  501  0.00000000000E+00  0.00000000000E+00 -0.29196807058E+03  0.29196807059E+03  0.25500000920E-02 0.  1.
    10030    2    1    2    0    0  0.00000000000E+00  0.00000000000E+00  0.13842777395E+04  0.19682138806E+04  0.13991572535E+04 0.  0.
        1    1    3    3  502    0  0.39440134624E+02  0.46282278372E+03  0.14280126532E+04  0.15016592793E+04  0.50400001928E-02 0. -1.
       -1    1    3    3    0  502 -0.39440134624E+02 -0.46282278372E+03 -0.43734913708E+02  0.46655460137E+03  0.50400001928E-02 0.  1.
</event>
<event>
 5   0  0.2316714E-05  0.1400280E+04  0.7818609E-02  0.8953616E-01
        1   -1    0    0  501    0  0.00000000000E+00  0.00000000000E+00  0.77387951996E+03  0.77387951998E+03  0.50400001928E-02 0. -1.
       -1   -1    0    0    0  501  0.00000000000E+00  0.00000000000E+00 -0.63342661032E+03  0.63342661034E+03  0.50400001928E-02 0.  1.
    10030    2    1    2    0    0  0.00000000000E+00  0.00000000000E+00  0.14045290964E+03  0.14073061303E+04  0.14002798023E+04 0.  0.
        5    1    3    3  502    0 -0.17115053549E+02  0.50040898744E+03  0.56204042838E+03  0.75273741298E+03  0.46999998093E+01 0. -1.
       -5    1    3    3    0  502  0.17115053549E+02 -0.50040898744E+03 -0.42158751874E+03  0.65456871734E+03  0.46999998093E+01 0.  1.
</event>
<event>
 5   0  0.2428507E-05  0.1400421E+04  0.7818609E-02  0.8953514E-01
        1   -1    0    0  501    0  0.00000000000E+00  0.00000000000E+00  0.54441108270E+03  0.54441108272E+03  0.50400001928E-02 0.  1.
       -1   -1    0    0    0  501  0.00000000000E+00  0.00000000000E+00 -0.90059696113E+03  0.90059696114E+03  0.50400001928E-02 0. -1.
    10030    2    1    2    0    0  0.00000000000E+00  0.00000000000E+00 -0.35618587843E+03  0.14450080439E+04  0.14004213176E+04 0.  0.
        4    1    3    3  502    0 -0.45826498864E+03  0.10238999568E+03 -0.71405594273E+03  0.85461571088E+03  0.12699999809E+01 0. -1.
       -4    1    3    3    0  502  0.45826498864E+03 -0.10238999568E+03  0.35787006430E+03  0.59039233299E+03  0.12699999809E+01 0.  1.
</event>
<event>
 5   0  0.4441253E-05  0.1400235E+04  0.7818609E-02  0.8953648E-01
        2   -1    0    0  501    0  0.00000000000E+00  0.00000000000E+00  0.11624362881E+04  0.11624362881E+04  0.25500000920E-02 0.  1.
       -2   -1    0    0    0  501  0.00000000000E+00  0.00000000000E+00 -0.42166998901E+03  0.42166998901E+03  0.25500000920E-02 0. -1.
    10030    2    1    2    0    0  0.00000000000E+00  0.00000000000E+00  0.74076629908E+03  0.15841062771E+04  0.14002349757E+04 0.  0.
        3    1    3    3  502    0  0.29403239310E+03 -0.17385224709E+03  0.10617680323E+04  0.11153613839E+04  0.10100000352E+00 0.  1.
       -3    1    3    3    0  502 -0.29403239310E+03  0.17385224709E+03 -0.32100173321E+03  0.46874489324E+03  0.10100000352E+00 0. -1.
</event>
<event>
 5   0  0.2316714E-05  0.1400688E+04  0.7818609E-02  0.8953321E-01
       -1   -1    0    0    0  501  0.00000000000E+00  0.00000000000E+00  0.37666071690E+03  0.37666071693E+03  0.50400001928E-02 0.  1.
        1   -1    0    0  501    0  0.00000000000E+00  0.00000000000E+00 -0.13021839384E+04  0.13021839384E+04  0.50400001928E-02 0. -1.
    10030    2    1    2    0    0  0.00000000000E+00  0.00000000000E+00 -0.92552322153E+03  0.16788446554E+04  0.14006877394E+04 0.  0.
        5    1    3    3  502    0 -0.20992679862E+03  0.13966982005E+03  0.32034947942E+03  0.40770430262E+03  0.46999998093E+01 0.  1.
       -5    1    3    3    0  502  0.20992679862E+03 -0.13966982005E+03 -0.12458727010E+04  0.12711403528E+04  0.46999998093E+01 0. -1.
</event>
<event>
 5   0  0.2467303E-05  0.1401903E+04  0.7818609E-02  0.8952442E-01
       -1   -1    0    0    0  501  0.00000000000E+00  0.00000000000E+00  0.71705797582E+03  0.71705797584E+03  0.50400001928E-02 0.  1.
        1   -1    0    0  501    0  0.00000000000E+00  0.00000000000E+00 -0.68520692476E+03  0.68520692478E+03  0.50400001928E-02 0. -1.
    10030    2    1    2    0    0  0.00000000000E+00  0.00000000000E+00  0.31851051061E+02  0.14022649006E+04  0.14019031215E+04 0.  0.
        3    1    3    3  502    0  0.69732887911E+03 -0.66897434306E+01  0.86801146719E+02  0.70274231948E+03  0.10100000352E+00 0.  1.
       -3    1    3    3    0  502 -0.69732887911E+03  0.66897434306E+01 -0.54950095658E+02  0.69952258114E+03  0.10100000352E+00 0. -1.
</event>
<event>
 5   0  0.2363419E-05  0.1400268E+04  0.7818609E-02  0.8953625E-01
       -1   -1    0    0    0  501  0.00000000000E+00  0.00000000000E+00  0.62087703782E+03  0.62087703784E+03  0.50400001928E-02 0. -1.
        1   -1    0    0  501    0  0.00000000000E+00  0.00000000000E+00 -0.78950815875E+03  0.78950815876E+03  0.50400001928E-02 0.  1.
    10030    2    1    2    0    0  0.00000000000E+00  0.00000000000E+00 -0.16863112093E+03  0.14103851966E+04  0.14002678129E+04 0.  0.
        2    1    3    3  502    0  0.29064902358E+03 -0.10432300547E+03 -0.71720849201E+03  0.78086373037E+03  0.25500000920E-02 0.  1.
       -2    1    3    3    0  502 -0.29064902358E+03  0.10432300547E+03  0.54857737109E+03  0.62952146624E+03  0.25500000920E-02 0. -1.
</event>
<event>
 5   0  0.4243281E-05  0.1399990E+04  0.7818609E-02  0.8953826E-01
        2   -1    0    0  501    0  0.00000000000E+00  0.00000000000E+00  0.16521655292E+04  0.16521655292E+04  0.25500000920E-02 0. -1.
       -2   -1    0    0    0  501  0.00000000000E+00  0.00000000000E+00 -0.29657627127E+03  0.29657627128E+03  0.25500000920E-02 0.  1.
    10030    2    1    2    0    0  0.00000000000E+00  0.00000000000E+00  0.13555892579E+04  0.19487418005E+04  0.13999901317E+04 0.  0.
        2    1    3    3  502    0 -0.25892197322E+03  0.43634119305E+03  0.13490623719E+04  0.14413200575E+04  0.25500000920E-02 0. -1.
       -2    1    3    3    0  502  0.25892197322E+03 -0.43634119305E+03  0.65268860156E+01  0.50742174294E+03  0.25500000920E-02 0.  1.
</event>
<event>
 5   0  0.2363419E-05  0.1400193E+04  0.7818609E-02  0.8953679E-01
       -1   -1    0    0    0  501  0.00000000000E+00  0.00000000000E+00  0.60247954602E+03  0.60247954604E+03  0.50400001928E-02 0. -1.
        1   -1    0    0  501    0  0.00000000000E+00  0.00000000000E+00 -0.81352958993E+03  0.81352958995E+03  0.50400001928E-02 0.  1.
    10030    2    1    2    0    0  0.00000000000E+00  0.00000000000E+00 -0.21105004391E+03  0.14160091360E+04  0.14001927554E+04 0.  0.
        2    1    3    3  502    0  0.64058753213E+03  0.97799040659E+01  0.17995236266E+03  0.66545539721E+03  0.25500000920E-02 0. -1.
       -2    1    3    3    0  502 -0.64058753213E+03 -0.97799040659E+01 -0.39100240658E+03  0.75055373878E+03  0.25500000920E-02 0.  1.
</event>
<event>
 5   0  0.2363419E-05  0.1399722E+04  0.7818609E-02  0.8954020E-01
        1   -1    0    0  501    0  0.00000000000E+00  0.00000000000E+00  0.12753690397E+04  0.12753690397E+04  0.50400001928E-02 0.  1.
       -1   -1    0    0    0  501  0.00000000000E+00  0.00000000000E+00 -0.38404990157E+03  0.38404990161E+03  0.50400001928E-02 0. -1.
    10030    2    1    2    0    0  0.00000000000E+00  0.00000000000E+00  0.89131913811E+03  0.16594189413E+04  0.13997219069E+04 0.  0.
        2    1    3    3  502    0  0.33569163930E+03 -0.11984106474E+03  0.11596966164E+04  0.12132382287E+04  0.25500000920E-02 0.  1.
       -2    1    3    3    0  502 -0.33569163930E+03  0.11984106474E+03 -0.26837747824E+03  0.44618071264E+03  0.25500000920E-02 0. -1.
</event>
<event>
 5   0  0.2467303E-05  0.1399417E+04  0.7818609E-02  0.8954240E-01
        1   -1    0    0  501    0  0.00000000000E+00  0.00000000000E+00  0.95029570088E+03  0.95029570090E+03  0.50400001928E-02 0. -1.
       -1   -1    0    0    0  501  0.00000000000E+00  0.00000000000E+00 -0.51519987988E+03  0.51519987990E+03  0.50400001928E-02 0.  1.
    10030    2    1    2    0    0  0.00000000000E+00  0.00000000000E+00  0.43509582101E+03  0.14654955808E+04  0.13994173516E+04 0.  0.
        3    1    3    3  502    0  0.46351978410E+03  0.23363827343E+03  0.70890963796E+03  0.87862979579E+03  0.10100000352E+00 0. -1.
       -3    1    3    3    0  502 -0.46351978410E+03 -0.23363827343E+03 -0.27381381695E+03  0.58686578501E+03  0.10100000352E+00 0.  1.
</event>
<event>
 5   0  0.4460282E-05  0.1400426E+04  0.7818609E-02  0.8953511E-01
       -2   -1    0    0    0  501  0.00000000000E+00  0.00000000000E+00  0.16138733941E+03  0.16138733943E+03  0.25500000920E-02 0. -1.
        2   -1    0    0  501    0  0.00000000000E+00  0.00000000000E+00 -0.30380196978E+04  0.30380196978E+04  0.25500000920E-02 0.  1.
    10030    2    1    2    0    0  0.00000000000E+00  0.00000000000E+00 -0.28766323584E+04  0.31994070373E+04  0.14004255298E+04 0.  0.
        1    1    3    3  502    0 -0.40488911753E+03 -0.50135080859E+03 -0.20640207192E+04  0.21622833672E+04  0.50400001928E-02 0.  1.
       -1    1    3    3    0  502  0.40488911753E+03  0.50135080859E+03 -0.81261163923E+03  0.10371236701E+04  0.50400001928E-02 0. -1.
</event>
<event>
 5   0  0.4527503E-05  0.1399763E+04  0.7818609E-02  0.8953990E-01
        2   -1    0    0  501    0  0.00000000000E+00  0.00000000000E+00  0.54254421381E+03  0.54254421382E+03  0.25500000920E-02 0. -1.
       -2   -1    0    0    0  501  0.00000000000E+00  0.00000000000E+00 -0.90284627501E+03  0.90284627501E+03  0.25500000920E-02 0.  1.
    10030    2    1    2    0    0  0.00000000000E+00  0.00000000000E+00 -0.36030206120E+03  0.14453904888E+04  0.13997628692E+04 0.  0.
        4    1    3    3  502    0  0.93616012985E+01  0.46342963550E+03  0.36132532222E+03  0.58771784729E+03  0.12699999809E+01 0. -1.
       -4    1    3    3    0  502 -0.93616012985E+01 -0.46342963550E+03 -0.72162738343E+03  0.85767264154E+03  0.12699999809E+01 0.  1.
</event>
<event>
 5   0  0.2427569E-05  0.1400237E+04  0.7818609E-02  0.8953647E-01
       -1   -1    0    0    0  501  0.00000000000E+00  0.00000000000E+00  0.32316310094E+03  0.32316310098E+03  0.50400001928E-02 0.  1.
        1   -1    0    0  501    0  0.00000000000E+00  0.00000000000E+00 -0.15167754838E+04  0.15167754838E+04  0.50400001928E-02 0. -1.
    10030    2    1    2    0    0  0.00000000000E+00  0.00000000000E+00 -0.11936123829E+04  0.18399385848E+04  0.14002369354E+04 0.  0.
        1    1    3    3  502    0  0.43807067286E+03  0.14602527790E+03 -0.12883058248E+04  0.13685617248E+04  0.50400001928E-02 0. -1.
       -1    1    3    3    0  502 -0.43807067286E+03 -0.14602527790E+03  0.94693441936E+02  0.47137686004E+03  0.50400001928E-02 0.  1.
</event>
<event>
 5   0  0.4460282E-05  0.1400036E+04  0.7818609E-02  0.8953792E-01
       -2   -1    0    0    0  501  0.00000000000E+00  0.00000000000E+00  0.67082831303E+03  0.67082831304E+03  0.25500000920E-02 0.  1.
        2   -1    0    0  501    0  0.00000000000E+00  0.00000000000E+00 -0.73047808239E+03  0.73047808240E+03  0.25500000920E-02 0. -1.
    10030    2    1    2    0    0  0.00000000000E+00  0.00000000000E+00 -0.59649769360E+02  0.14013063954E+04  0.14000362563E+04 0.  0.
        1    1    3    3  502    0 -0.54098088125E+03  0.39483819183E+03 -0.23364623556E+03  0.70932931352E+03  0.50400001928E-02 0. -1.
       -1    1    3    3    0  502  0.54098088125E+03 -0.39483819183E+03  0.17399646620E+03  0.69197708191E+03  0.50400001928E-02 0.  1.
</event>
<event>
 5   0  0.4527503E-05  0.1400877E+04  0.7818609E-02  0.8953184E-01
       -2   -1    0    0    0  501  0.00000000000E+00  0.00000000000E+00  0.69573837976E+03  0.69573837976E+03  0.25500000920E-02 0.  1.
        2   -1    0    0  501    0  0.00000000000E+00  0.00000000000E+00 -0.70517081040E+03  0.70517081040E+03  0.25500000920E-02 0. -1.
    10030    2    1    2    0    0  0.00000000000E+00  0.00000000000E+00 -0.94324306422E+01  0.14009091902E+04  0.14008774352E+04 0.  0.
        4    1    3    3  502    0  0.58269297859E+03  0.32885097899E+02  0.38259121773E+03  0.69784682398E+03  0.12699999809E+01 0.  1.
       -4    1    3    3    0  502 -0.58269297859E+03 -0.32885097899E+02 -0.39202364837E+03  0.70306236618E+03  0.12699999809E+01 0. -1.
</event>
<event>
 5   0  0.4621450E-05  0.1400552E+04  0.7818609E-02  0.8953419E-01
        2   -1    0    0  501    0  0.00000000000E+00  0.00000000000E+00  0.44560229883E+03  0.44560229883E+03  0.25500000920E-02 0. -1.
       -2   -1    0    0    0  501  0.00000000000E+00  0.00000000000E+00 -0.11005032743E+04  0.11005032743E+04  0.25500000920E-02 0.  1.
    10030    2    1    2    0    0  0.00000000000E+00  0.00000000000E+00 -0.65490097548E+03  0.15461055731E+04  0.14005524466E+04 0.  0.
        5    1    3    3  502    0  0.30374602781E+03 -0.39082986274E+03  0.21936056646E+03  0.54143400257E+03  0.46999998093E+01 0. -1.
       -5    1    3    3    0  502 -0.30374602781E+03  0.39082986274E+03 -0.87426154194E+03  0.10046715706E+04  0.46999998093E+01 0.  1.
</event>
<event>
 5   0  0.4460282E-05  0.1406916E+04  0.7818609E-02  0.8948828E-01
        2   -1    0    0  501    0  0.00000000000E+00  0.00000000000E+00  0.15080815617E+04  0.15080815617E+04  0.25500000920E-02 0. -1.
       -2   -1    0    0    0  501  0.00000000000E+00  0.00000000000E+00 -0.32813407986E+03  0.32813407987E+03  0.25500000920E-02 0.  1.
    10030    2    1    2    0    0  0.00000000000E+00  0.00000000000E+00  0.11799474819E+04  0.18362156416E+04  0.14069157126E+04 0.  0.
        1    1    3    3  502    0 -0.15225812756E+03  0.44689116148E+02 -0.30447105004E+03  0.34333988240E+03  0.50400001928E-02 0.  1.
       -1    1    3    3    0  502  0.15225812756E+03 -0.44689116148E+02  0.14844185319E+04  0.14928757592E+04  0.50400001928E-02 0. -1.
</event>
<event>
 5   0  0.4621450E-05  0.1400145E+04  0.7818609E-02  0.8953714E-01
       -2   -1    0    0    0  501  0.00000000000E+00  0.00000000000E+00  0.42081712658E+03  0.42081712658E+03  0.25500000920E-02 0. -1.
        2   -1    0    0  501    0  0.00000000000E+00  0.00000000000E+00 -0.11646420118E+04  0.11646420118E+04  0.25500000920E-02 0.  1.
    10030    2    1    2    0    0  0.00000000000E+00  0.00000000000E+00 -0.74382488525E+03  0.15854591384E+04  0.14001447138E+04 0.  0.
        5    1    3    3  502    0  0.49298824322E+03 -0.48372422525E+03 -0.24254291614E+03  0.73203530667E+03  0.46999998093E+01 0.  1.
       -5    1    3    3    0  502 -0.49298824322E+03  0.48372422525E+03 -0.50128196912E+03  0.85342383175E+03  0.46999998093E+01 0. -1.
</event>
<event>
 5   0  0.4460282E-05  0.1400193E+04  0.7818609E-02  0.8953679E-01
        2   -1    0    0  501    0  0.00000000000E+00  0.00000000000E+00  0.45880491598E+03  0.45880491598E+03  0.25500000920E-02 0.  1.
       -2   -1    0    0    0  501  0.00000000000E+00  0.00000000000E+00 -0.10682859331E+04  0.10682859331E+04  0.25500000920E-02 0. -1.
    10030    2    1    2    0    0  0.00000000000E+00  0.00000000000E+00 -0.60948101715E+03  0.15270908491E+04  0.14001926122E+04 0.  0.
        1    1    3    3  502    0 -0.14727888182E+03  0.61311778618E+03 -0.63649681942E+03  0.89595350879E+03  0.50400001928E-02 0. -1.
       -1    1    3    3    0  502  0.14727888182E+03 -0.61311778618E+03  0.27015802263E+02  0.63113734033E+03  0.50400001928E-02 0.  1.
</event>
<event>
 5   0  0.2428507E-05  0.1399827E+04  0.7818609E-02  0.8953944E-01
        1   -1    0    0  501    0  0.00000000000E+00  0.00000000000E+00  0.11153464545E+04  0.11153464545E+04  0.50400001928E-02 0. -1.
       -1   -1    0    0    0  501  0.00000000000E+00  0.00000000000E+00 -0.43921662565E+03  0.43921662568E+03  0.50400001928E-02 0.  1.
    10030    2    1    2    0    0  0.00000000000E+00  0.00000000000E+00  0.67612982883E+03  0.15545630802E+04  0.13998267124E+04 0.  0.
        4    1    3    3  502    0 -0.81630246032E+02 -0.80158428536E+02  0.11048909187E+04  0.11107990034E+04  0.12699999809E+01 0. -1.
       -4    1    3    3    0  502  0.81630246032E+02  0.80158428536E+02 -0.42876108990E+03  0.44376407679E+03  0.12699999809E+01 0.  1.
</event>
<event>
 5   0  0.2467303E-05  0.1400127E+04  0.7818609E-02  0.8953726E-01
       -1   -1    0    0    0  501  0.00000000000E+00  0.00000000000E+00  0.73205963749E+03  0.73205963751E+03  0.50400001928E-02 0.  1.
        1   -1    0    0  501    0  0.00000000000E+00  0.00000000000E+00 -0.66946598175E+03  0.66946598177E+03  0.50400001928E-02 0. -1.
    10030    2    1    2    0    0  0.00000000000E+00  0.00000000000E+00  0.62593655739E+02  0.14015256193E+04  0.14001271713E+04 0.  0.
        3    1    3    3  502    0 -0.40658699158E+02  0.21856150781E+03 -0.63319355382E+03  0.67108594778E+03  0.10100000352E+00 0. -1.
       -3    1    3    3    0  502  0.40658699158E+02 -0.21856150781E+03  0.69578720956E+03  0.73043967150E+03  0.10100000352E+00 0.  1.
</event>
<event>
 5   0  0.4460282E-05  0.1399412E+04  0.7818609E-02  0.8954244E-01
       -2   -1    0    0    0  501  0.00000000000E+00  0.00000000000E+00  0.41390253936E+03  0.41390253937E+03  0.25500000920E-02 0.  1.
        2   -1    0    0  501    0  0.00000000000E+00  0.00000000000E+00 -0.11828601712E+04  0.11828601712E+04  0.25500000920E-02 0. -1.
    10030    2    1    2    0    0  0.00000000000E+00  0.00000000000E+00 -0.76895763181E+03  0.15967627105E+04  0.13994124890E+04 0.  0.
        1    1    3    3  502    0  0.20420294155E+03 -0.60946433305E+02  0.37597342840E+03  0.43216817092E+03  0.50400001928E-02 0.  1.
       -1    1    3    3    0  502 -0.20420294155E+03  0.60946433305E+02 -0.11449310602E+04  0.11645945396E+04  0.50400001928E-02 0. -1.
</event>
<event>
 5   0  0.2363419E-05  0.1395536E+04  0.7818609E-02  0.8957056E-01
       -1   -1    0    0    0  501  0.00000000000E+00  0.00000000000E+00  0.46116174358E+03  0.46116174361E+03  0.50400001928E-02 0.  1.
        1   -1    0    0  501    0  0.00000000000E+00  0.00000000000E+00 -0.10557682333E+04  0.10557682333E+04  0.50400001928E-02 0. -1.
    10030    2    1    2    0    0  0.00000000000E+00  0.00000000000E+00 -0.59460648973E+03  0.15169299769E+04  0.13955356238E+04 0.  0.
        2    1    3    3  502    0  0.64598658807E+03 -0.57123112365E+02 -0.17378711390E+02  0.64874011865E+03  0.25500000920E-02 0.  1.
       -2    1    3    3    0  502 -0.64598658807E+03  0.57123112365E+02 -0.57722777834E+03  0.86818985828E+03  0.25500000920E-02 0. -1.
</event>
<event>
 5   0  0.4243281E-05  0.1399512E+04  0.7818609E-02  0.8954172E-01
       -2   -1    0    0    0  501  0.00000000000E+00  0.00000000000E+00  0.19607739828E+03  0.19607739830E+03  0.25500000920E-02 0.  1.
        2   -1    0    0  501    0  0.00000000000E+00  0.00000000000E+00 -0.24972703592E+04  0.24972703592E+04  0.25500000920E-02 0. -1.
    10030    2    1    2    0    0  0.00000000000E+00  0.00000000000E+00 -0.23011929609E+04  0.26933477575E+04  0.13995117361E+04 0.  0.
        2    1    3    3  502    0 -0.43916549787E+03  0.37757670278E+03 -0.19063795903E+04  0.19924140241E+04  0.25500000920E-02 0. -1.
       -2    1    3    3    0  502  0.43916549787E+03 -0.37757670278E+03 -0.39481337056E+03  0.70093373338E+03  0.25500000920E-02 0.  1.
</event>
<event>
 5   0  0.2428507E-05  0.1399504E+04  0.7818609E-02  0.8954178E-01
        1   -1    0    0  501    0  0.00000000000E+00  0.00000000000E+00  0.16970488811E+04  0.16970488811E+04  0.50400001928E-02 0. -1.
       -1   -1    0    0    0  501  0.00000000000E+00  0.00000000000E+00 -0.28853195878E+03  0.28853195882E+03  0.50400001928E-02 0.  1.
    10030    2    1    2    0    0  0.00000000000E+00  0.00000000000E+00  0.14085169223E+04  0.19855808399E+04  0.13995039662E+04 0.  0.
        4    1    3    3  502    0 -0.61735727558E+03  0.19403946506E+03  0.32656073882E+03  0.72486195151E+03  0.12699999809E+01 0. -1.
       -4    1    3    3    0  502  0.61735727558E+03 -0.19403946506E+03  0.10819561835E+04  0.12607188884E+04  0.12699999809E+01 0.  1.
</event>
<event>
 5   0  0.4621450E-05  0.1400411E+04  0.7818609E-02  0.8953521E-01
       -2   -1    0    0    0  501  0.00000000000E+00  0.00000000000E+00  0.29889041451E+03  0.29889041452E+03  0.25500000920E-02 0.  1.
        2   -1    0    0  501    0  0.00000000000E+00  0.00000000000E+00 -0.16403594467E+04  0.16403594467E+04  0.25500000920E-02 0. -1.
    10030    2    1    2    0    0  0.00000000000E+00  0.00000000000E+00 -0.13414690322E+04  0.19392498612E+04  0.14004109611E+04 0.  0.
        5    1    3    3  502    0  0.38557162225E+03  0.84407131068E+02 -0.14716016639E+04  0.15236218647E+04  0.46999998093E+01 0. -1.
       -5    1    3    3    0  502 -0.38557162225E+03 -0.84407131068E+02  0.13013263165E+03  0.41562799650E+03  0.46999998093E+01 0.  1.
</event>
<event>
 5   0  0.2428507E-05  0.1400324E+04  0.7818609E-02  0.8953584E-01
       -1   -1    0    0    0  501  0.00000000000E+00  0.00000000000E+00  0.49209115911E+03  0.49209115914E+03  0.50400001928E-02 0.  1.
        1   -1    0    0  501    0  0.00000000000E+00  0.00000000000E+00 -0.99621181792E+03  0.99621181794E+03  0.50400001928E-02 0. -1.
    10030    2    1    2    0    0  0.00000000000E+00  0.00000000000E+00 -0.50412065881E+03  0.14883029771E+04  0.14003242885E+04 0.  0.
        4    1    3    3  502    0  0.45813073209E+03 -0.10655963392E+03  0.29916368025E+03  0.55743990146E+03  0.12699999809E+01 0.  1.
       -4    1    3    3    0  502 -0.45813073209E+03  0.10655963392E+03 -0.80328433906E+03  0.93086307561E+03  0.12699999809E+01 0. -1.
</event>
<event>
 5   0  0.4460282E-05  0.1399655E+04  0.7818609E-02  0.8954068E-01
       -2   -1    0    0    0  501  0.00000000000E+00  0.00000000000E+00  0.48941549505E+03  0.48941549506E+03  0.25500000920E-02 0.  1.
        2   -1    0    0  501    0  0.00000000000E+00  0.00000000000E+00 -0.10007008049E+04  0.10007008049E+04  0.25500000920E-02 0. -1.
    10030    2    1    2    0    0  0.00000000000E+00  0.00000000000E+00 -0.51128530987E+03  0.14901163000E+04  0.13996549287E+04 0.  0.
        1    1    3    3  502    0  0.53850131919E+03  0.44143403630E+03 -0.33024892705E+03  0.77065688410E+03  0.50400001928E-02 0.  1.
       -1    1    3    3    0  502 -0.53850131919E+03 -0.44143403630E+03 -0.18103638282E+03  0.71945941588E+03  0.50400001928E-02 0. -1.
</event>
<event>
 5   0  0.2363419E-05  0.1399676E+04  0.7818609E-02  0.8954053E-01
       -1   -1    0    0    0  501  0.00000000000E+00  0.00000000000E+00  0.11801485766E+04  0.11801485766E+04  0.50400001928E-02 0. -1.
        1   -1    0    0  501    0  0.00000000000E+00  0.00000000000E+00 -0.41500975280E+03  0.41500975283E+03  0.50400001928E-02 0.  1.
    10030    2    1    2    0    0  0.00000000000E+00  0.00000000000E+00  0.76513882381E+03  0.15951583294E+04  0.13996759183E+04 0.  0.
        2    1    3    3  502    0 -0.59878026638E+03 -0.21213821017E+02 -0.29581087840E+02  0.59988571776E+03  0.25500000920E-02 0.  1.
       -2    1    3    3    0  502  0.59878026638E+03  0.21213821017E+02  0.79471991165E+03  0.99527261169E+03  0.25500000920E-02 0. -1.
</event>
<event>
 5   0  0.2363419E-05  0.1400475E+04  0.7818609E-02  0.8953475E-01
        1   -1    0    0  501    0  0.00000000000E+00  0.00000000000E+00  0.17053885541E+04  0.17053885541E+04  0.50400001928E-02 0.  1.
       -1   -1    0    0    0  501  0.00000000000E+00  0.00000000000E+00 -0.28751952669E+03  0.28751952673E+03  0.50400001928E-02 0. -1.
    10030    2    1    2    0    0  0.00000000000E+00  0.00000000000E+00  0.14178690274E+04  0.19929080808E+04  0.14004749336E+04 0.  0.
        2    1    3    3  502    0  0.12285206867E+03  0.43139622568E+03  0.14741150163E+04  0.15408473044E+04  0.25500000920E-02 0.  1.
       -2    1    3    3    0  502 -0.12285206867E+03 -0.43139622568E+03 -0.56245988865E+02  0.45206077642E+03  0.25500000920E-02 0. -1.
</event>
<event>
 5   0  0.2467303E-05  0.1400326E+04  0.7818609E-02  0.8953583E-01
        1   -1    0    0  501    0  0.00000000000E+00  0.00000000000E+00  0.11240102523E+04  0.11240102523E+04  0.50400001928E-02 0. -1.
       -1   -1    0    0    0  501  0.00000000000E+00  0.00000000000E+00 -0.43614205905E+03  0.43614205908E+03  0.50400001928E-02 0.  1.
    10030    2    1    2    0    0  0.00000000000E+00  0.00000000000E+00  0.68786819320E+03  0.15601523113E+04  0.14003258847E+04 0.  0.
        3    1    3    3  502    0 -0.95162287862E+02  0.66171062995E+03  0.57580090077E+03  0.88230578959E+03  0.10100000352E+00 0. -1.
       -3    1    3    3    0  502  0.95162287862E+02 -0.66171062995E+03  0.11206729244E+03  0.67784652175E+03  0.10100000352E+00 0.  1.
</event>
<event>
 5   0  0.2316714E-05  0.1398944E+04  0.7818609E-02  0.8954583E-01
       -1   -1    0    0    0  501  0.00000000000E+00  0.00000000000E+00  0.54438604591E+03  0.54438604593E+03  0.50400001928E-02 0. -1.
        1   -1    0    0  501    0  0.00000000000E+00  0.00000000000E+00 -0.89873942898E+03  0.89873942899E+03  0.50400001928E-02 0.  1.
    10030    2    1    2    0    0  0.00000000000E+00  0.00000000000E+00 -0.35435338307E+03  0.14431254749E+04  0.13989441791E+04 0.  0.
        5    1    3    3  502    0  0.48751076060E+03  0.46385785043E+03  0.19658936920E+02  0.67323057781E+03  0.46999998093E+01 0. -1.
       -5    1    3    3    0  502 -0.48751076060E+03 -0.46385785043E+03 -0.37401231999E+03  0.76989489712E+03  0.46999998093E+01 0.  1.
</event>
<event>
 5   0  0.2428507E-05  0.1399818E+04  0.7818609E-02  0.8953950E-01
        1   -1    0    0  501    0  0.00000000000E+00  0.00000000000E+00  0.67563726071E+03  0.67563726073E+03  0.50400001928E-02 0. -1.
       -1   -1    0    0    0  501  0.00000000000E+00  0.00000000000E+00 -0.72505300771E+03  0.72505300773E+03  0.50400001928E-02 0.  1.
    10030    2    1    2    0    0  0.00000000000E+00  0.00000000000E+00 -0.49415747000E+02  0.14006902685E+04  0.13998183140E+04 0.  0.
        4    1    3    3  502    0  0.95483380266E+01 -0.44800712203E+02  0.67413459994E+03  0.67569027395E+03  0.12699999809E+01 0. -1.
       -4    1    3    3    0  502 -0.95483380266E+01  0.44800712203E+02 -0.72355034694E+03  0.72499999450E+03  0.12699999809E+01 0.  1.
</event>
<event>
 5   0  0.4527503E-05  0.1399742E+04  0.7818609E-02  0.8954005E-01
       -2   -1    0    0    0  501  0.00000000000E+00  0.00000000000E+00  0.20940138850E+03  0.20940138852E+03  0.25500000920E-02 0.  1.
        2   -1    0    0  501    0  0.00000000000E+00  0.00000000000E+00 -0.23391415101E+04  0.23391415101E+04  0.25500000920E-02 0. -1.
    10030    2    1    2    0    0  0.00000000000E+00  0.00000000000E+00 -0.21297401216E+04  0.25485428987E+04  0.13997420907E+04 0.  0.
        4    1    3    3  502    0 -0.23654571067E+02  0.48049368244E+03 -0.19903709929E+04  0.20476845509E+04  0.12699999809E+01 0. -1.
       -4    1    3    3    0  502  0.23654571067E+02 -0.48049368244E+03 -0.13936912873E+03  0.50085834778E+03  0.12699999809E+01 0.  1.
</event>
<event>
 5   0  0.4460282E-05  0.1399356E+04  0.7818609E-02  0.8954285E-01
       -2   -1    0    0    0  501  0.00000000000E+00  0.00000000000E+00  0.10103515783E+04  0.10103515783E+04  0.25500000920E-02 0. -1.
        2   -1    0    0  501    0  0.00000000000E+00  0.00000000000E+00 -0.48453335153E+03  0.48453335154E+03  0.25500000920E-02 0.  1.
    10030    2    1    2    0    0  0.00000000000E+00  0.00000000000E+00  0.52581822673E+03  0.14948849298E+04  0.13993556181E+04 0.  0.
        1    1    3    3  502    0 -0.45794734040E+03 -0.12167409749E+02  0.82786485849E+03  0.94616279592E+03  0.50400001928E-02 0. -1.
       -1    1    3    3    0  502  0.45794734040E+03  0.12167409749E+02 -0.30204663176E+03  0.54872213389E+03  0.50400001928E-02 0.  1.
</event>
<event>
 5   0  0.4621450E-05  0.1400122E+04  0.7818609E-02  0.8953730E-01
       -2   -1    0    0    0  501  0.00000000000E+00  0.00000000000E+00  0.46666052683E+03  0.46666052684E+03  0.25500000920E-02 0. -1.
        2   -1    0    0  501    0  0.00000000000E+00  0.00000000000E+00 -0.10501968342E+04  0.10501968342E+04  0.25500000920E-02 0.  1.
    10030    2    1    2    0    0  0.00000000000E+00  0.00000000000E+00 -0.58353630741E+03  0.15168573611E+04  0.14001220060E+04 0.  0.
        5    1    3    3  502    0  0.37887276948E+03 -0.44294660953E+03  0.12826442316E+03  0.59684179361E+03  0.46999998093E+01 0. -1.
       -5    1    3    3    0  502 -0.37887276948E+03  0.44294660953E+03 -0.71180073057E+03  0.92001556747E+03  0.46999998093E+01 0.  1.
</event>
<event>
 5   0  0.4243281E-05  0.1399776E+04  0.7818609E-02  0.8953981E-01
        2   -1    0    0  501    0  0.00000000000E+00  0.00000000000E+00  0.56922961522E+03  0.56922961523E+03  0.25500000920E-02 0.  1.
       -2   -1    0    0    0  501  0.00000000000E+00  0.00000000000E+00 -0.86053668055E+03  0.86053668055E+03  0.25500000920E-02 0. -1.
    10030    2    1    2    0    0  0.00000000000E+00  0.00000000000E+00 -0.29130706533E+03  0.14297662958E+04  0.13997756443E+04 0.  0.
        2    1    3    3  502    0 -0.24267690683E+03  0.20002378703E+02 -0.81587574397E+03  0.85143725892E+03  0.25500000920E-02 0. -1.
       -2    1    3    3    0  502  0.24267690683E+03 -0.20002378703E+02  0.52456867864E+03  0.57832903687E+03  0.25500000920E-02 0.  1.
</event>
<event>
 5   0  0.2363419E-05  0.1399901E+04  0.7818609E-02  0.8953890E-01
       -1   -1    0    0    0  501  0.00000000000E+00  0.00000000000E+00  0.82690930541E+03  0.82690930542E+03  0.50400001928E-02 0. -1.
        1   -1    0    0  501    0  0.00000000000E+00  0.00000000000E+00 -0.59248401329E+03  0.59248401331E+03  0.50400001928E-02 0.  1.
    10030    2    1    2    0    0  0.00000000000E+00  0.00000000000E+00  0.23442529211E+03  0.14193933187E+04  0.13999007735E+04 0.  0.
        2    1    3    3  502    0 -0.13617005402E+03 -0.37235999978E+03  0.70207758671E+03  0.80629224901E+03  0.25500000920E-02 0. -1.
       -2    1    3    3    0  502  0.13617005402E+03  0.37235999978E+03 -0.46765229460E+03  0.61310106972E+03  0.25500000920E-02 0.  1.
</event>
<event>
 5   0  0.2427569E-05  0.1397723E+04  0.7818609E-02  0.8955468E-01
        1   -1    0    0  501    0  0.00000000000E+00  0.00000000000E+00  0.74517439678E+03  0.74517439679E+03  0.50400001928E-02 0. -1.
       -1   -1    0    0    0  501  0.00000000000E+00  0.00000000000E+00 -0.65542691731E+03  0.65542691733E+03  0.50400001928E-02 0.  1.
    10030    2    1    2    0    0  0.00000000000E+00  0.00000000000E+00  0.89747479464E+02  0.14006013141E+04  0.13977229450E+04 0.  0.
        1    1    3    3  502    0 -0.46177139169E+03  0.33807709812E+02  0.56943201284E+03  0.73391320788E+03  0.50400001928E-02 0. -1.
       -1    1    3    3    0  502  0.46177139169E+03 -0.33807709812E+02 -0.47968453338E+03  0.66668810625E+03  0.50400001928E-02 0.  1.
</event>
<event>
 5   0  0.4621450E-05  0.1400090E+04  0.7818609E-02  0.8953753E-01
        2   -1    0    0  501    0  0.00000000000E+00  0.00000000000E+00  0.14957976913E+04  0.14957976913E+04  0.25500000920E-02 0.  1.
       -2   -1    0    0    0  501  0.00000000000E+00  0.00000000000E+00 -0.32762664799E+03  0.32762664800E+03  0.25500000920E-02 0. -1.
    10030    2    1    2    0    0  0.00000000000E+00  0.00000000000E+00  0.11681710433E+04  0.18234243393E+04  0.14000902595E+04 0.  0.
        5    1    3    3  502    0  0.17126070387E+03  0.67521438557E+03  0.49388909275E+03  0.85392811237E+03  0.46999998093E+01 0. -1.
       -5    1    3    3    0  502 -0.17126070387E+03 -0.67521438557E+03  0.67428195051E+03  0.96949622688E+03  0.46999998093E+01 0.  1.
</event>
<event>
 5   0  0.4460282E-05  0.1400069E+04  0.7818609E-02  0.8953768E-01
       -2   -1    0    0    0  501  0.00000000000E+00  0.00000000000E+00  0.75846487307E+03  0.75846487307E+03  0.25500000920E-02 0. -1.
        2   -1    0    0  501    0  0.00000000000E+00  0.00000000000E+00 -0.64610564524E+03  0.64610564524E+03  0.25500000920E-02 0.  1.
    10030    2    1    2    0    0  0.00000000000E+00  0.00000000000E+00  0.11235922783E+03  0.14045705183E+04  0.14000691929E+04 0.  0.
        1    1    3    3  502    0  0.15196054260E+03 -0.65621780545E+03 -0.13504965692E+03  0.68698779069E+03  0.50400001928E-02 0. -1.
       -1    1    3    3    0  502 -0.15196054260E+03  0.65621780545E+03  0.24740888475E+03  0.71758272762E+03  0.50400001928E-02 0.  1.
</event>
<event>
 5   0  0.2316714E-05  0.1401202E+04  0.7818609E-02  0.8952949E-01
        1   -1    0    0  501    0  0.00000000000E+00  0.00000000000E+00  0.15654329005E+04  0.15654329005E+04  0.50400001928E-02 0.  1.
       -1   -1    0    0    0  501  0.00000000000E+00  0.00000000000E+00 -0.31355011303E+03  0.31355011307E+03  0.50400001928E-02 0. -1.
    10030    2    1    2    0    0  0.00000000000E+00  0.00000000000E+00  0.12518827875E+04  0.18789830136E+04  0.14012018598E+04 0.  0.
        5    1    3    3  502    0 -0.24052661395E+03  0.19893656427E+03  0.14670154342E+04  0.14998617212E+04  0.46999998093E+01 0.  1.
       -5    1    3    3    0  502  0.24052661395E+03 -0.19893656427E+03 -0.21513264674E+03  0.37912129235E+03  0.46999998093E+01 0. -1.
</event>
<event>
 5   0  0.2467303E-05  0.1400238E+04  0.7818609E-02  0.8953646E-01
        1   -1    0    0  501    0  0.00000000000E+00  0.00000000000E+00  0.12597600036E+04  0.12597600036E+04  0.50400001928E-02 0.  1.
       -1   -1    0    0    0  501  0.00000000000E+00  0.00000000000E+00 -0.38909523920E+03  0.38909523923E+03  0.50400001928E-02 0. -1.
    10030    2    1    2    0    0  0.00000000000E+00  0.00000000000E+00  0.87066476439E+03  0.16488552428E+04  0.14002380083E+04 0.  0.
        3    1    3    3  502    0 -0.65883039766E+03  0.52416017797E+02  0.70734898110E+03  0.96806380114E+03  0.10100000352E+00 0.  1.
       -3    1    3    3    0  502  0.65883039766E+03 -0.52416017797E+02  0.16331578329E+03  0.68079144169E+03  0.10100000352E+00 0. -1.
</event>
<event>
 5   0  0.4621450E-05  0.1400200E+04  0.7818609E-02  0.8953674E-01
        2   -1    0    0  501    0  0.00000000000E+00  0.00000000000E+00  0.11575444301E+04  0.11575444301E+04  0.25500000920E-02 0. -1.
       -2   -1    0    0    0  501  0.00000000000E+00  0.00000000000E+00 -0.42343071581E+03  0.42343071581E+03  0.25500000920E-02 0.  1.
    10030    2    1    2    0    0  0.00000000000E+00  0.00000000000E+00  0.73411371429E+03  0.15809751459E+04  0.14001997952E+04 0.  0.
        5    1    3    3  502    0  0.21580893982E+03  0.51193857895E+03  0.84803936100E+03  0.10138281190E+04  0.46999998093E+01 0. -1.
       -5    1    3    3    0  502 -0.21580893982E+03 -0.51193857895E+03 -0.11392564671E+03  0.56714702688E+03  0.46999998093E+01 0.  1.
</event>
<event>
 5   0  0.2467303E-05  0.1400112E+04  0.7818609E-02  0.8953737E-01
       -1   -1    0    0    0  501  0.00000000000E+00  0.00000000000E+00  0.41898632998E+03  0.41898633001E+03  0.50400001928E-02 0.  1.
        1   -1    0    0  501    0  0.00000000000E+00  0.00000000000E+00 -0.11696765230E+04  0.11696765230E+04  0.50400001928E-02 0. -1.
    10030    2    1    2    0    0  0.00000000000E+00  0.00000000000E+00 -0.75069019297E+03  0.15886628530E+04  0.14001121007E+04 0.  0.
        3    1    3    3  502    0 -0.16086175386E+03 -0.45097932969E+03 -0.95482589123E+03  0.10681532439E+04  0.10100000352E+00 0. -1.
       -3    1    3    3    0  502  0.16086175386E+03  0.45097932969E+03  0.20413569825E+03  0.52050960910E+03  0.10100000352E+00 0.  1.
</event>
<event>
 5   0  0.4621450E-05  0.1399743E+04  0.7818609E-02  0.8954005E-01
        2   -1    0    0  501    0  0.00000000000E+00  0.00000000000E+00  0.26037954495E+04  0.26037954495E+04  0.25500000920E-02 0.  1.
       -2   -1    0    0    0  501  0.00000000000E+00  0.00000000000E+00 -0.18811762062E+03  0.18811762064E+03  0.25500000920E-02 0. -1.
    10030    2    1    2    0    0  0.00000000000E+00  0.00000000000E+00  0.24156778288E+04  0.27919130701E+04  0.13997425543E+04 0.  0.
        5    1    3    3  502    0 -0.39530828157E+02  0.65383231972E+02  0.25954203708E+04  0.25965489875E+04  0.46999998093E+01 0.  1.
       -5    1    3    3    0  502  0.39530828157E+02 -0.65383231972E+02 -0.17974254193E+03  0.19536408262E+03  0.46999998093E+01 0. -1.
</event>
<event>
 5   0  0.2363419E-05  0.1400216E+04  0.7818609E-02  0.8953662E-01
       -1   -1    0    0    0  501  0.00000000000E+00  0.00000000000E+00  0.87655181988E+03  0.87655181989E+03  0.50400001928E-02 0. -1.
        1   -1    0    0  501    0  0.00000000000E+00  0.00000000000E+00 -0.55918126542E+03  0.55918126545E+03  0.50400001928E-02 0.  1.
    10030    2    1    2    0    0  0.00000000000E+00  0.00000000000E+00  0.31737055445E+03  0.14357330853E+04  0.14002162060E+04 0.  0.
        2    1    3    3  502    0  0.14916474080E+03  0.53365196984E+03 -0.28009057350E+03  0.62087460423E+03  0.25500000920E-02 0.  1.
       -2    1    3    3    0  502 -0.14916474080E+03 -0.53365196984E+03  0.59746112795E+03  0.81485848111E+03  0.25500000920E-02 0. -1.
</event>
<event>
 5   0  0.4460282E-05  0.1400988E+04  0.7818609E-02  0.8953104E-01
       -2   -1    0    0    0  501  0.00000000000E+00  0.00000000000E+00  0.53715101816E+03  0.53715101817E+03  0.25500000920E-02 0.  1.
        2   -1    0    0  501    0  0.00000000000E+00  0.00000000000E+00 -0.91350782518E+03  0.91350782519E+03  0.25500000920E-02 0. -1.
    10030    2    1    2    0    0  0.00000000000E+00  0.00000000000E+00 -0.37635680703E+03  0.14506588434E+04  0.14009877350E+04 0.  0.
        1    1    3    3  502    0  0.64152689177E+03 -0.15307139623E+02  0.10267295806E+03  0.64987137014E+03  0.50400001928E-02 0.  1.
       -1    1    3    3    0  502 -0.64152689177E+03  0.15307139623E+02 -0.47902976509E+03  0.80078747321E+03  0.50400001928E-02 0. -1.
</event>
<event>
 5   0  0.2363419E-05  0.1399759E+04  0.7818609E-02  0.8953993E-01
        1   -1    0    0  501    0  0.00000000000E+00  0.00000000000E+00  0.31480277577E+03  0.31480277581E+03  0.50400001928E-02 0.  1.
       -1   -1    0    0    0  501  0.00000000000E+00  0.00000000000E+00 -0.15559952129E+04  0.15559952129E+04  0.50400001928E-02 0. -1.
    10030    2    1    2    0    0  0.00000000000E+00  0.00000000000E+00 -0.12411924372E+04  0.18707979887E+04  0.13997594253E+04 0.  0.
        2    1    3    3  502    0 -0.43561058487E+03  0.13016721847E+03 -0.13317566889E+04  0.14072227844E+04  0.25500000920E-02 0. -1.
       -2    1    3    3    0  502  0.43561058487E+03 -0.13016721847E+03  0.90564251725E+02  0.46357520438E+03  0.25500000920E-02 0.  1.
</event>
<event>
 5   0  0.4527503E-05  0.1399875E+04  0.7818609E-02  0.8953909E-01
        2   -1    0    0  501    0  0.00000000000E+00  0.00000000000E+00  0.17808041380E+04  0.17808041380E+04  0.25500000920E-02 0. -1.
       -2   -1    0    0    0  501  0.00000000000E+00  0.00000000000E+00 -0.27510760507E+03  0.27510760508E+03  0.25500000920E-02 0.  1.
    10030    2    1    2    0    0  0.00000000000E+00  0.00000000000E+00  0.15056965329E+04  0.20559117430E+04  0.13998753680E+04 0.  0.
        4    1    3    3  502    0  0.43054565526E+03  0.42671402345E+02 -0.55197915642E+02  0.43616376813E+03  0.12699999809E+01 0.  1.
       -4    1    3    3    0  502 -0.43054565526E+03 -0.42671402345E+02  0.15608944485E+04  0.16197479749E+04  0.12699999809E+01 0. -1.
</event>
<event>
 5   0  0.2428507E-05  0.1400648E+04  0.7818609E-02  0.8953349E-01
        1   -1    0    0  501    0  0.00000000000E+00  0.00000000000E+00  0.12988239056E+04  0.12988239056E+04  0.50400001928E-02 0. -1.
       -1   -1    0    0    0  501  0.00000000000E+00  0.00000000000E+00 -0.37761388721E+03  0.37761388724E+03  0.50400001928E-02 0.  1.
    10030    2    1    2    0    0  0.00000000000E+00  0.00000000000E+00  0.92121001838E+03  0.16764377928E+04  0.14006483410E+04 0.  0.
        4    1    3    3  502    0  0.13812346702E+03 -0.35261911331E+03 -0.24448464845E+03  0.45076899565E+03  0.12699999809E+01 0.  1.
       -4    1    3    3    0  502 -0.13812346702E+03  0.35261911331E+03  0.11656946668E+04  0.12256687972E+04  0.12699999809E+01 0. -1.
</event>
<event>
 5   0  0.1661000E-05  0.1400444E+04  0.7818609E-02  0.8953497E-01
       -4   -1    0    0    0  501  0.00000000000E+00  0.00000000000E+00  0.10247055218E+04  0.10247063088E+04  0.12699999809E+01 0.  1.
        4   -1    0    0  501    0  0.00000000000E+00  0.00000000000E+00 -0.47848763969E+03  0.47848932510E+03  0.12699999809E+01 0. -1.
    10030    2    1    2    0    0  0.00000000000E+00  0.00000000000E+00  0.54621788213E+03  0.15031956339E+04  0.14004439079E+04 0.  0.
        5    1    3    3  502    0 -0.29832352574E+02  0.19572248333E+03  0.99402064710E+03  0.10135563115E+04  0.46999998093E+01 0.  1.
       -5    1    3    3    0  502  0.29832352574E+02 -0.19572248333E+03 -0.44780276498E+03  0.48963932242E+03  0.46999998093E+01 0. -1.
</event>
<event>
 5   0  0.2316714E-05  0.1398569E+04  0.7818609E-02  0.8954855E-01
        1   -1    0    0  501    0  0.00000000000E+00  0.00000000000E+00  0.67042625107E+03  0.67042625108E+03  0.50400001928E-02 0.  1.
       -1   -1    0    0    0  501  0.00000000000E+00  0.00000000000E+00 -0.72938453905E+03  0.72938453906E+03  0.50400001928E-02 0. -1.
    10030    2    1    2    0    0  0.00000000000E+00  0.00000000000E+00 -0.58958287981E+02  0.13998107901E+04  0.13985686142E+04 0.  0.
        5    1    3    3  502    0  0.64278812463E+03  0.27503244667E+03 -0.42021524606E+02  0.70043366453E+03  0.46999998093E+01 0. -1.
       -5    1    3    3    0  502 -0.64278812463E+03 -0.27503244667E+03 -0.16936763375E+02  0.69937712562E+03  0.46999998093E+01 0.  1.
</event>
<event>
 5   0  0.2363419E-05  0.1399269E+04  0.7818609E-02  0.8954348E-01
       -1   -1    0    0    0  501  0.00000000000E+00  0.00000000000E+00  0.49510297125E+03  0.49510297128E+03  0.50400001928E-02 0.  1.
        1   -1    0    0  501    0  0.00000000000E+00  0.00000000000E+00 -0.98865947361E+03  0.98865947363E+03  0.50400001928E-02 0. -1.
    10030    2    1    2    0    0  0.00000000000E+00  0.00000000000E+00 -0.49355650236E+03  0.14837624449E+04  0.13992687275E+04 0.  0.
        2    1    3    3  502    0  0.17088691295E+03  0.58430667384E+03  0.11881850304E+03  0.62026966940E+03  0.25500000920E-02 0.  1.
       -2    1    3    3    0  502 -0.17088691295E+03 -0.58430667384E+03 -0.61237500540E+03  0.86349277550E+03  0.25500000920E-02 0. -1.
</event>
<event>
 5   0  0.2467303E-05  0.1399993E+04  0.7818609E-02  0.8953823E-01
       -1   -1    0    0    0  501  0.00000000000E+00  0.00000000000E+00  0.43002184587E+03  0.43002184590E+03  0.50400001928E-02 0.  1.
        1   -1    0    0  501    0  0.00000000000E+00  0.00000000000E+00 -0.11394658809E+04  0.11394658809E+04  0.50400001928E-02 0. -1.
    10030    2    1    2    0    0  0.00000000000E+00  0.00000000000E+00 -0.70944403499E+03  0.15694877268E+04  0.13999931735E+04 0.  0.
        3    1    3    3  502    0 -0.25355606424E+02 -0.44702815910E+03 -0.95793389997E+03  0.10574093099E+04  0.10100000352E+00 0. -1.
       -3    1    3    3    0  502  0.25355606424E+02  0.44702815910E+03  0.24848986497E+03  0.51207841685E+03  0.10100000352E+00 0.  1.
</event>
<event>
 5   0  0.2316714E-05  0.1400053E+04  0.7818609E-02  0.8953780E-01
       -1   -1    0    0    0  501  0.00000000000E+00  0.00000000000E+00  0.22454829881E+03  0.22454829886E+03  0.50400001928E-02 0. -1.
        1   -1    0    0  501    0  0.00000000000E+00  0.00000000000E+00 -0.21823248229E+04  0.21823248229E+04  0.50400001928E-02 0.  1.
    10030    2    1    2    0    0  0.00000000000E+00  0.00000000000E+00 -0.19577765241E+04  0.24068731218E+04  0.14000533226E+04 0.  0.
        5    1    3    3  502    0  0.35483236905E+02  0.15180464990E+03 -0.21520749140E+04  0.21577192212E+04  0.46999998093E+01 0.  1.
       -5    1    3    3    0  502 -0.35483236905E+02 -0.15180464990E+03  0.19429838996E+03  0.24915390057E+03  0.46999998093E+01 0. -1.
</event>
<event>
 5   0  0.2316714E-05  0.1399938E+04  0.7818609E-02  0.8953864E-01
        1   -1    0    0  501    0  0.00000000000E+00  0.00000000000E+00  0.70105382911E+03  0.70105382913E+03  0.50400001928E-02 0. -1.
       -1   -1    0    0    0  501  0.00000000000E+00  0.00000000000E+00 -0.69888548791E+03  0.69888548793E+03  0.50400001928E-02 0.  1.
    10030    2    1    2    0    0  0.00000000000E+00  0.00000000000E+00  0.21683411975E+01  0.13999393171E+04  0.13999376378E+04 0.  0.
        5    1    3    3  502    0 -0.69028091882E+03  0.11506833573E+03 -0.13261182431E+02  0.69994743927E+03  0.46999998093E+01 0.  1.
       -5    1    3    3    0  502  0.69028091882E+03 -0.11506833573E+03  0.15429523629E+02  0.69999187779E+03  0.46999998093E+01 0. -1.
</event>
<event>
 5   0  0.2316714E-05  0.1399952E+04  0.7818609E-02  0.8953853E-01
        1   -1    0    0  501    0  0.00000000000E+00  0.00000000000E+00  0.80040120239E+03  0.80040120241E+03  0.50400001928E-02 0.  1.
       -1   -1    0    0    0  501  0.00000000000E+00  0.00000000000E+00 -0.61215107456E+03  0.61215107458E+03  0.50400001928E-02 0. -1.
    10030    2    1    2    0    0  0.00000000000E+00  0.00000000000E+00  0.18825012784E+03  0.14125522770E+04  0.13999520794E+04 0.  0.
        5    1    3    3  502    0 -0.40543790637E+03  0.13049545429E+03 -0.46633395780E+03  0.63158404801E+03  0.46999998093E+01 0. -1.
       -5    1    3    3    0  502  0.40543790637E+03 -0.13049545429E+03  0.65458408563E+03  0.78096822898E+03  0.46999998093E+01 0.  1.
</event>
<event>
 5   0  0.4527503E-05  0.1399953E+04  0.7818609E-02  0.8953852E-01
        2   -1    0    0  501    0  0.00000000000E+00  0.00000000000E+00  0.14540243078E+04  0.14540243078E+04  0.25500000920E-02 0. -1.
       -2   -1    0    0    0  501  0.00000000000E+00  0.00000000000E+00 -0.33697323066E+03  0.33697323067E+03  0.25500000920E-02 0.  1.
    10030    2    1    2    0    0  0.00000000000E+00  0.00000000000E+00  0.11170510771E+04  0.17909975385E+04  0.13999532399E+04 0.  0.
        4    1    3    3  502    0 -0.20605296203E+03  0.53310550278E+03  0.41534515504E+02  0.57304976148E+03  0.12699999809E+01 0.  1.
       -4    1    3    3    0  502  0.20605296203E+03 -0.53310550278E+03  0.10755165616E+04  0.12179477770E+04  0.12699999809E+01 0. -1.
</event>
<event>
 5   0  0.2428507E-05  0.1400182E+04  0.7818609E-02  0.8953687E-01
       -1   -1    0    0    0  501  0.00000000000E+00  0.00000000000E+00  0.25139177502E+03  0.25139177507E+03  0.50400001928E-02 0.  1.
        1   -1    0    0  501    0  0.00000000000E+00  0.00000000000E+00 -0.19496544594E+04  0.19496544594E+04  0.50400001928E-02 0. -1.
    10030    2    1    2    0    0  0.00000000000E+00  0.00000000000E+00 -0.16982626844E+04  0.22010462345E+04  0.14001815529E+04 0.  0.
        4    1    3    3  502    0  0.54933503946E+03  0.41128118191E+03 -0.63128819704E+03  0.93244173909E+03  0.12699999809E+01 0.  1.
       -4    1    3    3    0  502 -0.54933503946E+03 -0.41128118191E+03 -0.10669744873E+04  0.12686044954E+04  0.12699999809E+01 0. -1.
</event>
<event>
 5   0  0.4441253E-05  0.1400990E+04  0.7818609E-02  0.8953102E-01
        2   -1    0    0  501    0  0.00000000000E+00  0.00000000000E+00  0.12751368740E+04  0.12751368740E+04  0.25500000920E-02 0.  1.
       -2   -1    0    0    0  501  0.00000000000E+00  0.00000000000E+00 -0.38481601896E+03  0.38481601897E+03  0.25500000920E-02 0. -1.
    10030    2    1    2    0    0  0.00000000000E+00  0.00000000000E+00  0.89032085503E+03  0.16599528930E+04  0.14009897865E+04 0.  0.
        3    1    3    3  502    0 -0.52467385599E+03 -0.18474882946E+03  0.94962852236E+03  0.11005494654E+04  0.10100000352E+00 0.  1.
       -3    1    3    3    0  502  0.52467385599E+03  0.18474882946E+03 -0.59307667330E+02  0.55940342754E+03  0.10100000352E+00 0. -1.
</event>
<event>
 5   0  0.4460282E-05  0.1400567E+04  0.7818609E-02  0.8953408E-01
        2   -1    0    0  501    0  0.00000000000E+00  0.00000000000E+00  0.42866581713E+03  0.42866581714E+03  0.25500000920E-02 0.  1.
       -2   -1    0    0    0  501  0.00000000000E+00  0.00000000000E+00 -0.11440074657E+04  0.11440074657E+04  0.25500000920E-02 0. -1.
    10030    2    1    2    0    0  0.00000000000E+00  0.00000000000E+00 -0.71534164858E+03  0.15726732829E+04  0.14005668782E+04 0.  0.
        1    1    3    3  502    0 -0.33455189947E+03 -0.25295644139E+03 -0.98737213581E+03  0.10727607698E+04  0.50400001928E-02 0. -1.
       -1    1    3    3    0  502  0.33455189947E+03  0.25295644139E+03  0.27203048723E+03  0.49991251303E+03  0.50400001928E-02 0.  1.
</event>
<event>
 5   0  0.2428507E-05  0.1399572E+04  0.7818609E-02  0.8954129E-01
        1   -1    0    0  501    0  0.00000000000E+00  0.00000000000E+00  0.86150708699E+03  0.86150708700E+03  0.50400001928E-02 0.  1.
       -1   -1    0    0    0  501  0.00000000000E+00  0.00000000000E+00 -0.56842287813E+03  0.56842287815E+03  0.50400001928E-02 0. -1.
    10030    2    1    2    0    0  0.00000000000E+00  0.00000000000E+00  0.29308420885E+03  0.14299299652E+04  0.13995718459E+04 0.  0.
        4    1    3    3  502    0  0.10295030174E+03 -0.50945461891E+03  0.62527379441E+03  0.81308775924E+03  0.12699999809E+01 0.  1.
       -4    1    3    3    0  502 -0.10295030174E+03  0.50945461891E+03 -0.33218958555E+03  0.61684220592E+03  0.12699999809E+01 0. -1.
</event>
<event>
 5   0  0.4460282E-05  0.1399005E+04  0.7818609E-02  0.8954539E-01
        2   -1    0    0  501    0  0.00000000000E+00  0.00000000000E+00  0.20632136750E+04  0.20632136750E+04  0.25500000920E-02 0.  1.
       -2   -1    0    0    0  501  0.00000000000E+00  0.00000000000E+00 -0.23715608055E+03  0.23715608056E+03  0.25500000920E-02 0. -1.
    10030    2    1    2    0    0  0.00000000000E+00  0.00000000000E+00  0.18260575944E+04  0.23003697555E+04  0.13990048871E+04 0.  0.
        1    1    3    3  502    0  0.38378055653E+03  0.56954303413E+03  0.69466061382E+03  0.97684192771E+03  0.50400001928E-02 0. -1.
       -1    1    3    3    0  502 -0.38378055653E+03 -0.56954303413E+03  0.11313969806E+04  0.13235278278E+04  0.50400001928E-02 0.  1.
</event>
<event>
 5   0  0.4441253E-05  0.1400013E+04  0.7818609E-02  0.8953809E-01
        2   -1    0    0  501    0  0.00000000000E+00  0.00000000000E+00  0.98087215429E+03  0.98087215429E+03  0.25500000920E-02 0. -1.
       -2   -1    0    0    0  501  0.00000000000E+00  0.00000000000E+00 -0.49956473018E+03  0.49956473019E+03  0.25500000920E-02 0.  1.
    10030    2    1    2    0    0  0.00000000000E+00  0.00000000000E+00  0.48130742411E+03  0.14804368845E+04  0.14000130472E+04 0.  0.
        3    1    3    3  502    0 -0.20602212420E+03 -0.60756569607E+03  0.53679106915E+03  0.83649617621E+03  0.10100000352E+00 0. -1.
       -3    1    3    3    0  502  0.20602212420E+03  0.60756569607E+03 -0.55483645042E+02  0.64394070827E+03  0.10100000352E+00 0.  1.
</event>
<event>
 5   0  0.2363419E-05  0.1400407E+04  0.7818609E-02  0.8953524E-01
       -1   -1    0    0    0  501  0.00000000000E+00  0.00000000000E+00  0.35964236071E+03  0.35964236075E+03  0.50400001928E-02 0. -1.
        1   -1    0    0  501    0  0.00000000000E+00  0.00000000000E+00 -0.13632574578E+04  0.13632574578E+04  0.50400001928E-02 0.  1.
    10030    2    1    2    0    0  0.00000000000E+00  0.00000000000E+00 -0.10036150971E+04  0.17228998186E+04  0.14004072700E+04 0.  0.
        2    1    3    3  502    0 -0.38359922402E+03 -0.27862968976E+03  0.13212022750E+03  0.49217743061E+03  0.25500000920E-02 0. -1.
       -2    1    3    3    0  502  0.38359922402E+03  0.27862968976E+03 -0.11357353246E+04  0.12307223880E+04  0.25500000920E-02 0.  1.
</event>
<event>
 5   0  0.4441253E-05  0.1400099E+04  0.7818609E-02  0.8953747E-01
       -2   -1    0    0    0  501  0.00000000000E+00  0.00000000000E+00  0.40947716283E+03  0.40947716284E+03  0.25500000920E-02 0.  1.
        2   -1    0    0  501    0  0.00000000000E+00  0.00000000000E+00 -0.11968174105E+04  0.11968174105E+04  0.25500000920E-02 0. -1.
    10030    2    1    2    0    0  0.00000000000E+00  0.00000000000E+00 -0.78734024766E+03  0.16062945733E+04  0.14000991360E+04 0.  0.
        3    1    3    3  502    0 -0.67421185697E+03 -0.13260254755E+03 -0.54726891393E+03  0.87843516440E+03  0.10100000352E+00 0. -1.
       -3    1    3    3    0  502  0.67421185697E+03  0.13260254755E+03 -0.24007133373E+03  0.72785940893E+03  0.10100000352E+00 0.  1.
</event>
<event>
 5   0  0.2428507E-05  0.1400004E+04  0.7818609E-02  0.8953816E-01
        1   -1    0    0  501    0  0.00000000000E+00  0.00000000000E+00  0.19447042182E+04  0.19447042183E+04  0.50400001928E-02 0. -1.
       -1   -1    0    0    0  501  0.00000000000E+00  0.00000000000E+00 -0.25196776346E+03  0.25196776351E+03  0.50400001928E-02 0.  1.
    10030    2    1    2    0    0  0.00000000000E+00  0.00000000000E+00  0.16927364548E+04  0.21966719818E+04  0.14000039608E+04 0.  0.
        4    1    3    3  502    0 -0.55797591817E+03  0.23298165061E+03  0.29299584447E+03  0.67191201251E+03  0.12699999809E+01 0.  1.
       -4    1    3    3    0  502  0.55797591817E+03 -0.23298165061E+03  0.13997406103E+04  0.15247599693E+04  0.12699999809E+01 0. -1.
</event>
<event>
 5   0  0.2363419E-05  0.1399475E+04  0.7818609E-02  0.8954198E-01
       -1   -1    0    0    0  501  0.00000000000E+00  0.00000000000E+00  0.42360445712E+03  0.42360445715E+03  0.50400001928E-02 0.  1.
        1   -1    0    0  501    0  0.00000000000E+00  0.00000000000E+00 -0.11558728967E+04  0.11558728967E+04  0.50400001928E-02 0. -1.
    10030    2    1    2    0    0  0.00000000000E+00  0.00000000000E+00 -0.73226843961E+03  0.15794773539E+04  0.13994754888E+04 0.  0.
        2    1    3    3  502    0 -0.58765941450E+02  0.63158105959E+03 -0.69957408196E+03  0.94432619728E+03  0.25500000920E-02 0. -1.
       -2    1    3    3    0  502  0.58765941450E+02 -0.63158105959E+03 -0.32694357651E+02  0.63515115661E+03  0.25500000920E-02 0.  1.
</event>
<event>
 5   0  0.2427569E-05  0.1401943E+04  0.7818609E-02  0.8952413E-01
        1   -1    0    0  501    0  0.00000000000E+00  0.00000000000E+00  0.22660024666E+04  0.22660024667E+04  0.50400001928E-02 0.  1.
       -1   -1    0    0    0  501  0.00000000000E+00  0.00000000000E+00 -0.21684058731E+03  0.21684058737E+03  0.50400001928E-02 0. -1.
    10030    2    1    2    0    0  0.00000000000E+00  0.00000000000E+00  0.20491618793E+04  0.24828430540E+04  0.14019433737E+04 0.  0.
        1    1    3    3  502    0 -0.65233357775E+03  0.20853550839E+03  0.75990574544E+03  0.10229774665E+04  0.50400001928E-02 0. -1.
       -1    1    3    3    0  502  0.65233357775E+03 -0.20853550839E+03  0.12892561339E+04  0.14598655876E+04  0.50400001928E-02 0.  1.
</event>
<event>
 5   0  0.4460282E-05  0.1400535E+04  0.7818609E-02  0.8953432E-01
       -2   -1    0    0    0  501  0.00000000000E+00  0.00000000000E+00  0.40843361466E+03  0.40843361467E+03  0.25500000920E-02 0. -1.
        2   -1    0    0  501    0  0.00000000000E+00  0.00000000000E+00 -0.12006217180E+04  0.12006217180E+04  0.25500000920E-02 0.  1.
    10030    2    1    2    0    0  0.00000000000E+00  0.00000000000E+00 -0.79218810332E+03  0.16090553327E+04  0.14005345667E+04 0.  0.
        1    1    3    3  502    0 -0.27718555351E+03 -0.11702678400E+03  0.33038677945E+03  0.44685850480E+03  0.50400001928E-02 0. -1.
       -1    1    3    3    0  502  0.27718555351E+03  0.11702678400E+03 -0.11225748828E+04  0.11621968279E+04  0.50400001928E-02 0.  1.
</event>
<event>
 5   0  0.2427569E-05  0.1399665E+04  0.7818609E-02  0.8954061E-01
        1   -1    0    0  501    0  0.00000000000E+00  0.00000000000E+00  0.70331137727E+03  0.70331137728E+03  0.50400001928E-02 0.  1.
       -1   -1    0    0    0  501  0.00000000000E+00  0.00000000000E+00 -0.69637084381E+03  0.69637084382E+03  0.50400001928E-02 0. -1.
    10030    2    1    2    0    0  0.00000000000E+00  0.00000000000E+00  0.69405334600E+01  0.13996822211E+04  0.13996650132E+04 0.  0.
        1    1    3    3  502    0  0.35907312248E+03  0.29241135096E+03  0.52819343352E+03  0.70244302879E+03  0.50400001928E-02 0.  1.
       -1    1    3    3    0  502 -0.35907312248E+03 -0.29241135096E+03 -0.52125290006E+03  0.69723919232E+03  0.50400001928E-02 0. -1.
</event>
<event>
 5   0  0.2428507E-05  0.1399743E+04  0.7818609E-02  0.8954004E-01
        1   -1    0    0  501    0  0.00000000000E+00  0.00000000000E+00  0.10880008513E+04  0.10880008513E+04  0.50400001928E-02 0.  1.
       -1   -1    0    0    0  501  0.00000000000E+00  0.00000000000E+00 -0.45020216885E+03  0.45020216888E+03  0.50400001928E-02 0. -1.
    10030    2    1    2    0    0  0.00000000000E+00  0.00000000000E+00  0.63779868247E+03  0.15382030202E+04  0.13997433236E+04 0.  0.
        4    1    3    3  502    0 -0.49118451287E+01  0.66652712825E+03  0.84398931470E+02  0.67186853733E+03  0.12699999809E+01 0.  1.
       -4    1    3    3    0  502  0.49118451287E+01 -0.66652712825E+03  0.55339975100E+03  0.86633448288E+03  0.12699999809E+01 0. -1.
</event>
<event>
 5   0  0.4243281E-05  0.1396569E+04  0.7818609E-02  0.8956306E-01
        2   -1    0    0  501    0  0.00000000000E+00  0.00000000000E+00  0.13911806754E+04  0.13911806754E+04  0.25500000920E-02 0. -1.
       -2   -1    0    0    0  501  0.00000000000E+00  0.00000000000E+00 -0.35049429803E+03  0.35049429804E+03  0.25500000920E-02 0.  1.
    10030    2    1    2    0    0  0.00000000000E+00  0.00000000000E+00  0.10406863773E+04  0.17416749734E+04  0.13965685007E+04 0.  0.
        2    1    3    3  502    0  0.94199319842E+02  0.50144953269E+01 -0.34251136934E+03  0.35526426102E+03  0.25500000920E-02 0.  1.
       -2    1    3    3    0  502 -0.94199319842E+02 -0.50144953269E+01  0.13831977467E+04  0.13864107124E+04  0.25500000920E-02 0. -1.
</event>
<event>
 5   0  0.4243281E-05  0.1400266E+04  0.7818609E-02  0.8953626E-01
        2   -1    0    0  501    0  0.00000000000E+00  0.00000000000E+00  0.48050568857E+03  0.48050568858E+03  0.25500000920E-02 0. -1.
       -2   -1    0    0    0  501  0.00000000000E+00  0.00000000000E+00 -0.10201465004E+04  0.10201465004E+04  0.25500000920E-02 0.  1.
    10030    2    1    2    0    0  0.00000000000E+00  0.00000000000E+00 -0.53964081183E+03  0.15006521890E+04  0.14002659699E+04 0.  0.
        2    1    3    3  502    0 -0.58370493174E+03  0.19371824282E+03 -0.62839347220E+03  0.87927047081E+03  0.25500000920E-02 0.  1.
       -2    1    3    3    0  502  0.58370493174E+03 -0.19371824282E+03  0.88752660375E+02  0.62138171816E+03  0.25500000920E-02 0. -1.
</event>
<event>
 5   0  0.1661000E-05  0.1399889E+04  0.7818609E-02  0.8953899E-01
        4   -1    0    0  501    0  0.00000000000E+00  0.00000000000E+00  0.73380591926E+03  0.73380701826E+03  0.12699999809E+01 0. -1.
       -4   -1    0    0    0  501  0.00000000000E+00  0.00000000000E+00 -0.66764371392E+03  0.66764492183E+03  0.12699999809E+01 0.  1.
    10030    2    1    2    0    0  0.00000000000E+00  0.00000000000E+00  0.66162205337E+02  0.14014519401E+04  0.13998893181E+04 0.  0.
        4    1    3    3  502    0  0.65445033767E+03  0.24821402821E+03  0.30740854518E+02  0.70061548749E+03  0.12699999809E+01 0. -1.
       -4    1    3    3    0  502 -0.65445033767E+03 -0.24821402821E+03  0.35421350819E+02  0.70083645259E+03  0.12699999809E+01 0.  1.
</event>
<event>
 5   0  0.4460282E-05  0.1400428E+04  0.7818609E-02  0.8953509E-01
        2   -1    0    0  501    0  0.00000000000E+00  0.00000000000E+00  0.13473669863E+04  0.13473669863E+04  0.25500000920E-02 0. -1.
       -2   -1    0    0    0  501  0.00000000000E+00  0.00000000000E+00 -0.36389478058E+03  0.36389478059E+03  0.25500000920E-02 0.  1.
    10030    2    1    2    0    0  0.00000000000E+00  0.00000000000E+00  0.98347220569E+03  0.17112617669E+04  0.14004282400E+04 0.  0.
        1    1    3    3  502    0 -0.60808394241E+03 -0.23106126954E+03  0.80837229861E+03  0.10376035681E+04  0.50400001928E-02 0. -1.
       -1    1    3    3    0  502  0.60808394241E+03  0.23106126954E+03  0.17509990709E+03  0.67365819879E+03  0.50400001928E-02 0.  1.
</event>
<event>
 5   0  0.2467303E-05  0.1400424E+04  0.7818609E-02  0.8953511E-01
       -1   -1    0    0    0  501  0.00000000000E+00  0.00000000000E+00  0.99434627488E+03  0.99434627489E+03  0.50400001928E-02 0.  1.
        1   -1    0    0  501    0  0.00000000000E+00  0.00000000000E+00 -0.49308490322E+03  0.49308490325E+03  0.50400001928E-02 0. -1.
    10030    2    1    2    0    0  0.00000000000E+00  0.00000000000E+00  0.50126137165E+03  0.14874311781E+04  0.14004244167E+04 0.  0.
        3    1    3    3  502    0 -0.24056251926E+03  0.50312492763E+03 -0.19910545936E+03  0.59215539568E+03  0.10100000352E+00 0. -1.
       -3    1    3    3    0  502  0.24056251926E+03 -0.50312492763E+03  0.70036683102E+03  0.89527578247E+03  0.10100000352E+00 0.  1.
</event>
<event>
 5   0  0.4527503E-05  0.1401007E+04  0.7818609E-02  0.8953090E-01
        2   -1    0    0  501    0  0.00000000000E+00  0.00000000000E+00  0.76986596759E+03  0.76986596760E+03  0.25500000920E-02 0. -1.
       -2   -1    0    0    0  501  0.00000000000E+00  0.00000000000E+00 -0.63739079215E+03  0.63739079216E+03  0.25500000920E-02 0.  1.
    10030    2    1    2    0    0  0.00000000000E+00  0.00000000000E+00  0.13247517544E+03  0.14072567598E+04  0.14010074646E+04 0.  0.
        4    1    3    3  502    0  0.68643880271E+03  0.72365331194E+02 -0.53747718898E+02  0.69233330211E+03  0.12699999809E+01 0.  1.
       -4    1    3    3    0  502 -0.68643880271E+03 -0.72365331194E+02  0.18622289434E+03  0.71492345765E+03  0.12699999809E+01 0. -1.
</event>
<event>
 5   0  0.4621450E-05  0.1400105E+04  0.7818609E-02  0.8953742E-01
       -2   -1    0    0    0  501  0.00000000000E+00  0.00000000000E+00  0.25179508140E+03  0.25179508142E+03  0.25500000920E-02 0. -1.
        2   -1    0    0  501    0  0.00000000000E+00  0.00000000000E+00 -0.19463192736E+04  0.19463192736E+04  0.25500000920E-02 0.  1.
    10030    2    1    2    0    0  0.00000000000E+00  0.00000000000E+00 -0.16945241922E+04  0.21981143550E+04  0.14001051674E+04 0.  0.
        5    1    3    3  502    0  0.32236096725E+03 -0.47071747174E+02 -0.18200306720E+04  0.18489635150E+04  0.46999998093E+01 0.  1.
       -5    1    3    3    0  502 -0.32236096725E+03  0.47071747174E+02  0.12550647987E+03  0.34915084001E+03  0.46999998093E+01 0. -1.
</event>
<event>
 5   0  0.4441253E-05  0.1400631E+04  0.7818609E-02  0.8953362E-01
       -2   -1    0    0    0  501  0.00000000000E+00  0.00000000000E+00  0.50618988260E+03  0.50618988260E+03  0.25500000920E-02 0. -1.
        2   -1    0    0  501    0  0.00000000000E+00  0.00000000000E+00 -0.96888920287E+03  0.96888920287E+03  0.25500000920E-02 0.  1.
    10030    2    1    2    0    0  0.00000000000E+00  0.00000000000E+00 -0.46269932027E+03  0.14750790855E+04  0.14006311604E+04 0.  0.
        3    1    3    3  502    0 -0.48746429769E+03 -0.41701671653E+03  0.64504875084E+02  0.64473659156E+03  0.10100000352E+00 0. -1.
       -3    1    3    3    0  502  0.48746429769E+03  0.41701671653E+03 -0.52720419535E+03  0.83034249391E+03  0.10100000352E+00 0.  1.
</event>
<event>
 5   0  0.2427569E-05  0.1395244E+04  0.7818609E-02  0.8957268E-01
        1   -1    0    0  501    0  0.00000000000E+00  0.00000000000E+00  0.16140985462E+04  0.16140985462E+04  0.50400001928E-02 0.  1.
       -1   -1    0    0    0  501  0.00000000000E+00  0.00000000000E+00 -0.30151601523E+03  0.30151601528E+03  0.50400001928E-02 0. -1.
    10030    2    1    2    0    0  0.00000000000E+00  0.00000000000E+00  0.13125825309E+04  0.19156145614E+04  0.13952441534E+04 0.  0.
        1    1    3    3  502    0  0.24365935227E+03  0.40927606939E+03  0.13560966964E+04  0.14373152163E+04  0.50400001928E-02 0.  1.
       -1    1    3    3    0  502 -0.24365935227E+03 -0.40927606939E+03 -0.43514165514E+02  0.47829934513E+03  0.50400001928E-02 0. -1.
</event>
<event>
 5   0  0.2363419E-05  0.1399840E+04  0.7818609E-02  0.8953935E-01
       -1   -1    0    0    0  501  0.00000000000E+00  0.00000000000E+00  0.46462310317E+03  0.46462310320E+03  0.50400001928E-02 0.  1.
        1   -1    0    0  501    0  0.00000000000E+00  0.00000000000E+00 -0.10543765926E+04  0.10543765926E+04  0.50400001928E-02 0. -1.
    10030    2    1    2    0    0  0.00000000000E+00  0.00000000000E+00 -0.58975348939E+03  0.15189996958E+04  0.13998395971E+04 0.  0.
        2    1    3    3  502    0 -0.31814678954E+03  0.10350418725E+03  0.37223830815E+03  0.50049161284E+03  0.25500000920E-02 0.  1.
       -2    1    3    3    0  502  0.31814678954E+03 -0.10350418725E+03 -0.96199179754E+03  0.10185080829E+04  0.25500000920E-02 0. -1.
</event>
<event>
 5   0  0.2363419E-05  0.1400295E+04  0.7818609E-02  0.8953605E-01
       -1   -1    0    0    0  501  0.00000000000E+00  0.00000000000E+00  0.55751405134E+03  0.55751405136E+03  0.50400001928E-02 0.  1.
        1   -1    0    0  501    0  0.00000000000E+00  0.00000000000E+00 -0.87927191841E+03  0.87927191843E+03  0.50400001928E-02 0. -1.
    10030    2    1    2    0    0  0.00000000000E+00  0.00000000000E+00 -0.32175786707E+03  0.14367859698E+04  0.14002948968E+04 0.  0.
        2    1    3    3  502    0  0.20696325357E+03 -0.22147769714E+03 -0.80845201500E+03  0.86341231126E+03  0.25500000920E-02 0. -1.
       -2    1    3    3    0  502 -0.20696325357E+03  0.22147769714E+03  0.48669414793E+03  0.57337365853E+03  0.25500000920E-02 0.  1.
</event>
<event>
 5   0  0.4243281E-05  0.1397968E+04  0.7818609E-02  0.8955291E-01
        2   -1    0    0  501    0  0.00000000000E+00  0.00000000000E+00  0.88139724840E+03  0.88139724841E+03  0.25500000920E-02 0. -1.
       -2   -1    0    0    0  501  0.00000000000E+00  0.00000000000E+00 -0.55432254830E+03  0.55432254830E+03  0.25500000920E-02 0.  1.
    10030    2    1    2    0    0  0.00000000000E+00  0.00000000000E+00  0.32707470010E+03  0.14357197967E+04  0.13979676231E+04 0.  0.
        2    1    3    3  502    0  0.16054748060E+03  0.40084648593E+03 -0.40096517078E+03  0.58925925279E+03  0.25500000920E-02 0.  1.
       -2    1    3    3    0  502 -0.16054748060E+03 -0.40084648593E+03  0.72803987089E+03  0.84646054392E+03  0.25500000920E-02 0. -1.
</event>
<event>
 5   0  0.4527503E-05  0.1400166E+04  0.7818609E-02  0.8953698E-01
       -2   -1    0    0    0  501  0.00000000000E+00  0.00000000000E+00  0.45841061864E+03  0.45841061864E+03  0.25500000920E-02 0. -1.
        2   -1    0    0  501    0  0.00000000000E+00  0.00000000000E+00 -0.10691646980E+04  0.10691646980E+04  0.25500000920E-02 0.  1.
    10030    2    1    2    0    0  0.00000000000E+00  0.00000000000E+00 -0.61075407939E+03  0.15275753167E+04  0.14001663482E+04 0.  0.
        4    1    3    3  502    0  0.47040856982E+01 -0.65887976827E+03 -0.56348492465E+03  0.86698416979E+03  0.12699999809E+01 0.  1.
       -4    1    3    3    0  502 -0.47040856982E+01  0.65887976827E+03 -0.47269154740E+02  0.66059114689E+03  0.12699999809E+01 0. -1.
</event>
<event>
 5   0  0.4621450E-05  0.1397911E+04  0.7818609E-02  0.8955332E-01
       -2   -1    0    0    0  501  0.00000000000E+00  0.00000000000E+00  0.37474722454E+03  0.37474722455E+03  0.25500000920E-02 0.  1.
        2   -1    0    0  501    0  0.00000000000E+00  0.00000000000E+00 -0.13036482798E+04  0.13036482798E+04  0.25500000920E-02 0. -1.
    10030    2    1    2    0    0  0.00000000000E+00  0.00000000000E+00 -0.92890105528E+03  0.16783955044E+04  0.13979106905E+04 0.  0.
        5    1    3    3  502    0 -0.51793280158E+02  0.63836322940E+03 -0.80047334227E+03  0.10251681902E+04  0.46999998093E+01 0. -1.
       -5    1    3    3    0  502  0.51793280158E+02 -0.63836322940E+03 -0.12842771301E+03  0.65322731418E+03  0.46999998093E+01 0.  1.
</event>
<event>
 5   0  0.2427569E-05  0.1399570E+04  0.7818609E-02  0.8954130E-01
       -1   -1    0    0    0  501  0.00000000000E+00  0.00000000000E+00  0.40911090749E+03  0.40911090753E+03  0.50400001928E-02 0.  1.
        1   -1    0    0  501    0  0.00000000000E+00  0.00000000000E+00 -0.11969830421E+04  0.11969830421E+04  0.50400001928E-02 0. -1.
    10030    2    1    2    0    0  0.00000000000E+00  0.00000000000E+00 -0.78787213462E+03  0.16060939497E+04  0.13995696748E+04 0.  0.
        1    1    3    3  502    0 -0.39648565256E+02  0.59545812893E+03  0.25444997038E+02  0.59731887625E+03  0.50400001928E-02 0. -1.
       -1    1    3    3    0  502  0.39648565256E+02 -0.59545812893E+03 -0.81331713166E+03  0.10087750734E+04  0.50400001928E-02 0.  1.
</event>
<event>
 5   0  0.2428507E-05  0.1398583E+04  0.7818609E-02  0.8954845E-01
       -1   -1    0    0    0  501  0.00000000000E+00  0.00000000000E+00  0.72514733984E+03  0.72514733986E+03  0.50400001928E-02 0.  1.
        1   -1    0    0  501    0  0.00000000000E+00  0.00000000000E+00 -0.67435723868E+03  0.67435723869E+03  0.50400001928E-02 0. -1.
    10030    2    1    2    0    0  0.00000000000E+00  0.00000000000E+00  0.50790101162E+02  0.13995045785E+04  0.13985826508E+04 0.  0.
        4    1    3    3  502    0  0.14234279520E+03 -0.11829669894E+03 -0.64940187771E+03  0.67526290583E+03  0.12699999809E+01 0. -1.
       -4    1    3    3    0  502 -0.14234279520E+03  0.11829669894E+03  0.70019197887E+03  0.72424167272E+03  0.12699999809E+01 0.  1.
</event>
<event>
 5   0  0.4243281E-05  0.1399818E+04  0.7818609E-02  0.8953951E-01
        2   -1    0    0  501    0  0.00000000000E+00  0.00000000000E+00  0.15002758432E+04  0.15002758432E+04  0.25500000920E-02 0.  1.
       -2   -1    0    0    0  501  0.00000000000E+00  0.00000000000E+00 -0.32652152811E+03  0.32652152812E+03  0.25500000920E-02 0. -1.
    10030    2    1    2    0    0  0.00000000000E+00  0.00000000000E+00  0.11737543151E+04  0.18267973713E+04  0.13998176466E+04 0.  0.
        2    1    3    3  502    0  0.38075974366E+03 -0.31612336503E+03  0.12327794890E+04  0.13284040171E+04  0.25500000920E-02 0.  1.
       -2    1    3    3    0  502 -0.38075974366E+03  0.31612336503E+03 -0.59025173920E+02  0.49839335416E+03  0.25500000920E-02 0. -1.
</event>
<event>
 5   0  0.4460282E-05  0.1401169E+04  0.7818609E-02  0.8952973E-01
        2   -1    0    0  501    0  0.00000000000E+00  0.00000000000E+00  0.11793319887E+04  0.11793319887E+04  0.25500000920E-02 0.  1.
       -2   -1    0    0    0  501  0.00000000000E+00  0.00000000000E+00 -0.41618380871E+03  0.41618380872E+03  0.25500000920E-02 0. -1.
    10030    2    1    2    0    0  0.00000000000E+00  0.00000000000E+00  0.76314817999E+03  0.15955157974E+04  0.14011693385E+04 0.  0.
        1    1    3    3  502    0 -0.38286999398E+03 -0.64482977565E+02 -0.28246788562E+03  0.48014122206E+03  0.50400001928E-02 0. -1.
       -1    1    3    3    0  502  0.38286999398E+03  0.64482977565E+02  0.10456160656E+04  0.11153745754E+04  0.50400001928E-02 0.  1.
</event>
<event>
 5   0  0.4460282E-05  0.1399355E+04  0.7818609E-02  0.8954286E-01
       -2   -1    0    0    0  501  0.00000000000E+00  0.00000000000E+00  0.91943152150E+03  0.91943152151E+03  0.25500000920E-02 0.  1.
        2   -1    0    0  501    0  0.00000000000E+00  0.00000000000E+00 -0.53244669756E+03  0.53244669757E+03  0.25500000920E-02 0. -1.
    10030    2    1    2    0    0  0.00000000000E+00  0.00000000000E+00  0.38698482394E+03  0.14518782191E+04  0.13993545330E+04 0.  0.
        1    1    3    3  502    0  0.46120167732E+03  0.29034682288E+03 -0.26177118875E+03  0.60459277204E+03  0.50400001928E-02 0. -1.
       -1    1    3    3    0  502 -0.46120167732E+03 -0.29034682288E+03  0.64875601270E+03  0.84728544703E+03  0.50400001928E-02 0.  1.
</event>
<event>
 5   0  0.2363419E-05  0.1399651E+04  0.7818609E-02  0.8954071E-01
       -1   -1    0    0    0  501  0.00000000000E+00  0.00000000000E+00  0.13982489416E+04  0.13982489416E+04  0.50400001928E-02 0. -1.
        1   -1    0    0  501    0  0.00000000000E+00  0.00000000000E+00 -0.35026379262E+03  0.35026379266E+03  0.50400001928E-02 0.  1.
    10030    2    1    2    0    0  0.00000000000E+00  0.00000000000E+00  0.10479851489E+04  0.17485127342E+04  0.13996513528E+04 0.  0.
        2    1    3    3  502    0 -0.11779727638E+03 -0.59574690411E+03  0.89502836283E+02  0.61384145330E+03  0.25500000920E-02 0.  1.
       -2    1    3    3    0  502  0.11779727638E+03  0.59574690411E+03  0.95848231264E+03  0.11346712809E+04  0.25500000920E-02 0. -1.
</event>
<event>
 5   0  0.4621450E-05  0.1400114E+04  0.7818609E-02  0.8953736E-01
       -2   -1    0    0    0  501  0.00000000000E+00  0.00000000000E+00  0.64145620655E+03  0.64145620655E+03  0.25500000920E-02 0.  1.
        2   -1    0    0  501    0  0.00000000000E+00  0.00000000000E+00 -0.76401106214E+03  0.76401106214E+03  0.25500000920E-02 0. -1.
    10030    2    1    2    0    0  0.00000000000E+00  0.00000000000E+00 -0.12255485559E+03  0.14054672687E+04  0.14001137635E+04 0.  0.
        5    1    3    3  502    0 -0.54350846101E+03  0.29548278444E+03 -0.39016721961E+03  0.73141238186E+03  0.46999998093E+01 0. -1.
       -5    1    3    3    0  502  0.54350846101E+03 -0.29548278444E+03  0.26761236402E+03  0.67405488683E+03  0.46999998093E+01 0.  1.
</event>
<event>
 5   0  0.2428507E-05  0.1399931E+04  0.7818609E-02  0.8953868E-01
       -1   -1    0    0    0  501  0.00000000000E+00  0.00000000000E+00  0.21744460801E+03  0.21744460807E+03  0.50400001928E-02 0. -1.
        1   -1    0    0  501    0  0.00000000000E+00  0.00000000000E+00 -0.22532261338E+04  0.22532261338E+04  0.50400001928E-02 0.  1.
    10030    2    1    2    0    0  0.00000000000E+00  0.00000000000E+00 -0.20357815258E+04  0.24706707419E+04  0.13999312462E+04 0.  0.
        4    1    3    3  502    0  0.38163071852E+03 -0.57855551778E+03 -0.11906459094E+04  0.13776820340E+04  0.12699999809E+01 0. -1.
       -4    1    3    3    0  502 -0.38163071852E+03  0.57855551778E+03 -0.84513561645E+03  0.10929887079E+04  0.12699999809E+01 0.  1.
</event>
<event>
 5   0  0.2427569E-05  0.1399618E+04  0.7818609E-02  0.8954095E-01
        1   -1    0    0  501    0  0.00000000000E+00  0.00000000000E+00  0.91770603999E+03  0.91770604000E+03  0.50400001928E-02 0.  1.
       -1   -1    0    0    0  501  0.00000000000E+00  0.00000000000E+00 -0.53364855120E+03  0.53364855122E+03  0.50400001928E-02 0. -1.
    10030    2    1    2    0    0  0.00000000000E+00  0.00000000000E+00  0.38405748879E+03  0.14513545912E+04  0.13996178031E+04 0.  0.
        1    1    3    3  502    0 -0.18367686777E+03 -0.97251114961E+01 -0.50813435173E+03  0.54040011934E+03  0.50400001928E-02 0. -1.
       -1    1    3    3    0  502  0.18367686777E+03  0.97251114961E+01  0.89219184051E+03  0.91095447189E+03  0.50400001928E-02 0.  1.
</event>
<event>
 5   0  0.2427569E-05  0.1399622E+04  0.7818609E-02  0.8954092E-01
        1   -1    0    0  501    0  0.00000000000E+00  0.00000000000E+00  0.11625652048E+04  0.11625652048E+04  0.50400001928E-02 0. -1.
       -1   -1    0    0    0  501  0.00000000000E+00  0.00000000000E+00 -0.42125429291E+03  0.42125429294E+03  0.50400001928E-02 0.  1.
    10030    2    1    2    0    0  0.00000000000E+00  0.00000000000E+00  0.74131091191E+03  0.15838194978E+04  0.13996222109E+04 0.  0.
        1    1    3    3  502    0  0.72651998611E+01  0.29791756825E+03  0.10871749511E+04  0.11272785968E+04  0.50400001928E-02 0. -1.
       -1    1    3    3    0  502 -0.72651998611E+01 -0.29791756825E+03 -0.34586403917E+03  0.45654090093E+03  0.50400001928E-02 0.  1.
</event>
<event>
 5   0  0.2363419E-05  0.1399542E+04  0.7818609E-02  0.8954150E-01
        1   -1    0    0  501    0  0.00000000000E+00  0.00000000000E+00  0.16992031964E+04  0.16992031964E+04  0.50400001928E-02 0. -1.
       -1   -1    0    0    0  501  0.00000000000E+00  0.00000000000E+00 -0.28818167370E+03  0.28818167374E+03  0.50400001928E-02 0.  1.
    10030    2    1    2    0    0  0.00000000000E+00  0.00000000000E+00  0.14110215227E+04  0.19873848702E+04  0.13995416695E+04 0.  0.
        2    1    3    3  502    0 -0.69517310825E+03  0.49104243186E+02  0.79534737070E+03  0.10574754452E+04  0.25500000920E-02 0.  1.
       -2    1    3    3    0  502  0.69517310825E+03 -0.49104243186E+02  0.61567415201E+03  0.92990942494E+03  0.25500000920E-02 0. -1.
</event>
<event>
 5   0  0.2467303E-05  0.1399779E+04  0.7818609E-02  0.8953979E-01
       -1   -1    0    0    0  501  0.00000000000E+00  0.00000000000E+00  0.14258653904E+04  0.14258653904E+04  0.50400001928E-02 0. -1.
        1   -1    0    0  501    0  0.00000000000E+00  0.00000000000E+00 -0.34354243177E+03  0.34354243181E+03  0.50400001928E-02 0.  1.
    10030    2    1    2    0    0  0.00000000000E+00  0.00000000000E+00  0.10823229586E+04  0.17694078222E+04  0.13997789306E+04 0.  0.
        3    1    3    3  502    0  0.34846732715E+02 -0.69872768604E+03  0.56677486982E+03  0.90037127746E+03  0.10100000352E+00 0. -1.
       -3    1    3    3    0  502 -0.34846732715E+02  0.69872768604E+03  0.51554808877E+03  0.86903654472E+03  0.10100000352E+00 0.  1.
</event>
<event>
 5   0  0.4441253E-05  0.1399686E+04  0.7818609E-02  0.8954046E-01
        2   -1    0    0  501    0  0.00000000000E+00  0.00000000000E+00  0.13317891084E+04  0.13317891084E+04  0.25500000920E-02 0.  1.
       -2   -1    0    0    0  501  0.00000000000E+00  0.00000000000E+00 -0.36776109909E+03  0.36776109910E+03  0.25500000920E-02 0. -1.
    10030    2    1    2    0    0  0.00000000000E+00  0.00000000000E+00  0.96402800928E+03  0.16995502075E+04  0.13996860023E+04 0.  0.
        3    1    3    3  502    0  0.18008410398E+03  0.35479977490E+03  0.11810886674E+04  0.12463079938E+04  0.10100000352E+00 0.  1.
       -3    1    3    3    0  502 -0.18008410398E+03 -0.35479977490E+03 -0.21706065815E+03  0.45324221371E+03  0.10100000352E+00 0. -1.
</event>
<event>
 5   0  0.2467303E-05  0.1396442E+04  0.7818609E-02  0.8956398E-01
       -1   -1    0    0    0  501  0.00000000000E+00  0.00000000000E+00  0.28509129446E+03  0.28509129451E+03  0.50400001928E-02 0.  1.
        1   -1    0    0  501    0  0.00000000000E+00  0.00000000000E+00 -0.17100219532E+04  0.17100219533E+04  0.50400001928E-02 0. -1.
    10030    2    1    2    0    0  0.00000000000E+00  0.00000000000E+00 -0.14249306588E+04  0.19951132478E+04  0.13964417242E+04 0.  0.
        3    1    3    3  502    0 -0.16552045817E+03 -0.64920791313E+03 -0.43160644687E+03  0.79696428510E+03  0.10100000352E+00 0.  1.
       -3    1    3    3    0  502  0.16552045817E+03  0.64920791313E+03 -0.99332421192E+03  0.11981489627E+04  0.10100000352E+00 0. -1.
</event>
<event>
 5   0  0.4527503E-05  0.1395200E+04  0.7818609E-02  0.8957301E-01
        2   -1    0    0  501    0  0.00000000000E+00  0.00000000000E+00  0.84837902729E+03  0.84837902729E+03  0.25500000920E-02 0.  1.
       -2   -1    0    0    0  501  0.00000000000E+00  0.00000000000E+00 -0.57361808136E+03  0.57361808137E+03  0.25500000920E-02 0. -1.
    10030    2    1    2    0    0  0.00000000000E+00  0.00000000000E+00  0.27476094593E+03  0.14219971087E+04  0.13951996988E+04 0.  0.
        4    1    3    3  502    0 -0.79757967342E+02  0.37893958766E+03  0.72877291049E+03  0.82526850928E+03  0.12699999809E+01 0.  1.
       -4    1    3    3    0  502  0.79757967342E+02 -0.37893958766E+03 -0.45401196456E+03  0.59672859938E+03  0.12699999809E+01 0. -1.
</event>
<event>
 5   0  0.4441253E-05  0.1399718E+04  0.7818609E-02  0.8954023E-01
        2   -1    0    0  501    0  0.00000000000E+00  0.00000000000E+00  0.68194978233E+03  0.68194978234E+03  0.25500000920E-02 0. -1.
       -2   -1    0    0    0  501  0.00000000000E+00  0.00000000000E+00 -0.71823877772E+03  0.71823877772E+03  0.25500000920E-02 0.  1.
    10030    2    1    2    0    0  0.00000000000E+00  0.00000000000E+00 -0.36288995390E+02  0.14001885601E+04  0.13997182261E+04 0.  0.
        3    1    3    3  502    0 -0.52726977351E+03 -0.20598811949E+02  0.44175452669E+03  0.68817497569E+03  0.10100000352E+00 0. -1.
       -3    1    3    3    0  502  0.52726977351E+03  0.20598811949E+02 -0.47804352208E+03  0.71201358437E+03  0.10100000352E+00 0.  1.
</event>
<event>
 5   0  0.4243281E-05  0.1400468E+04  0.7818609E-02  0.8953480E-01
       -2   -1    0    0    0  501  0.00000000000E+00  0.00000000000E+00  0.72450819729E+03  0.72450819729E+03  0.25500000920E-02 0. -1.
        2   -1    0    0  501    0  0.00000000000E+00  0.00000000000E+00 -0.67677299139E+03  0.67677299139E+03  0.25500000920E-02 0.  1.
    10030    2    1    2    0    0  0.00000000000E+00  0.00000000000E+00  0.47735205899E+02  0.14012811887E+04  0.14004678932E+04 0.  0.
        2    1    3    3  502    0 -0.35720008986E+03 -0.17474613597E+03  0.60056979038E+03  0.72028618573E+03  0.25500000920E-02 0. -1.
       -2    1    3    3    0  502  0.35720008986E+03  0.17474613597E+03 -0.55283458448E+03  0.68099500295E+03  0.25500000920E-02 0.  1.
</event>
<event>
 5   0  0.2316714E-05  0.1400659E+04  0.7818609E-02  0.8953342E-01
        1   -1    0    0  501    0  0.00000000000E+00  0.00000000000E+00  0.96306630425E+03  0.96306630427E+03  0.50400001928E-02 0.  1.
       -1   -1    0    0    0  501  0.00000000000E+00  0.00000000000E+00 -0.50927044977E+03  0.50927044979E+03  0.50400001928E-02 0. -1.
    10030    2    1    2    0    0  0.00000000000E+00  0.00000000000E+00  0.45379585448E+03  0.14723367541E+04  0.14006587164E+04 0.  0.
        5    1    3    3  502    0  0.48951825441E+03 -0.24054097208E+03 -0.23484301664E+03  0.59385302316E+03  0.46999998093E+01 0. -1.
       -5    1    3    3    0  502 -0.48951825441E+03  0.24054097208E+03  0.68863887112E+03  0.87848373090E+03  0.46999998093E+01 0.  1.
</event>
<event>
 5   0  0.2427569E-05  0.1400735E+04  0.7818609E-02  0.8953286E-01
        1   -1    0    0  501    0  0.00000000000E+00  0.00000000000E+00  0.10838132942E+04  0.10838132943E+04  0.50400001928E-02 0. -1.
       -1   -1    0    0    0  501  0.00000000000E+00  0.00000000000E+00 -0.45258239801E+03  0.45258239804E+03  0.50400001928E-02 0.  1.
    10030    2    1    2    0    0  0.00000000000E+00  0.00000000000E+00  0.63123089623E+03  0.15363956923E+04  0.14007352637E+04 0.  0.
        1    1    3    3  502    0  0.18787468135E+03  0.72381974514E+02 -0.42015617215E+03  0.46590477047E+03  0.50400001928E-02 0.  1.
       -1    1    3    3    0  502 -0.18787468135E+03 -0.72381974514E+02  0.10513870684E+04  0.10704909218E+04  0.50400001928E-02 0. -1.
</event>
<event>
 5   0  0.4527503E-05  0.1401555E+04  0.7818609E-02  0.8952694E-01
       -2   -1    0    0    0  501  0.00000000000E+00  0.00000000000E+00  0.85777573887E+03  0.85777573888E+03  0.25500000920E-02 0.  1.
        2   -1    0    0  501    0  0.00000000000E+00  0.00000000000E+00 -0.57251453927E+03  0.57251453928E+03  0.25500000920E-02 0. -1.
    10030    2    1    2    0    0  0.00000000000E+00  0.00000000000E+00  0.28526119960E+03  0.14302902782E+04  0.14015549678E+04 0.  0.
        4    1    3    3  502    0  0.47322531241E+03 -0.39405425761E+03  0.48395246131E+03  0.78321935111E+03  0.12699999809E+01 0.  1.
       -4    1    3    3    0  502 -0.47322531241E+03  0.39405425761E+03 -0.19869126171E+03  0.64707092704E+03  0.12699999809E+01 0. -1.
</event>
<event>
 5   0  0.4527503E-05  0.1399803E+04  0.7818609E-02  0.8953962E-01
        2   -1    0    0  501    0  0.00000000000E+00  0.00000000000E+00  0.13145664657E+04  0.13145664657E+04  0.25500000920E-02 0.  1.
       -2   -1    0    0    0  501  0.00000000000E+00  0.00000000000E+00 -0.37264130875E+03  0.37264130876E+03  0.25500000920E-02 0. -1.
    10030    2    1    2    0    0  0.00000000000E+00  0.00000000000E+00  0.94192515697E+03  0.16872077745E+04  0.13998025121E+04 0.  0.
        4    1    3    3  502    0 -0.69265685212E+03  0.99121771650E+01  0.35050072822E+03  0.77635310228E+03  0.12699999809E+01 0. -1.
       -4    1    3    3    0  502  0.69265685212E+03 -0.99121771650E+01  0.59142442875E+03  0.91085467219E+03  0.12699999809E+01 0.  1.
</event>
<event>
 5   0  0.1661000E-05  0.1399721E+04  0.7818609E-02  0.8954021E-01
       -4   -1    0    0    0  501  0.00000000000E+00  0.00000000000E+00  0.58680995776E+03  0.58681133205E+03  0.12699999809E+01 0.  1.
        4   -1    0    0  501    0  0.00000000000E+00  0.00000000000E+00 -0.83468740453E+03  0.83468837070E+03  0.12699999809E+01 0. -1.
    10030    2    1    2    0    0  0.00000000000E+00  0.00000000000E+00 -0.24787744677E+03  0.14214997028E+04  0.13997207494E+04 0.  0.
        2    1    3    3  502    0 -0.37126282669E+03  0.57406951103E+03 -0.27597667747E+03  0.73726183714E+03  0.25500000920E-02 0.  1.
       -2    1    3    3    0  502  0.37126282669E+03 -0.57406951103E+03  0.28099230701E+02  0.68423786562E+03  0.25500000920E-02 0. -1.
</event>
<event>
 5   0  0.4441253E-05  0.1409700E+04  0.7818609E-02  0.8946827E-01
        2   -1    0    0  501    0  0.00000000000E+00  0.00000000000E+00  0.22017737584E+04  0.22017737584E+04  0.25500000920E-02 0. -1.
       -2   -1    0    0    0  501  0.00000000000E+00  0.00000000000E+00 -0.22564244610E+03  0.22564244612E+03  0.25500000920E-02 0.  1.
    10030    2    1    2    0    0  0.00000000000E+00  0.00000000000E+00  0.19761313123E+04  0.24274162045E+04  0.14097001335E+04 0.  0.
        3    1    3    3  502    0 -0.43505730374E+03  0.18549738983E+03  0.18879812652E+04  0.19463189376E+04  0.10100000352E+00 0. -1.
       -3    1    3    3    0  502  0.43505730374E+03 -0.18549738983E+03  0.88150047109E+02  0.48109726686E+03  0.10100000352E+00 0.  1.
</event>
<event>
 5   0  0.4527503E-05  0.1400006E+04  0.7818609E-02  0.8953814E-01
        2   -1    0    0  501    0  0.00000000000E+00  0.00000000000E+00  0.94034805043E+03  0.94034805044E+03  0.25500000920E-02 0. -1.
       -2   -1    0    0    0  501  0.00000000000E+00  0.00000000000E+00 -0.52108799561E+03  0.52108799562E+03  0.25500000920E-02 0.  1.
    10030    2    1    2    0    0  0.00000000000E+00  0.00000000000E+00  0.41926005482E+03  0.14614360461E+04  0.14000058297E+04 0.  0.
        4    1    3    3  502    0 -0.47368588415E+03 -0.12006192849E+03 -0.31357006737E+03  0.58062120489E+03  0.12699999809E+01 0.  1.
       -4    1    3    3    0  502  0.47368588415E+03  0.12006192849E+03  0.73283012219E+03  0.88081484116E+03  0.12699999809E+01 0. -1.
</event>
<event>
 5   0  0.2316714E-05  0.1399994E+04  0.7818609E-02  0.8953823E-01
        1   -1    0    0  501    0  0.00000000000E+00  0.00000000000E+00  0.10774430946E+04  0.10774430946E+04  0.50400001928E-02 0.  1.
       -1   -1    0    0    0  501  0.00000000000E+00  0.00000000000E+00 -0.45477624744E+03  0.45477624747E+03  0.50400001928E-02 0. -1.
    10030    2    1    2    0    0  0.00000000000E+00  0.00000000000E+00  0.62266684717E+03  0.15322193421E+04  0.13999936106E+04 0.  0.
        5    1    3    3  502    0  0.22162060240E+03 -0.40235582942E+03 -0.26672497757E+03  0.53119695833E+03  0.46999998093E+01 0. -1.
       -5    1    3    3    0  502 -0.22162060240E+03  0.40235582942E+03  0.88939182474E+03  0.10010223838E+04  0.46999998093E+01 0.  1.
</event>
<event>
 5   0  0.2363419E-05  0.1399461E+04  0.7818609E-02  0.8954209E-01
        1   -1    0    0  501    0  0.00000000000E+00  0.00000000000E+00  0.79010052029E+03  0.79010052030E+03  0.50400001928E-02 0. -1.
       -1   -1    0    0    0  501  0.00000000000E+00  0.00000000000E+00 -0.61969646031E+03  0.61969646033E+03  0.50400001928E-02 0.  1.
    10030    2    1    2    0    0  0.00000000000E+00  0.00000000000E+00  0.17040405998E+03  0.14097969806E+04  0.13994606043E+04 0.  0.
        2    1    3    3  502    0  0.28831736680E+03 -0.39420988315E+03 -0.41959199362E+03  0.64388335675E+03  0.25500000920E-02 0.  1.
       -2    1    3    3    0  502 -0.28831736680E+03  0.39420988315E+03  0.58999605360E+03  0.76591362388E+03  0.25500000920E-02 0. -1.
</event>
<event>
 5   0  0.4527503E-05  0.1399730E+04  0.7818609E-02  0.8954014E-01
        2   -1    0    0  501    0  0.00000000000E+00  0.00000000000E+00  0.10049999297E+04  0.10049999297E+04  0.25500000920E-02 0.  1.
       -2   -1    0    0    0  501  0.00000000000E+00  0.00000000000E+00 -0.48737436315E+03  0.48737436316E+03  0.25500000920E-02 0. -1.
    10030    2    1    2    0    0  0.00000000000E+00  0.00000000000E+00  0.51762556654E+03  0.14923742929E+04  0.13997302607E+04 0.  0.
        4    1    3    3  502    0  0.31915306903E+03 -0.68250754774E+02  0.91889602174E+03  0.97513504637E+03  0.12699999809E+01 0.  1.
       -4    1    3    3    0  502 -0.31915306903E+03  0.68250754774E+02 -0.40127045519E+03  0.51723924649E+03  0.12699999809E+01 0. -1.
</event>
<event>
 5   0  0.4441253E-05  0.1400016E+04  0.7818609E-02  0.8953807E-01
        2   -1    0    0  501    0  0.00000000000E+00  0.00000000000E+00  0.17833189066E+04  0.17833189066E+04  0.25500000920E-02 0. -1.
       -2   -1    0    0    0  501  0.00000000000E+00  0.00000000000E+00 -0.27477495253E+03  0.27477495254E+03  0.25500000920E-02 0.  1.
    10030    2    1    2    0    0  0.00000000000E+00  0.00000000000E+00  0.15085439540E+04  0.20580938591E+04  0.14000162398E+04 0.  0.
        3    1    3    3  502    0 -0.54157786244E+03  0.39415686129E+03  0.45535927883E+03  0.80994956349E+03  0.10100000352E+00 0.  1.
       -3    1    3    3    0  502  0.54157786244E+03 -0.39415686129E+03  0.10531846752E+04  0.12481442956E+04  0.10100000352E+00 0. -1.
</event>
<event>
 5   0  0.1661000E-05  0.1399716E+04  0.7818609E-02  0.8954024E-01
       -3   -1    0    0    0  501  0.00000000000E+00  0.00000000000E+00  0.50055772662E+03  0.50055773681E+03  0.10100000352E+00 0.  1.
        3   -1    0    0  501    0  0.00000000000E+00  0.00000000000E+00 -0.97851100896E+03  0.97851101417E+03  0.10100000352E+00 0. -1.
    10030    2    1    2    0    0  0.00000000000E+00  0.00000000000E+00 -0.47795328234E+03  0.14790687510E+04  0.13997160534E+04 0.  0.
        2    1    3    3  502    0 -0.52858393482E+03  0.32938100195E+03  0.98352210747E+02  0.63052833240E+03  0.25500000920E-02 0.  1.
       -2    1    3    3    0  502  0.52858393482E+03 -0.32938100195E+03 -0.57630549309E+03  0.84854041858E+03  0.25500000920E-02 0. -1.
</event>
<event>
 5   0  0.4243281E-05  0.1399638E+04  0.7818609E-02  0.8954080E-01
        2   -1    0    0  501    0  0.00000000000E+00  0.00000000000E+00  0.13054224937E+04  0.13054224937E+04  0.25500000920E-02 0.  1.
       -2   -1    0    0    0  501  0.00000000000E+00  0.00000000000E+00 -0.37516350710E+03  0.37516350711E+03  0.25500000920E-02 0. -1.
    10030    2    1    2    0    0  0.00000000000E+00  0.00000000000E+00  0.93025898659E+03  0.16805860008E+04  0.13996383547E+04 0.  0.
        2    1    3    3  502    0 -0.51129647734E+03  0.85173758222E+01  0.10387841655E+04  0.11578295107E+04  0.25500000920E-02 0.  1.
       -2    1    3    3    0  502  0.51129647734E+03 -0.85173758222E+01 -0.10852517892E+03  0.52275649006E+03  0.25500000920E-02 0. -1.
</event>
<event>
 5   0  0.4527503E-05  0.1400086E+04  0.7818609E-02  0.8953756E-01
       -2   -1    0    0    0  501  0.00000000000E+00  0.00000000000E+00  0.12886281949E+04  0.12886281949E+04  0.25500000920E-02 0.  1.
        2   -1    0    0  501    0  0.00000000000E+00  0.00000000000E+00 -0.38029613860E+03  0.38029613860E+03  0.25500000920E-02 0. -1.
    10030    2    1    2    0    0  0.00000000000E+00  0.00000000000E+00  0.90833205628E+03  0.16689243335E+04  0.14000861782E+04 0.  0.
        4    1    3    3  502    0  0.18046030023E+03 -0.22358367324E+02  0.12599833591E+04  0.12730379000E+04  0.12699999809E+01 0.  1.
       -4    1    3    3    0  502 -0.18046030023E+03  0.22358367324E+02 -0.35165130285E+03  0.39588643352E+03  0.12699999809E+01 0. -1.
</event>
<event>
 5   0  0.2427569E-05  0.1399940E+04  0.7818609E-02  0.8953862E-01
       -1   -1    0    0    0  501  0.00000000000E+00  0.00000000000E+00  0.43984265355E+03  0.43984265358E+03  0.50400001928E-02 0. -1.
        1   -1    0    0  501    0  0.00000000000E+00  0.00000000000E+00 -0.11139393908E+04  0.11139393908E+04  0.50400001928E-02 0.  1.
    10030    2    1    2    0    0  0.00000000000E+00  0.00000000000E+00 -0.67409673726E+03  0.15537820444E+04  0.13999400810E+04 0.  0.
        1    1    3    3  502    0 -0.32408583056E+03  0.20996670583E+03 -0.98502029898E+03  0.10580088055E+04  0.50400001928E-02 0.  1.
       -1    1    3    3    0  502  0.32408583056E+03 -0.20996670583E+03  0.31092356173E+03  0.49577323888E+03  0.50400001928E-02 0. -1.
</event>
<event>
 5   0  0.4243281E-05  0.1407318E+04  0.7818609E-02  0.8948538E-01
       -2   -1    0    0    0  501  0.00000000000E+00  0.00000000000E+00  0.32764004755E+03  0.32764004756E+03  0.25500000920E-02 0. -1.
        2   -1    0    0  501    0  0.00000000000E+00  0.00000000000E+00 -0.15112200862E+04  0.15112200862E+04  0.25500000920E-02 0.  1.
    10030    2    1    2    0    0  0.00000000000E+00  0.00000000000E+00 -0.11835800386E+04  0.18388601337E+04  0.14073183306E+04 0.  0.
        2    1    3    3  502    0  0.58940042910E+03 -0.34734539030E+03 -0.80686862049E+03  0.10578651411E+04  0.25500000920E-02 0. -1.
       -2    1    3    3    0  502 -0.58940042910E+03  0.34734539030E+03 -0.37671141813E+03  0.78099499265E+03  0.25500000920E-02 0.  1.
</event>
<event>
 5   0  0.2316714E-05  0.1399821E+04  0.7818609E-02  0.8953948E-01
        1   -1    0    0  501    0  0.00000000000E+00  0.00000000000E+00  0.23718918951E+04  0.23718918951E+04  0.50400001928E-02 0.  1.
       -1   -1    0    0    0  501  0.00000000000E+00  0.00000000000E+00 -0.20653335891E+03  0.20653335897E+03  0.50400001928E-02 0. -1.
    10030    2    1    2    0    0  0.00000000000E+00  0.00000000000E+00  0.21653585362E+04  0.25784252541E+04  0.13998211316E+04 0.  0.
        5    1    3    3  502    0  0.13817917391E+03  0.15327055719E+02 -0.18081429259E+03  0.22813220102E+03  0.46999998093E+01 0. -1.
       -5    1    3    3    0  502 -0.13817917391E+03 -0.15327055719E+02  0.23461728288E+04  0.23502930531E+04  0.46999998093E+01 0.  1.
</event>
<event>
 5   0  0.1661000E-05  0.1399339E+04  0.7818609E-02  0.8954297E-01
       -3   -1    0    0    0  501  0.00000000000E+00  0.00000000000E+00  0.82877384212E+03  0.82877384828E+03  0.10100000352E+00 0. -1.
        3   -1    0    0  501    0  0.00000000000E+00  0.00000000000E+00 -0.59067635564E+03  0.59067636427E+03  0.10100000352E+00 0.  1.
    10030    2    1    2    0    0  0.00000000000E+00  0.00000000000E+00  0.23809748648E+03  0.14194502126E+04  0.13993385912E+04 0.  0.
        5    1    3    3  502    0 -0.31364571573E+03  0.39261158284E+03  0.61286942516E+03  0.79255820750E+03  0.46999998093E+01 0. -1.
       -5    1    3    3    0  502  0.31364571573E+03 -0.39261158284E+03 -0.37477193868E+03  0.62689200505E+03  0.46999998093E+01 0.  1.
</event>
<event>
 5   0  0.2467303E-05  0.1399951E+04  0.7818609E-02  0.8953854E-01
       -1   -1    0    0    0  501  0.00000000000E+00  0.00000000000E+00  0.77011965156E+03  0.77011965158E+03  0.50400001928E-02 0.  1.
        1   -1    0    0  501    0  0.00000000000E+00  0.00000000000E+00 -0.63622015351E+03  0.63622015353E+03  0.50400001928E-02 0. -1.
    10030    2    1    2    0    0  0.00000000000E+00  0.00000000000E+00  0.13389949805E+03  0.14063398051E+04  0.13999509177E+04 0.  0.
        3    1    3    3  502    0  0.11215735166E+02  0.50577787049E+03  0.55292249461E+03  0.74944001911E+03  0.10100000352E+00 0.  1.
       -3    1    3    3    0  502 -0.11215735166E+02 -0.50577787049E+03 -0.41902299656E+03  0.65689978600E+03  0.10100000352E+00 0. -1.
</event>
<event>
 5   0  0.4621450E-05  0.1399443E+04  0.7818609E-02  0.8954222E-01
       -2   -1    0    0    0  501  0.00000000000E+00  0.00000000000E+00  0.31763171943E+03  0.31763171944E+03  0.25500000920E-02 0. -1.
        2   -1    0    0  501    0  0.00000000000E+00  0.00000000000E+00 -0.15414405426E+04  0.15414405426E+04  0.25500000920E-02 0.  1.
    10030    2    1    2    0    0  0.00000000000E+00  0.00000000000E+00 -0.12238088231E+04  0.18590722620E+04  0.13994433321E+04 0.  0.
        5    1    3    3  502    0  0.23694087977E+03 -0.13693127966E+02 -0.14863145214E+04  0.15051516298E+04  0.46999998093E+01 0.  1.
       -5    1    3    3    0  502 -0.23694087977E+03  0.13693127966E+02  0.26250569826E+03  0.35392063217E+03  0.46999998093E+01 0. -1.
</event>
<event>
 5   0  0.2316714E-05  0.1399745E+04  0.7818609E-02  0.8954003E-01
       -1   -1    0    0    0  501  0.00000000000E+00  0.00000000000E+00  0.36976084738E+03  0.36976084741E+03  0.50400001928E-02 0. -1.
        1   -1    0    0  501    0  0.00000000000E+00  0.00000000000E+00 -0.13246977978E+04  0.13246977978E+04  0.50400001928E-02 0.  1.
    10030    2    1    2    0    0  0.00000000000E+00  0.00000000000E+00 -0.95493695038E+03  0.16944586452E+04  0.13997448057E+04 0.  0.
        5    1    3    3  502    0  0.27430250920E+02  0.10814596287E+03  0.35890677803E+03  0.37587781693E+03  0.46999998093E+01 0. -1.
       -5    1    3    3    0  502 -0.27430250920E+02 -0.10814596287E+03 -0.13138437284E+04  0.13185808283E+04  0.46999998093E+01 0.  1.
</event>
<event>
 5   0  0.4441253E-05  0.1399909E+04  0.7818609E-02  0.8953885E-01
        2   -1    0    0  501    0  0.00000000000E+00  0.00000000000E+00  0.30360503046E+03  0.30360503047E+03  0.25500000920E-02 0.  1.
       -2   -1    0    0    0  501  0.00000000000E+00  0.00000000000E+00 -0.16137283792E+04  0.16137283792E+04  0.25500000920E-02 0. -1.
    10030    2    1    2    0    0  0.00000000000E+00  0.00000000000E+00 -0.13101233488E+04  0.19173334097E+04  0.13999086452E+04 0.  0.
        3    1    3    3  502    0  0.50076441161E+03 -0.25913916905E+03 -0.12231093851E+04  0.13468164994E+04  0.10100000352E+00 0. -1.
       -3    1    3    3    0  502 -0.50076441161E+03  0.25913916905E+03 -0.87013963637E+02  0.57051691030E+03  0.10100000352E+00 0.  1.
</event>
<event>
 5   0  0.2427569E-05  0.1399898E+04  0.7818609E-02  0.8953892E-01
        1   -1    0    0  501    0  0.00000000000E+00  0.00000000000E+00  0.10462959175E+04  0.10462959175E+04  0.50400001928E-02 0. -1.
       -1   -1    0    0    0  501  0.00000000000E+00  0.00000000000E+00 -0.46825047336E+03  0.46825047339E+03  0.50400001928E-02 0.  1.
    10030    2    1    2    0    0  0.00000000000E+00  0.00000000000E+00  0.57804544418E+03  0.15145463909E+04  0.13998979373E+04 0.  0.
        1    1    3    3  502    0  0.12993133073E+03  0.59406563026E+03 -0.85964394230E+02  0.61415470434E+03  0.50400001928E-02 0.  1.
       -1    1    3    3    0  502 -0.12993133073E+03 -0.59406563026E+03  0.66400983841E+03  0.90039168659E+03  0.50400001928E-02 0. -1.
</event>
<event>
 5   0  0.2316714E-05  0.1399563E+04  0.7818609E-02  0.8954135E-01
        1   -1    0    0  501    0  0.00000000000E+00  0.00000000000E+00  0.71563111298E+03  0.71563111300E+03  0.50400001928E-02 0. -1.
       -1   -1    0    0    0  501  0.00000000000E+00  0.00000000000E+00 -0.68428272708E+03  0.68428272710E+03  0.50400001928E-02 0.  1.
    10030    2    1    2    0    0  0.00000000000E+00  0.00000000000E+00  0.31348385903E+02  0.13999138401E+04  0.13995628026E+04 0.  0.
        5    1    3    3  502    0  0.60493184920E+03 -0.27720524271E+03  0.23226171324E+03  0.70480698223E+03  0.46999998093E+01 0. -1.
       -5    1    3    3    0  502 -0.60493184920E+03  0.27720524271E+03 -0.20091332734E+03  0.69510685787E+03  0.46999998093E+01 0.  1.
</event>
<event>
 5   0  0.4441253E-05  0.1399586E+04  0.7818609E-02  0.8954118E-01
       -2   -1    0    0    0  501  0.00000000000E+00  0.00000000000E+00  0.59192998111E+03  0.59192998112E+03  0.25500000920E-02 0.  1.
        2   -1    0    0  501    0  0.00000000000E+00  0.00000000000E+00 -0.82731077677E+03  0.82731077677E+03  0.25500000920E-02 0. -1.
    10030    2    1    2    0    0  0.00000000000E+00  0.00000000000E+00 -0.23538079566E+03  0.14192407579E+04  0.13995857280E+04 0.  0.
        3    1    3    3  502    0 -0.55949916279E+03 -0.24046611467E+03  0.23189257685E+03  0.65164211256E+03  0.10100000352E+00 0.  1.
       -3    1    3    3    0  502  0.55949916279E+03  0.24046611467E+03 -0.46727337251E+03  0.76759864533E+03  0.10100000352E+00 0. -1.
</event>
<event>
 5   0  0.4621450E-05  0.1399692E+04  0.7818609E-02  0.8954042E-01
       -2   -1    0    0    0  501  0.00000000000E+00  0.00000000000E+00  0.31691783741E+03  0.31691783742E+03  0.25500000920E-02 0.  1.
        2   -1    0    0  501    0  0.00000000000E+00  0.00000000000E+00 -0.15454613060E+04  0.15454613060E+04  0.25500000920E-02 0. -1.
    10030    2    1    2    0    0  0.00000000000E+00  0.00000000000E+00 -0.12285434686E+04  0.18623791434E+04  0.13996917588E+04 0.  0.
        5    1    3    3  502    0 -0.42781490530E+03 -0.88159107417E+02  0.11324926999E+03  0.45127054919E+03  0.46999998093E+01 0.  1.
       -5    1    3    3    0  502  0.42781490530E+03  0.88159107417E+02 -0.13417927385E+04  0.14111085942E+04  0.46999998093E+01 0. -1.
</event>
<event>
 5   0  0.4621450E-05  0.1400121E+04  0.7818609E-02  0.8953731E-01
       -2   -1    0    0    0  501  0.00000000000E+00  0.00000000000E+00  0.47390904384E+03  0.47390904385E+03  0.25500000920E-02 0. -1.
        2   -1    0    0  501    0  0.00000000000E+00  0.00000000000E+00 -0.10341325048E+04  0.10341325048E+04  0.25500000920E-02 0.  1.
    10030    2    1    2    0    0  0.00000000000E+00  0.00000000000E+00 -0.56022346092E+03  0.15080415486E+04  0.14001210613E+04 0.  0.
        5    1    3    3  502    0 -0.34266609380E+03 -0.22172737065E+03 -0.89270349273E+03  0.98159293736E+03  0.46999998093E+01 0.  1.
       -5    1    3    3    0  502  0.34266609380E+03  0.22172737065E+03  0.33248003182E+03  0.52644861125E+03  0.46999998093E+01 0. -1.
</event>
<event>
 5   0  0.2428507E-05  0.1400307E+04  0.7818609E-02  0.8953596E-01
        1   -1    0    0  501    0  0.00000000000E+00  0.00000000000E+00  0.15383647044E+04  0.15383647044E+04  0.50400001928E-02 0. -1.
       -1   -1    0    0    0  501  0.00000000000E+00  0.00000000000E+00 -0.31865981103E+03  0.31865981107E+03  0.50400001928E-02 0.  1.
    10030    2    1    2    0    0  0.00000000000E+00  0.00000000000E+00  0.12197048933E+04  0.18570245154E+04  0.14003071178E+04 0.  0.
        4    1    3    3  502    0 -0.24215011176E+03  0.19651758573E+03 -0.22146551144E+03  0.38249761278E+03  0.12699999809E+01 0.  1.
       -4    1    3    3    0  502  0.24215011176E+03 -0.19651758573E+03  0.14411704048E+04  0.14745269026E+04  0.12699999809E+01 0. -1.
</event>
<event>
 5   0  0.2316714E-05  0.1396260E+04  0.7818609E-02  0.8956530E-01
       -1   -1    0    0    0  501  0.00000000000E+00  0.00000000000E+00  0.27387749291E+03  0.27387749296E+03  0.50400001928E-02 0. -1.
        1   -1    0    0  501    0  0.00000000000E+00  0.00000000000E+00 -0.17795742021E+04  0.17795742021E+04  0.50400001928E-02 0.  1.
    10030    2    1    2    0    0  0.00000000000E+00  0.00000000000E+00 -0.15056967091E+04  0.20534516950E+04  0.13962597480E+04 0.  0.
        5    1    3    3  502    0 -0.30880570044E+03 -0.62536752892E+03 -0.70829562231E+03  0.99405748598E+03  0.46999998093E+01 0. -1.
       -5    1    3    3    0  502  0.30880570044E+03  0.62536752892E+03 -0.79740108683E+03  0.10593942090E+04  0.46999998093E+01 0.  1.
</event>
<event>
 5   0  0.2428507E-05  0.1400726E+04  0.7818609E-02  0.8953293E-01
       -1   -1    0    0    0  501  0.00000000000E+00  0.00000000000E+00  0.30090275274E+03  0.30090275278E+03  0.50400001928E-02 0.  1.
        1   -1    0    0  501    0  0.00000000000E+00  0.00000000000E+00 -0.16301215905E+04  0.16301215905E+04  0.50400001928E-02 0. -1.
    10030    2    1    2    0    0  0.00000000000E+00  0.00000000000E+00 -0.13292188378E+04  0.19310243433E+04  0.14007256319E+04 0.  0.
        4    1    3    3  502    0  0.63123389518E+03 -0.69805819117E+02 -0.25756990141E+03  0.68532689267E+03  0.12699999809E+01 0.  1.
       -4    1    3    3    0  502 -0.63123389518E+03  0.69805819117E+02 -0.10716489364E+04  0.12456974507E+04  0.12699999809E+01 0. -1.
</event>
<event>
 5   0  0.2467303E-05  0.1400212E+04  0.7818609E-02  0.8953665E-01
        1   -1    0    0  501    0  0.00000000000E+00  0.00000000000E+00  0.71794280435E+03  0.71794280437E+03  0.50400001928E-02 0. -1.
       -1   -1    0    0    0  501  0.00000000000E+00  0.00000000000E+00 -0.68271230410E+03  0.68271230412E+03  0.50400001928E-02 0.  1.
    10030    2    1    2    0    0  0.00000000000E+00  0.00000000000E+00  0.35230500251E+02  0.14006551085E+04  0.14002119642E+04 0.  0.
        3    1    3    3  502    0 -0.57617238889E+03 -0.35038161814E+03 -0.17061038745E+03  0.69559313866E+03  0.10100000352E+00 0.  1.
       -3    1    3    3    0  502  0.57617238889E+03  0.35038161814E+03  0.20584088770E+03  0.70506196983E+03  0.10100000352E+00 0. -1.
</event>
<event>
 5   0  0.2428507E-05  0.1399807E+04  0.7818609E-02  0.8953959E-01
       -1   -1    0    0    0  501  0.00000000000E+00  0.00000000000E+00  0.36026892948E+03  0.36026892952E+03  0.50400001928E-02 0.  1.
        1   -1    0    0  501    0  0.00000000000E+00  0.00000000000E+00 -0.13597193182E+04  0.13597193182E+04  0.50400001928E-02 0. -1.
    10030    2    1    2    0    0  0.00000000000E+00  0.00000000000E+00 -0.99945038873E+03  0.17199882477E+04  0.13998065912E+04 0.  0.
        4    1    3    3  502    0  0.26525604107E+02  0.83296563315E+02 -0.13529835373E+04  0.13558052921E+04  0.12699999809E+01 0. -1.
       -4    1    3    3    0  502 -0.26525604107E+02 -0.83296563315E+02  0.35353314855E+03  0.36418295561E+03  0.12699999809E+01 0.  1.
</event>
<event>
 5   0  0.4441253E-05  0.1400452E+04  0.7818609E-02  0.8953491E-01
       -2   -1    0    0    0  501  0.00000000000E+00  0.00000000000E+00  0.13802291069E+04  0.13802291069E+04  0.25500000920E-02 0.  1.
        2   -1    0    0  501    0  0.00000000000E+00  0.00000000000E+00 -0.35524275607E+03  0.35524275607E+03  0.25500000920E-02 0. -1.
    10030    2    1    2    0    0  0.00000000000E+00  0.00000000000E+00  0.10249863508E+04  0.17354718630E+04  0.14004519155E+04 0.  0.
        3    1    3    3  502    0 -0.36169275389E+03 -0.51167989880E+03  0.12519212382E+03  0.63899221053E+03  0.10100000352E+00 0.  1.
       -3    1    3    3    0  502  0.36169275389E+03  0.51167989880E+03  0.89979422700E+03  0.10964796524E+04  0.10100000352E+00 0. -1.
</event>
<event>
 5   0  0.4621450E-05  0.1400292E+04  0.7818609E-02  0.8953607E-01
       -2   -1    0    0    0  501  0.00000000000E+00  0.00000000000E+00  0.45628806335E+03  0.45628806336E+03  0.25500000920E-02 0.  1.
        2   -1    0    0  501    0  0.00000000000E+00  0.00000000000E+00 -0.10743314317E+04  0.10743314317E+04  0.25500000920E-02 0. -1.
    10030    2    1    2    0    0  0.00000000000E+00  0.00000000000E+00 -0.61804336833E+03  0.15306194950E+04  0.14002922672E+04 0.  0.
        5    1    3    3  502    0  0.73975331472E+02  0.31943616812E+03 -0.98519987205E+03  0.10383413182E+04  0.46999998093E+01 0. -1.
       -5    1    3    3    0  502 -0.73975331472E+02 -0.31943616812E+03  0.36715650373E+03  0.49227817685E+03  0.46999998093E+01 0.  1.
</event>
<event>
 5   0  0.4621450E-05  0.1399633E+04  0.7818609E-02  0.8954084E-01
        2   -1    0    0  501    0  0.00000000000E+00  0.00000000000E+00  0.76118097054E+03  0.76118097054E+03  0.25500000920E-02 0. -1.
       -2   -1    0    0    0  501  0.00000000000E+00  0.00000000000E+00 -0.64339943102E+03  0.64339943102E+03  0.25500000920E-02 0.  1.
    10030    2    1    2    0    0  0.00000000000E+00  0.00000000000E+00  0.11778153952E+03  0.14045804016E+04  0.13996333854E+04 0.  0.
        5    1    3    3  502    0  0.61480896565E+02 -0.20071103910E+03  0.72882540266E+03  0.75846778403E+03  0.46999998093E+01 0. -1.
       -5    1    3    3    0  502 -0.61480896565E+02  0.20071103910E+03 -0.61104386314E+03  0.64611261753E+03  0.46999998093E+01 0.  1.
</event>
<event>
 5   0  0.2427569E-05  0.1398409E+04  0.7818609E-02  0.8954971E-01
       -1   -1    0    0    0  501  0.00000000000E+00  0.00000000000E+00  0.14673745604E+04  0.14673745604E+04  0.50400001928E-02 0. -1.
        1   -1    0    0  501    0  0.00000000000E+00  0.00000000000E+00 -0.33317105334E+03  0.33317105338E+03  0.50400001928E-02 0.  1.
    10030    2    1    2    0    0  0.00000000000E+00  0.00000000000E+00  0.11342035070E+04  0.18005456137E+04  0.13984087070E+04 0.  0.
        1    1    3    3  502    0  0.58053019365E+03  0.30586522204E+03  0.87803767870E+03  0.10961382235E+04  0.50400001928E-02 0. -1.
       -1    1    3    3    0  502 -0.58053019365E+03 -0.30586522204E+03  0.25616582832E+03  0.70440739024E+03  0.50400001928E-02 0.  1.
</event>
<event>
 5   0  0.4460282E-05  0.1400133E+04  0.7818609E-02  0.8953722E-01
        2   -1    0    0  501    0  0.00000000000E+00  0.00000000000E+00  0.17568997078E+04  0.17568997078E+04  0.25500000920E-02 0.  1.
       -2   -1    0    0    0  501  0.00000000000E+00  0.00000000000E+00 -0.27895353057E+03  0.27895353059E+03  0.25500000920E-02 0. -1.
    10030    2    1    2    0    0  0.00000000000E+00  0.00000000000E+00  0.14779461772E+04  0.20358532383E+04  0.14001333884E+04 0.  0.
        1    1    3    3  502    0  0.11200580708E+03  0.51656708552E+03  0.71527228117E+02  0.53338822545E+03  0.50400001928E-02 0. -1.
       -1    1    3    3    0  502 -0.11200580708E+03 -0.51656708552E+03  0.14064189491E+04  0.15024650129E+04  0.50400001928E-02 0.  1.
</event>
<event>
 5   0  0.4460282E-05  0.1400142E+04  0.7818609E-02  0.8953716E-01
       -2   -1    0    0    0  501  0.00000000000E+00  0.00000000000E+00  0.65312218940E+03  0.65312218941E+03  0.25500000920E-02 0.  1.
        2   -1    0    0  501    0  0.00000000000E+00  0.00000000000E+00 -0.75039452154E+03  0.75039452155E+03  0.25500000920E-02 0. -1.
    10030    2    1    2    0    0  0.00000000000E+00  0.00000000000E+00 -0.97272332139E+02  0.14035167110E+04  0.14001418683E+04 0.  0.
        1    1    3    3  502    0 -0.29448935182E+03 -0.54879718159E+03  0.27181701971E+03  0.67954898064E+03  0.50400001928E-02 0.  1.
       -1    1    3    3    0  502  0.29448935182E+03  0.54879718159E+03 -0.36908935185E+03  0.72396773031E+03  0.50400001928E-02 0. -1.
</event>
<event>
 5   0  0.2467303E-05  0.1401624E+04  0.7818609E-02  0.8952644E-01
       -1   -1    0    0    0  501  0.00000000000E+00  0.00000000000E+00  0.70274179253E+03  0.70274179255E+03  0.50400001928E-02 0. -1.
        1   -1    0    0  501    0  0.00000000000E+00  0.00000000000E+00 -0.69888794461E+03  0.69888794463E+03  0.50400001928E-02 0.  1.
    10030    2    1    2    0    0  0.00000000000E+00  0.00000000000E+00  0.38538479212E+01  0.14016297372E+04  0.14016244390E+04 0.  0.
        3    1    3    3  502    0  0.46956078309E+03 -0.49266222206E+02  0.51983164002E+03  0.70223887235E+03  0.10100000352E+00 0. -1.
       -3    1    3    3    0  502 -0.46956078309E+03  0.49266222206E+02 -0.51597779210E+03  0.69939086483E+03  0.10100000352E+00 0.  1.
</event>
<event>
 5   0  0.4527503E-05  0.1399143E+04  0.7818609E-02  0.8954439E-01
       -2   -1    0    0    0  501  0.00000000000E+00  0.00000000000E+00  0.37326449943E+03  0.37326449944E+03  0.25500000920E-02 0. -1.
        2   -1    0    0  501    0  0.00000000000E+00  0.00000000000E+00 -0.13111358634E+04  0.13111358634E+04  0.25500000920E-02 0.  1.
    10030    2    1    2    0    0  0.00000000000E+00  0.00000000000E+00 -0.93787136400E+03  0.16844003629E+04  0.13991432690E+04 0.  0.
        4    1    3    3  502    0  0.11739938624E+02  0.56443636138E+03  0.28417699429E+02  0.56527463303E+03  0.12699999809E+01 0. -1.
       -4    1    3    3    0  502 -0.11739938624E+02 -0.56443636138E+03 -0.96628906343E+03  0.11191257299E+04  0.12699999809E+01 0.  1.
</event>
<event>
 5   0  0.2363419E-05  0.1399742E+04  0.7818609E-02  0.8954005E-01
       -1   -1    0    0    0  501  0.00000000000E+00  0.00000000000E+00  0.62792066310E+03  0.62792066312E+03  0.50400001928E-02 0.  1.
        1   -1    0    0  501    0  0.00000000000E+00  0.00000000000E+00 -0.78006594384E+03  0.78006594385E+03  0.50400001928E-02 0. -1.
    10030    2    1    2    0    0  0.00000000000E+00  0.00000000000E+00 -0.15214528073E+03  0.14079866070E+04  0.13997421545E+04 0.  0.
        2    1    3    3  502    0 -0.68434430389E+03 -0.87711771131E+02  0.42088582349E+02  0.69122494879E+03  0.25500000920E-02 0.  1.
       -2    1    3    3    0  502  0.68434430389E+03  0.87711771131E+02 -0.19423386308E+03  0.71676165818E+03  0.25500000920E-02 0. -1.
</event>
<event>
 5   0  0.4243281E-05  0.1400043E+04  0.7818609E-02  0.8953788E-01
        2   -1    0    0  501    0  0.00000000000E+00  0.00000000000E+00  0.59500087400E+03  0.59500087400E+03  0.25500000920E-02 0.  1.
       -2   -1    0    0    0  501  0.00000000000E+00  0.00000000000E+00 -0.82357855512E+03  0.82357855513E+03  0.25500000920E-02 0. -1.
    10030    2    1    2    0    0  0.00000000000E+00  0.00000000000E+00 -0.22857768113E+03  0.14185794291E+04  0.14000427995E+04 0.  0.
        2    1    3    3  502    0 -0.42918868810E+03 -0.10985613612E+03  0.43488227187E+03  0.62080100759E+03  0.25500000920E-02 0.  1.
       -2    1    3    3    0  502  0.42918868810E+03  0.10985613612E+03 -0.66345995299E+03  0.79777842154E+03  0.25500000920E-02 0. -1.
</event>
<event>
 5   0  0.2427569E-05  0.1392384E+04  0.7818609E-02  0.8959350E-01
       -1   -1    0    0    0  501  0.00000000000E+00  0.00000000000E+00  0.43663357798E+03  0.43663357801E+03  0.50400001928E-02 0. -1.
        1   -1    0    0  501    0  0.00000000000E+00  0.00000000000E+00 -0.11100461281E+04  0.11100461282E+04  0.50400001928E-02 0.  1.
    10030    2    1    2    0    0  0.00000000000E+00  0.00000000000E+00 -0.67341255016E+03  0.15466797062E+04  0.13923841606E+04 0.  0.
        1    1    3    3  502    0  0.65291769838E+03  0.21106003918E+03 -0.20604720794E+03  0.71645189157E+03  0.50400001928E-02 0.  1.
       -1    1    3    3    0  502 -0.65291769838E+03 -0.21106003918E+03 -0.46736534221E+03  0.83022781460E+03  0.50400001928E-02 0. -1.
</event>
<event>
 5   0  0.4243281E-05  0.1399873E+04  0.7818609E-02  0.8953911E-01
        2   -1    0    0  501    0  0.00000000000E+00  0.00000000000E+00  0.69867425965E+03  0.69867425966E+03  0.25500000920E-02 0. -1.
       -2   -1    0    0    0  501  0.00000000000E+00  0.00000000000E+00 -0.70120059007E+03  0.70120059007E+03  0.25500000920E-02 0.  1.
    10030    2    1    2    0    0  0.00000000000E+00  0.00000000000E+00 -0.25263304171E+01  0.13998748497E+04  0.13998725701E+04 0.  0.
        2    1    3    3  502    0 -0.64534050445E+03 -0.25421271950E+03  0.92664245261E+02  0.69976791566E+03  0.25500000920E-02 0.  1.
       -2    1    3    3    0  502  0.64534050445E+03  0.25421271950E+03 -0.95190575678E+02  0.70010693407E+03  0.25500000920E-02 0. -1.
</event>
<event>
 5   0  0.4621450E-05  0.1399834E+04  0.7818609E-02  0.8953938E-01
       -2   -1    0    0    0  501  0.00000000000E+00  0.00000000000E+00  0.55566004180E+03  0.55566004180E+03  0.25500000920E-02 0.  1.
        2   -1    0    0  501    0  0.00000000000E+00  0.00000000000E+00 -0.88162543643E+03  0.88162543644E+03  0.25500000920E-02 0. -1.
    10030    2    1    2    0    0  0.00000000000E+00  0.00000000000E+00 -0.32596539463E+03  0.14372854782E+04  0.13998343143E+04 0.  0.
        5    1    3    3  502    0  0.50487727858E+03  0.48289186625E+03 -0.20625664446E+03  0.72845694059E+03  0.46999998093E+01 0.  1.
       -5    1    3    3    0  502 -0.50487727858E+03 -0.48289186625E+03 -0.11970875018E+03  0.70882853765E+03  0.46999998093E+01 0. -1.
</event>
<event>
 5   0  0.4621450E-05  0.1397365E+04  0.7818609E-02  0.8955728E-01
       -2   -1    0    0    0  501  0.00000000000E+00  0.00000000000E+00  0.38752705846E+03  0.38752705847E+03  0.25500000920E-02 0.  1.
        2   -1    0    0  501    0  0.00000000000E+00  0.00000000000E+00 -0.12596731379E+04  0.12596731379E+04  0.25500000920E-02 0. -1.
    10030    2    1    2    0    0  0.00000000000E+00  0.00000000000E+00 -0.87214607948E+03  0.16472001964E+04  0.13973652719E+04 0.  0.
        5    1    3    3  502    0  0.65406957239E+03 -0.24524555107E+03 -0.42012884594E+03  0.81515809696E+03  0.46999998093E+01 0. -1.
       -5    1    3    3    0  502 -0.65406957239E+03  0.24524555107E+03 -0.45201723355E+03  0.83204209946E+03  0.46999998093E+01 0.  1.
</event>
<event>
 5   0  0.1661000E-05  0.1400316E+04  0.7818609E-02  0.8953590E-01
        4   -1    0    0  501    0  0.00000000000E+00  0.00000000000E+00  0.85436187370E+03  0.85436281762E+03  0.12699999809E+01 0.  1.
       -4   -1    0    0    0  501  0.00000000000E+00  0.00000000000E+00 -0.57378418043E+03  0.57378558592E+03  0.12699999809E+01 0. -1.
    10030    2    1    2    0    0  0.00000000000E+00  0.00000000000E+00  0.28057769327E+03  0.14281484035E+04  0.14003156860E+04 0.  0.
        4    1    3    3  502    0 -0.66513326562E+03  0.21032335579E+03  0.20132156540E+03  0.72606484602E+03  0.12699999809E+01 0.  1.
       -4    1    3    3    0  502  0.66513326562E+03 -0.21032335579E+03  0.79256127869E+02  0.70208355752E+03  0.12699999809E+01 0. -1.
</event>
<event>
 5   0  0.2427569E-05  0.1400062E+04  0.7818609E-02  0.8953773E-01
        1   -1    0    0  501    0  0.00000000000E+00  0.00000000000E+00  0.28029808376E+03  0.28029808380E+03  0.50400001928E-02 0.  1.
       -1   -1    0    0    0  501  0.00000000000E+00  0.00000000000E+00 -0.17482946245E+04  0.17482946245E+04  0.50400001928E-02 0. -1.
    10030    2    1    2    0    0  0.00000000000E+00  0.00000000000E+00 -0.14679965407E+04  0.20285927083E+04  0.14000623317E+04 0.  0.
        1    1    3    3  502    0  0.33801864398E+03 -0.55258938469E+03 -0.34946625552E+03  0.73602873281E+03  0.50400001928E-02 0.  1.
       -1    1    3    3    0  502 -0.33801864398E+03  0.55258938469E+03 -0.11185302852E+04  0.12925639755E+04  0.50400001928E-02 0. -1.
</event>
<event>
 5   0  0.2467303E-05  0.1399531E+04  0.7818609E-02  0.8954158E-01
        1   -1    0    0  501    0  0.00000000000E+00  0.00000000000E+00  0.17943382985E+04  0.17943382985E+04  0.50400001928E-02 0.  1.
       -1   -1    0    0    0  501  0.00000000000E+00  0.00000000000E+00 -0.27289813441E+03  0.27289813445E+03  0.50400001928E-02 0. -1.
    10030    2    1    2    0    0  0.00000000000E+00  0.00000000000E+00  0.15214401641E+04  0.20672364329E+04  0.13995307416E+04 0.  0.
        3    1    3    3  502    0  0.25767174148E+03  0.31980095892E+03  0.15975998230E+04  0.16495431441E+04  0.10100000352E+00 0.  1.
       -3    1    3    3    0  502 -0.25767174148E+03 -0.31980095892E+03 -0.76159658912E+02  0.41769328882E+03  0.10100000352E+00 0. -1.
</event>
<event>
 5   0  0.2467303E-05  0.1400030E+04  0.7818609E-02  0.8953797E-01
       -1   -1    0    0    0  501  0.00000000000E+00  0.00000000000E+00  0.41031691914E+03  0.41031691917E+03  0.50400001928E-02 0.  1.
        1   -1    0    0  501    0  0.00000000000E+00  0.00000000000E+00 -0.11942501949E+04  0.11942501949E+04  0.50400001928E-02 0. -1.
    10030    2    1    2    0    0  0.00000000000E+00  0.00000000000E+00 -0.78393327579E+03  0.16045671141E+04  0.14000300864E+04 0.  0.
        3    1    3    3  502    0 -0.17839293741E+03  0.51716645204E+03  0.10857096231E+03  0.55773904588E+03  0.10100000352E+00 0.  1.
       -3    1    3    3    0  502  0.17839293741E+03 -0.51716645204E+03 -0.89250423810E+03  0.10468280682E+04  0.10100000352E+00 0. -1.
</event>
<event>
 5   0  0.4460282E-05  0.1399926E+04  0.7818609E-02  0.8953872E-01
        2   -1    0    0  501    0  0.00000000000E+00  0.00000000000E+00  0.10495757482E+04  0.10495757482E+04  0.25500000920E-02 0. -1.
       -2   -1    0    0    0  501  0.00000000000E+00  0.00000000000E+00 -0.46680625038E+03  0.46680625038E+03  0.25500000920E-02 0.  1.
    10030    2    1    2    0    0  0.00000000000E+00  0.00000000000E+00  0.58276949778E+03  0.15163819985E+04  0.13999264545E+04 0.  0.
        1    1    3    3  502    0 -0.44262042012E+03 -0.50871078868E+03  0.88019425125E+02  0.68003450064E+03  0.50400001928E-02 0.  1.
       -1    1    3    3    0  502  0.44262042012E+03  0.50871078868E+03  0.49475007265E+03  0.83634749790E+03  0.50400001928E-02 0. -1.
</event>
<event>
 5   0  0.2316714E-05  0.1400842E+04  0.7818609E-02  0.8953209E-01
       -1   -1    0    0    0  501  0.00000000000E+00  0.00000000000E+00  0.41822805021E+03  0.41822805024E+03  0.50400001928E-02 0.  1.
        1   -1    0    0  501    0  0.00000000000E+00  0.00000000000E+00 -0.11730194892E+04  0.11730194892E+04  0.50400001928E-02 0. -1.
    10030    2    1    2    0    0  0.00000000000E+00  0.00000000000E+00 -0.75479143902E+03  0.15912475395E+04  0.14008421094E+04 0.  0.
        5    1    3    3  502    0 -0.29451428486E+03  0.13207070007E+03 -0.10834846082E+04  0.11305495655E+04  0.46999998093E+01 0. -1.
       -5    1    3    3    0  502  0.29451428486E+03 -0.13207070007E+03  0.32869316917E+03  0.46069797402E+03  0.46999998093E+01 0.  1.
</event>
<event>
 5   0  0.4460282E-05  0.1400122E+04  0.7818609E-02  0.8953731E-01
        2   -1    0    0  501    0  0.00000000000E+00  0.00000000000E+00  0.19565812917E+04  0.19565812917E+04  0.25500000920E-02 0. -1.
       -2   -1    0    0    0  501  0.00000000000E+00  0.00000000000E+00 -0.25048029222E+03  0.25048029223E+03  0.25500000920E-02 0.  1.
    10030    2    1    2    0    0  0.00000000000E+00  0.00000000000E+00  0.17061009995E+04  0.22070615839E+04  0.14001215000E+04 0.  0.
        1    1    3    3  502    0  0.35936317341E+03  0.22372639993E+03  0.17319755991E+04  0.17829567769E+04  0.50400001928E-02 0. -1.
       -1    1    3    3    0  502 -0.35936317341E+03 -0.22372639993E+03 -0.25874599592E+02  0.42410480704E+03  0.50400001928E-02 0.  1.
</event>
<event>
 5   0  0.4441253E-05  0.1400495E+04  0.7818609E-02  0.8953460E-01
        2   -1    0    0  501    0  0.00000000000E+00  0.00000000000E+00  0.33061406881E+03  0.33061406882E+03  0.25500000920E-02 0.  1.
       -2   -1    0    0    0  501  0.00000000000E+00  0.00000000000E+00 -0.14831391941E+04  0.14831391941E+04  0.25500000920E-02 0. -1.
    10030    2    1    2    0    0  0.00000000000E+00  0.00000000000E+00 -0.11525251253E+04  0.18137532629E+04  0.14004951747E+04 0.  0.
        3    1    3    3  502    0  0.34214346624E+03 -0.46898974081E+03 -0.10833870849E+04  0.12291220909E+04  0.10100000352E+00 0. -1.
       -3    1    3    3    0  502 -0.34214346624E+03  0.46898974081E+03 -0.69138040422E+02  0.58463117203E+03  0.10100000352E+00 0.  1.
</event>
<event>
 5   0  0.4243281E-05  0.1400137E+04  0.7818609E-02  0.8953719E-01
       -2   -1    0    0    0  501  0.00000000000E+00  0.00000000000E+00  0.49583867202E+03  0.49583867203E+03  0.25500000920E-02 0. -1.
        2   -1    0    0  501    0  0.00000000000E+00  0.00000000000E+00 -0.98841829088E+03  0.98841829088E+03  0.25500000920E-02 0.  1.
    10030    2    1    2    0    0  0.00000000000E+00  0.00000000000E+00 -0.49257961886E+03  0.14842569629E+04  0.14001371544E+04 0.  0.
        2    1    3    3  502    0  0.82629960455E+02  0.67089829210E+03 -0.53239476989E+02  0.67806096380E+03  0.25500000920E-02 0. -1.
       -2    1    3    3    0  502 -0.82629960455E+02 -0.67089829210E+03 -0.43934014187E+03  0.80619599911E+03  0.25500000920E-02 0.  1.
</event>
<event>
 5   0  0.2363419E-05  0.1399438E+04  0.7818609E-02  0.8954225E-01
       -1   -1    0    0    0  501  0.00000000000E+00  0.00000000000E+00  0.40918248683E+03  0.40918248686E+03  0.50400001928E-02 0.  1.
        1   -1    0    0  501    0  0.00000000000E+00  0.00000000000E+00 -0.11965484419E+04  0.11965484419E+04  0.50400001928E-02 0. -1.
    10030    2    1    2    0    0  0.00000000000E+00  0.00000000000E+00 -0.78736595506E+03  0.16057309288E+04  0.13994379831E+04 0.  0.
        2    1    3    3  502    0 -0.44455673025E+03  0.51996761218E+03 -0.56235502321E+03  0.88557336018E+03  0.25500000920E-02 0. -1.
       -2    1    3    3    0  502  0.44455673025E+03 -0.51996761218E+03 -0.22501093185E+03  0.72015756858E+03  0.25500000920E-02 0.  1.
</event>
<event>
 5   0  0.4621450E-05  0.1399623E+04  0.7818609E-02  0.8954091E-01
       -2   -1    0    0    0  501  0.00000000000E+00  0.00000000000E+00  0.18518409918E+03  0.18518409920E+03  0.25500000920E-02 0. -1.
        2   -1    0    0  501    0  0.00000000000E+00  0.00000000000E+00 -0.26445924481E+04  0.26445924481E+04  0.25500000920E-02 0.  1.
    10030    2    1    2    0    0  0.00000000000E+00  0.00000000000E+00 -0.24594083489E+04  0.28297765473E+04  0.13996234783E+04 0.  0.
        5    1    3    3  502    0  0.64844122632E+03 -0.15206595897E+03 -0.79553524981E+03  0.10375444586E+04  0.46999998093E+01 0. -1.
       -5    1    3    3    0  502 -0.64844122632E+03  0.15206595897E+03 -0.16638730991E+04  0.17922320887E+04  0.46999998093E+01 0.  1.
</event>
<event>
 5   0  0.1661000E-05  0.1400849E+04  0.7818609E-02  0.8953204E-01
        3   -1    0    0  501    0  0.00000000000E+00  0.00000000000E+00  0.43246970278E+03  0.43246971458E+03  0.10100000352E+00 0. -1.
       -3   -1    0    0    0  501  0.00000000000E+00  0.00000000000E+00 -0.11344018426E+04  0.11344018471E+04  0.10100000352E+00 0.  1.
    10030    2    1    2    0    0  0.00000000000E+00  0.00000000000E+00 -0.70193213981E+03  0.15668715617E+04  0.14008489433E+04 0.  0.
        4    1    3    3  502    0  0.48037956581E+03 -0.37835774009E+03  0.31091329782E+02  0.61228048345E+03  0.12699999809E+01 0. -1.
       -4    1    3    3    0  502 -0.48037956581E+03  0.37835774009E+03 -0.73302346959E+03  0.95459107821E+03  0.12699999809E+01 0.  1.
</event>
<event>
 5   0  0.4621450E-05  0.1400999E+04  0.7818609E-02  0.8953096E-01
       -2   -1    0    0    0  501  0.00000000000E+00  0.00000000000E+00  0.38014211170E+03  0.38014211171E+03  0.25500000920E-02 0. -1.
        2   -1    0    0  501    0  0.00000000000E+00  0.00000000000E+00 -0.12908317994E+04  0.12908317994E+04  0.25500000920E-02 0.  1.
    10030    2    1    2    0    0  0.00000000000E+00  0.00000000000E+00 -0.91068968773E+03  0.16709739112E+04  0.14009989666E+04 0.  0.
        5    1    3    3  502    0  0.51860251941E+03  0.17475837605E+03 -0.97685478691E+03  0.11197126541E+04  0.46999998093E+01 0.  1.
       -5    1    3    3    0  502 -0.51860251941E+03 -0.17475837605E+03  0.66165099174E+02  0.55126125701E+03  0.46999998093E+01 0. -1.
</event>
<event>
 5   0  0.4460282E-05  0.1400394E+04  0.7818609E-02  0.8953533E-01
       -2   -1    0    0    0  501  0.00000000000E+00  0.00000000000E+00  0.21649325953E+03  0.21649325954E+03  0.25500000920E-02 0.  1.
        2   -1    0    0  501    0  0.00000000000E+00  0.00000000000E+00 -0.22646254595E+04  0.22646254595E+04  0.25500000920E-02 0. -1.
    10030    2    1    2    0    0  0.00000000000E+00  0.00000000000E+00 -0.20481321999E+04  0.24811187190E+04  0.14003944407E+04 0.  0.
        1    1    3    3  502    0  0.16067610864E+03  0.13491201849E+03  0.15949372490E+03  0.26354565625E+03  0.50400001928E-02 0.  1.
       -1    1    3    3    0  502 -0.16067610864E+03 -0.13491201849E+03 -0.22076259249E+04  0.22175730628E+04  0.50400001928E-02 0. -1.
</event>
<event>
 5   0  0.4527503E-05  0.1399080E+04  0.7818609E-02  0.8954485E-01
       -2   -1    0    0    0  501  0.00000000000E+00  0.00000000000E+00  0.66322876579E+03  0.66322876580E+03  0.25500000920E-02 0.  1.
        2   -1    0    0  501    0  0.00000000000E+00  0.00000000000E+00 -0.73783876445E+03  0.73783876445E+03  0.25500000920E-02 0. -1.
    10030    2    1    2    0    0  0.00000000000E+00  0.00000000000E+00 -0.74609998653E+02  0.14010675302E+04  0.13990795447E+04 0.  0.
        4    1    3    3  502    0  0.14989623813E+03  0.52455411993E+03  0.40118516386E+03  0.67718317725E+03  0.12699999809E+01 0.  1.
       -4    1    3    3    0  502 -0.14989623813E+03 -0.52455411993E+03 -0.47579516252E+03  0.72388435300E+03  0.12699999809E+01 0. -1.
</event>
<event>
 5   0  0.2363419E-05  0.1395831E+04  0.7818609E-02  0.8956842E-01
       -1   -1    0    0    0  501  0.00000000000E+00  0.00000000000E+00  0.80971611027E+03  0.80971611028E+03  0.50400001928E-02 0.  1.
        1   -1    0    0  501    0  0.00000000000E+00  0.00000000000E+00 -0.60155141472E+03  0.60155141474E+03  0.50400001928E-02 0. -1.
    10030    2    1    2    0    0  0.00000000000E+00  0.00000000000E+00  0.20816469555E+03  0.14112675250E+04  0.13958307515E+04 0.  0.
        2    1    3    3  502    0  0.14686036226E+03 -0.10444311608E+03  0.78578637422E+03  0.80618642783E+03  0.25500000920E-02 0.  1.
       -2    1    3    3    0  502 -0.14686036226E+03  0.10444311608E+03 -0.57762167867E+03  0.60508109719E+03  0.25500000920E-02 0. -1.
</event>
<event>
 5   0  0.2363419E-05  0.1400582E+04  0.7818609E-02  0.8953398E-01
        1   -1    0    0  501    0  0.00000000000E+00  0.00000000000E+00  0.10334798819E+04  0.10334798819E+04  0.50400001928E-02 0. -1.
       -1   -1    0    0    0  501  0.00000000000E+00  0.00000000000E+00 -0.47452037042E+03  0.47452037045E+03  0.50400001928E-02 0.  1.
    10030    2    1    2    0    0  0.00000000000E+00  0.00000000000E+00  0.55895951148E+03  0.15080002524E+04  0.14005816740E+04 0.  0.
        2    1    3    3  502    0  0.28630562743E+03  0.40435615136E+03  0.81234345490E+03  0.95151284708E+03  0.25500000920E-02 0. -1.
       -2    1    3    3    0  502 -0.28630562743E+03 -0.40435615136E+03 -0.25338394342E+03  0.55648740528E+03  0.25500000920E-02 0.  1.
</event>
<event>
 5   0  0.4621450E-05  0.1399452E+04  0.7818609E-02  0.8954215E-01
        2   -1    0    0  501    0  0.00000000000E+00  0.00000000000E+00  0.84615307343E+03  0.84615307343E+03  0.25500000920E-02 0.  1.
       -2   -1    0    0    0  501  0.00000000000E+00  0.00000000000E+00 -0.57863841179E+03  0.57863841180E+03  0.25500000920E-02 0. -1.
    10030    2    1    2    0    0  0.00000000000E+00  0.00000000000E+00  0.26751466164E+03  0.14247914852E+04  0.13994522794E+04 0.  0.
        5    1    3    3  502    0  0.67022979855E+03  0.19902297426E+02 -0.69839781460E+02  0.67416894721E+03  0.46999998093E+01 0.  1.
       -5    1    3    3    0  502 -0.67022979855E+03 -0.19902297426E+02  0.33735444310E+03  0.75062253802E+03  0.46999998093E+01 0. -1.
</event>
<event>
 5   0  0.4441253E-05  0.1399809E+04  0.7818609E-02  0.8953957E-01
       -2   -1    0    0    0  501  0.00000000000E+00  0.00000000000E+00  0.39721811396E+03  0.39721811397E+03  0.25500000920E-02 0. -1.
        2   -1    0    0  501    0  0.00000000000E+00  0.00000000000E+00 -0.12332428588E+04  0.12332428588E+04  0.25500000920E-02 0.  1.
    10030    2    1    2    0    0  0.00000000000E+00  0.00000000000E+00 -0.83602474485E+03  0.16304609728E+04  0.13998091333E+04 0.  0.
        3    1    3    3  502    0  0.55236078663E+03 -0.41870074080E+03 -0.53126314953E+03  0.87330023085E+03  0.10100000352E+00 0.  1.
       -3    1    3    3    0  502 -0.55236078663E+03  0.41870074080E+03 -0.30476159533E+03  0.75716074194E+03  0.10100000352E+00 0. -1.
</event>
<event>
 5   0  0.2363419E-05  0.1399870E+04  0.7818609E-02  0.8953913E-01
       -1   -1    0    0    0  501  0.00000000000E+00  0.00000000000E+00  0.48759413644E+03  0.48759413647E+03  0.50400001928E-02 0.  1.
        1   -1    0    0  501    0  0.00000000000E+00  0.00000000000E+00 -0.10047470001E+04  0.10047470002E+04  0.50400001928E-02 0. -1.
    10030    2    1    2    0    0  0.00000000000E+00  0.00000000000E+00 -0.51715286370E+03  0.14923411366E+04  0.13998696309E+04 0.  0.
        2    1    3    3  502    0 -0.13711783661E+03  0.97177757312E+01 -0.99021563817E+03  0.99971133152E+03  0.25500000920E-02 0. -1.
       -2    1    3    3    0  502  0.13711783661E+03 -0.97177757312E+01  0.47306277447E+03  0.49262980511E+03  0.25500000920E-02 0.  1.
</event>
<event>
 5   0  0.4243281E-05  0.1399051E+04  0.7818609E-02  0.8954506E-01
        2   -1    0    0  501    0  0.00000000000E+00  0.00000000000E+00  0.10929541780E+04  0.10929541780E+04  0.25500000920E-02 0.  1.
       -2   -1    0    0    0  501  0.00000000000E+00  0.00000000000E+00 -0.44771873355E+03  0.44771873356E+03  0.25500000920E-02 0. -1.
    10030    2    1    2    0    0  0.00000000000E+00  0.00000000000E+00  0.64523544443E+03  0.15406729115E+04  0.13990511934E+04 0.  0.
        2    1    3    3  502    0  0.66318648392E+02 -0.61635907508E+03 -0.34287523813E+02  0.62086416135E+03  0.25500000920E-02 0. -1.
       -2    1    3    3    0  502 -0.66318648392E+02  0.61635907508E+03  0.67952296825E+03  0.91980875019E+03  0.25500000920E-02 0.  1.
</event>
<event>
 5   0  0.2428507E-05  0.1399816E+04  0.7818609E-02  0.8953952E-01
        1   -1    0    0  501    0  0.00000000000E+00  0.00000000000E+00  0.74900168793E+03  0.74900168795E+03  0.50400001928E-02 0. -1.
       -1   -1    0    0    0  501  0.00000000000E+00  0.00000000000E+00 -0.65403188232E+03  0.65403188234E+03  0.50400001928E-02 0.  1.
    10030    2    1    2    0    0  0.00000000000E+00  0.00000000000E+00  0.94969805617E+02  0.14030335703E+04  0.13998156791E+04 0.  0.
        4    1    3    3  502    0 -0.53693239587E+03 -0.17685692215E+03 -0.36613140180E+03  0.67351955052E+03  0.12699999809E+01 0.  1.
       -4    1    3    3    0  502  0.53693239587E+03  0.17685692215E+03  0.46110120742E+03  0.72951401976E+03  0.12699999809E+01 0. -1.
</event>
<event>
 5   0  0.2467303E-05  0.1398362E+04  0.7818609E-02  0.8955005E-01
        1   -1    0    0  501    0  0.00000000000E+00  0.00000000000E+00  0.81475651165E+03  0.81475651166E+03  0.50400001928E-02 0. -1.
       -1   -1    0    0    0  501  0.00000000000E+00  0.00000000000E+00 -0.60000001297E+03  0.60000001299E+03  0.50400001928E-02 0.  1.
    10030    2    1    2    0    0  0.00000000000E+00  0.00000000000E+00  0.21475649868E+03  0.14147565247E+04  0.13983617809E+04 0.  0.
        3    1    3    3  502    0 -0.28711324175E+03  0.53175555812E+03 -0.24839199064E+03  0.65337323055E+03  0.10100000352E+00 0.  1.
       -3    1    3    3    0  502  0.28711324175E+03 -0.53175555812E+03  0.46314848933E+03  0.76138329411E+03  0.10100000352E+00 0. -1.
</event>
<event>
 5   0  0.4460282E-05  0.1399825E+04  0.7818609E-02  0.8953945E-01
        2   -1    0    0  501    0  0.00000000000E+00  0.00000000000E+00  0.16895309929E+04  0.16895309929E+04  0.25500000920E-02 0.  1.
       -2   -1    0    0    0  501  0.00000000000E+00  0.00000000000E+00 -0.28994898131E+03  0.28994898132E+03  0.25500000920E-02 0. -1.
    10030    2    1    2    0    0  0.00000000000E+00  0.00000000000E+00  0.13995820116E+04  0.19794799742E+04  0.13998254038E+04 0.  0.
        1    1    3    3  502    0  0.63474588888E+03 -0.28736624369E+03  0.60603254467E+03  0.92344850787E+03  0.50400001928E-02 0. -1.
       -1    1    3    3    0  502 -0.63474588888E+03  0.28736624369E+03  0.79354946692E+03  0.10560314664E+04  0.50400001928E-02 0.  1.
</event>
<event>
 5   0  0.2363419E-05  0.1400018E+04  0.7818609E-02  0.8953805E-01
        1   -1    0    0  501    0  0.00000000000E+00  0.00000000000E+00  0.48860079040E+03  0.48860079043E+03  0.50400001928E-02 0.  1.
       -1   -1    0    0    0  501  0.00000000000E+00  0.00000000000E+00 -0.10028898850E+04  0.10028898850E+04  0.50400001928E-02 0. -1.
    10030    2    1    2    0    0  0.00000000000E+00  0.00000000000E+00 -0.51428909459E+03  0.14914906754E+04  0.14000182721E+04 0.  0.
        2    1    3    3  502    0 -0.14761983599E+03  0.42988452236E+03  0.31001134342E+03  0.55018119888E+03  0.25500000920E-02 0.  1.
       -2    1    3    3    0  502  0.14761983599E+03 -0.42988452236E+03 -0.82430043801E+03  0.94130947655E+03  0.25500000920E-02 0. -1.
</event>
<event>
 5   0  0.4460282E-05  0.1400387E+04  0.7818609E-02  0.8953539E-01
       -2   -1    0    0    0  501  0.00000000000E+00  0.00000000000E+00  0.10420145025E+04  0.10420145025E+04  0.25500000920E-02 0.  1.
        2   -1    0    0  501    0  0.00000000000E+00  0.00000000000E+00 -0.47050290442E+03  0.47050290442E+03  0.25500000920E-02 0. -1.
    10030    2    1    2    0    0  0.00000000000E+00  0.00000000000E+00  0.57151159811E+03  0.15125174070E+04  0.14003868750E+04 0.  0.
        1    1    3    3  502    0 -0.46670164854E+03 -0.50547907408E+02 -0.27536721374E+03  0.54423581481E+03  0.50400001928E-02 0. -1.
       -1    1    3    3    0  502  0.46670164854E+03  0.50547907408E+02  0.84687881186E+03  0.96828159215E+03  0.50400001928E-02 0.  1.
</event>
<event>
 5   0  0.4441253E-05  0.1400312E+04  0.7818609E-02  0.8953593E-01
       -2   -1    0    0    0  501  0.00000000000E+00  0.00000000000E+00  0.69241503407E+03  0.69241503407E+03  0.25500000920E-02 0. -1.
        2   -1    0    0  501    0  0.00000000000E+00  0.00000000000E+00 -0.70798361497E+03  0.70798361497E+03  0.25500000920E-02 0.  1.
    10030    2    1    2    0    0  0.00000000000E+00  0.00000000000E+00 -0.15568580898E+02  0.14003986490E+04  0.14003121065E+04 0.  0.
        3    1    3    3  502    0 -0.19642343562E+03  0.66128220597E+03 -0.12755047722E+03  0.70153079508E+03  0.10100000352E+00 0. -1.
       -3    1    3    3    0  502  0.19642343562E+03 -0.66128220597E+03  0.11198189633E+03  0.69886785396E+03  0.10100000352E+00 0.  1.
</event>
<event>
 5   0  0.2427569E-05  0.1399745E+04  0.7818609E-02  0.8954003E-01
       -1   -1    0    0    0  501  0.00000000000E+00  0.00000000000E+00  0.56879470670E+03  0.56879470672E+03  0.50400001928E-02 0. -1.
        1   -1    0    0  501    0  0.00000000000E+00  0.00000000000E+00 -0.86115719032E+03  0.86115719034E+03  0.50400001928E-02 0.  1.
    10030    2    1    2    0    0  0.00000000000E+00  0.00000000000E+00 -0.29236248362E+03  0.14299518971E+04  0.13997451933E+04 0.  0.
        1    1    3    3  502    0 -0.62945794445E+03  0.29361798434E+03 -0.23401828608E+03  0.73293477391E+03  0.50400001928E-02 0.  1.
       -1    1    3    3    0  502  0.62945794445E+03 -0.29361798434E+03 -0.58344197535E+02  0.69701712315E+03  0.50400001928E-02 0. -1.
</event>
<event>
 5   0  0.2427569E-05  0.1399937E+04  0.7818609E-02  0.8953864E-01
        1   -1    0    0  501    0  0.00000000000E+00  0.00000000000E+00  0.49014486203E+03  0.49014486206E+03  0.50400001928E-02 0.  1.
       -1   -1    0    0    0  501  0.00000000000E+00  0.00000000000E+00 -0.99961443169E+03  0.99961443170E+03  0.50400001928E-02 0. -1.
    10030    2    1    2    0    0  0.00000000000E+00  0.00000000000E+00 -0.50946956965E+03  0.14897592938E+04  0.13999369668E+04 0.  0.
        1    1    3    3  502    0  0.46613000015E+02  0.24486975783E+03  0.44131312184E+03  0.50684439585E+03  0.50400001928E-02 0.  1.
       -1    1    3    3    0  502 -0.46613000015E+02 -0.24486975783E+03 -0.95078269150E+03  0.98291489791E+03  0.50400001928E-02 0. -1.
</event>
<event>
 5   0  0.4460282E-05  0.1400163E+04  0.7818609E-02  0.8953701E-01
       -2   -1    0    0    0  501  0.00000000000E+00  0.00000000000E+00  0.57198370563E+03  0.57198370564E+03  0.25500000920E-02 0.  1.
        2   -1    0    0  501    0  0.00000000000E+00  0.00000000000E+00 -0.85686668913E+03  0.85686668913E+03  0.25500000920E-02 0. -1.
    10030    2    1    2    0    0  0.00000000000E+00  0.00000000000E+00 -0.28488298350E+03  0.14288503948E+04  0.14001625393E+04 0.  0.
        1    1    3    3  502    0 -0.36014287301E+03 -0.60001182904E+03 -0.16276690829E+03  0.71847766175E+03  0.50400001928E-02 0.  1.
       -1    1    3    3    0  502  0.36014287301E+03  0.60001182904E+03 -0.12211607521E+03  0.71037273302E+03  0.50400001928E-02 0. -1.
</event>
<event>
 5   0  0.2363419E-05  0.1399904E+04  0.7818609E-02  0.8953888E-01
       -1   -1    0    0    0  501  0.00000000000E+00  0.00000000000E+00  0.43114549028E+03  0.43114549031E+03  0.50400001928E-02 0.  1.
        1   -1    0    0  501    0  0.00000000000E+00  0.00000000000E+00 -0.11363517901E+04  0.11363517902E+04  0.50400001928E-02 0. -1.
    10030    2    1    2    0    0  0.00000000000E+00  0.00000000000E+00 -0.70520629986E+03  0.15674972805E+04  0.13999042106E+04 0.  0.
        2    1    3    3  502    0 -0.38246207455E+03 -0.97227591599E+02 -0.99991465745E+03  0.10749696578E+04  0.25500000920E-02 0. -1.
       -2    1    3    3    0  502  0.38246207455E+03  0.97227591599E+02  0.29470835759E+03  0.49252762265E+03  0.25500000920E-02 0.  1.
</event>
<event>
 5   0  0.2427569E-05  0.1400050E+04  0.7818609E-02  0.8953782E-01
        1   -1    0    0  501    0  0.00000000000E+00  0.00000000000E+00  0.19337396625E+04  0.19337396625E+04  0.50400001928E-02 0.  1.
       -1   -1    0    0    0  501  0.00000000000E+00  0.00000000000E+00 -0.25341328706E+03  0.25341328711E+03  0.50400001928E-02 0. -1.
    10030    2    1    2    0    0  0.00000000000E+00  0.00000000000E+00  0.16803263754E+04  0.21871529496E+04  0.14000504623E+04 0.  0.
        1    1    3    3  502    0 -0.10851976621E+03  0.39487566450E+03 -0.46762376446E+02  0.41217720698E+03  0.50400001928E-02 0. -1.
       -1    1    3    3    0  502  0.10851976621E+03 -0.39487566450E+03  0.17270887519E+04  0.17749757426E+04  0.50400001928E-02 0.  1.
</event>
<event>
 5   0  0.4441253E-05  0.1399997E+04  0.7818609E-02  0.8953821E-01
       -2   -1    0    0    0  501  0.00000000000E+00  0.00000000000E+00  0.34283595610E+03  0.34283595611E+03  0.25500000920E-02 0. -1.
        2   -1    0    0  501    0  0.00000000000E+00  0.00000000000E+00 -0.14292478538E+04  0.14292478538E+04  0.25500000920E-02 0.  1.
    10030    2    1    2    0    0  0.00000000000E+00  0.00000000000E+00 -0.10864118977E+04  0.17720838099E+04  0.13999965064E+04 0.  0.
        3    1    3    3  502    0 -0.66944670128E+03 -0.14773686241E+03 -0.36414217281E+03  0.77626322764E+03  0.10100000352E+00 0. -1.
       -3    1    3    3    0  502  0.66944670128E+03  0.14773686241E+03 -0.72226972485E+03  0.99582058224E+03  0.10100000352E+00 0.  1.
</event>
<event>
 5   0  0.2428507E-05  0.1399953E+04  0.7818609E-02  0.8953853E-01
       -1   -1    0    0    0  501  0.00000000000E+00  0.00000000000E+00  0.38049641859E+03  0.38049641862E+03  0.50400001928E-02 0. -1.
        1   -1    0    0  501    0  0.00000000000E+00  0.00000000000E+00 -0.12877040638E+04  0.12877040638E+04  0.50400001928E-02 0.  1.
    10030    2    1    2    0    0  0.00000000000E+00  0.00000000000E+00 -0.90720764524E+03  0.16682004825E+04  0.13999525485E+04 0.  0.
        4    1    3    3  502    0  0.58458041120E+03 -0.23737551118E+03 -0.92398321168E+02  0.63766798032E+03  0.12699999809E+01 0. -1.
       -4    1    3    3    0  502 -0.58458041120E+03  0.23737551118E+03 -0.81480932407E+03  0.10305325021E+04  0.12699999809E+01 0.  1.
</event>
<event>
 5   0  0.2427569E-05  0.1400253E+04  0.7818609E-02  0.8953636E-01
        1   -1    0    0  501    0  0.00000000000E+00  0.00000000000E+00  0.99748303052E+03  0.99748303053E+03  0.50400001928E-02 0.  1.
       -1   -1    0    0    0  501  0.00000000000E+00  0.00000000000E+00 -0.49141392353E+03  0.49141392355E+03  0.50400001928E-02 0. -1.
    10030    2    1    2    0    0  0.00000000000E+00  0.00000000000E+00  0.50606910699E+03  0.14888969541E+04  0.14002529053E+04 0.  0.
        1    1    3    3  502    0  0.13382207278E+03 -0.73034107724E+02  0.97961924567E+03  0.99141121366E+03  0.50400001928E-02 0.  1.
       -1    1    3    3    0  502 -0.13382207278E+03  0.73034107724E+02 -0.47355013868E+03  0.49748574042E+03  0.50400001928E-02 0. -1.
</event>
<event>
 5   0  0.2428507E-05  0.1400469E+04  0.7818609E-02  0.8953479E-01
        1   -1    0    0  501    0  0.00000000000E+00  0.00000000000E+00  0.10393539644E+04  0.10393539644E+04  0.50400001928E-02 0. -1.
       -1   -1    0    0    0  501  0.00000000000E+00  0.00000000000E+00 -0.47176274550E+03  0.47176274552E+03  0.50400001928E-02 0.  1.
    10030    2    1    2    0    0  0.00000000000E+00  0.00000000000E+00  0.56759121889E+03  0.15111167099E+04  0.14004691783E+04 0.  0.
        4    1    3    3  502    0  0.19281181747E+03  0.41765529466E+03  0.85344056221E+03  0.96952294880E+03  0.12699999809E+01 0. -1.
       -4    1    3    3    0  502 -0.19281181747E+03 -0.41765529466E+03 -0.28584934333E+03  0.54159376113E+03  0.12699999809E+01 0.  1.
</event>
<event>
 5   0  0.4243281E-05  0.1400067E+04  0.7818609E-02  0.8953770E-01
        2   -1    0    0  501    0  0.00000000000E+00  0.00000000000E+00  0.81164268270E+03  0.81164268270E+03  0.25500000920E-02 0.  1.
       -2   -1    0    0    0  501  0.00000000000E+00  0.00000000000E+00 -0.60377211935E+03  0.60377211936E+03  0.25500000920E-02 0. -1.
    10030    2    1    2    0    0  0.00000000000E+00  0.00000000000E+00  0.20787056334E+03  0.14154148021E+04  0.14000674594E+04 0.  0.
        2    1    3    3  502    0 -0.44218085925E+03  0.53270393945E+03  0.20875317670E+03  0.72310116041E+03  0.25500000920E-02 0.  1.
       -2    1    3    3    0  502  0.44218085925E+03 -0.53270393945E+03 -0.88261335442E+00  0.69231364165E+03  0.25500000920E-02 0. -1.
</event>
<event>
 5   0  0.4527503E-05  0.1399567E+04  0.7818609E-02  0.8954132E-01
        2   -1    0    0  501    0  0.00000000000E+00  0.00000000000E+00  0.37069267262E+03  0.37069267263E+03  0.25500000920E-02 0. -1.
       -2   -1    0    0    0  501  0.00000000000E+00  0.00000000000E+00 -0.13210328537E+04  0.13210328537E+04  0.25500000920E-02 0.  1.
    10030    2    1    2    0    0  0.00000000000E+00  0.00000000000E+00 -0.95034018111E+03  0.16917255264E+04  0.13995673606E+04 0.  0.
        4    1    3    3  502    0  0.56823765860E+02  0.38660907372E+03  0.22652928858E+03  0.45167759269E+03  0.12699999809E+01 0. -1.
       -4    1    3    3    0  502 -0.56823765860E+02 -0.38660907372E+03 -0.11768694697E+04  0.12400479337E+04  0.12699999809E+01 0.  1.
</event>
<event>
 5   0  0.4441253E-05  0.1399603E+04  0.7818609E-02  0.8954106E-01
       -2   -1    0    0    0  501  0.00000000000E+00  0.00000000000E+00  0.35640543236E+03  0.35640543237E+03  0.25500000920E-02 0. -1.
        2   -1    0    0  501    0  0.00000000000E+00  0.00000000000E+00 -0.13740590588E+04  0.13740590588E+04  0.25500000920E-02 0.  1.
    10030    2    1    2    0    0  0.00000000000E+00  0.00000000000E+00 -0.10176536264E+04  0.17304644912E+04  0.13996029622E+04 0.  0.
        3    1    3    3  502    0  0.12597490262E+03  0.37801939092E+02 -0.13586401802E+04  0.13649915062E+04  0.10100000352E+00 0.  1.
       -3    1    3    3    0  502 -0.12597490262E+03 -0.37801939092E+02  0.34098655374E+03  0.36547298494E+03  0.10100000352E+00 0. -1.
</event>
<event>
 5   0  0.2467303E-05  0.1400068E+04  0.7818609E-02  0.8953769E-01
       -1   -1    0    0    0  501  0.00000000000E+00  0.00000000000E+00  0.51173830989E+03  0.51173830991E+03  0.50400001928E-02 0.  1.
        1   -1    0    0  501    0  0.00000000000E+00  0.00000000000E+00 -0.95761345032E+03  0.95761345033E+03  0.50400001928E-02 0. -1.
    10030    2    1    2    0    0  0.00000000000E+00  0.00000000000E+00 -0.44587514043E+03  0.14693517602E+04  0.14000678392E+04 0.  0.
        3    1    3    3  502    0 -0.19436573963E+03 -0.67238335147E+03 -0.20925127577E+03  0.73052277082E+03  0.10100000352E+00 0. -1.
       -3    1    3    3    0  502  0.19436573963E+03  0.67238335147E+03 -0.23662386466E+03  0.73882898942E+03  0.10100000352E+00 0.  1.
</event>
<event>
 5   0  0.4621450E-05  0.1397442E+04  0.7818609E-02  0.8955672E-01
       -2   -1    0    0    0  501  0.00000000000E+00  0.00000000000E+00  0.62527295429E+03  0.62527295430E+03  0.25500000920E-02 0.  1.
        2   -1    0    0  501    0  0.00000000000E+00  0.00000000000E+00 -0.78079710007E+03  0.78079710008E+03  0.25500000920E-02 0. -1.
    10030    2    1    2    0    0  0.00000000000E+00  0.00000000000E+00 -0.15552414578E+03  0.14060700544E+04  0.13974423916E+04 0.  0.
        5    1    3    3  502    0  0.64203066881E+02 -0.45725654134E+03  0.44986427496E+03  0.64467475077E+03  0.46999998093E+01 0.  1.
       -5    1    3    3    0  502 -0.64203066881E+02  0.45725654134E+03 -0.60538842074E+03  0.76139530361E+03  0.46999998093E+01 0. -1.
</event>
<event>
 5   0  0.4243281E-05  0.1399369E+04  0.7818609E-02  0.8954276E-01
        2   -1    0    0  501    0  0.00000000000E+00  0.00000000000E+00  0.22620320839E+04  0.22620320839E+04  0.25500000920E-02 0.  1.
       -2   -1    0    0    0  501  0.00000000000E+00  0.00000000000E+00 -0.21642411485E+03  0.21642411487E+03  0.25500000920E-02 0. -1.
    10030    2    1    2    0    0  0.00000000000E+00  0.00000000000E+00  0.20456079690E+04  0.24784561988E+04  0.13993688457E+04 0.  0.
        2    1    3    3  502    0  0.54436875092E+02  0.38827180682E+03  0.20492005911E+04  0.20863703966E+04  0.25500000920E-02 0.  1.
       -2    1    3    3    0  502 -0.54436875092E+02 -0.38827180682E+03 -0.35926220083E+01  0.39208580219E+03  0.25500000920E-02 0. -1.
</event>
<event>
 5   0  0.2467303E-05  0.1399868E+04  0.7818609E-02  0.8953914E-01
        1   -1    0    0  501    0  0.00000000000E+00  0.00000000000E+00  0.97877229072E+03  0.97877229073E+03  0.50400001928E-02 0. -1.
       -1   -1    0    0    0  501  0.00000000000E+00  0.00000000000E+00 -0.50053281375E+03  0.50053281377E+03  0.50400001928E-02 0.  1.
    10030    2    1    2    0    0  0.00000000000E+00  0.00000000000E+00  0.47823947697E+03  0.14793051045E+04  0.13998680634E+04 0.  0.
        3    1    3    3  502    0 -0.29919052003E+03 -0.26530195912E+03  0.84618108754E+03  0.93590733511E+03  0.10100000352E+00 0. -1.
       -3    1    3    3    0  502  0.29919052003E+03  0.26530195912E+03 -0.36794161058E+03  0.54339776940E+03  0.10100000352E+00 0.  1.
</event>
<event>
 5   0  0.4621450E-05  0.1399775E+04  0.7818609E-02  0.8953982E-01
        2   -1    0    0  501    0  0.00000000000E+00  0.00000000000E+00  0.14022562094E+04  0.14022562094E+04  0.25500000920E-02 0. -1.
       -2   -1    0    0    0  501  0.00000000000E+00  0.00000000000E+00 -0.34932443988E+03  0.34932443989E+03  0.25500000920E-02 0.  1.
    10030    2    1    2    0    0  0.00000000000E+00  0.00000000000E+00  0.10529317695E+04  0.17515806493E+04  0.13997747889E+04 0.  0.
        5    1    3    3  502    0  0.37519151812E+02  0.20144110426E+03 -0.31092944887E+03  0.37240491057E+03  0.46999998093E+01 0.  1.
       -5    1    3    3    0  502 -0.37519151812E+02 -0.20144110426E+03  0.13638612184E+04  0.13791757387E+04  0.46999998093E+01 0. -1.
</event>
<event>
 5   0  0.2316714E-05  0.1400015E+04  0.7818609E-02  0.8953808E-01
       -1   -1    0    0    0  501  0.00000000000E+00  0.00000000000E+00  0.60034059629E+03  0.60034059631E+03  0.50400001928E-02 0.  1.
        1   -1    0    0  501    0  0.00000000000E+00  0.00000000000E+00 -0.81622084205E+03  0.81622084207E+03  0.50400001928E-02 0. -1.
    10030    2    1    2    0    0  0.00000000000E+00  0.00000000000E+00 -0.21588024577E+03  0.14165614384E+04  0.14000150100E+04 0.  0.
        5    1    3    3  502    0 -0.27191644433E+03 -0.50859419740E+03  0.29346229731E+03  0.64710804374E+03  0.46999998093E+01 0. -1.
       -5    1    3    3    0  502  0.27191644433E+03  0.50859419740E+03 -0.50934254308E+03  0.76945339464E+03  0.46999998093E+01 0.  1.
</event>
<event>
 5   0  0.4621450E-05  0.1399826E+04  0.7818609E-02  0.8953945E-01
       -2   -1    0    0    0  501  0.00000000000E+00  0.00000000000E+00  0.38351429120E+03  0.38351429121E+03  0.25500000920E-02 0. -1.
        2   -1    0    0  501    0  0.00000000000E+00  0.00000000000E+00 -0.12773398319E+04  0.12773398319E+04  0.25500000920E-02 0.  1.
    10030    2    1    2    0    0  0.00000000000E+00  0.00000000000E+00 -0.89382554071E+03  0.16608541231E+04  0.13998258181E+04 0.  0.
        5    1    3    3  502    0 -0.64776727617E+03 -0.97404260880E+02 -0.73938703494E+03  0.98782858409E+03  0.46999998093E+01 0.  1.
       -5    1    3    3    0  502  0.64776727617E+03  0.97404260880E+02 -0.15443850576E+03  0.67302553902E+03  0.46999998093E+01 0. -1.
</event>
<event>
 5   0  0.4460282E-05  0.1400298E+04  0.7818609E-02  0.8953603E-01
       -2   -1    0    0    0  501  0.00000000000E+00  0.00000000000E+00  0.20914155147E+03  0.20914155148E+03  0.25500000920E-02 0. -1.
        2   -1    0    0  501    0  0.00000000000E+00  0.00000000000E+00 -0.23439079838E+04  0.23439079838E+04  0.25500000920E-02 0.  1.
    10030    2    1    2    0    0  0.00000000000E+00  0.00000000000E+00 -0.21347664323E+04  0.25530495353E+04  0.14002979001E+04 0.  0.
        1    1    3    3  502    0 -0.27749274227E+02 -0.39513494216E+03 -0.21199773874E+04  0.21566654279E+04  0.50400001928E-02 0.  1.
       -1    1    3    3    0  502  0.27749274227E+02  0.39513494216E+03 -0.14789044947E+02  0.39638410741E+03  0.50400001928E-02 0. -1.
</event>
<event>
 5   0  0.4527503E-05  0.1399745E+04  0.7818609E-02  0.8954003E-01
       -2   -1    0    0    0  501  0.00000000000E+00  0.00000000000E+00  0.57449897916E+03  0.57449897917E+03  0.25500000920E-02 0.  1.
        2   -1    0    0  501    0  0.00000000000E+00  0.00000000000E+00 -0.85260649923E+03  0.85260649924E+03  0.25500000920E-02 0. -1.
    10030    2    1    2    0    0  0.00000000000E+00  0.00000000000E+00 -0.27810752007E+03  0.14271054784E+04  0.13997450674E+04 0.  0.
        4    1    3    3  502    0 -0.44717768862E+03 -0.26356484566E+03 -0.61768249860E+03  0.80682562865E+03  0.12699999809E+01 0. -1.
       -4    1    3    3    0  502  0.44717768862E+03  0.26356484566E+03  0.33957497853E+03  0.62027984975E+03  0.12699999809E+01 0.  1.
</event>
<event>
 5   0  0.2467303E-05  0.1400026E+04  0.7818609E-02  0.8953800E-01
        1   -1    0    0  501    0  0.00000000000E+00  0.00000000000E+00  0.86815093017E+03  0.86815093018E+03  0.50400001928E-02 0.  1.
       -1   -1    0    0    0  501  0.00000000000E+00  0.00000000000E+00 -0.56443878084E+03  0.56443878087E+03  0.50400001928E-02 0. -1.
    10030    2    1    2    0    0  0.00000000000E+00  0.00000000000E+00  0.30371214933E+03  0.14325897111E+04  0.14000257892E+04 0.  0.
        3    1    3    3  502    0  0.45773973670E+03 -0.45477371365E+03  0.42959752074E+03  0.77517664903E+03  0.10100000352E+00 0.  1.
       -3    1    3    3    0  502 -0.45773973670E+03  0.45477371365E+03 -0.12588537141E+03  0.65741306202E+03  0.10100000352E+00 0. -1.
</event>
<event>
 5   0  0.2428507E-05  0.1399075E+04  0.7818609E-02  0.8954488E-01
        1   -1    0    0  501    0  0.00000000000E+00  0.00000000000E+00  0.66629687093E+03  0.66629687095E+03  0.50400001928E-02 0. -1.
       -1   -1    0    0    0  501  0.00000000000E+00  0.00000000000E+00 -0.73443653446E+03  0.73443653448E+03  0.50400001928E-02 0.  1.
    10030    2    1    2    0    0  0.00000000000E+00  0.00000000000E+00 -0.68139663533E+02  0.14007334054E+04  0.13990750728E+04 0.  0.
        4    1    3    3  502    0  0.40608566247E+03 -0.37695948884E+03  0.39345754872E+03  0.67956933203E+03  0.12699999809E+01 0. -1.
       -4    1    3    3    0  502 -0.40608566247E+03  0.37695948884E+03 -0.46159721226E+03  0.72116407339E+03  0.12699999809E+01 0.  1.
</event>
<event>
 5   0  0.4460282E-05  0.1399750E+04  0.7818609E-02  0.8953999E-01
       -2   -1    0    0    0  501  0.00000000000E+00  0.00000000000E+00  0.63038298645E+03  0.63038298646E+03  0.25500000920E-02 0.  1.
        2   -1    0    0  501    0  0.00000000000E+00  0.00000000000E+00 -0.77702779735E+03  0.77702779735E+03  0.25500000920E-02 0. -1.
    10030    2    1    2    0    0  0.00000000000E+00  0.00000000000E+00 -0.14664481089E+03  0.14074107838E+04  0.13997501255E+04 0.  0.
        1    1    3    3  502    0 -0.16700860487E+03 -0.20662951898E+03  0.57770670099E+03  0.63587157871E+03  0.50400001928E-02 0.  1.
       -1    1    3    3    0  502  0.16700860487E+03  0.20662951898E+03 -0.72435151188E+03  0.77153920510E+03  0.50400001928E-02 0. -1.
</event>
<event>
 5   0  0.2427569E-05  0.1401654E+04  0.7818609E-02  0.8952622E-01
        1   -1    0    0  501    0  0.00000000000E+00  0.00000000000E+00  0.33295529465E+03  0.33295529469E+03  0.50400001928E-02 0.  1.
       -1   -1    0    0    0  501  0.00000000000E+00  0.00000000000E+00 -0.14751476902E+04  0.14751476902E+04  0.50400001928E-02 0. -1.
    10030    2    1    2    0    0  0.00000000000E+00  0.00000000000E+00 -0.11421923956E+04  0.18081029849E+04  0.14016536432E+04 0.  0.
        1    1    3    3  502    0  0.28179406964E+03 -0.55123034185E+03 -0.14737127320E+03  0.63638123767E+03  0.50400001928E-02 0.  1.
       -1    1    3    3    0  502 -0.28179406964E+03  0.55123034185E+03 -0.99482112238E+03  0.11717217473E+04  0.50400001928E-02 0. -1.
</event>
<event>
 5   0  0.4527503E-05  0.1400653E+04  0.7818609E-02  0.8953346E-01
        2   -1    0    0  501    0  0.00000000000E+00  0.00000000000E+00  0.89969181105E+03  0.89969181106E+03  0.25500000920E-02 0. -1.
       -2   -1    0    0    0  501  0.00000000000E+00  0.00000000000E+00 -0.54513936243E+03  0.54513936243E+03  0.25500000920E-02 0.  1.
    10030    2    1    2    0    0  0.00000000000E+00  0.00000000000E+00  0.35455244863E+03  0.14448311735E+04  0.14006533051E+04 0.  0.
        4    1    3    3  502    0 -0.16481511983E+03  0.67967307374E+03  0.13956784518E+03  0.71316218856E+03  0.12699999809E+01 0.  1.
       -4    1    3    3    0  502  0.16481511983E+03 -0.67967307374E+03  0.21498460344E+03  0.73166898493E+03  0.12699999809E+01 0. -1.
</event>
<event>
 5   0  0.4621450E-05  0.1399813E+04  0.7818609E-02  0.8953954E-01
       -2   -1    0    0    0  501  0.00000000000E+00  0.00000000000E+00  0.40808472568E+03  0.40808472569E+03  0.25500000920E-02 0. -1.
        2   -1    0    0  501    0  0.00000000000E+00  0.00000000000E+00 -0.12004106633E+04  0.12004106633E+04  0.25500000920E-02 0.  1.
    10030    2    1    2    0    0  0.00000000000E+00  0.00000000000E+00 -0.79232593762E+03  0.16084953890E+04  0.13998132108E+04 0.  0.
        5    1    3    3  502    0 -0.23630880793E+02  0.55911727126E+03  0.86828299267E+02  0.56633186834E+03  0.46999998093E+01 0. -1.
       -5    1    3    3    0  502  0.23630880793E+02 -0.55911727126E+03 -0.87915423689E+03  0.10421635207E+04  0.46999998093E+01 0.  1.
</event>
<event>
 5   0  0.4621450E-05  0.1399844E+04  0.7818609E-02  0.8953932E-01
        2   -1    0    0  501    0  0.00000000000E+00  0.00000000000E+00  0.93467517357E+03  0.93467517358E+03  0.25500000920E-02 0. -1.
       -2   -1    0    0    0  501  0.00000000000E+00  0.00000000000E+00 -0.52412943105E+03  0.52412943106E+03  0.25500000920E-02 0.  1.
    10030    2    1    2    0    0  0.00000000000E+00  0.00000000000E+00  0.41054574252E+03  0.14588046046E+04  0.13998439441E+04 0.  0.
        5    1    3    3  502    0  0.21089336942E+03  0.65144254117E+03  0.35634525614E+03  0.77191801979E+03  0.46999998093E+01 0. -1.
       -5    1    3    3    0  502 -0.21089336942E+03 -0.65144254117E+03  0.54200486388E+02  0.68688658484E+03  0.46999998093E+01 0.  1.
</event>
<event>
 5   0  0.2428507E-05  0.1400807E+04  0.7818609E-02  0.8953235E-01
       -1   -1    0    0    0  501  0.00000000000E+00  0.00000000000E+00  0.12736907914E+04  0.12736907914E+04  0.50400001928E-02 0.  1.
        1   -1    0    0  501    0  0.00000000000E+00  0.00000000000E+00 -0.38515246509E+03  0.38515246512E+03  0.50400001928E-02 0. -1.
    10030    2    1    2    0    0  0.00000000000E+00  0.00000000000E+00  0.88853832627E+03  0.16588432565E+04  0.14008071218E+04 0.  0.
        4    1    3    3  502    0 -0.13537496837E+03  0.31679400340E+02  0.12571841321E+04  0.12648492089E+04  0.12699999809E+01 0.  1.
       -4    1    3    3    0  502  0.13537496837E+03 -0.31679400340E+02 -0.36864580582E+03  0.39399404756E+03  0.12699999809E+01 0. -1.
</event>
<event>
 5   0  0.2428507E-05  0.1399127E+04  0.7818609E-02  0.8954451E-01
        1   -1    0    0  501    0  0.00000000000E+00  0.00000000000E+00  0.27182784682E+04  0.27182784682E+04  0.50400001928E-02 0.  1.
       -1   -1    0    0    0  501  0.00000000000E+00  0.00000000000E+00 -0.18003641114E+03  0.18003641121E+03  0.50400001928E-02 0. -1.
    10030    2    1    2    0    0  0.00000000000E+00  0.00000000000E+00  0.25382420570E+04  0.28983148794E+04  0.13991270135E+04 0.  0.
        4    1    3    3  502    0  0.37818595220E+03  0.58851255942E+03  0.12773655778E+04  0.14563777254E+04  0.12699999809E+01 0. -1.
       -4    1    3    3    0  502 -0.37818595220E+03 -0.58851255942E+03  0.12608764793E+04  0.14419371540E+04  0.12699999809E+01 0.  1.
</event>
<event>
 5   0  0.2427569E-05  0.1399594E+04  0.7818609E-02  0.8954113E-01
        1   -1    0    0  501    0  0.00000000000E+00  0.00000000000E+00  0.12317690873E+04  0.12317690873E+04  0.50400001928E-02 0. -1.
       -1   -1    0    0    0  501  0.00000000000E+00  0.00000000000E+00 -0.39757096177E+03  0.39757096181E+03  0.50400001928E-02 0.  1.
    10030    2    1    2    0    0  0.00000000000E+00  0.00000000000E+00  0.83419812554E+03  0.16293400491E+04  0.13995936850E+04 0.  0.
        1    1    3    3  502    0  0.66398897638E+03  0.36940375145E+02  0.67073912935E+03  0.94453000573E+03  0.50400001928E-02 0.  1.
       -1    1    3    3    0  502 -0.66398897638E+03 -0.36940375145E+02  0.16345899619E+03  0.68481004339E+03  0.50400001928E-02 0. -1.
</event>
<event>
 5   0  0.4621450E-05  0.1399258E+04  0.7818609E-02  0.8954356E-01
       -2   -1    0    0    0  501  0.00000000000E+00  0.00000000000E+00  0.42932344276E+03  0.42932344277E+03  0.25500000920E-02 0.  1.
        2   -1    0    0  501    0  0.00000000000E+00  0.00000000000E+00 -0.11401208720E+04  0.11401208720E+04  0.25500000920E-02 0. -1.
    10030    2    1    2    0    0  0.00000000000E+00  0.00000000000E+00 -0.71079742927E+03  0.15694443148E+04  0.13992578289E+04 0.  0.
        5    1    3    3  502    0  0.37549822793E+03  0.44154509487E+03  0.84040563589E+02  0.58570120053E+03  0.46999998093E+01 0.  1.
       -5    1    3    3    0  502 -0.37549822793E+03 -0.44154509487E+03 -0.79483799286E+03  0.98374311427E+03  0.46999998093E+01 0. -1.
</event>
<event>
 5   0  0.4527503E-05  0.1399930E+04  0.7818609E-02  0.8953869E-01
       -2   -1    0    0    0  501  0.00000000000E+00  0.00000000000E+00  0.30863727830E+03  0.30863727831E+03  0.25500000920E-02 0.  1.
        2   -1    0    0  501    0  0.00000000000E+00  0.00000000000E+00 -0.15874659716E+04  0.15874659716E+04  0.25500000920E-02 0. -1.
    10030    2    1    2    0    0  0.00000000000E+00  0.00000000000E+00 -0.12788286933E+04  0.18961032499E+04  0.13999302510E+04 0.  0.
        4    1    3    3  502    0 -0.14780693813E+02  0.66830930335E+03 -0.92058036431E+03  0.11376843208E+04  0.12699999809E+01 0.  1.
       -4    1    3    3    0  502  0.14780693813E+02 -0.66830930335E+03 -0.35824832901E+03  0.75841892908E+03  0.12699999809E+01 0. -1.
</event>
<event>
 5   0  0.4460282E-05  0.1400980E+04  0.7818609E-02  0.8953109E-01
       -2   -1    0    0    0  501  0.00000000000E+00  0.00000000000E+00  0.25430031114E+03  0.25430031116E+03  0.25500000920E-02 0. -1.
        2   -1    0    0  501    0  0.00000000000E+00  0.00000000000E+00 -0.19295546889E+04  0.19295546889E+04  0.25500000920E-02 0.  1.
    10030    2    1    2    0    0  0.00000000000E+00  0.00000000000E+00 -0.16752543778E+04  0.21838550001E+04  0.14009801680E+04 0.  0.
        1    1    3    3  502    0  0.36442433847E+03 -0.57000979617E+03 -0.55458453449E+03  0.87480299046E+03  0.50400001928E-02 0.  1.
       -1    1    3    3    0  502 -0.36442433847E+03  0.57000979617E+03 -0.11206698433E+04  0.13090520096E+04  0.50400001928E-02 0. -1.
</event>
<event>
 5   0  0.4460282E-05  0.1400600E+04  0.7818609E-02  0.8953384E-01
        2   -1    0    0  501    0  0.00000000000E+00  0.00000000000E+00  0.12940967276E+04  0.12940967276E+04  0.25500000920E-02 0. -1.
       -2   -1    0    0    0  501  0.00000000000E+00  0.00000000000E+00 -0.37896715739E+03  0.37896715740E+03  0.25500000920E-02 0.  1.
    10030    2    1    2    0    0  0.00000000000E+00  0.00000000000E+00  0.91512957023E+03  0.16730638850E+04  0.14006000975E+04 0.  0.
        1    1    3    3  502    0 -0.23658664907E+03  0.43855183602E+03 -0.13021275910E+03  0.51503040498E+03  0.50400001928E-02 0.  1.
       -1    1    3    3    0  502  0.23658664907E+03 -0.43855183602E+03  0.10453423293E+04  0.11580334801E+04  0.50400001928E-02 0. -1.
</event>
<event>
 5   0  0.2363419E-05  0.1402220E+04  0.7818609E-02  0.8952213E-01
        1   -1    0    0  501    0  0.00000000000E+00  0.00000000000E+00  0.81137748826E+03  0.81137748827E+03  0.50400001928E-02 0.  1.
       -1   -1    0    0    0  501  0.00000000000E+00  0.00000000000E+00 -0.60582789412E+03  0.60582789414E+03  0.50400001928E-02 0. -1.
    10030    2    1    2    0    0  0.00000000000E+00  0.00000000000E+00  0.20554959414E+03  0.14172053824E+04  0.14022198331E+04 0.  0.
        2    1    3    3  502    0 -0.91271175517E+02 -0.38781456842E+02 -0.59870365623E+03  0.60686118418E+03  0.25500000920E-02 0. -1.
       -2    1    3    3    0  502  0.91271175517E+02  0.38781456842E+02  0.80425325037E+03  0.81034419823E+03  0.25500000920E-02 0.  1.
</event>
<event>
 5   0  0.2316714E-05  0.1395303E+04  0.7818609E-02  0.8957226E-01
       -1   -1    0    0    0  501  0.00000000000E+00  0.00000000000E+00  0.40303480149E+03  0.40303480152E+03  0.50400001928E-02 0. -1.
        1   -1    0    0  501    0  0.00000000000E+00  0.00000000000E+00 -0.12076310108E+04  0.12076310108E+04  0.50400001928E-02 0.  1.
    10030    2    1    2    0    0  0.00000000000E+00  0.00000000000E+00 -0.80459620926E+03  0.16106658123E+04  0.13953025833E+04 0.  0.
        5    1    3    3  502    0 -0.23593053376E+03  0.30924265000E+03 -0.10708255168E+04  0.11392908368E+04  0.46999998093E+01 0.  1.
       -5    1    3    3    0  502  0.23593053376E+03 -0.30924265000E+03  0.26622930754E+03  0.47137497551E+03  0.46999998093E+01 0. -1.
</event>
<event>
 5   0  0.4621450E-05  0.1400284E+04  0.7818609E-02  0.8953613E-01
        2   -1    0    0  501    0  0.00000000000E+00  0.00000000000E+00  0.18684169799E+04  0.18684169799E+04  0.25500000920E-02 0. -1.
       -2   -1    0    0    0  501  0.00000000000E+00  0.00000000000E+00 -0.26236068527E+03  0.26236068528E+03  0.25500000920E-02 0.  1.
    10030    2    1    2    0    0  0.00000000000E+00  0.00000000000E+00  0.16060562946E+04  0.21307776652E+04  0.14002844843E+04 0.  0.
        5    1    3    3  502    0  0.49074331362E+03  0.21362448778E+03  0.11622724703E+03  0.54771825293E+03  0.46999998093E+01 0.  1.
       -5    1    3    3    0  502 -0.49074331362E+03 -0.21362448778E+03  0.14898290476E+04  0.15830594123E+04  0.46999998093E+01 0. -1.
</event>
<event>
 5   0  0.2428507E-05  0.1400526E+04  0.7818609E-02  0.8953438E-01
        1   -1    0    0  501    0  0.00000000000E+00  0.00000000000E+00  0.95823197043E+03  0.95823197044E+03  0.50400001928E-02 0. -1.
       -1   -1    0    0    0  501  0.00000000000E+00  0.00000000000E+00 -0.51174299820E+03  0.51174299822E+03  0.50400001928E-02 0.  1.
    10030    2    1    2    0    0  0.00000000000E+00  0.00000000000E+00  0.44648897223E+03  0.14699749687E+04  0.14005263318E+04 0.  0.
        4    1    3    3  502    0  0.37603824399E+02  0.66665889349E+03  0.17870874297E+01  0.66772219857E+03  0.12699999809E+01 0.  1.
       -4    1    3    3    0  502 -0.37603824399E+02 -0.66665889349E+03  0.44470188480E+03  0.80225277010E+03  0.12699999809E+01 0. -1.
</event>
<event>
 5   0  0.4243281E-05  0.1399962E+04  0.7818609E-02  0.8953846E-01
        2   -1    0    0  501    0  0.00000000000E+00  0.00000000000E+00  0.41705817577E+03  0.41705817578E+03  0.25500000920E-02 0. -1.
       -2   -1    0    0    0  501  0.00000000000E+00  0.00000000000E+00 -0.11748322541E+04  0.11748322541E+04  0.25500000920E-02 0.  1.
    10030    2    1    2    0    0  0.00000000000E+00  0.00000000000E+00 -0.75777407837E+03  0.15918904299E+04  0.13999619948E+04 0.  0.
        2    1    3    3  502    0  0.76412218251E+02  0.21322055097E+03  0.37423727471E+03  0.43744184555E+03  0.25500000920E-02 0. -1.
       -2    1    3    3    0  502 -0.76412218251E+02 -0.21322055097E+03 -0.11320113531E+04  0.11544485844E+04  0.25500000920E-02 0.  1.
</event>
<event>
 5   0  0.2427569E-05  0.1400059E+04  0.7818609E-02  0.8953776E-01
        1   -1    0    0  501    0  0.00000000000E+00  0.00000000000E+00  0.95587166579E+03  0.95587166580E+03  0.50400001928E-02 0. -1.
       -1   -1    0    0    0  501  0.00000000000E+00  0.00000000000E+00 -0.51266402110E+03  0.51266402112E+03  0.50400001928E-02 0.  1.
    10030    2    1    2    0    0  0.00000000000E+00  0.00000000000E+00  0.44320764469E+03  0.14685356869E+04  0.14000585872E+04 0.  0.
        1    1    3    3  502    0 -0.99185541022E+02  0.37406537037E+03  0.83346859118E+03  0.91893011996E+03  0.50400001928E-02 0. -1.
       -1    1    3    3    0  502  0.99185541022E+02 -0.37406537037E+03 -0.39026094649E+03  0.54960556697E+03  0.50400001928E-02 0.  1.
</event>
<event>
 5   0  0.4441253E-05  0.1402160E+04  0.7818609E-02  0.8952257E-01
        2   -1    0    0  501    0  0.00000000000E+00  0.00000000000E+00  0.11540161751E+04  0.11540161751E+04  0.25500000920E-02 0. -1.
       -2   -1    0    0    0  501  0.00000000000E+00  0.00000000000E+00 -0.42591511537E+03  0.42591511537E+03  0.25500000920E-02 0.  1.
    10030    2    1    2    0    0  0.00000000000E+00  0.00000000000E+00  0.72810105973E+03  0.15799312905E+04  0.14021596662E+04 0.  0.
        3    1    3    3  502    0  0.21696561099E+03  0.50688282926E+01  0.11152135199E+04  0.11361342238E+04  0.10100000352E+00 0. -1.
       -3    1    3    3    0  502 -0.21696561099E+03 -0.50688282926E+01 -0.38711246016E+03  0.44379706666E+03  0.10100000352E+00 0.  1.
</event>
<event>
 5   0  0.4621450E-05  0.1399374E+04  0.7818609E-02  0.8954272E-01
        2   -1    0    0  501    0  0.00000000000E+00  0.00000000000E+00  0.11285407773E+04  0.11285407773E+04  0.25500000920E-02 0.  1.
       -2   -1    0    0    0  501  0.00000000000E+00  0.00000000000E+00 -0.43380080427E+03  0.43380080427E+03  0.25500000920E-02 0. -1.
    10030    2    1    2    0    0  0.00000000000E+00  0.00000000000E+00  0.69473997301E+03  0.15623415816E+04  0.13993739984E+04 0.  0.
        5    1    3    3  502    0  0.47941305075E+03 -0.42445575582E+03  0.66224315444E+03  0.92118817160E+03  0.46999998093E+01 0.  1.
       -5    1    3    3    0  502 -0.47941305075E+03  0.42445575582E+03  0.32496818567E+02  0.64115340996E+03  0.46999998093E+01 0. -1.
</event>
<event>
 5   0  0.2427569E-05  0.1399285E+04  0.7818609E-02  0.8954336E-01
       -1   -1    0    0    0  501  0.00000000000E+00  0.00000000000E+00  0.50727902496E+03  0.50727902499E+03  0.50400001928E-02 0. -1.
        1   -1    0    0  501    0  0.00000000000E+00  0.00000000000E+00 -0.96495146867E+03  0.96495146868E+03  0.50400001928E-02 0.  1.
    10030    2    1    2    0    0  0.00000000000E+00  0.00000000000E+00 -0.45767244371E+03  0.14722304937E+04  0.13992850177E+04 0.  0.
        1    1    3    3  502    0  0.35942934355E+03  0.52259161212E+03  0.81868799018E+02  0.63952634531E+03  0.50400001928E-02 0. -1.
       -1    1    3    3    0  502 -0.35942934355E+03 -0.52259161212E+03 -0.53954124272E+03  0.83270414836E+03  0.50400001928E-02 0.  1.
</event>
<event>
 5   0  0.2428507E-05  0.1401295E+04  0.7818609E-02  0.8952882E-01
        1   -1    0    0  501    0  0.00000000000E+00  0.00000000000E+00  0.29999049975E+03  0.29999049979E+03  0.50400001928E-02 0. -1.
       -1   -1    0    0    0  501  0.00000000000E+00  0.00000000000E+00 -0.16364085847E+04  0.16364085847E+04  0.50400001928E-02 0.  1.
    10030    2    1    2    0    0  0.00000000000E+00  0.00000000000E+00 -0.13364180849E+04  0.19363990845E+04  0.14012951569E+04 0.  0.
        4    1    3    3  502    0 -0.29213789581E+03 -0.55817840079E+03 -0.10918753730E+04  0.12605955419E+04  0.12699999809E+01 0. -1.
       -4    1    3    3    0  502  0.29213789581E+03  0.55817840079E+03 -0.24454271196E+03  0.67580354257E+03  0.12699999809E+01 0.  1.
</event>
<event>
 5   0  0.2316714E-05  0.1399683E+04  0.7818609E-02  0.8954048E-01
        1   -1    0    0  501    0  0.00000000000E+00  0.00000000000E+00  0.10905746074E+04  0.10905746075E+04  0.50400001928E-02 0. -1.
       -1   -1    0    0    0  501  0.00000000000E+00  0.00000000000E+00 -0.44910070074E+03  0.44910070077E+03  0.50400001928E-02 0.  1.
    10030    2    1    2    0    0  0.00000000000E+00  0.00000000000E+00  0.64147390671E+03  0.15396753082E+04  0.13996825646E+04 0.  0.
        5    1    3    3  502    0 -0.14747764165E+03  0.44915857452E+03  0.88835306953E+03  0.10063231817E+04  0.46999998093E+01 0.  1.
       -5    1    3    3    0  502  0.14747764165E+03 -0.44915857452E+03 -0.24687916282E+03  0.53335212654E+03  0.46999998093E+01 0. -1.
</event>
<event>
 5   0  0.2316714E-05  0.1399775E+04  0.7818609E-02  0.8953981E-01
       -1   -1    0    0    0  501  0.00000000000E+00  0.00000000000E+00  0.41171065460E+03  0.41171065463E+03  0.50400001928E-02 0.  1.
        1   -1    0    0  501    0  0.00000000000E+00  0.00000000000E+00 -0.11897743686E+04  0.11897743686E+04  0.50400001928E-02 0. -1.
    10030    2    1    2    0    0  0.00000000000E+00  0.00000000000E+00 -0.77806371401E+03  0.16014850233E+04  0.13997753879E+04 0.  0.
        5    1    3    3  502    0 -0.10700899156E+03  0.41631386518E+03  0.24287322489E+03  0.49373844491E+03  0.46999998093E+01 0.  1.
       -5    1    3    3    0  502  0.10700899156E+03 -0.41631386518E+03 -0.10209369389E+04  0.11077465783E+04  0.46999998093E+01 0. -1.
</event>
<event>
 5   0  0.4621450E-05  0.1401459E+04  0.7818609E-02  0.8952763E-01
        2   -1    0    0  501    0  0.00000000000E+00  0.00000000000E+00  0.28011277956E+04  0.28011277956E+04  0.25500000920E-02 0. -1.
       -2   -1    0    0    0  501  0.00000000000E+00  0.00000000000E+00 -0.17529422963E+03  0.17529422965E+03  0.25500000920E-02 0.  1.
    10030    2    1    2    0    0  0.00000000000E+00  0.00000000000E+00  0.26258335659E+04  0.29764220252E+04  0.14014585817E+04 0.  0.
        5    1    3    3  502    0 -0.56037969353E+03 -0.21864032673E+03  0.20762177949E+04  0.21616038988E+04  0.46999998093E+01 0. -1.
       -5    1    3    3    0  502  0.56037969353E+03  0.21864032673E+03  0.54961577104E+03  0.81481812644E+03  0.46999998093E+01 0.  1.
</event>
<event>
 5   0  0.4621450E-05  0.1399906E+04  0.7818609E-02  0.8953887E-01
       -2   -1    0    0    0  501  0.00000000000E+00  0.00000000000E+00  0.25415434120E+03  0.25415434122E+03  0.25500000920E-02 0.  1.
        2   -1    0    0  501    0  0.00000000000E+00  0.00000000000E+00 -0.19277035407E+04  0.19277035407E+04  0.25500000920E-02 0. -1.
    10030    2    1    2    0    0  0.00000000000E+00  0.00000000000E+00 -0.16735491995E+04  0.21818578819E+04  0.13999060303E+04 0.  0.
        5    1    3    3  502    0  0.62138196882E+03 -0.30370693652E+03 -0.66921023068E+03  0.96240213908E+03  0.46999998093E+01 0.  1.
       -5    1    3    3    0  502 -0.62138196882E+03  0.30370693652E+03 -0.10043389688E+04  0.12194557428E+04  0.46999998093E+01 0. -1.
</event>
<event>
 5   0  0.4441253E-05  0.1399796E+04  0.7818609E-02  0.8953966E-01
        2   -1    0    0  501    0  0.00000000000E+00  0.00000000000E+00  0.98515653584E+03  0.98515653585E+03  0.25500000920E-02 0.  1.
       -2   -1    0    0    0  501  0.00000000000E+00  0.00000000000E+00 -0.49723771963E+03  0.49723771963E+03  0.25500000920E-02 0. -1.
    10030    2    1    2    0    0  0.00000000000E+00  0.00000000000E+00  0.48791881621E+03  0.14823942555E+04  0.13997956842E+04 0.  0.
        3    1    3    3  502    0 -0.25475972149E+03  0.49275846385E+03 -0.20800681856E+03  0.59243587515E+03  0.10100000352E+00 0. -1.
       -3    1    3    3    0  502  0.25475972149E+03 -0.49275846385E+03  0.69592563477E+03  0.88995838033E+03  0.10100000352E+00 0.  1.
</event>
<event>
 5   0  0.4621450E-05  0.1400557E+04  0.7818609E-02  0.8953416E-01
        2   -1    0    0  501    0  0.00000000000E+00  0.00000000000E+00  0.42480707247E+03  0.42480707247E+03  0.25500000920E-02 0. -1.
       -2   -1    0    0    0  501  0.00000000000E+00  0.00000000000E+00 -0.11543821154E+04  0.11543821154E+04  0.25500000920E-02 0.  1.
    10030    2    1    2    0    0  0.00000000000E+00  0.00000000000E+00 -0.72957504290E+03  0.15791891878E+04  0.14005565850E+04 0.  0.
        5    1    3    3  502    0  0.63113300478E+02 -0.68917112809E+03 -0.24425383436E+03  0.73390882137E+03  0.46999998093E+01 0. -1.
       -5    1    3    3    0  502 -0.63113300478E+02  0.68917112809E+03 -0.48532120854E+03  0.84528036647E+03  0.46999998093E+01 0.  1.
</event>
<event>
 5   0  0.2363419E-05  0.1400064E+04  0.7818609E-02  0.8953773E-01
       -1   -1    0    0    0  501  0.00000000000E+00  0.00000000000E+00  0.10487696772E+04  0.10487696772E+04  0.50400001928E-02 0.  1.
        1   -1    0    0  501    0  0.00000000000E+00  0.00000000000E+00 -0.46725655665E+03  0.46725655667E+03  0.50400001928E-02 0. -1.
    10030    2    1    2    0    0  0.00000000000E+00  0.00000000000E+00  0.58151312052E+03  0.15160262339E+04  0.14000635816E+04 0.  0.
        2    1    3    3  502    0  0.59669376209E+03  0.12825636717E+02  0.68689441847E+03  0.90996257330E+03  0.25500000920E-02 0.  1.
       -2    1    3    3    0  502 -0.59669376209E+03 -0.12825636717E+02 -0.10538129795E+03  0.60606366055E+03  0.25500000920E-02 0. -1.
</event>
<event>
 5   0  0.4441253E-05  0.1400198E+04  0.7818609E-02  0.8953675E-01
       -2   -1    0    0    0  501  0.00000000000E+00  0.00000000000E+00  0.96126978525E+03  0.96126978526E+03  0.25500000920E-02 0.  1.
        2   -1    0    0  501    0  0.00000000000E+00  0.00000000000E+00 -0.50988696648E+03  0.50988696649E+03  0.25500000920E-02 0. -1.
    10030    2    1    2    0    0  0.00000000000E+00  0.00000000000E+00  0.45138281877E+03  0.14711567517E+04  0.14001984642E+04 0.  0.
        3    1    3    3  502    0  0.39758089251E+03  0.11256654634E+03 -0.36810129559E+03  0.55338988738E+03  0.10100000352E+00 0. -1.
       -3    1    3    3    0  502 -0.39758089251E+03 -0.11256654634E+03  0.81948411436E+03  0.91776686437E+03  0.10100000352E+00 0.  1.
</event>
<event>
 5   0  0.4243281E-05  0.1400180E+04  0.7818609E-02  0.8953688E-01
        2   -1    0    0  501    0  0.00000000000E+00  0.00000000000E+00  0.48761425461E+03  0.48761425462E+03  0.25500000920E-02 0.  1.
       -2   -1    0    0    0  501  0.00000000000E+00  0.00000000000E+00 -0.10051508400E+04  0.10051508400E+04  0.25500000920E-02 0. -1.
    10030    2    1    2    0    0  0.00000000000E+00  0.00000000000E+00 -0.51753658541E+03  0.14927650947E+04  0.14001798137E+04 0.  0.
        2    1    3    3  502    0 -0.50586085452E+03  0.16341033191E+03 -0.74444327646E+03  0.91476441371E+03  0.25500000920E-02 0. -1.
       -2    1    3    3    0  502  0.50586085452E+03 -0.16341033191E+03  0.22690669105E+03  0.57800068094E+03  0.25500000920E-02 0.  1.
</event>
<event>
 5   0  0.4441253E-05  0.1398944E+04  0.7818609E-02  0.8954583E-01
       -2   -1    0    0    0  501  0.00000000000E+00  0.00000000000E+00  0.64362135603E+03  0.64362135604E+03  0.25500000920E-02 0.  1.
        2   -1    0    0  501    0  0.00000000000E+00  0.00000000000E+00 -0.76016893112E+03  0.76016893112E+03  0.25500000920E-02 0. -1.
    10030    2    1    2    0    0  0.00000000000E+00  0.00000000000E+00 -0.11654757509E+03  0.14037902872E+04  0.13989438277E+04 0.  0.
        3    1    3    3  502    0 -0.46904873139E+03  0.58181665790E+02  0.45913751748E+03  0.65893784898E+03  0.10100000352E+00 0.  1.
       -3    1    3    3    0  502  0.46904873139E+03 -0.58181665790E+02 -0.57568509257E+03  0.74485243818E+03  0.10100000352E+00 0. -1.
</event>
<event>
 5   0  0.2363419E-05  0.1400527E+04  0.7818609E-02  0.8953437E-01
        1   -1    0    0  501    0  0.00000000000E+00  0.00000000000E+00  0.59576540315E+03  0.59576540318E+03  0.50400001928E-02 0. -1.
       -1   -1    0    0    0  501  0.00000000000E+00  0.00000000000E+00 -0.82309060328E+03  0.82309060329E+03  0.50400001928E-02 0.  1.
    10030    2    1    2    0    0  0.00000000000E+00  0.00000000000E+00 -0.22732520012E+03  0.14188560065E+04  0.14005269082E+04 0.  0.
        2    1    3    3  502    0 -0.60287553307E+03  0.34732180243E+03 -0.33394611284E+02  0.69656768723E+03  0.25500000920E-02 0. -1.
       -2    1    3    3    0  502  0.60287553307E+03 -0.34732180243E+03 -0.19393058884E+03  0.72228831924E+03  0.25500000920E-02 0.  1.
</event>
<event>
 5   0  0.4243281E-05  0.1400032E+04  0.7818609E-02  0.8953796E-01
        2   -1    0    0  501    0  0.00000000000E+00  0.00000000000E+00  0.70318424600E+03  0.70318424600E+03  0.25500000920E-02 0.  1.
       -2   -1    0    0    0  501  0.00000000000E+00  0.00000000000E+00 -0.69686164256E+03  0.69686164256E+03  0.25500000920E-02 0. -1.
    10030    2    1    2    0    0  0.00000000000E+00  0.00000000000E+00  0.63226034399E+01  0.14000458886E+04  0.14000316121E+04 0.  0.
        2    1    3    3  502    0  0.54108696151E+03  0.25515475259E+03  0.36667990649E+03  0.70166459332E+03  0.25500000920E-02 0.  1.
       -2    1    3    3    0  502 -0.54108696151E+03 -0.25515475259E+03 -0.36035730305E+03  0.69838129525E+03  0.25500000920E-02 0. -1.
</event>
<event>
 5   0  0.2428507E-05  0.1399997E+04  0.7818609E-02  0.8953820E-01
        1   -1    0    0  501    0  0.00000000000E+00  0.00000000000E+00  0.99324665509E+03  0.99324665510E+03  0.50400001928E-02 0. -1.
       -1   -1    0    0    0  501  0.00000000000E+00  0.00000000000E+00 -0.49332977700E+03  0.49332977703E+03  0.50400001928E-02 0.  1.
    10030    2    1    2    0    0  0.00000000000E+00  0.00000000000E+00  0.49991687809E+03  0.14865764321E+04  0.13999973584E+04 0.  0.
        4    1    3    3  502    0 -0.52325818340E+03 -0.45986193529E+03  0.17697338938E+03  0.71874426569E+03  0.12699999809E+01 0.  1.
       -4    1    3    3    0  502  0.52325818340E+03  0.45986193529E+03  0.32294348871E+03  0.76783216644E+03  0.12699999809E+01 0. -1.
</event>
<event>
 5   0  0.2428507E-05  0.1398295E+04  0.7818609E-02  0.8955054E-01
        1   -1    0    0  501    0  0.00000000000E+00  0.00000000000E+00  0.12241092867E+04  0.12241092867E+04  0.50400001928E-02 0. -1.
       -1   -1    0    0    0  501  0.00000000000E+00  0.00000000000E+00 -0.39931653332E+03  0.39931653335E+03  0.50400001928E-02 0.  1.
    10030    2    1    2    0    0  0.00000000000E+00  0.00000000000E+00  0.82479275334E+03  0.16234258200E+04  0.13982947855E+04 0.  0.
        4    1    3    3  502    0  0.53867901665E+03  0.26621231899E+03 -0.25896864191E+01  0.60087636094E+03  0.12699999809E+01 0.  1.
       -4    1    3    3    0  502 -0.53867901665E+03 -0.26621231899E+03  0.82738243975E+03  0.10225494591E+04  0.12699999809E+01 0. -1.
</event>
<event>
 5   0  0.4527503E-05  0.1400019E+04  0.7818609E-02  0.8953805E-01
       -2   -1    0    0    0  501  0.00000000000E+00  0.00000000000E+00  0.23565773983E+03  0.23565773984E+03  0.25500000920E-02 0. -1.
        2   -1    0    0  501    0  0.00000000000E+00  0.00000000000E+00 -0.20793431059E+04  0.20793431059E+04  0.25500000920E-02 0.  1.
    10030    2    1    2    0    0  0.00000000000E+00  0.00000000000E+00 -0.18436853660E+04  0.23150008457E+04  0.14000189951E+04 0.  0.
        4    1    3    3  502    0 -0.32158593873E+03  0.38589481473E+03 -0.11569806230E+03  0.51548033769E+03  0.12699999809E+01 0. -1.
       -4    1    3    3    0  502  0.32158593873E+03 -0.38589481473E+03 -0.17279873037E+04  0.17995205080E+04  0.12699999809E+01 0.  1.
</event>
<event>
 5   0  0.2467303E-05  0.1400022E+04  0.7818609E-02  0.8953803E-01
       -1   -1    0    0    0  501  0.00000000000E+00  0.00000000000E+00  0.28346271933E+03  0.28346271937E+03  0.50400001928E-02 0.  1.
        1   -1    0    0  501    0  0.00000000000E+00  0.00000000000E+00 -0.17286769105E+04  0.17286769105E+04  0.50400001928E-02 0. -1.
    10030    2    1    2    0    0  0.00000000000E+00  0.00000000000E+00 -0.14452141912E+04  0.20121396299E+04  0.14000220826E+04 0.  0.
        3    1    3    3  502    0 -0.45781220853E+03 -0.24495628352E+03 -0.13973659291E+04  0.14907136375E+04  0.10100000352E+00 0. -1.
       -3    1    3    3    0  502  0.45781220853E+03  0.24495628352E+03 -0.47848262084E+02  0.52142599236E+03  0.10100000352E+00 0.  1.
</event>
<event>
 5   0  0.2363419E-05  0.1400155E+04  0.7818609E-02  0.8953706E-01
        1   -1    0    0  501    0  0.00000000000E+00  0.00000000000E+00  0.78363051064E+03  0.78363051065E+03  0.50400001928E-02 0.  1.
       -1   -1    0    0    0  501  0.00000000000E+00  0.00000000000E+00 -0.62543333979E+03  0.62543333981E+03  0.50400001928E-02 0. -1.
    10030    2    1    2    0    0  0.00000000000E+00  0.00000000000E+00  0.15819717084E+03  0.14090638505E+04  0.14001552021E+04 0.  0.
        2    1    3    3  502    0 -0.32822112385E+03 -0.27369255978E+02  0.70079163672E+03  0.77433009784E+03  0.25500000920E-02 0.  1.
       -2    1    3    3    0  502  0.32822112385E+03  0.27369255978E+02 -0.54259446588E+03  0.63473375263E+03  0.25500000920E-02 0. -1.
</event>
<event>
 5   0  0.4441253E-05  0.1399165E+04  0.7818609E-02  0.8954423E-01
        2   -1    0    0  501    0  0.00000000000E+00  0.00000000000E+00  0.52967854513E+03  0.52967854513E+03  0.25500000920E-02 0. -1.
       -2   -1    0    0    0  501  0.00000000000E+00  0.00000000000E+00 -0.92398684084E+03  0.92398684085E+03  0.25500000920E-02 0.  1.
    10030    2    1    2    0    0  0.00000000000E+00  0.00000000000E+00 -0.39430829572E+03  0.14536653860E+04  0.13991654735E+04 0.  0.
        3    1    3    3  502    0 -0.26224738058E+03 -0.20052206125E+03 -0.83797196802E+03  0.90065521430E+03  0.10100000352E+00 0.  1.
       -3    1    3    3    0  502  0.26224738058E+03  0.20052206125E+03  0.44366367230E+03  0.55301017168E+03  0.10100000352E+00 0. -1.
</event>
<event>
 5   0  0.4441253E-05  0.1399896E+04  0.7818609E-02  0.8953894E-01
       -2   -1    0    0    0  501  0.00000000000E+00  0.00000000000E+00  0.42434044530E+03  0.42434044531E+03  0.25500000920E-02 0. -1.
        2   -1    0    0  501    0  0.00000000000E+00  0.00000000000E+00 -0.11545612460E+04  0.11545612460E+04  0.25500000920E-02 0.  1.
    10030    2    1    2    0    0  0.00000000000E+00  0.00000000000E+00 -0.73022080069E+03  0.15789016913E+04  0.13998957579E+04 0.  0.
        3    1    3    3  502    0  0.16829522370E+03 -0.25230179947E+03  0.34638534289E+03  0.46039363191E+03  0.10100000352E+00 0. -1.
       -3    1    3    3    0  502 -0.16829522370E+03  0.25230179947E+03 -0.10766061436E+04  0.11185080594E+04  0.10100000352E+00 0.  1.
</event>
<event>
 5   0  0.4243281E-05  0.1399582E+04  0.7818609E-02  0.8954121E-01
       -2   -1    0    0    0  501  0.00000000000E+00  0.00000000000E+00  0.13177114785E+04  0.13177114785E+04  0.25500000920E-02 0.  1.
        2   -1    0    0  501    0  0.00000000000E+00  0.00000000000E+00 -0.37163485132E+03  0.37163485133E+03  0.25500000920E-02 0. -1.
    10030    2    1    2    0    0  0.00000000000E+00  0.00000000000E+00  0.94607662715E+03  0.16893463298E+04  0.13995820939E+04 0.  0.
        2    1    3    3  502    0  0.35756819712E+03 -0.59946097937E+03  0.41269823424E+03  0.81088119594E+03  0.25500000920E-02 0. -1.
       -2    1    3    3    0  502 -0.35756819712E+03  0.59946097937E+03  0.53337839291E+03  0.87846513387E+03  0.25500000920E-02 0.  1.
</event>
<event>
 5   0  0.2427569E-05  0.1400600E+04  0.7818609E-02  0.8953384E-01
        1   -1    0    0  501    0  0.00000000000E+00  0.00000000000E+00  0.15352807533E+04  0.15352807533E+04  0.50400001928E-02 0.  1.
       -1   -1    0    0    0  501  0.00000000000E+00  0.00000000000E+00 -0.31943348572E+03  0.31943348576E+03  0.50400001928E-02 0. -1.
    10030    2    1    2    0    0  0.00000000000E+00  0.00000000000E+00  0.12158472675E+04  0.18547142390E+04  0.14005999895E+04 0.  0.
        1    1    3    3  502    0  0.15131981940E+02  0.54133797793E+03  0.19953861854E+02  0.54191691232E+03  0.50400001928E-02 0. -1.
       -1    1    3    3    0  502 -0.15131981940E+02 -0.54133797793E+03  0.11958934057E+04  0.13127973267E+04  0.50400001928E-02 0.  1.
</event>
<event>
 5   0  0.4527503E-05  0.1398543E+04  0.7818609E-02  0.8954874E-01
       -2   -1    0    0    0  501  0.00000000000E+00  0.00000000000E+00  0.73522863246E+03  0.73522863247E+03  0.25500000920E-02 0.  1.
        2   -1    0    0  501    0  0.00000000000E+00  0.00000000000E+00 -0.66507333998E+03  0.66507333998E+03  0.25500000920E-02 0. -1.
    10030    2    1    2    0    0  0.00000000000E+00  0.00000000000E+00  0.70155292486E+02  0.14003019724E+04  0.13985434741E+04 0.  0.
        4    1    3    3  502    0  0.47065738410E+03  0.15978933399E+03  0.52755822282E+03  0.72482432067E+03  0.12699999809E+01 0.  1.
       -4    1    3    3    0  502 -0.47065738410E+03 -0.15978933399E+03 -0.45740293034E+03  0.67547765178E+03  0.12699999809E+01 0. -1.
</event>
<event>
 5   0  0.2467303E-05  0.1400268E+04  0.7818609E-02  0.8953624E-01
       -1   -1    0    0    0  501  0.00000000000E+00  0.00000000000E+00  0.46117757130E+03  0.46117757133E+03  0.50400001928E-02 0. -1.
        1   -1    0    0  501    0  0.00000000000E+00  0.00000000000E+00 -0.10629049682E+04  0.10629049682E+04  0.50400001928E-02 0.  1.
    10030    2    1    2    0    0  0.00000000000E+00  0.00000000000E+00 -0.60172739692E+03  0.15240825396E+04  0.14002684483E+04 0.  0.
        3    1    3    3  502    0 -0.16196777725E+03 -0.67161863997E+03 -0.17732537700E+03  0.71326675091E+03  0.10100000352E+00 0. -1.
       -3    1    3    3    0  502  0.16196777725E+03  0.67161863997E+03 -0.42440201992E+03  0.81081578865E+03  0.10100000352E+00 0.  1.
</event>
<event>
 5   0  0.4441253E-05  0.1399316E+04  0.7818609E-02  0.8954314E-01
        2   -1    0    0  501    0  0.00000000000E+00  0.00000000000E+00  0.13936820663E+04  0.13936820664E+04  0.25500000920E-02 0.  1.
       -2   -1    0    0    0  501  0.00000000000E+00  0.00000000000E+00 -0.35124303367E+03  0.35124303368E+03  0.25500000920E-02 0. -1.
    10030    2    1    2    0    0  0.00000000000E+00  0.00000000000E+00  0.10424390327E+04  0.17449251000E+04  0.13993157141E+04 0.  0.
        3    1    3    3  502    0 -0.90325515209E+02  0.33440487446E+03 -0.23681561012E+03  0.41960333907E+03  0.10100000352E+00 0. -1.
       -3    1    3    3    0  502  0.90325515209E+02 -0.33440487446E+03  0.12792546428E+04  0.13253217610E+04  0.10100000352E+00 0.  1.
</event>
<event>
 5   0  0.4441253E-05  0.1402209E+04  0.7818609E-02  0.8952221E-01
        2   -1    0    0  501    0  0.00000000000E+00  0.00000000000E+00  0.13136461802E+04  0.13136461802E+04  0.25500000920E-02 0.  1.
       -2   -1    0    0    0  501  0.00000000000E+00  0.00000000000E+00 -0.37418586956E+03  0.37418586957E+03  0.25500000920E-02 0. -1.
    10030    2    1    2    0    0  0.00000000000E+00  0.00000000000E+00  0.93946031061E+03  0.16878320497E+04  0.14022094540E+04 0.  0.
        3    1    3    3  502    0 -0.18866666130E+03 -0.43170204912E+03 -0.15524831106E+03  0.49604819986E+03  0.10100000352E+00 0. -1.
       -3    1    3    3    0  502  0.18866666130E+03  0.43170204912E+03  0.10947086217E+04  0.11917838499E+04  0.10100000352E+00 0.  1.
</event>
<event>
 5   0  0.2428507E-05  0.1399577E+04  0.7818609E-02  0.8954125E-01
        1   -1    0    0  501    0  0.00000000000E+00  0.00000000000E+00  0.12118206086E+04  0.12118206086E+04  0.50400001928E-02 0. -1.
       -1   -1    0    0    0  501  0.00000000000E+00  0.00000000000E+00 -0.40410607804E+03  0.40410607807E+03  0.50400001928E-02 0.  1.
    10030    2    1    2    0    0  0.00000000000E+00  0.00000000000E+00  0.80771453059E+03  0.16159266867E+04  0.13995771840E+04 0.  0.
        4    1    3    3  502    0 -0.15590134525E+03  0.45014718457E+03 -0.18798822921E+03  0.51213172568E+03  0.12699999809E+01 0.  1.
       -4    1    3    3    0  502  0.15590134525E+03 -0.45014718457E+03  0.99570275980E+03  0.11037949610E+04  0.12699999809E+01 0. -1.
</event>
<event>
 5   0  0.2427569E-05  0.1399835E+04  0.7818609E-02  0.8953938E-01
       -1   -1    0    0    0  501  0.00000000000E+00  0.00000000000E+00  0.52553092016E+03  0.52553092018E+03  0.50400001928E-02 0. -1.
        1   -1    0    0  501    0  0.00000000000E+00  0.00000000000E+00 -0.93217003773E+03  0.93217003774E+03  0.50400001928E-02 0.  1.
    10030    2    1    2    0    0  0.00000000000E+00  0.00000000000E+00 -0.40663911757E+03  0.14577009579E+04  0.13998345298E+04 0.  0.
        1    1    3    3  502    0 -0.66586377227E+03 -0.25598284386E+02 -0.42630780474E+03  0.79105510541E+03  0.50400001928E-02 0.  1.
       -1    1    3    3    0  502  0.66586377227E+03  0.25598284386E+02  0.19668687174E+02  0.66664585251E+03  0.50400001928E-02 0. -1.
</event>
<event>
 5   0  0.4460282E-05  0.1399850E+04  0.7818609E-02  0.8953927E-01
        2   -1    0    0  501    0  0.00000000000E+00  0.00000000000E+00  0.70157762965E+03  0.70157762965E+03  0.25500000920E-02 0. -1.
       -2   -1    0    0    0  501  0.00000000000E+00  0.00000000000E+00 -0.69827591672E+03  0.69827591672E+03  0.25500000920E-02 0.  1.
    10030    2    1    2    0    0  0.00000000000E+00  0.00000000000E+00  0.33017129315E+01  0.13998535464E+04  0.13998496526E+04 0.  0.
        1    1    3    3  502    0 -0.23484815347E+03 -0.20843995572E+03  0.62718748125E+03  0.70140217207E+03  0.50400001928E-02 0. -1.
       -1    1    3    3    0  502  0.23484815347E+03  0.20843995572E+03 -0.62388576832E+03  0.69845137430E+03  0.50400001928E-02 0.  1.
</event>
<event>
 5   0  0.2428507E-05  0.1400610E+04  0.7818609E-02  0.8953377E-01
        1   -1    0    0  501    0  0.00000000000E+00  0.00000000000E+00  0.26310634203E+03  0.26310634208E+03  0.50400001928E-02 0.  1.
       -1   -1    0    0    0  501  0.00000000000E+00  0.00000000000E+00 -0.18639879906E+04  0.18639879906E+04  0.50400001928E-02 0. -1.
    10030    2    1    2    0    0  0.00000000000E+00  0.00000000000E+00 -0.16008816486E+04  0.21270943327E+04  0.14006099555E+04 0.  0.
        4    1    3    3  502    0 -0.50226803488E+03 -0.30574410535E+03 -0.22279318453E+03  0.62880128244E+03  0.12699999809E+01 0.  1.
       -4    1    3    3    0  502  0.50226803488E+03  0.30574410535E+03 -0.13780884640E+04  0.14982930502E+04  0.12699999809E+01 0. -1.
</event>
<event>
 5   0  0.4621450E-05  0.1399948E+04  0.7818609E-02  0.8953856E-01
       -2   -1    0    0    0  501  0.00000000000E+00  0.00000000000E+00  0.41940566918E+03  0.41940566918E+03  0.25500000920E-02 0.  1.
        2   -1    0    0  501    0  0.00000000000E+00  0.00000000000E+00 -0.11682336475E+04  0.11682336475E+04  0.25500000920E-02 0. -1.
    10030    2    1    2    0    0  0.00000000000E+00  0.00000000000E+00 -0.74882797829E+03  0.15876393167E+04  0.13999483057E+04 0.  0.
        5    1    3    3  502    0  0.25515752950E+03 -0.36905269461E+03  0.23486394120E+03  0.50644685519E+03  0.46999998093E+01 0.  1.
       -5    1    3    3    0  502 -0.25515752950E+03  0.36905269461E+03 -0.98369191949E+03  0.10811924615E+04  0.46999998093E+01 0. -1.
</event>
<event>
 5   0  0.2363419E-05  0.1400781E+04  0.7818609E-02  0.8953253E-01
        1   -1    0    0  501    0  0.00000000000E+00  0.00000000000E+00  0.62764101869E+03  0.62764101871E+03  0.50400001928E-02 0.  1.
       -1   -1    0    0    0  501  0.00000000000E+00  0.00000000000E+00 -0.78157280543E+03  0.78157280545E+03  0.50400001928E-02 0. -1.
    10030    2    1    2    0    0  0.00000000000E+00  0.00000000000E+00 -0.15393178675E+03  0.14092138242E+04  0.14007814274E+04 0.  0.
        2    1    3    3  502    0 -0.33412967792E+03  0.61515784151E+03 -0.99128949104E+02  0.70702783551E+03  0.25500000920E-02 0. -1.
       -2    1    3    3    0  502  0.33412967792E+03 -0.61515784151E+03 -0.54802837645E+02  0.70218598865E+03  0.25500000920E-02 0.  1.
</event>
<event>
 5   0  0.2316714E-05  0.1399116E+04  0.7818609E-02  0.8954459E-01
       -1   -1    0    0    0  501  0.00000000000E+00  0.00000000000E+00  0.42632432040E+03  0.42632432043E+03  0.50400001928E-02 0.  1.
        1   -1    0    0  501    0  0.00000000000E+00  0.00000000000E+00 -0.11479082782E+04  0.11479082782E+04  0.50400001928E-02 0. -1.
    10030    2    1    2    0    0  0.00000000000E+00  0.00000000000E+00 -0.72158395778E+03  0.15742325986E+04  0.13991157445E+04 0.  0.
        5    1    3    3  502    0 -0.64391607173E+02  0.60234536243E+03  0.32842735173E+02  0.60668521489E+03  0.46999998093E+01 0.  1.
       -5    1    3    3    0  502  0.64391607173E+02 -0.60234536243E+03 -0.75442669295E+03  0.96754738373E+03  0.46999998093E+01 0. -1.
</event>
<event>
 5   0  0.2427569E-05  0.1400495E+04  0.7818609E-02  0.8953461E-01
        1   -1    0    0  501    0  0.00000000000E+00  0.00000000000E+00  0.83514347834E+03  0.83514347835E+03  0.50400001928E-02 0.  1.
       -1   -1    0    0    0  501  0.00000000000E+00  0.00000000000E+00 -0.58714026519E+03  0.58714026521E+03  0.50400001928E-02 0. -1.
    10030    2    1    2    0    0  0.00000000000E+00  0.00000000000E+00  0.24800321314E+03  0.14222837436E+04  0.14004947174E+04 0.  0.
        1    1    3    3  502    0  0.51655372074E+03 -0.26678496888E+03  0.52038733958E+03  0.78025953967E+03  0.50400001928E-02 0.  1.
       -1    1    3    3    0  502 -0.51655372074E+03  0.26678496888E+03 -0.27238412644E+03  0.64202420389E+03  0.50400001928E-02 0. -1.
</event>
<event>
 5   0  0.4621450E-05  0.1394074E+04  0.7818609E-02  0.8958119E-01
       -2   -1    0    0    0  501  0.00000000000E+00  0.00000000000E+00  0.33164890881E+03  0.33164890882E+03  0.25500000920E-02 0.  1.
        2   -1    0    0  501    0  0.00000000000E+00  0.00000000000E+00 -0.14649850230E+04  0.14649850230E+04  0.25500000920E-02 0. -1.
    10030    2    1    2    0    0  0.00000000000E+00  0.00000000000E+00 -0.11333361142E+04  0.17966339318E+04  0.13940741505E+04 0.  0.
        5    1    3    3  502    0 -0.68938206954E+03  0.74011846695E+02 -0.65882334137E+03  0.95644951585E+03  0.46999998093E+01 0.  1.
       -5    1    3    3    0  502  0.68938206954E+03 -0.74011846695E+02 -0.47451277280E+03  0.84018441594E+03  0.46999998093E+01 0. -1.
</event>
<event>
 5   0  0.2363419E-05  0.1399730E+04  0.7818609E-02  0.8954014E-01
       -1   -1    0    0    0  501  0.00000000000E+00  0.00000000000E+00  0.87664491650E+03  0.87664491651E+03  0.50400001928E-02 0.  1.
        1   -1    0    0  501    0  0.00000000000E+00  0.00000000000E+00 -0.55873361246E+03  0.55873361248E+03  0.50400001928E-02 0. -1.
    10030    2    1    2    0    0  0.00000000000E+00  0.00000000000E+00  0.31791130404E+03  0.14353785290E+04  0.13997299469E+04 0.  0.
        2    1    3    3  502    0 -0.87513137417E+02 -0.78512191705E+02  0.86644566766E+03  0.87438596082E+03  0.25500000920E-02 0.  1.
       -2    1    3    3    0  502  0.87513137417E+02  0.78512191705E+02 -0.54853436362E+03  0.56099256818E+03  0.25500000920E-02 0. -1.
</event>
<event>
 5   0  0.2467303E-05  0.1400188E+04  0.7818609E-02  0.8953683E-01
       -1   -1    0    0    0  501  0.00000000000E+00  0.00000000000E+00  0.29770426406E+03  0.29770426410E+03  0.50400001928E-02 0.  1.
        1   -1    0    0  501    0  0.00000000000E+00  0.00000000000E+00 -0.16463696968E+04  0.16463696968E+04  0.50400001928E-02 0. -1.
    10030    2    1    2    0    0  0.00000000000E+00  0.00000000000E+00 -0.13486654328E+04  0.19440739609E+04  0.14001875289E+04 0.  0.
        3    1    3    3  502    0 -0.61715905959E+03 -0.30113811620E+03 -0.86349589813E+03  0.11032654468E+04  0.10100000352E+00 0. -1.
       -3    1    3    3    0  502  0.61715905959E+03  0.30113811620E+03 -0.48516953465E+03  0.84080851412E+03  0.10100000352E+00 0.  1.
</event>
<event>
 5   0  0.4441253E-05  0.1400275E+04  0.7818609E-02  0.8953619E-01
       -2   -1    0    0    0  501  0.00000000000E+00  0.00000000000E+00  0.31316384445E+03  0.31316384446E+03  0.25500000920E-02 0.  1.
        2   -1    0    0  501    0  0.00000000000E+00  0.00000000000E+00 -0.15652912694E+04  0.15652912694E+04  0.25500000920E-02 0. -1.
    10030    2    1    2    0    0  0.00000000000E+00  0.00000000000E+00 -0.12521274250E+04  0.18784551139E+04  0.14002751610E+04 0.  0.
        3    1    3    3  502    0  0.46940932569E+03 -0.15016100927E+03  0.41048318527E+02  0.49454870175E+03  0.10100000352E+00 0.  1.
       -3    1    3    3    0  502 -0.46940932569E+03  0.15016100927E+03 -0.12931757435E+04  0.13839064121E+04  0.10100000352E+00 0. -1.
</event>
<event>
 5   0  0.4621450E-05  0.1400617E+04  0.7818609E-02  0.8953372E-01
        2   -1    0    0  501    0  0.00000000000E+00  0.00000000000E+00  0.10288764703E+04  0.10288764703E+04  0.25500000920E-02 0.  1.
       -2   -1    0    0    0  501  0.00000000000E+00  0.00000000000E+00 -0.47666773951E+03  0.47666773951E+03  0.25500000920E-02 0. -1.
    10030    2    1    2    0    0  0.00000000000E+00  0.00000000000E+00  0.55220873076E+03  0.15055442098E+04  0.14006173229E+04 0.  0.
        5    1    3    3  502    0  0.15695330370E+03 -0.62219430178E+03  0.57756006582E+03  0.86334107301E+03  0.46999998093E+01 0. -1.
       -5    1    3    3    0  502 -0.15695330370E+03  0.62219430178E+03 -0.25351335060E+02  0.64220313678E+03  0.46999998093E+01 0.  1.
</event>
<event>
 5   0  0.4460282E-05  0.1400350E+04  0.7818609E-02  0.8953565E-01
        2   -1    0    0  501    0  0.00000000000E+00  0.00000000000E+00  0.56275670153E+03  0.56275670154E+03  0.25500000920E-02 0. -1.
       -2   -1    0    0    0  501  0.00000000000E+00  0.00000000000E+00 -0.87114975897E+03  0.87114975898E+03  0.25500000920E-02 0.  1.
    10030    2    1    2    0    0  0.00000000000E+00  0.00000000000E+00 -0.30839305744E+03  0.14339064605E+04  0.14003504774E+04 0.  0.
        1    1    3    3  502    0  0.35490671124E+03 -0.36011740752E+03 -0.65016032263E+03  0.82362113015E+03  0.50400001928E-02 0.  1.
       -1    1    3    3    0  502 -0.35490671124E+03  0.36011740752E+03  0.34176726519E+03  0.61028533037E+03  0.50400001928E-02 0. -1.
</event>
<event>
 5   0  0.2428507E-05  0.1398932E+04  0.7818609E-02  0.8954592E-01
       -1   -1    0    0    0  501  0.00000000000E+00  0.00000000000E+00  0.68965225495E+03  0.68965225497E+03  0.50400001928E-02 0.  1.
        1   -1    0    0  501    0  0.00000000000E+00  0.00000000000E+00 -0.70941899725E+03  0.70941899726E+03  0.50400001928E-02 0. -1.
    10030    2    1    2    0    0  0.00000000000E+00  0.00000000000E+00 -0.19766742296E+02  0.13990712522E+04  0.13989316083E+04 0.  0.
        4    1    3    3  502    0  0.10064620601E+03  0.46666704019E+03 -0.52115158959E+03  0.70675906603E+03  0.12699999809E+01 0. -1.
       -4    1    3    3    0  502 -0.10064620601E+03 -0.46666704019E+03  0.50138484729E+03  0.69231218621E+03  0.12699999809E+01 0.  1.
</event>
<event>
 5   0  0.2467303E-05  0.1399936E+04  0.7818609E-02  0.8953865E-01
       -1   -1    0    0    0  501  0.00000000000E+00  0.00000000000E+00  0.94747619848E+03  0.94747619849E+03  0.50400001928E-02 0. -1.
        1   -1    0    0  501    0  0.00000000000E+00  0.00000000000E+00 -0.51711628381E+03  0.51711628384E+03  0.50400001928E-02 0.  1.
    10030    2    1    2    0    0  0.00000000000E+00  0.00000000000E+00  0.43035991467E+03  0.14645924823E+04  0.13999362425E+04 0.  0.
        3    1    3    3  502    0  0.49551849107E+03  0.42206176608E+03  0.48452062164E+03  0.81144004854E+03  0.10100000352E+00 0. -1.
       -3    1    3    3    0  502 -0.49551849107E+03 -0.42206176608E+03 -0.54160706976E+02  0.65315243378E+03  0.10100000352E+00 0.  1.
</event>
<event>
 5   0  0.2427569E-05  0.1399969E+04  0.7818609E-02  0.8953841E-01
       -1   -1    0    0    0  501  0.00000000000E+00  0.00000000000E+00  0.54839414674E+03  0.54839414677E+03  0.50400001928E-02 0.  1.
        1   -1    0    0  501    0  0.00000000000E+00  0.00000000000E+00 -0.89347835523E+03  0.89347835525E+03  0.50400001928E-02 0. -1.
    10030    2    1    2    0    0  0.00000000000E+00  0.00000000000E+00 -0.34508420849E+03  0.14418725020E+04  0.13999690001E+04 0.  0.
        1    1    3    3  502    0  0.11176605897E+03 -0.46578361050E+03 -0.69824359377E+03  0.84675270299E+03  0.50400001928E-02 0. -1.
       -1    1    3    3    0  502 -0.11176605897E+03  0.46578361050E+03  0.35315938529E+03  0.59511979902E+03  0.50400001928E-02 0.  1.
</event>
<event>
 5   0  0.4243281E-05  0.1400730E+04  0.7818609E-02  0.8953290E-01
       -2   -1    0    0    0  501  0.00000000000E+00  0.00000000000E+00  0.29021096310E+03  0.29021096311E+03  0.25500000920E-02 0.  1.
        2   -1    0    0  501    0  0.00000000000E+00  0.00000000000E+00 -0.16901877850E+04  0.16901877850E+04  0.25500000920E-02 0. -1.
    10030    2    1    2    0    0  0.00000000000E+00  0.00000000000E+00 -0.13999768219E+04  0.19803987481E+04  0.14007298454E+04 0.  0.
        2    1    3    3  502    0 -0.26485139196E+03  0.52830504113E+03 -0.12313689325E+04  0.13658411050E+04  0.25500000920E-02 0. -1.
       -2    1    3    3    0  502  0.26485139196E+03 -0.52830504113E+03 -0.16860788943E+03  0.61455764309E+03  0.25500000920E-02 0.  1.
</event>
<event>
 5   0  0.2427569E-05  0.1396277E+04  0.7818609E-02  0.8956518E-01
       -1   -1    0    0    0  501  0.00000000000E+00  0.00000000000E+00  0.18433344034E+03  0.18433344041E+03  0.50400001928E-02 0. -1.
        1   -1    0    0  501    0  0.00000000000E+00  0.00000000000E+00 -0.26441056159E+04  0.26441056159E+04  0.50400001928E-02 0.  1.
    10030    2    1    2    0    0  0.00000000000E+00  0.00000000000E+00 -0.24597721756E+04  0.28284390563E+04  0.13962765985E+04 0.  0.
        1    1    3    3  502    0 -0.12369743396E+03  0.64126490986E+03 -0.73008628053E+03  0.97956506513E+03  0.50400001928E-02 0.  1.
       -1    1    3    3    0  502  0.12369743396E+03 -0.64126490986E+03 -0.17296858951E+04  0.18488739912E+04  0.50400001928E-02 0. -1.
</event>
<event>
 5   0  0.1661000E-05  0.1398968E+04  0.7818609E-02  0.8954566E-01
        4   -1    0    0  501    0  0.00000000000E+00  0.00000000000E+00  0.58595474214E+03  0.58595611844E+03  0.12699999809E+01 0.  1.
       -4   -1    0    0    0  501  0.00000000000E+00  0.00000000000E+00 -0.83500696965E+03  0.83500793545E+03  0.12699999809E+01 0. -1.
    10030    2    1    2    0    0  0.00000000000E+00  0.00000000000E+00 -0.24905222752E+03  0.14209640539E+04  0.13989681306E+04 0.  0.
        5    1    3    3  502    0  0.30021688644E+03  0.39699222056E+03  0.37465069122E+03  0.62299135830E+03  0.46999998093E+01 0.  1.
       -5    1    3    3    0  502 -0.30021688644E+03 -0.39699222056E+03 -0.62370291873E+03  0.79797269560E+03  0.46999998093E+01 0. -1.
</event>
<event>
 5   0  0.2428507E-05  0.1400688E+04  0.7818609E-02  0.8953320E-01
       -1   -1    0    0    0  501  0.00000000000E+00  0.00000000000E+00  0.29892535215E+03  0.29892535219E+03  0.50400001928E-02 0.  1.
        1   -1    0    0  501    0  0.00000000000E+00  0.00000000000E+00 -0.16408178248E+04  0.16408178248E+04  0.50400001928E-02 0. -1.
    10030    2    1    2    0    0  0.00000000000E+00  0.00000000000E+00 -0.13418924727E+04  0.19397431770E+04  0.14006884681E+04 0.  0.
        4    1    3    3  502    0  0.17665306594E+03 -0.65321651737E+03 -0.42097294491E+03  0.79694288222E+03  0.12699999809E+01 0.  1.
       -4    1    3    3    0  502 -0.17665306594E+03  0.65321651737E+03 -0.92091952775E+03  0.11428002948E+04  0.12699999809E+01 0. -1.
</event>
<event>
 5   0  0.4460282E-05  0.1399852E+04  0.7818609E-02  0.8953925E-01
        2   -1    0    0  501    0  0.00000000000E+00  0.00000000000E+00  0.89286656394E+03  0.89286656395E+03  0.25500000920E-02 0. -1.
       -2   -1    0    0    0  501  0.00000000000E+00  0.00000000000E+00 -0.54867844062E+03  0.54867844063E+03  0.25500000920E-02 0.  1.
    10030    2    1    2    0    0  0.00000000000E+00  0.00000000000E+00  0.34418812332E+03  0.14415450046E+04  0.13998523265E+04 0.  0.
        1    1    3    3  502    0 -0.58699416429E+03 -0.27358382355E+03  0.44549410235E+03  0.78605041357E+03  0.50400001928E-02 0. -1.
       -1    1    3    3    0  502  0.58699416429E+03  0.27358382355E+03 -0.10130597903E+03  0.65549459100E+03  0.50400001928E-02 0.  1.
</event>
<event>
 5   0  0.4441253E-05  0.1400237E+04  0.7818609E-02  0.8953647E-01
       -2   -1    0    0    0  501  0.00000000000E+00  0.00000000000E+00  0.63177436428E+03  0.63177436429E+03  0.25500000920E-02 0.  1.
        2   -1    0    0  501    0  0.00000000000E+00  0.00000000000E+00 -0.77585559834E+03  0.77585559834E+03  0.25500000920E-02 0. -1.
    10030    2    1    2    0    0  0.00000000000E+00  0.00000000000E+00 -0.14408123406E+03  0.14076299626E+04  0.14002366620E+04 0.  0.
        3    1    3    3  502    0  0.47593271387E+03  0.40090710995E+03  0.25047604392E+03  0.67080303943E+03  0.10100000352E+00 0.  1.
       -3    1    3    3    0  502 -0.47593271387E+03 -0.40090710995E+03 -0.39455727798E+03  0.73682692319E+03  0.10100000352E+00 0. -1.
</event>
<event>
 5   0  0.2363419E-05  0.1399939E+04  0.7818609E-02  0.8953863E-01
       -1   -1    0    0    0  501  0.00000000000E+00  0.00000000000E+00  0.15127718358E+04  0.15127718358E+04  0.50400001928E-02 0.  1.
        1   -1    0    0  501    0  0.00000000000E+00  0.00000000000E+00 -0.32388032716E+03  0.32388032720E+03  0.50400001928E-02 0. -1.
    10030    2    1    2    0    0  0.00000000000E+00  0.00000000000E+00  0.11888915087E+04  0.18366521630E+04  0.13999386232E+04 0.  0.
        2    1    3    3  502    0 -0.86978091123E+02 -0.95082049044E+02  0.14970755897E+04  0.15026114287E+04  0.25500000920E-02 0.  1.
       -2    1    3    3    0  502  0.86978091123E+02  0.95082049044E+02 -0.30818408104E+03  0.33404073434E+03  0.25500000920E-02 0. -1.
</event>
<event>
 5   0  0.1661000E-05  0.1403471E+04  0.7818609E-02  0.8951310E-01
        3   -1    0    0  501    0  0.00000000000E+00  0.00000000000E+00  0.37528976184E+03  0.37528977543E+03  0.10100000352E+00 0.  1.
       -3   -1    0    0    0  501  0.00000000000E+00  0.00000000000E+00 -0.13121397972E+04  0.13121398010E+04  0.10100000352E+00 0. -1.
    10030    2    1    2    0    0  0.00000000000E+00  0.00000000000E+00 -0.93685003531E+03  0.16874295765E+04  0.14034709070E+04 0.  0.
        3    1    3    3  502    0  0.14405036006E+03 -0.13201388836E+03  0.34192350412E+03  0.39381450687E+03  0.10100000352E+00 0.  1.
       -3    1    3    3    0  502 -0.14405036006E+03  0.13201388836E+03 -0.12787735394E+04  0.12936150696E+04  0.10100000352E+00 0. -1.
</event>
<event>
 5   0  0.2316714E-05  0.1399805E+04  0.7818609E-02  0.8953959E-01
       -1   -1    0    0    0  501  0.00000000000E+00  0.00000000000E+00  0.49198479580E+03  0.49198479583E+03  0.50400001928E-02 0.  1.
        1   -1    0    0  501    0  0.00000000000E+00  0.00000000000E+00 -0.99568873261E+03  0.99568873262E+03  0.50400001928E-02 0. -1.
    10030    2    1    2    0    0  0.00000000000E+00  0.00000000000E+00 -0.50370393681E+03  0.14876735285E+04  0.13998052976E+04 0.  0.
        5    1    3    3  502    0  0.48766628503E+03 -0.43146749383E+03 -0.52459122211E+03  0.83618218356E+03  0.46999998093E+01 0.  1.
       -5    1    3    3    0  502 -0.48766628503E+03  0.43146749383E+03  0.20887285303E+02  0.65149134489E+03  0.46999998093E+01 0. -1.
</event>
<event>
 5   0  0.4621450E-05  0.1402617E+04  0.7818609E-02  0.8951926E-01
        2   -1    0    0  501    0  0.00000000000E+00  0.00000000000E+00  0.95511355526E+03  0.95511355526E+03  0.25500000920E-02 0. -1.
       -2   -1    0    0    0  501  0.00000000000E+00  0.00000000000E+00 -0.51494777957E+03  0.51494777958E+03  0.25500000920E-02 0.  1.
    10030    2    1    2    0    0  0.00000000000E+00  0.00000000000E+00  0.44016577568E+03  0.14700613348E+04  0.14026169891E+04 0.  0.
        5    1    3    3  502    0  0.37468146840E+01  0.57152715083E+03 -0.20584998601E+03  0.60749784320E+03  0.46999998093E+01 0.  1.
       -5    1    3    3    0  502 -0.37468146840E+01 -0.57152715083E+03  0.64601576169E+03  0.86256349164E+03  0.46999998093E+01 0. -1.
</event>
<event>
 5   0  0.4460282E-05  0.1400606E+04  0.7818609E-02  0.8953380E-01
       -2   -1    0    0    0  501  0.00000000000E+00  0.00000000000E+00  0.38435710372E+03  0.38435710373E+03  0.25500000920E-02 0.  1.
        2   -1    0    0  501    0  0.00000000000E+00  0.00000000000E+00 -0.12759590952E+04  0.12759590952E+04  0.25500000920E-02 0. -1.
    10030    2    1    2    0    0  0.00000000000E+00  0.00000000000E+00 -0.89160199146E+03  0.16603161989E+04  0.14006055009E+04 0.  0.
        1    1    3    3  502    0  0.18518963685E+03  0.27612519552E+02  0.35413532438E+03  0.40058642117E+03  0.50400001928E-02 0.  1.
       -1    1    3    3    0  502 -0.18518963685E+03 -0.27612519552E+02 -0.12457373158E+04  0.12597297777E+04  0.50400001928E-02 0. -1.
</event>
<event>
 5   0  0.2316714E-05  0.1403654E+04  0.7818609E-02  0.8951178E-01
       -1   -1    0    0    0  501  0.00000000000E+00  0.00000000000E+00  0.36265893484E+03  0.36265893487E+03  0.50400001928E-02 0.  1.
        1   -1    0    0  501    0  0.00000000000E+00  0.00000000000E+00 -0.13581942178E+04  0.13581942178E+04  0.50400001928E-02 0. -1.
    10030    2    1    2    0    0  0.00000000000E+00  0.00000000000E+00 -0.99553528294E+03  0.17208531527E+04  0.14036541858E+04 0.  0.
        5    1    3    3  502    0 -0.42823530844E+03  0.15565006714E+03 -0.11521782080E+04  0.12390113542E+04  0.46999998093E+01 0. -1.
       -5    1    3    3    0  502  0.42823530844E+03 -0.15565006714E+03  0.15664292505E+03  0.48184179848E+03  0.46999998093E+01 0.  1.
</event>
<event>
 5   0  0.2428507E-05  0.1400200E+04  0.7818609E-02  0.8953674E-01
       -1   -1    0    0    0  501  0.00000000000E+00  0.00000000000E+00  0.37225617203E+03  0.37225617206E+03  0.50400001928E-02 0. -1.
        1   -1    0    0  501    0  0.00000000000E+00  0.00000000000E+00 -0.13166736220E+04  0.13166736220E+04  0.50400001928E-02 0.  1.
    10030    2    1    2    0    0  0.00000000000E+00  0.00000000000E+00 -0.94441744999E+03  0.16889297941E+04  0.14001998177E+04 0.  0.
        4    1    3    3  502    0  0.48570579901E+03 -0.50253576182E+03 -0.42268144364E+03  0.81677018236E+03  0.12699999809E+01 0. -1.
       -4    1    3    3    0  502 -0.48570579901E+03  0.50253576182E+03 -0.52173600635E+03  0.87215961172E+03  0.12699999809E+01 0.  1.
</event>
<event>
 5   0  0.4527503E-05  0.1399908E+04  0.7818609E-02  0.8953885E-01
        2   -1    0    0  501    0  0.00000000000E+00  0.00000000000E+00  0.75763970418E+03  0.75763970418E+03  0.25500000920E-02 0.  1.
       -2   -1    0    0    0  501  0.00000000000E+00  0.00000000000E+00 -0.64666072351E+03  0.64666072351E+03  0.25500000920E-02 0. -1.
    10030    2    1    2    0    0  0.00000000000E+00  0.00000000000E+00  0.11097898067E+03  0.14043004277E+04  0.13999083388E+04 0.  0.
        4    1    3    3  502    0  0.68086996969E+03  0.14963718036E+03  0.11860768231E+03  0.70713831502E+03  0.12699999809E+01 0.  1.
       -4    1    3    3    0  502 -0.68086996969E+03 -0.14963718036E+03 -0.76287016436E+01  0.69716211268E+03  0.12699999809E+01 0. -1.
</event>
<event>
 5   0  0.4441253E-05  0.1400211E+04  0.7818609E-02  0.8953666E-01
       -2   -1    0    0    0  501  0.00000000000E+00  0.00000000000E+00  0.64204073754E+03  0.64204073754E+03  0.25500000920E-02 0. -1.
        2   -1    0    0  501    0  0.00000000000E+00  0.00000000000E+00 -0.76342123719E+03  0.76342123719E+03  0.25500000920E-02 0.  1.
    10030    2    1    2    0    0  0.00000000000E+00  0.00000000000E+00 -0.12138049965E+03  0.14054619747E+04  0.14002107473E+04 0.  0.
        3    1    3    3  502    0  0.11634968200E+03  0.65557767701E+03  0.15651952009E+03  0.68397200927E+03  0.10100000352E+00 0. -1.
       -3    1    3    3    0  502 -0.11634968200E+03 -0.65557767701E+03 -0.27790001974E+03  0.72148996547E+03  0.10100000352E+00 0.  1.
</event>
<event>
 5   0  0.4621450E-05  0.1403271E+04  0.7818609E-02  0.8951454E-01
        2   -1    0    0  501    0  0.00000000000E+00  0.00000000000E+00  0.90051055088E+03  0.90051055089E+03  0.25500000920E-02 0.  1.
       -2   -1    0    0    0  501  0.00000000000E+00  0.00000000000E+00 -0.54668133227E+03  0.54668133228E+03  0.25500000920E-02 0. -1.
    10030    2    1    2    0    0  0.00000000000E+00  0.00000000000E+00  0.35382921861E+03  0.14471918832E+04  0.14032709043E+04 0.  0.
        5    1    3    3  502    0 -0.54562316885E+03  0.30005784236E+03  0.51034629867E+03  0.80511787069E+03  0.46999998093E+01 0.  1.
       -5    1    3    3    0  502  0.54562316885E+03 -0.30005784236E+03 -0.15651708006E+03  0.64207401247E+03  0.46999998093E+01 0. -1.
</event>
<event>
 5   0  0.4621450E-05  0.1400472E+04  0.7818609E-02  0.8953477E-01
        2   -1    0    0  501    0  0.00000000000E+00  0.00000000000E+00  0.99758596959E+03  0.99758596960E+03  0.25500000920E-02 0.  1.
       -2   -1    0    0    0  501  0.00000000000E+00  0.00000000000E+00 -0.49151673003E+03  0.49151673003E+03  0.25500000920E-02 0. -1.
    10030    2    1    2    0    0  0.00000000000E+00  0.00000000000E+00  0.50606923957E+03  0.14891026996E+04  0.14004716259E+04 0.  0.
        5    1    3    3  502    0 -0.35207847641E+03 -0.35623601851E+03 -0.26726438560E+03  0.56772854098E+03  0.46999998093E+01 0. -1.
       -5    1    3    3    0  502  0.35207847641E+03  0.35623601851E+03  0.77333362517E+03  0.92137415866E+03  0.46999998093E+01 0.  1.
</event>
<event>
 5   0  0.4621450E-05  0.1399888E+04  0.7818609E-02  0.8953899E-01
       -2   -1    0    0    0  501  0.00000000000E+00  0.00000000000E+00  0.72567003805E+03  0.72567003806E+03  0.25500000920E-02 0.  1.
        2   -1    0    0  501    0  0.00000000000E+00  0.00000000000E+00 -0.67513022399E+03  0.67513022400E+03  0.25500000920E-02 0. -1.
    10030    2    1    2    0    0  0.00000000000E+00  0.00000000000E+00  0.50539814059E+02  0.14008002621E+04  0.13998882460E+04 0.  0.
        5    1    3    3  502    0  0.66978892994E+03 -0.11452810523E+03 -0.14266609064E+03  0.69434112724E+03  0.46999998093E+01 0.  1.
       -5    1    3    3    0  502 -0.66978892994E+03  0.11452810523E+03  0.19320590470E+03  0.70645913482E+03  0.46999998093E+01 0. -1.
</event>
<event>
 5   0  0.2316714E-05  0.1401032E+04  0.7818609E-02  0.8953072E-01
       -1   -1    0    0    0  501  0.00000000000E+00  0.00000000000E+00  0.65324882589E+03  0.65324882591E+03  0.50400001928E-02 0.  1.
        1   -1    0    0  501    0  0.00000000000E+00  0.00000000000E+00 -0.75120336738E+03  0.75120336740E+03  0.50400001928E-02 0. -1.
    10030    2    1    2    0    0  0.00000000000E+00  0.00000000000E+00 -0.97954541490E+02  0.14044521933E+04  0.14010320735E+04 0.  0.
        5    1    3    3  502    0  0.11477940713E+03 -0.35490771675E+03  0.54540086898E+03  0.66077076024E+03  0.46999998093E+01 0.  1.
       -5    1    3    3    0  502 -0.11477940713E+03  0.35490771675E+03 -0.64335541047E+03  0.74368143307E+03  0.46999998093E+01 0. -1.
</event>
<event>
 5   0  0.4460282E-05  0.1400186E+04  0.7818609E-02  0.8953684E-01
        2   -1    0    0  501    0  0.00000000000E+00  0.00000000000E+00  0.12959619520E+04  0.12959619520E+04  0.25500000920E-02 0. -1.
       -2   -1    0    0    0  501  0.00000000000E+00  0.00000000000E+00 -0.37819820119E+03  0.37819820120E+03  0.25500000920E-02 0.  1.
    10030    2    1    2    0    0  0.00000000000E+00  0.00000000000E+00  0.91776375083E+03  0.16741601532E+04  0.14001863863E+04 0.  0.
        1    1    3    3  502    0 -0.54486025149E+03 -0.18236153041E+03  0.93715274981E+03  0.10992650717E+04  0.50400001928E-02 0. -1.
       -1    1    3    3    0  502  0.54486025149E+03  0.18236153041E+03 -0.19388998979E+02  0.57489508150E+03  0.50400001928E-02 0.  1.
</event>
<event>
 5   0  0.2363419E-05  0.1397601E+04  0.7818609E-02  0.8955557E-01
       -1   -1    0    0    0  501  0.00000000000E+00  0.00000000000E+00  0.55165402451E+03  0.55165402453E+03  0.50400001928E-02 0. -1.
        1   -1    0    0  501    0  0.00000000000E+00  0.00000000000E+00 -0.88519585223E+03  0.88519585224E+03  0.50400001928E-02 0.  1.
    10030    2    1    2    0    0  0.00000000000E+00  0.00000000000E+00 -0.33354182772E+03  0.14368498768E+04  0.13976005930E+04 0.  0.
        2    1    3    3  502    0 -0.22055289732E+03  0.18411443027E+03  0.48812716771E+03  0.56640077314E+03  0.25500000920E-02 0. -1.
       -2    1    3    3    0  502  0.22055289732E+03 -0.18411443027E+03 -0.82166899543E+03  0.87044910363E+03  0.25500000920E-02 0.  1.
</event>
<event>
 5   0  0.2363419E-05  0.1402857E+04  0.7818609E-02  0.8951753E-01
       -1   -1    0    0    0  501  0.00000000000E+00  0.00000000000E+00  0.97403191514E+03  0.97403191515E+03  0.50400001928E-02 0. -1.
        1   -1    0    0  501    0  0.00000000000E+00  0.00000000000E+00 -0.50511871686E+03  0.50511871689E+03  0.50400001928E-02 0.  1.
    10030    2    1    2    0    0  0.00000000000E+00  0.00000000000E+00  0.46891319828E+03  0.14791506320E+04  0.14028567299E+04 0.  0.
        2    1    3    3  502    0 -0.25785664157E+02  0.50209938262E+03  0.75017150219E+03  0.90306476689E+03  0.25500000920E-02 0. -1.
       -2    1    3    3    0  502  0.25785664157E+02 -0.50209938262E+03 -0.28125830391E+03  0.57608586515E+03  0.25500000920E-02 0.  1.
</event>
<event>
 5   0  0.2467303E-05  0.1400025E+04  0.7818609E-02  0.8953800E-01
        1   -1    0    0  501    0  0.00000000000E+00  0.00000000000E+00  0.86444577458E+03  0.86444577460E+03  0.50400001928E-02 0. -1.
       -1   -1    0    0    0  501  0.00000000000E+00  0.00000000000E+00 -0.56685769102E+03  0.56685769104E+03  0.50400001928E-02 0.  1.
    10030    2    1    2    0    0  0.00000000000E+00  0.00000000000E+00  0.29758808357E+03  0.14313034656E+04  0.14000253367E+04 0.  0.
        3    1    3    3  502    0  0.78823676024E+02 -0.77681297495E+02 -0.55785755196E+03  0.56872894630E+03  0.10100000352E+00 0.  1.
       -3    1    3    3    0  502 -0.78823676024E+02  0.77681297495E+02  0.85544563552E+03  0.86257451934E+03  0.10100000352E+00 0. -1.
</event>
<event>
 5   0  0.4460282E-05  0.1398983E+04  0.7818609E-02  0.8954555E-01
       -2   -1    0    0    0  501  0.00000000000E+00  0.00000000000E+00  0.12769920786E+04  0.12769920786E+04  0.25500000920E-02 0.  1.
        2   -1    0    0  501    0  0.00000000000E+00  0.00000000000E+00 -0.38315687560E+03  0.38315687561E+03  0.25500000920E-02 0. -1.
    10030    2    1    2    0    0  0.00000000000E+00  0.00000000000E+00  0.89383520298E+03  0.16601489542E+04  0.13989829091E+04 0.  0.
        1    1    3    3  502    0 -0.50223219974E+03  0.49625952906E+02 -0.12784419408E+03  0.52061891595E+03  0.50400001928E-02 0. -1.
       -1    1    3    3    0  502  0.50223219974E+03 -0.49625952906E+02  0.10216793971E+04  0.11395300382E+04  0.50400001928E-02 0.  1.
</event>
<event>
 5   0  0.2428507E-05  0.1400288E+04  0.7818609E-02  0.8953610E-01
        1   -1    0    0  501    0  0.00000000000E+00  0.00000000000E+00  0.16260023726E+04  0.16260023726E+04  0.50400001928E-02 0.  1.
       -1   -1    0    0    0  501  0.00000000000E+00  0.00000000000E+00 -0.30147646670E+03  0.30147646674E+03  0.50400001928E-02 0. -1.
    10030    2    1    2    0    0  0.00000000000E+00  0.00000000000E+00  0.13245259059E+04  0.19274788394E+04  0.14002877564E+04 0.  0.
        4    1    3    3  502    0 -0.31999849645E+02 -0.23263869370E+03  0.15701764074E+04  0.15876398570E+04  0.12699999809E+01 0.  1.
       -4    1    3    3    0  502  0.31999849645E+02  0.23263869370E+03 -0.24565050148E+03  0.33983898240E+03  0.12699999809E+01 0. -1.
</event>
<event>
 5   0  0.2428507E-05  0.1398661E+04  0.7818609E-02  0.8954789E-01
        1   -1    0    0  501    0  0.00000000000E+00  0.00000000000E+00  0.12265899296E+04  0.12265899296E+04  0.50400001928E-02 0. -1.
       -1   -1    0    0    0  501  0.00000000000E+00  0.00000000000E+00 -0.39871753993E+03  0.39871753996E+03  0.50400001928E-02 0.  1.
    10030    2    1    2    0    0  0.00000000000E+00  0.00000000000E+00  0.82787238966E+03  0.16253074696E+04  0.13986606726E+04 0.  0.
        4    1    3    3  502    0  0.14130250626E+03 -0.37808909750E+03  0.10775685621E+04  0.11506838762E+04  0.12699999809E+01 0. -1.
       -4    1    3    3    0  502 -0.14130250626E+03  0.37808909750E+03 -0.24969617248E+03  0.47462359336E+03  0.12699999809E+01 0.  1.
</event>
<event>
 5   0  0.2316714E-05  0.1399973E+04  0.7818609E-02  0.8953838E-01
        1   -1    0    0  501    0  0.00000000000E+00  0.00000000000E+00  0.81436517730E+03  0.81436517732E+03  0.50400001928E-02 0.  1.
       -1   -1    0    0    0  501  0.00000000000E+00  0.00000000000E+00 -0.60167273768E+03  0.60167273771E+03  0.50400001928E-02 0. -1.
    10030    2    1    2    0    0  0.00000000000E+00  0.00000000000E+00  0.21269243962E+03  0.14160379150E+04  0.13999733222E+04 0.  0.
        5    1    3    3  502    0  0.32037197791E+03  0.62233500509E+03  0.10180325104E+03  0.70733659223E+03  0.46999998093E+01 0.  1.
       -5    1    3    3    0  502 -0.32037197791E+03 -0.62233500509E+03  0.11088918858E+03  0.70870132279E+03  0.46999998093E+01 0. -1.
</event>
<event>
 5   0  0.4243281E-05  0.1400670E+04  0.7818609E-02  0.8953334E-01
       -2   -1    0    0    0  501  0.00000000000E+00  0.00000000000E+00  0.39692668320E+03  0.39692668321E+03  0.25500000920E-02 0. -1.
        2   -1    0    0  501    0  0.00000000000E+00  0.00000000000E+00 -0.12356666319E+04  0.12356666319E+04  0.25500000920E-02 0.  1.
    10030    2    1    2    0    0  0.00000000000E+00  0.00000000000E+00 -0.83873994874E+03  0.16325933152E+04  0.14006699222E+04 0.  0.
        2    1    3    3  502    0 -0.29241413336E+02  0.45885185534E+03 -0.10351108539E+04  0.11326316988E+04  0.25500000920E-02 0.  1.
       -2    1    3    3    0  502  0.29241413336E+02 -0.45885185534E+03  0.19637090513E+03  0.49996161632E+03  0.25500000920E-02 0. -1.
</event>
<event>
 5   0  0.4527503E-05  0.1400588E+04  0.7818609E-02  0.8953393E-01
       -2   -1    0    0    0  501  0.00000000000E+00  0.00000000000E+00  0.23433393716E+03  0.23433393717E+03  0.25500000920E-02 0.  1.
        2   -1    0    0  501    0  0.00000000000E+00  0.00000000000E+00 -0.20927906754E+04  0.20927906754E+04  0.25500000920E-02 0. -1.
    10030    2    1    2    0    0  0.00000000000E+00  0.00000000000E+00 -0.18584567382E+04  0.23271246125E+04  0.14005882744E+04 0.  0.
        4    1    3    3  502    0 -0.43678457198E+03 -0.22523270213E+03 -0.10029166706E+03  0.50156810486E+03  0.12699999809E+01 0.  1.
       -4    1    3    3    0  502  0.43678457198E+03  0.22523270213E+03 -0.17581650711E+04  0.18255565077E+04  0.12699999809E+01 0. -1.
</event>
<event>
 5   0  0.4621450E-05  0.1400101E+04  0.7818609E-02  0.8953745E-01
        2   -1    0    0  501    0  0.00000000000E+00  0.00000000000E+00  0.12981404042E+04  0.12981404042E+04  0.25500000920E-02 0.  1.
       -2   -1    0    0    0  501  0.00000000000E+00  0.00000000000E+00 -0.37751775345E+03  0.37751775346E+03  0.25500000920E-02 0. -1.
    10030    2    1    2    0    0  0.00000000000E+00  0.00000000000E+00  0.92062265074E+03  0.16756581576E+04  0.14001014950E+04 0.  0.
        5    1    3    3  502    0 -0.54825803701E+03  0.43005169661E+03  0.54075295466E+03  0.88202448088E+03  0.46999998093E+01 0.  1.
       -5    1    3    3    0  502  0.54825803701E+03 -0.43005169661E+03  0.37986969608E+03  0.79363367677E+03  0.46999998093E+01 0. -1.
</event>
<event>
 5   0  0.4441253E-05  0.1397179E+04  0.7818609E-02  0.8955863E-01
        2   -1    0    0  501    0  0.00000000000E+00  0.00000000000E+00  0.92062458298E+03  0.92062458298E+03  0.25500000920E-02 0. -1.
       -2   -1    0    0    0  501  0.00000000000E+00  0.00000000000E+00 -0.53010481825E+03  0.53010481825E+03  0.25500000920E-02 0.  1.
    10030    2    1    2    0    0  0.00000000000E+00  0.00000000000E+00  0.39051976473E+03  0.14507294012E+04  0.13971793403E+04 0.  0.
        3    1    3    3  502    0  0.97354305733E+02 -0.45781914770E+03 -0.34322196652E+03  0.58041154480E+03  0.10100000352E+00 0.  1.
       -3    1    3    3    0  502 -0.97354305733E+02  0.45781914770E+03  0.73374173125E+03  0.87031785643E+03  0.10100000352E+00 0. -1.
</event>
<event>
 5   0  0.4621450E-05  0.1399116E+04  0.7818609E-02  0.8954458E-01
        2   -1    0    0  501    0  0.00000000000E+00  0.00000000000E+00  0.12142940956E+04  0.12142940956E+04  0.25500000920E-02 0.  1.
       -2   -1    0    0    0  501  0.00000000000E+00  0.00000000000E+00 -0.40301733626E+03  0.40301733627E+03  0.25500000920E-02 0. -1.
    10030    2    1    2    0    0  0.00000000000E+00  0.00000000000E+00  0.81127675931E+03  0.16173114318E+04  0.13991162523E+04 0.  0.
        5    1    3    3  502    0  0.12822277900E+03 -0.61849548771E+03  0.58118073777E+02  0.63433236546E+03  0.46999998093E+01 0. -1.
       -5    1    3    3    0  502 -0.12822277900E+03  0.61849548771E+03  0.75315868553E+03  0.98297906639E+03  0.46999998093E+01 0.  1.
</event>
<event>
 5   0  0.4243281E-05  0.1399590E+04  0.7818609E-02  0.8954115E-01
       -2   -1    0    0    0  501  0.00000000000E+00  0.00000000000E+00  0.69125098770E+03  0.69125098771E+03  0.25500000920E-02 0. -1.
        2   -1    0    0  501    0  0.00000000000E+00  0.00000000000E+00 -0.70844453713E+03  0.70844453713E+03  0.25500000920E-02 0.  1.
    10030    2    1    2    0    0  0.00000000000E+00  0.00000000000E+00 -0.17193549427E+02  0.13996955248E+04  0.13995899200E+04 0.  0.
        2    1    3    3  502    0 -0.64994437383E+03 -0.10556523579E+03  0.22836261093E+03  0.69693700588E+03  0.25500000920E-02 0. -1.
       -2    1    3    3    0  502  0.64994437383E+03  0.10556523579E+03 -0.24555616036E+03  0.70275851897E+03  0.25500000920E-02 0.  1.
</event>
<event>
 5   0  0.2427569E-05  0.1399771E+04  0.7818609E-02  0.8953984E-01
       -1   -1    0    0    0  501  0.00000000000E+00  0.00000000000E+00  0.54700395795E+03  0.54700395797E+03  0.50400001928E-02 0.  1.
        1   -1    0    0  501    0  0.00000000000E+00  0.00000000000E+00 -0.89549581169E+03  0.89549581170E+03  0.50400001928E-02 0. -1.
    10030    2    1    2    0    0  0.00000000000E+00  0.00000000000E+00 -0.34849185374E+03  0.14424997697E+04  0.13997710575E+04 0.  0.
        1    1    3    3  502    0 -0.24609479356E+03  0.14620852610E+02  0.50077843319E+03  0.55817152912E+03  0.50400001928E-02 0.  1.
       -1    1    3    3    0  502  0.24609479356E+03 -0.14620852610E+02 -0.84927028693E+03  0.88432824055E+03  0.50400001928E-02 0. -1.
</event>
<event>
 5   0  0.2428507E-05  0.1399620E+04  0.7818609E-02  0.8954094E-01
        1   -1    0    0  501    0  0.00000000000E+00  0.00000000000E+00  0.62111552167E+03  0.62111552169E+03  0.50400001928E-02 0.  1.
       -1   -1    0    0    0  501  0.00000000000E+00  0.00000000000E+00 -0.78847512770E+03  0.78847512772E+03  0.50400001928E-02 0. -1.
    10030    2    1    2    0    0  0.00000000000E+00  0.00000000000E+00 -0.16735960603E+03  0.14095906494E+04  0.13996201489E+04 0.  0.
        4    1    3    3  502    0 -0.58506122059E+03 -0.25834835603E+03  0.20240719768E+03  0.67082843669E+03  0.12699999809E+01 0.  1.
       -4    1    3    3    0  502  0.58506122059E+03  0.25834835603E+03 -0.36976680371E+03  0.73876221271E+03  0.12699999809E+01 0. -1.
</event>
<event>
 5   0  0.4527503E-05  0.1399764E+04  0.7818609E-02  0.8953990E-01
        2   -1    0    0  501    0  0.00000000000E+00  0.00000000000E+00  0.10276582870E+04  0.10276582870E+04  0.25500000920E-02 0.  1.
       -2   -1    0    0    0  501  0.00000000000E+00  0.00000000000E+00 -0.47665112727E+03  0.47665112728E+03  0.25500000920E-02 0. -1.
    10030    2    1    2    0    0  0.00000000000E+00  0.00000000000E+00  0.55100715976E+03  0.15043094143E+04  0.13997635243E+04 0.  0.
        4    1    3    3  502    0  0.50434356200E+03  0.67335112676E+02  0.79195409828E+03  0.94132319244E+03  0.12699999809E+01 0.  1.
       -4    1    3    3    0  502 -0.50434356200E+03 -0.67335112676E+02 -0.24094693852E+03  0.56298622187E+03  0.12699999809E+01 0. -1.
</event>
<event>
 5   0  0.4527503E-05  0.1400998E+04  0.7818609E-02  0.8953097E-01
        2   -1    0    0  501    0  0.00000000000E+00  0.00000000000E+00  0.15365583227E+04  0.15365583227E+04  0.25500000920E-02 0.  1.
       -2   -1    0    0    0  501  0.00000000000E+00  0.00000000000E+00 -0.31934914278E+03  0.31934914279E+03  0.25500000920E-02 0. -1.
    10030    2    1    2    0    0  0.00000000000E+00  0.00000000000E+00  0.12172091799E+04  0.18559074655E+04  0.14009976205E+04 0.  0.
        4    1    3    3  502    0 -0.36320013003E+03 -0.48124263943E+03  0.10810398022E+04  0.12378034898E+04  0.12699999809E+01 0.  1.
       -4    1    3    3    0  502  0.36320013003E+03  0.48124263943E+03  0.13616937772E+03  0.61810397571E+03  0.12699999809E+01 0. -1.
</event>
<event>
 5   0  0.2363419E-05  0.1400266E+04  0.7818609E-02  0.8953626E-01
        1   -1    0    0  501    0  0.00000000000E+00  0.00000000000E+00  0.79972374192E+03  0.79972374193E+03  0.50400001928E-02 0.  1.
       -1   -1    0    0    0  501  0.00000000000E+00  0.00000000000E+00 -0.61294467575E+03  0.61294467577E+03  0.50400001928E-02 0. -1.
    10030    2    1    2    0    0  0.00000000000E+00  0.00000000000E+00  0.18677906617E+03  0.14126684177E+04  0.14002662743E+04 0.  0.
        2    1    3    3  502    0 -0.29340510271E+03 -0.74189584080E+02  0.73032575137E+03  0.79054813377E+03  0.25500000920E-02 0.  1.
       -2    1    3    3    0  502  0.29340510271E+03  0.74189584080E+02 -0.54354668520E+03  0.62212028393E+03  0.25500000920E-02 0. -1.
</event>
<event>
 5   0  0.2363419E-05  0.1400418E+04  0.7818609E-02  0.8953516E-01
       -1   -1    0    0    0  501  0.00000000000E+00  0.00000000000E+00  0.19061411927E+03  0.19061411934E+03  0.50400001928E-02 0. -1.
        1   -1    0    0  501    0  0.00000000000E+00  0.00000000000E+00 -0.25721728578E+04  0.25721728578E+04  0.50400001928E-02 0.  1.
    10030    2    1    2    0    0  0.00000000000E+00  0.00000000000E+00 -0.23815587386E+04  0.27627869772E+04  0.14004177434E+04 0.  0.
        2    1    3    3  502    0  0.53396245758E+03 -0.11149867830E+03 -0.20569050353E+04  0.21280052128E+04  0.25500000920E-02 0.  1.
       -2    1    3    3    0  502 -0.53396245758E+03  0.11149867830E+03 -0.32465370327E+03  0.63478176441E+03  0.25500000920E-02 0. -1.
</event>
<event>
 5   0  0.4243281E-05  0.1399213E+04  0.7818609E-02  0.8954388E-01
        2   -1    0    0  501    0  0.00000000000E+00  0.00000000000E+00  0.11226158390E+04  0.11226158390E+04  0.25500000920E-02 0. -1.
       -2   -1    0    0    0  501  0.00000000000E+00  0.00000000000E+00 -0.43599010201E+03  0.43599010201E+03  0.25500000920E-02 0.  1.
    10030    2    1    2    0    0  0.00000000000E+00  0.00000000000E+00  0.68662573697E+03  0.15586059410E+04  0.13992131991E+04 0.  0.
        2    1    3    3  502    0  0.37127606157E+03 -0.18290510111E+02 -0.31688224810E+03  0.48846168307E+03  0.25500000920E-02 0.  1.
       -2    1    3    3    0  502 -0.37127606157E+03  0.18290510111E+02  0.10035079851E+04  0.10701442579E+04  0.25500000920E-02 0. -1.
</event>
<event>
 5   0  0.4441253E-05  0.1405704E+04  0.7818609E-02  0.8949700E-01
       -2   -1    0    0    0  501  0.00000000000E+00  0.00000000000E+00  0.49925557456E+03  0.49925557457E+03  0.25500000920E-02 0.  1.
        2   -1    0    0  501    0  0.00000000000E+00  0.00000000000E+00 -0.98947565732E+03  0.98947565733E+03  0.25500000920E-02 0. -1.
    10030    2    1    2    0    0  0.00000000000E+00  0.00000000000E+00 -0.49022008276E+03  0.14887312319E+04  0.14057044324E+04 0.  0.
        3    1    3    3  502    0 -0.70245137213E+03 -0.16467922143E+02 -0.26321059051E+03  0.75032589441E+03  0.10100000352E+00 0.  1.
       -3    1    3    3    0  502  0.70245137213E+03  0.16467922143E+02 -0.22700949225E+03  0.73840533749E+03  0.10100000352E+00 0. -1.
</event>
<event>
 5   0  0.4243281E-05  0.1399656E+04  0.7818609E-02  0.8954067E-01
       -2   -1    0    0    0  501  0.00000000000E+00  0.00000000000E+00  0.24763936697E+03  0.24763936698E+03  0.25500000920E-02 0. -1.
        2   -1    0    0  501    0  0.00000000000E+00  0.00000000000E+00 -0.19777124162E+04  0.19777124162E+04  0.25500000920E-02 0.  1.
    10030    2    1    2    0    0  0.00000000000E+00  0.00000000000E+00 -0.17300730493E+04  0.22253517832E+04  0.13996563161E+04 0.  0.
        2    1    3    3  502    0 -0.34929216471E+03  0.57878256993E+03 -0.57724136421E+03  0.88893299643E+03  0.25500000920E-02 0. -1.
       -2    1    3    3    0  502  0.34929216471E+03 -0.57878256993E+03 -0.11528316851E+04  0.13364187868E+04  0.25500000920E-02 0.  1.
</event>
<event>
 5   0  0.4460282E-05  0.1401413E+04  0.7818609E-02  0.8952796E-01
       -2   -1    0    0    0  501  0.00000000000E+00  0.00000000000E+00  0.96073495731E+03  0.96073495731E+03  0.25500000920E-02 0.  1.
        2   -1    0    0  501    0  0.00000000000E+00  0.00000000000E+00 -0.51105652509E+03  0.51105652510E+03  0.25500000920E-02 0. -1.
    10030    2    1    2    0    0  0.00000000000E+00  0.00000000000E+00  0.44967843222E+03  0.14717914824E+04  0.14014133849E+04 0.  0.
        1    1    3    3  502    0 -0.47541313186E+03  0.49481747868E+03  0.37383675753E+03  0.78141916054E+03  0.50400001928E-02 0.  1.
       -1    1    3    3    0  502  0.47541313186E+03 -0.49481747868E+03  0.75841674686E+02  0.69037232187E+03  0.50400001928E-02 0. -1.
</event>
<event>
 5   0  0.2316714E-05  0.1400158E+04  0.7818609E-02  0.8953704E-01
        1   -1    0    0  501    0  0.00000000000E+00  0.00000000000E+00  0.45251402163E+03  0.45251402166E+03  0.50400001928E-02 0. -1.
       -1   -1    0    0    0  501  0.00000000000E+00  0.00000000000E+00 -0.10830841478E+04  0.10830841478E+04  0.50400001928E-02 0.  1.
    10030    2    1    2    0    0  0.00000000000E+00  0.00000000000E+00 -0.63057012615E+03  0.15355981694E+04  0.14001582246E+04 0.  0.
        5    1    3    3  502    0 -0.36263337640E+03 -0.23418801969E+03  0.28915419626E+03  0.51959525927E+03  0.46999998093E+01 0. -1.
       -5    1    3    3    0  502  0.36263337640E+03  0.23418801969E+03 -0.91972432242E+03  0.10160029102E+04  0.46999998093E+01 0.  1.
</event>
<event>
 5   0  0.4621450E-05  0.1400744E+04  0.7818609E-02  0.8953280E-01
        2   -1    0    0  501    0  0.00000000000E+00  0.00000000000E+00  0.22308698104E+04  0.22308698104E+04  0.25500000920E-02 0. -1.
       -2   -1    0    0    0  501  0.00000000000E+00  0.00000000000E+00 -0.21987869204E+03  0.21987869206E+03  0.25500000920E-02 0.  1.
    10030    2    1    2    0    0  0.00000000000E+00  0.00000000000E+00  0.20109911183E+04  0.24507485024E+04  0.14007437111E+04 0.  0.
        5    1    3    3  502    0  0.26408990790E+03 -0.47342908879E+03  0.22968804493E+03  0.58877607759E+03  0.46999998093E+01 0.  1.
       -5    1    3    3    0  502 -0.26408990790E+03  0.47342908879E+03  0.17813030734E+04  0.18619724248E+04  0.46999998093E+01 0. -1.
</event>
<event>
 5   0  0.4527503E-05  0.1395271E+04  0.7818609E-02  0.8957249E-01
        2   -1    0    0  501    0  0.00000000000E+00  0.00000000000E+00  0.75807779674E+03  0.75807779675E+03  0.25500000920E-02 0.  1.
       -2   -1    0    0    0  501  0.00000000000E+00  0.00000000000E+00 -0.64201210675E+03  0.64201210675E+03  0.25500000920E-02 0. -1.
    10030    2    1    2    0    0  0.00000000000E+00  0.00000000000E+00  0.11606569000E+03  0.14000899035E+04  0.13952707599E+04 0.  0.
        4    1    3    3  502    0 -0.23892201339E+03 -0.65334792489E+03  0.11061872294E+03  0.70440425482E+03  0.12699999809E+01 0.  1.
       -4    1    3    3    0  502  0.23892201339E+03  0.65334792489E+03  0.54469670598E+01  0.69568564869E+03  0.12699999809E+01 0. -1.
</event>
<event>
 5   0  0.4243281E-05  0.1399293E+04  0.7818609E-02  0.8954330E-01
        2   -1    0    0  501    0  0.00000000000E+00  0.00000000000E+00  0.10291215815E+04  0.10291215815E+04  0.25500000920E-02 0.  1.
       -2   -1    0    0    0  501  0.00000000000E+00  0.00000000000E+00 -0.47565361105E+03  0.47565361105E+03  0.25500000920E-02 0. -1.
    10030    2    1    2    0    0  0.00000000000E+00  0.00000000000E+00  0.55346797048E+03  0.15047751926E+04  0.13992932451E+04 0.  0.
        2    1    3    3  502    0  0.59352480015E+03  0.15367173700E+03  0.63921711865E+03  0.88571170023E+03  0.25500000920E-02 0.  1.
       -2    1    3    3    0  502 -0.59352480015E+03 -0.15367173700E+03 -0.85749148170E+02  0.61906349235E+03  0.25500000920E-02 0. -1.
</event>
<event>
 5   0  0.2467303E-05  0.1398545E+04  0.7818609E-02  0.8954873E-01
       -1   -1    0    0    0  501  0.00000000000E+00  0.00000000000E+00  0.19961443059E+03  0.19961443065E+03  0.50400001928E-02 0. -1.
        1   -1    0    0  501    0  0.00000000000E+00  0.00000000000E+00 -0.24496318997E+04  0.24496318997E+04  0.50400001928E-02 0.  1.
    10030    2    1    2    0    0  0.00000000000E+00  0.00000000000E+00 -0.22500174691E+04  0.26492463303E+04  0.13985447821E+04 0.  0.
        3    1    3    3  502    0 -0.93864726097E+02 -0.24066031529E+03 -0.23559371436E+04  0.23700564991E+04  0.10100000352E+00 0.  1.
       -3    1    3    3    0  502  0.93864726097E+02  0.24066031529E+03  0.10591967458E+03  0.27918983117E+03  0.10100000352E+00 0. -1.
</event>
<event>
 5   0  0.2316714E-05  0.1399445E+04  0.7818609E-02  0.8954220E-01
        1   -1    0    0  501    0  0.00000000000E+00  0.00000000000E+00  0.12206766977E+04  0.12206766977E+04  0.50400001928E-02 0. -1.
       -1   -1    0    0    0  501  0.00000000000E+00  0.00000000000E+00 -0.40109854253E+03  0.40109854256E+03  0.50400001928E-02 0.  1.
    10030    2    1    2    0    0  0.00000000000E+00  0.00000000000E+00  0.81957815517E+03  0.16217752403E+04  0.13994450963E+04 0.  0.
        5    1    3    3  502    0  0.12892940393E+03 -0.43332686241E+03 -0.20908949326E+03  0.49813197757E+03  0.46999998093E+01 0.  1.
       -5    1    3    3    0  502 -0.12892940393E+03  0.43332686241E+03  0.10286676484E+04  0.11236432627E+04  0.46999998093E+01 0. -1.
</event>
<event>
 5   0  0.4460282E-05  0.1399958E+04  0.7818609E-02  0.8953849E-01
       -2   -1    0    0    0  501  0.00000000000E+00  0.00000000000E+00  0.23418551197E+03  0.23418551198E+03  0.25500000920E-02 0.  1.
        2   -1    0    0  501    0  0.00000000000E+00  0.00000000000E+00 -0.20922321529E+04  0.20922321529E+04  0.25500000920E-02 0. -1.
    10030    2    1    2    0    0  0.00000000000E+00  0.00000000000E+00 -0.18580466409E+04  0.23264176649E+04  0.13999577964E+04 0.  0.
        1    1    3    3  502    0  0.24647658547E+03 -0.33774159068E+03 -0.18619159312E+04  0.19082848383E+04  0.50400001928E-02 0. -1.
       -1    1    3    3    0  502 -0.24647658547E+03  0.33774159068E+03  0.38692902277E+01  0.41813282661E+03  0.50400001928E-02 0.  1.
</event>
<event>
 5   0  0.4621450E-05  0.1398298E+04  0.7818609E-02  0.8955051E-01
       -2   -1    0    0    0  501  0.00000000000E+00  0.00000000000E+00  0.20821185725E+03  0.20821185726E+03  0.25500000920E-02 0.  1.
        2   -1    0    0  501    0  0.00000000000E+00  0.00000000000E+00 -0.23476540175E+04  0.23476540175E+04  0.25500000920E-02 0. -1.
    10030    2    1    2    0    0  0.00000000000E+00  0.00000000000E+00 -0.21394421603E+04  0.25558658748E+04  0.13982981130E+04 0.  0.
        5    1    3    3  502    0 -0.50857099789E+03  0.18958230463E+03 -0.26422307443E+03  0.60367361478E+03  0.46999998093E+01 0.  1.
       -5    1    3    3    0  502  0.50857099789E+03 -0.18958230463E+03 -0.18752190859E+04  0.19521922600E+04  0.46999998093E+01 0. -1.
</event>
<event>
 5   0  0.4621450E-05  0.1399704E+04  0.7818609E-02  0.8954033E-01
       -2   -1    0    0    0  501  0.00000000000E+00  0.00000000000E+00  0.39259750117E+03  0.39259750118E+03  0.25500000920E-02 0.  1.
        2   -1    0    0  501    0  0.00000000000E+00  0.00000000000E+00 -0.12475695545E+04  0.12475695545E+04  0.25500000920E-02 0. -1.
    10030    2    1    2    0    0  0.00000000000E+00  0.00000000000E+00 -0.85497205337E+03  0.16401670557E+04  0.13997038110E+04 0.  0.
        5    1    3    3  502    0 -0.56431429722E+03  0.38352671064E+03 -0.24509483001E+03  0.72500822721E+03  0.46999998093E+01 0.  1.
       -5    1    3    3    0  502  0.56431429722E+03 -0.38352671064E+03 -0.60987722335E+03  0.91515882850E+03  0.46999998093E+01 0. -1.
</event>
<event>
 5   0  0.2428507E-05  0.1399494E+04  0.7818609E-02  0.8954185E-01
       -1   -1    0    0    0  501  0.00000000000E+00  0.00000000000E+00  0.75494589701E+03  0.75494589702E+03  0.50400001928E-02 0.  1.
        1   -1    0    0  501    0  0.00000000000E+00  0.00000000000E+00 -0.64858401928E+03  0.64858401930E+03  0.50400001928E-02 0. -1.
    10030    2    1    2    0    0  0.00000000000E+00  0.00000000000E+00  0.10636187772E+03  0.14035299163E+04  0.13994939718E+04 0.  0.
        4    1    3    3  502    0 -0.67594623496E+02  0.63205756308E+03 -0.24020062045E+03  0.67953200597E+03  0.12699999809E+01 0. -1.
       -4    1    3    3    0  502  0.67594623496E+02 -0.63205756308E+03  0.34656249817E+03  0.72399791036E+03  0.12699999809E+01 0.  1.
</event>
<event>
 5   0  0.2428507E-05  0.1400087E+04  0.7818609E-02  0.8953755E-01
       -1   -1    0    0    0  501  0.00000000000E+00  0.00000000000E+00  0.18448539545E+03  0.18448539552E+03  0.50400001928E-02 0.  1.
        1   -1    0    0  501    0  0.00000000000E+00  0.00000000000E+00 -0.26563674279E+04  0.26563674279E+04  0.50400001928E-02 0. -1.
    10030    2    1    2    0    0  0.00000000000E+00  0.00000000000E+00 -0.24718820324E+04  0.28408528234E+04  0.14000871337E+04 0.  0.
        4    1    3    3  502    0 -0.26171045037E+03  0.25282815808E+03 -0.22497079938E+02  0.36458492681E+03  0.12699999809E+01 0.  1.
       -4    1    3    3    0  502  0.26171045037E+03 -0.25282815808E+03 -0.24493849525E+04  0.24762678966E+04  0.12699999809E+01 0. -1.
</event>
<event>
 5   0  0.2363419E-05  0.1399832E+04  0.7818609E-02  0.8953940E-01
       -1   -1    0    0    0  501  0.00000000000E+00  0.00000000000E+00  0.37360272977E+03  0.37360272980E+03  0.50400001928E-02 0.  1.
        1   -1    0    0  501    0  0.00000000000E+00  0.00000000000E+00 -0.13112391873E+04  0.13112391873E+04  0.50400001928E-02 0. -1.
    10030    2    1    2    0    0  0.00000000000E+00  0.00000000000E+00 -0.93763645752E+03  0.16848419171E+04  0.13998321896E+04 0.  0.
        2    1    3    3  502    0 -0.60490867336E+03  0.92855431431E+02 -0.60043278703E+02  0.61493237805E+03  0.25500000920E-02 0. -1.
       -2    1    3    3    0  502  0.60490867336E+03 -0.92855431431E+02 -0.87759317882E+03  0.10699095391E+04  0.25500000920E-02 0.  1.
</event>
<event>
 5   0  0.4460282E-05  0.1399713E+04  0.7818609E-02  0.8954026E-01
        2   -1    0    0  501    0  0.00000000000E+00  0.00000000000E+00  0.94159848877E+03  0.94159848877E+03  0.25500000920E-02 0.  1.
       -2   -1    0    0    0  501  0.00000000000E+00  0.00000000000E+00 -0.52017814102E+03  0.52017814102E+03  0.25500000920E-02 0. -1.
    10030    2    1    2    0    0  0.00000000000E+00  0.00000000000E+00  0.42142034775E+03  0.14617766298E+04  0.13997127584E+04 0.  0.
        1    1    3    3  502    0 -0.29631191916E+03  0.10648155898E+03  0.86345208220E+03  0.91906940659E+03  0.50400001928E-02 0.  1.
       -1    1    3    3    0  502  0.29631191916E+03 -0.10648155898E+03 -0.44203173445E+03  0.54270722321E+03  0.50400001928E-02 0. -1.
</event>
<event>
 5   0  0.4621450E-05  0.1399927E+04  0.7818609E-02  0.8953871E-01
        2   -1    0    0  501    0  0.00000000000E+00  0.00000000000E+00  0.14811377654E+04  0.14811377654E+04  0.25500000920E-02 0.  1.
       -2   -1    0    0    0  501  0.00000000000E+00  0.00000000000E+00 -0.33079235670E+03  0.33079235671E+03  0.25500000920E-02 0. -1.
    10030    2    1    2    0    0  0.00000000000E+00  0.00000000000E+00  0.11503454087E+04  0.18119301222E+04  0.13999272153E+04 0.  0.
        5    1    3    3  502    0 -0.44885878037E+03  0.99343216434E+02 -0.10797376155E+03  0.47225385392E+03  0.46999998093E+01 0. -1.
       -5    1    3    3    0  502  0.44885878037E+03 -0.99343216434E+02  0.12583191703E+04  0.13396762682E+04  0.46999998093E+01 0.  1.
</event>
<event>
 5   0  0.4441253E-05  0.1400018E+04  0.7818609E-02  0.8953806E-01
       -2   -1    0    0    0  501  0.00000000000E+00  0.00000000000E+00  0.42262824123E+03  0.42262824124E+03  0.25500000920E-02 0.  1.
        2   -1    0    0  501    0  0.00000000000E+00  0.00000000000E+00 -0.11594407005E+04  0.11594407005E+04  0.25500000920E-02 0. -1.
    10030    2    1    2    0    0  0.00000000000E+00  0.00000000000E+00 -0.73681245928E+03  0.15820689418E+04  0.14000176914E+04 0.  0.
        3    1    3    3  502    0  0.10569024831E+03 -0.45084586542E+03 -0.96162610096E+03  0.10673130709E+04  0.10100000352E+00 0. -1.
       -3    1    3    3    0  502 -0.10569024831E+03  0.45084586542E+03  0.22481364168E+03  0.51475587091E+03  0.10100000352E+00 0.  1.
</event>
<event>
 5   0  0.2428507E-05  0.1400394E+04  0.7818609E-02  0.8953533E-01
        1   -1    0    0  501    0  0.00000000000E+00  0.00000000000E+00  0.18745359323E+04  0.18745359323E+04  0.50400001928E-02 0.  1.
       -1   -1    0    0    0  501  0.00000000000E+00  0.00000000000E+00 -0.26154524960E+03  0.26154524965E+03  0.50400001928E-02 0. -1.
    10030    2    1    2    0    0  0.00000000000E+00  0.00000000000E+00  0.16129906827E+04  0.21360811820E+04  0.14003941850E+04 0.  0.
        4    1    3    3  502    0  0.50642873005E+02 -0.68037785818E+03  0.56630530667E+03  0.88666907229E+03  0.12699999809E+01 0.  1.
       -4    1    3    3    0  502 -0.50642873005E+02  0.68037785818E+03  0.10466853760E+04  0.12494121097E+04  0.12699999809E+01 0. -1.
</event>
<event>
 5   0  0.4460282E-05  0.1399291E+04  0.7818609E-02  0.8954332E-01
        2   -1    0    0  501    0  0.00000000000E+00  0.00000000000E+00  0.72612309541E+03  0.72612309542E+03  0.25500000920E-02 0.  1.
       -2   -1    0    0    0  501  0.00000000000E+00  0.00000000000E+00 -0.67413362220E+03  0.67413362221E+03  0.25500000920E-02 0. -1.
    10030    2    1    2    0    0  0.00000000000E+00  0.00000000000E+00  0.51989473211E+02  0.14002567176E+04  0.13992912384E+04 0.  0.
        1    1    3    3  502    0 -0.14002233302E+03  0.60917883934E+02  0.70924453618E+03  0.72549641933E+03  0.50400001928E-02 0.  1.
       -1    1    3    3    0  502  0.14002233302E+03 -0.60917883934E+02 -0.65725506297E+03  0.67476029829E+03  0.50400001928E-02 0. -1.
</event>
<event>
 5   0  0.2428507E-05  0.1400307E+04  0.7818609E-02  0.8953597E-01
       -1   -1    0    0    0  501  0.00000000000E+00  0.00000000000E+00  0.27192204214E+03  0.27192204219E+03  0.50400001928E-02 0. -1.
        1   -1    0    0  501    0  0.00000000000E+00  0.00000000000E+00 -0.18027764791E+04  0.18027764792E+04  0.50400001928E-02 0.  1.
    10030    2    1    2    0    0  0.00000000000E+00  0.00000000000E+00 -0.15308544370E+04  0.20746985213E+04  0.14003066261E+04 0.  0.
        4    1    3    3  502    0 -0.57416953425E+02  0.15069479467E+03  0.24402994230E+03  0.29250274071E+03  0.12699999809E+01 0. -1.
       -4    1    3    3    0  502  0.57416953425E+02 -0.15069479467E+03 -0.17748843793E+04  0.17821957806E+04  0.12699999809E+01 0.  1.
</event>
<event>
 5   0  0.4441253E-05  0.1399747E+04  0.7818609E-02  0.8954002E-01
        2   -1    0    0  501    0  0.00000000000E+00  0.00000000000E+00  0.14637804349E+04  0.14637804349E+04  0.25500000920E-02 0.  1.
       -2   -1    0    0    0  501  0.00000000000E+00  0.00000000000E+00 -0.33462857729E+03  0.33462857730E+03  0.25500000920E-02 0. -1.
    10030    2    1    2    0    0  0.00000000000E+00  0.00000000000E+00  0.11291518576E+04  0.17984090122E+04  0.13997467834E+04 0.  0.
        3    1    3    3  502    0  0.14919034447E+03  0.18771817910E+03 -0.28020696607E+03  0.36879781410E+03  0.10100000352E+00 0. -1.
       -3    1    3    3    0  502 -0.14919034447E+03 -0.18771817910E+03  0.14093588237E+04  0.14296111981E+04  0.10100000352E+00 0.  1.
</event>
<event>
 5   0  0.4527503E-05  0.1398907E+04  0.7818609E-02  0.8954610E-01
        2   -1    0    0  501    0  0.00000000000E+00  0.00000000000E+00  0.59929337289E+03  0.59929337290E+03  0.25500000920E-02 0.  1.
       -2   -1    0    0    0  501  0.00000000000E+00  0.00000000000E+00 -0.81635339363E+03  0.81635339364E+03  0.25500000920E-02 0. -1.
    10030    2    1    2    0    0  0.00000000000E+00  0.00000000000E+00 -0.21706002074E+03  0.14156467665E+04  0.13989069715E+04 0.  0.
        4    1    3    3  502    0  0.40964359379E+03  0.18171281316E+03 -0.65199093321E+03  0.79115182506E+03  0.12699999809E+01 0. -1.
       -4    1    3    3    0  502 -0.40964359379E+03 -0.18171281316E+03  0.43493091247E+03  0.62449494147E+03  0.12699999809E+01 0.  1.
</event>
<event>
 5   0  0.2427569E-05  0.1400073E+04  0.7818609E-02  0.8953766E-01
       -1   -1    0    0    0  501  0.00000000000E+00  0.00000000000E+00  0.63676751161E+03  0.63676751163E+03  0.50400001928E-02 0.  1.
        1   -1    0    0  501    0  0.00000000000E+00  0.00000000000E+00 -0.76959214179E+03  0.76959214181E+03  0.50400001928E-02 0. -1.
    10030    2    1    2    0    0  0.00000000000E+00  0.00000000000E+00 -0.13282463018E+03  0.14063596534E+04  0.14000732454E+04 0.  0.
        1    1    3    3  502    0 -0.35941107384E+03 -0.54148418005E+03 -0.32771459769E+03  0.72785870525E+03  0.50400001928E-02 0. -1.
       -1    1    3    3    0  502  0.35941107384E+03  0.54148418005E+03  0.19488996751E+03  0.67850094820E+03  0.50400001928E-02 0.  1.
</event>
<event>
 5   0  0.4460282E-05  0.1400955E+04  0.7818609E-02  0.8953128E-01
        2   -1    0    0  501    0  0.00000000000E+00  0.00000000000E+00  0.24209531134E+04  0.24209531134E+04  0.25500000920E-02 0. -1.
       -2   -1    0    0    0  501  0.00000000000E+00  0.00000000000E+00 -0.20267575518E+03  0.20267575520E+03  0.25500000920E-02 0.  1.
    10030    2    1    2    0    0  0.00000000000E+00  0.00000000000E+00  0.22182773582E+04  0.26236288686E+04  0.14009546753E+04 0.  0.
        1    1    3    3  502    0 -0.45644750480E+03  0.28837382723E+03  0.27337304007E+03  0.60517485732E+03  0.50400001928E-02 0.  1.
       -1    1    3    3    0  502  0.45644750480E+03 -0.28837382723E+03  0.19449043181E+04  0.20184540113E+04  0.50400001928E-02 0. -1.
</event>
<event>
 5   0  0.2316714E-05  0.1398504E+04  0.7818609E-02  0.8954902E-01
        1   -1    0    0  501    0  0.00000000000E+00  0.00000000000E+00  0.13813171175E+04  0.13813171175E+04  0.50400001928E-02 0. -1.
       -1   -1    0    0    0  501  0.00000000000E+00  0.00000000000E+00 -0.35397632704E+03  0.35397632708E+03  0.50400001928E-02 0.  1.
    10030    2    1    2    0    0  0.00000000000E+00  0.00000000000E+00  0.10273407905E+04  0.17352934446E+04  0.13985042864E+04 0.  0.
        5    1    3    3  502    0  0.47471020029E+03 -0.83820981722E+02  0.11421627382E+04  0.12397312377E+04  0.46999998093E+01 0. -1.
       -5    1    3    3    0  502 -0.47471020029E+03  0.83820981722E+02 -0.11482194771E+03  0.49556220690E+03  0.46999998093E+01 0.  1.
</event>
<event>
 5   0  0.2316714E-05  0.1400229E+04  0.7818609E-02  0.8953653E-01
       -1   -1    0    0    0  501  0.00000000000E+00  0.00000000000E+00  0.47476469426E+03  0.47476469428E+03  0.50400001928E-02 0. -1.
        1   -1    0    0  501    0  0.00000000000E+00  0.00000000000E+00 -0.10324279795E+04  0.10324279795E+04  0.50400001928E-02 0.  1.
    10030    2    1    2    0    0  0.00000000000E+00  0.00000000000E+00 -0.55766328520E+03  0.15071926737E+04  0.14002290585E+04 0.  0.
        5    1    3    3  502    0 -0.11802242743E+03  0.47242959653E+03  0.26260353347E+03  0.55326460473E+03  0.46999998093E+01 0. -1.
       -5    1    3    3    0  502  0.11802242743E+03 -0.47242959653E+03 -0.82026681867E+03  0.95392806902E+03  0.46999998093E+01 0.  1.
</event>
<event>
 5   0  0.2428507E-05  0.1400559E+04  0.7818609E-02  0.8953414E-01
       -1   -1    0    0    0  501  0.00000000000E+00  0.00000000000E+00  0.13067294217E+04  0.13067294218E+04  0.50400001928E-02 0.  1.
        1   -1    0    0  501    0  0.00000000000E+00  0.00000000000E+00 -0.37528125890E+03  0.37528125893E+03  0.50400001928E-02 0. -1.
    10030    2    1    2    0    0  0.00000000000E+00  0.00000000000E+00  0.93144816284E+03  0.16820106807E+04  0.14005585492E+04 0.  0.
        4    1    3    3  502    0  0.64127669172E+01 -0.70008363734E+03  0.44746215919E+03  0.83089242364E+03  0.12699999809E+01 0.  1.
       -4    1    3    3    0  502 -0.64127669172E+01  0.70008363734E+03  0.48398600365E+03  0.85111825705E+03  0.12699999809E+01 0. -1.
</event>
<event>
 5   0  0.2467303E-05  0.1399669E+04  0.7818609E-02  0.8954058E-01
       -1   -1    0    0    0  501  0.00000000000E+00  0.00000000000E+00  0.11165131826E+04  0.11165131826E+04  0.50400001928E-02 0. -1.
        1   -1    0    0  501    0  0.00000000000E+00  0.00000000000E+00 -0.43865877106E+03  0.43865877109E+03  0.50400001928E-02 0.  1.
    10030    2    1    2    0    0  0.00000000000E+00  0.00000000000E+00  0.67785441149E+03  0.15551719537E+04  0.13996689617E+04 0.  0.
        3    1    3    3  502    0 -0.69004035906E+03 -0.10950643159E+03  0.38366101075E+03  0.79708414679E+03  0.10100000352E+00 0. -1.
       -3    1    3    3    0  502  0.69004035906E+03  0.10950643159E+03  0.29419340073E+03  0.75808780687E+03  0.10100000352E+00 0.  1.
</event>
<event>
 5   0  0.2467303E-05  0.1399735E+04  0.7818609E-02  0.8954010E-01
        1   -1    0    0  501    0  0.00000000000E+00  0.00000000000E+00  0.13514517584E+04  0.13514517584E+04  0.50400001928E-02 0. -1.
       -1   -1    0    0    0  501  0.00000000000E+00  0.00000000000E+00 -0.36243591853E+03  0.36243591856E+03  0.50400001928E-02 0.  1.
    10030    2    1    2    0    0  0.00000000000E+00  0.00000000000E+00  0.98901583991E+03  0.17138876770E+04  0.13997352027E+04 0.  0.
        3    1    3    3  502    0  0.65055875147E+03  0.13732437866E+03  0.22700281440E+03  0.70257737085E+03  0.10100000352E+00 0.  1.
       -3    1    3    3    0  502 -0.65055875147E+03 -0.13732437866E+03  0.76201302551E+03  0.10113103062E+04  0.10100000352E+00 0. -1.
</event>
<event>
 5   0  0.2428507E-05  0.1400068E+04  0.7818609E-02  0.8953769E-01
        1   -1    0    0  501    0  0.00000000000E+00  0.00000000000E+00  0.13688537836E+04  0.13688537836E+04  0.50400001928E-02 0.  1.
       -1   -1    0    0    0  501  0.00000000000E+00  0.00000000000E+00 -0.35799847787E+03  0.35799847791E+03  0.50400001928E-02 0. -1.
    10030    2    1    2    0    0  0.00000000000E+00  0.00000000000E+00  0.10108553057E+04  0.17268522615E+04  0.14000679569E+04 0.  0.
        4    1    3    3  502    0  0.28987185980E+03  0.12046433752E+03 -0.26632250020E+03  0.41166325891E+03  0.12699999809E+01 0. -1.
       -4    1    3    3    0  502 -0.28987185980E+03 -0.12046433752E+03  0.12771778059E+04  0.13151890026E+04  0.12699999809E+01 0.  1.
</event>
<event>
 5   0  0.2467303E-05  0.1399862E+04  0.7818609E-02  0.8953919E-01
       -1   -1    0    0    0  501  0.00000000000E+00  0.00000000000E+00  0.62502941362E+03  0.62502941364E+03  0.50400001928E-02 0.  1.
        1   -1    0    0  501    0  0.00000000000E+00  0.00000000000E+00 -0.78380808581E+03  0.78380808583E+03  0.50400001928E-02 0. -1.
    10030    2    1    2    0    0  0.00000000000E+00  0.00000000000E+00 -0.15877867220E+03  0.14088374995E+04  0.13998615764E+04 0.  0.
        3    1    3    3  502    0 -0.51662162925E+02  0.37235226051E+03  0.51480973961E+03  0.63745138104E+03  0.10100000352E+00 0.  1.
       -3    1    3    3    0  502  0.51662162925E+02 -0.37235226051E+03 -0.67358841181E+03  0.77138611843E+03  0.10100000352E+00 0. -1.
</event>
<event>
 5   0  0.2427569E-05  0.1399401E+04  0.7818609E-02  0.8954252E-01
       -1   -1    0    0    0  501  0.00000000000E+00  0.00000000000E+00  0.60242569780E+03  0.60242569783E+03  0.50400001928E-02 0.  1.
        1   -1    0    0  501    0  0.00000000000E+00  0.00000000000E+00 -0.81268232370E+03  0.81268232372E+03  0.50400001928E-02 0. -1.
    10030    2    1    2    0    0  0.00000000000E+00  0.00000000000E+00 -0.21025662589E+03  0.14151080215E+04  0.13994008946E+04 0.  0.
        1    1    3    3  502    0  0.69244895013E+02  0.35776916491E+03  0.49889264574E+03  0.61780862963E+03  0.50400001928E-02 0.  1.
       -1    1    3    3    0  502 -0.69244895013E+02 -0.35776916491E+03 -0.70914927164E+03  0.79729939191E+03  0.50400001928E-02 0. -1.
</event>
<event>
 5   0  0.2316714E-05  0.1400079E+04  0.7818609E-02  0.8953761E-01
        1   -1    0    0  501    0  0.00000000000E+00  0.00000000000E+00  0.13954053789E+04  0.13954053789E+04  0.50400001928E-02 0. -1.
       -1   -1    0    0    0  501  0.00000000000E+00  0.00000000000E+00 -0.35119208104E+03  0.35119208108E+03  0.50400001928E-02 0.  1.
    10030    2    1    2    0    0  0.00000000000E+00  0.00000000000E+00  0.10442132978E+04  0.17465974600E+04  0.14000790248E+04 0.  0.
        5    1    3    3  502    0  0.53173927233E+03 -0.24152731806E+02 -0.45064194255E+02  0.53421239203E+03  0.46999998093E+01 0.  1.
       -5    1    3    3    0  502 -0.53173927233E+03  0.24152731806E+02  0.10892774921E+04  0.12123850679E+04  0.46999998093E+01 0. -1.
</event>
<event>
 5   0  0.4441253E-05  0.1400333E+04  0.7818609E-02  0.8953577E-01
       -2   -1    0    0    0  501  0.00000000000E+00  0.00000000000E+00  0.73434544136E+03  0.73434544136E+03  0.25500000920E-02 0. -1.
        2   -1    0    0  501    0  0.00000000000E+00  0.00000000000E+00 -0.66757875492E+03  0.66757875492E+03  0.25500000920E-02 0.  1.
    10030    2    1    2    0    0  0.00000000000E+00  0.00000000000E+00  0.66766686441E+02  0.14019241963E+04  0.14003334109E+04 0.  0.
        3    1    3    3  502    0  0.19519700081E+03 -0.35755874984E+03 -0.53672232214E+03  0.67381079688E+03  0.10100000352E+00 0.  1.
       -3    1    3    3    0  502 -0.19519700081E+03  0.35755874984E+03  0.60348900858E+03  0.72811339940E+03  0.10100000352E+00 0. -1.
</event>
<event>
 5   0  0.4243281E-05  0.1400005E+04  0.7818609E-02  0.8953815E-01
       -2   -1    0    0    0  501  0.00000000000E+00  0.00000000000E+00  0.34616300827E+03  0.34616300828E+03  0.25500000920E-02 0. -1.
        2   -1    0    0  501    0  0.00000000000E+00  0.00000000000E+00 -0.14155280334E+04  0.14155280334E+04  0.25500000920E-02 0.  1.
    10030    2    1    2    0    0  0.00000000000E+00  0.00000000000E+00 -0.10693650251E+04  0.17616910416E+04  0.14000049176E+04 0.  0.
        2    1    3    3  502    0  0.37657091872E+03  0.55670345183E+03 -0.28848663711E+03  0.73140203028E+03  0.25500000920E-02 0.  1.
       -2    1    3    3    0  502 -0.37657091872E+03 -0.55670345183E+03 -0.78087838798E+03  0.10302890114E+04  0.25500000920E-02 0. -1.
</event>
<event>
 5   0  0.2316714E-05  0.1400046E+04  0.7818609E-02  0.8953786E-01
        1   -1    0    0  501    0  0.00000000000E+00  0.00000000000E+00  0.20996293782E+04  0.20996293782E+04  0.50400001928E-02 0. -1.
       -1   -1    0    0    0  501  0.00000000000E+00  0.00000000000E+00 -0.23338972011E+03  0.23338972017E+03  0.50400001928E-02 0.  1.
    10030    2    1    2    0    0  0.00000000000E+00  0.00000000000E+00  0.18662396581E+04  0.23330190984E+04  0.14000455892E+04 0.  0.
        5    1    3    3  502    0  0.64804348755E+03  0.25478423093E+03  0.10525250654E+04  0.12620247499E+04  0.46999998093E+01 0. -1.
       -5    1    3    3    0  502 -0.64804348755E+03 -0.25478423093E+03  0.81371459269E+03  0.10709943485E+04  0.46999998093E+01 0.  1.
</event>
<event>
 5   0  0.4441253E-05  0.1399906E+04  0.7818609E-02  0.8953887E-01
       -2   -1    0    0    0  501  0.00000000000E+00  0.00000000000E+00  0.47443565252E+03  0.47443565253E+03  0.25500000920E-02 0. -1.
        2   -1    0    0  501    0  0.00000000000E+00  0.00000000000E+00 -0.10326668958E+04  0.10326668958E+04  0.25500000920E-02 0.  1.
    10030    2    1    2    0    0  0.00000000000E+00  0.00000000000E+00 -0.55823124326E+03  0.15071025483E+04  0.13999057005E+04 0.  0.
        3    1    3    3  502    0  0.57422808785E+03  0.33001025342E+03 -0.52292897333E+03  0.84385981394E+03  0.10100000352E+00 0.  1.
       -3    1    3    3    0  502 -0.57422808785E+03 -0.33001025342E+03 -0.35302269931E+02  0.66324273437E+03  0.10100000352E+00 0. -1.
</event>
<event>
 5   0  0.4460282E-05  0.1399869E+04  0.7818609E-02  0.8953913E-01
       -2   -1    0    0    0  501  0.00000000000E+00  0.00000000000E+00  0.44428264624E+03  0.44428264625E+03  0.25500000920E-02 0. -1.
        2   -1    0    0  501    0  0.00000000000E+00  0.00000000000E+00 -0.11026954947E+04  0.11026954947E+04  0.25500000920E-02 0.  1.
    10030    2    1    2    0    0  0.00000000000E+00  0.00000000000E+00 -0.65841284845E+03  0.15469781410E+04  0.13998692402E+04 0.  0.
        1    1    3    3  502    0 -0.13395492265E+03  0.87702245143E+02 -0.10821862806E+04  0.10939665219E+04  0.50400001928E-02 0.  1.
       -1    1    3    3    0  502  0.13395492265E+03 -0.87702245143E+02  0.42377343219E+03  0.45301161901E+03  0.50400001928E-02 0. -1.
</event>
<event>
 5   0  0.4527503E-05  0.1400085E+04  0.7818609E-02  0.8953757E-01
       -2   -1    0    0    0  501  0.00000000000E+00  0.00000000000E+00  0.29358833800E+03  0.29358833801E+03  0.25500000920E-02 0. -1.
        2   -1    0    0  501    0  0.00000000000E+00  0.00000000000E+00 -0.16692072621E+04  0.16692072621E+04  0.25500000920E-02 0.  1.
    10030    2    1    2    0    0  0.00000000000E+00  0.00000000000E+00 -0.13756189241E+04  0.19627956001E+04  0.14000854058E+04 0.  0.
        4    1    3    3  502    0  0.18801033593E+03  0.29913955730E+03 -0.15350393707E+04  0.15751761310E+04  0.12699999809E+01 0.  1.
       -4    1    3    3    0  502 -0.18801033593E+03 -0.29913955730E+03  0.15942044659E+03  0.38761946913E+03  0.12699999809E+01 0. -1.
</event>
<event>
 5   0  0.4243281E-05  0.1403104E+04  0.7818609E-02  0.8951575E-01
       -2   -1    0    0    0  501  0.00000000000E+00  0.00000000000E+00  0.57262467995E+03  0.57262467995E+03  0.25500000920E-02 0.  1.
        2   -1    0    0  501    0  0.00000000000E+00  0.00000000000E+00 -0.85950788135E+03  0.85950788136E+03  0.25500000920E-02 0. -1.
    10030    2    1    2    0    0  0.00000000000E+00  0.00000000000E+00 -0.28688320141E+03  0.14321325613E+04  0.14031043090E+04 0.  0.
        2    1    3    3  502    0  0.58277911064E+03 -0.33791053661E+03  0.56468547366E+02  0.67602050220E+03  0.25500000920E-02 0. -1.
       -2    1    3    3    0  502 -0.58277911064E+03  0.33791053661E+03 -0.34335174877E+03  0.75611205911E+03  0.25500000920E-02 0.  1.
</event>
<event>
 5   0  0.2316714E-05  0.1399950E+04  0.7818609E-02  0.8953855E-01
       -1   -1    0    0    0  501  0.00000000000E+00  0.00000000000E+00  0.44537008065E+03  0.44537008068E+03  0.50400001928E-02 0.  1.
        1   -1    0    0  501    0  0.00000000000E+00  0.00000000000E+00 -0.11001293601E+04  0.11001293601E+04  0.50400001928E-02 0. -1.
    10030    2    1    2    0    0  0.00000000000E+00  0.00000000000E+00 -0.65475927944E+03  0.15454994408E+04  0.13999495732E+04 0.  0.
        5    1    3    3  502    0  0.32974566069E+03 -0.12552286737E+03 -0.99475945857E+03  0.10554888258E+04  0.46999998093E+01 0. -1.
       -5    1    3    3    0  502 -0.32974566069E+03  0.12552286737E+03  0.34000017913E+03  0.49001061497E+03  0.46999998093E+01 0.  1.
</event>
<event>
 5   0  0.4243281E-05  0.1400530E+04  0.7818609E-02  0.8953435E-01
       -2   -1    0    0    0  501  0.00000000000E+00  0.00000000000E+00  0.36647441905E+03  0.36647441906E+03  0.25500000920E-02 0. -1.
        2   -1    0    0  501    0  0.00000000000E+00  0.00000000000E+00 -0.13380767288E+04  0.13380767288E+04  0.25500000920E-02 0.  1.
    10030    2    1    2    0    0  0.00000000000E+00  0.00000000000E+00 -0.97160230971E+03  0.17045511478E+04  0.14005297452E+04 0.  0.
        2    1    3    3  502    0  0.63137650127E+03  0.40461238690E+02 -0.85112166488E+03  0.10605100125E+04  0.25500000920E-02 0.  1.
       -2    1    3    3    0  502 -0.63137650127E+03 -0.40461238690E+02 -0.12048064483E+03  0.64404113531E+03  0.25500000920E-02 0. -1.
</event>
<event>
 5   0  0.2316714E-05  0.1400485E+04  0.7818609E-02  0.8953468E-01
       -1   -1    0    0    0  501  0.00000000000E+00  0.00000000000E+00  0.64281224139E+03  0.64281224141E+03  0.50400001928E-02 0.  1.
        1   -1    0    0  501    0  0.00000000000E+00  0.00000000000E+00 -0.76280354351E+03  0.76280354353E+03  0.50400001928E-02 0. -1.
    10030    2    1    2    0    0  0.00000000000E+00  0.00000000000E+00 -0.11999130213E+03  0.14056157849E+04  0.14004848526E+04 0.  0.
        5    1    3    3  502    0 -0.12284549045E+03  0.62758244465E+03  0.22629776729E+03  0.67836826933E+03  0.46999998093E+01 0.  1.
       -5    1    3    3    0  502  0.12284549045E+03 -0.62758244465E+03 -0.34628906942E+03  0.72724751561E+03  0.46999998093E+01 0. -1.
</event>
<event>
 5   0  0.2363419E-05  0.1400871E+04  0.7818609E-02  0.8953188E-01
       -1   -1    0    0    0  501  0.00000000000E+00  0.00000000000E+00  0.39715264908E+03  0.39715264912E+03  0.50400001928E-02 0.  1.
        1   -1    0    0  501    0  0.00000000000E+00  0.00000000000E+00 -0.12353177891E+04  0.12353177892E+04  0.50400001928E-02 0. -1.
    10030    2    1    2    0    0  0.00000000000E+00  0.00000000000E+00 -0.83816514006E+03  0.16324704383E+04  0.14008707756E+04 0.  0.
        2    1    3    3  502    0 -0.47351549866E+03 -0.52897167615E+01 -0.10205133989E+04  0.11250300023E+04  0.25500000920E-02 0. -1.
       -2    1    3    3    0  502  0.47351549866E+03  0.52897167615E+01  0.18234825887E+03  0.50744043601E+03  0.25500000920E-02 0.  1.
</event>
<event>
 5   0  0.2363419E-05  0.1400004E+04  0.7818609E-02  0.8953816E-01
        1   -1    0    0  501    0  0.00000000000E+00  0.00000000000E+00  0.12437049777E+04  0.12437049778E+04  0.50400001928E-02 0.  1.
       -1   -1    0    0    0  501  0.00000000000E+00  0.00000000000E+00 -0.39398609917E+03  0.39398609920E+03  0.50400001928E-02 0. -1.
    10030    2    1    2    0    0  0.00000000000E+00  0.00000000000E+00  0.84971887857E+03  0.16376910770E+04  0.14000035325E+04 0.  0.
        2    1    3    3  502    0 -0.52567380083E+03 -0.40650947166E+03  0.16745659106E+03  0.68529162064E+03  0.25500000920E-02 0.  1.
       -2    1    3    3    0  502  0.52567380083E+03  0.40650947166E+03  0.68226228751E+03  0.95239945632E+03  0.25500000920E-02 0. -1.
</event>
<event>
 5   0  0.2428507E-05  0.1399829E+04  0.7818609E-02  0.8953942E-01
       -1   -1    0    0    0  501  0.00000000000E+00  0.00000000000E+00  0.33468920532E+03  0.33468920536E+03  0.50400001928E-02 0.  1.
        1   -1    0    0  501    0  0.00000000000E+00  0.00000000000E+00 -0.14636875371E+04  0.14636875371E+04  0.50400001928E-02 0. -1.
    10030    2    1    2    0    0  0.00000000000E+00  0.00000000000E+00 -0.11289983317E+04  0.17983767424E+04  0.13998291591E+04 0.  0.
        4    1    3    3  502    0  0.48544116060E+03  0.73660813098E+02 -0.12053111555E+04  0.13014820898E+04  0.12699999809E+01 0. -1.
       -4    1    3    3    0  502 -0.48544116060E+03 -0.73660813098E+02  0.76312823742E+02  0.49689465258E+03  0.12699999809E+01 0.  1.
</event>
<event>
 5   0  0.4460282E-05  0.1390666E+04  0.7818609E-02  0.8960603E-01
       -2   -1    0    0    0  501  0.00000000000E+00  0.00000000000E+00  0.27033607027E+03  0.27033607028E+03  0.25500000920E-02 0. -1.
        2   -1    0    0  501    0  0.00000000000E+00  0.00000000000E+00 -0.17884705217E+04  0.17884705217E+04  0.25500000920E-02 0.  1.
    10030    2    1    2    0    0  0.00000000000E+00  0.00000000000E+00 -0.15181344514E+04  0.20588065920E+04  0.13906661607E+04 0.  0.
        1    1    3    3  502    0 -0.35959986873E+02 -0.48157624628E+03 -0.18430708710E+02  0.48326855131E+03  0.50400001928E-02 0. -1.
       -1    1    3    3    0  502  0.35959986873E+02  0.48157624628E+03 -0.14997037427E+04  0.15755380406E+04  0.50400001928E-02 0.  1.
</event>
<event>
 5   0  0.4527503E-05  0.1400401E+04  0.7818609E-02  0.8953528E-01
        2   -1    0    0  501    0  0.00000000000E+00  0.00000000000E+00  0.10241895244E+04  0.10241895244E+04  0.25500000920E-02 0.  1.
       -2   -1    0    0    0  501  0.00000000000E+00  0.00000000000E+00 -0.47870103598E+03  0.47870103598E+03  0.25500000920E-02 0. -1.
    10030    2    1    2    0    0  0.00000000000E+00  0.00000000000E+00  0.54548848845E+03  0.15028905604E+04  0.14004007803E+04 0.  0.
        4    1    3    3  502    0  0.52736321879E+03 -0.39792057009E+03  0.23759929110E+02  0.66107404408E+03  0.12699999809E+01 0. -1.
       -4    1    3    3    0  502 -0.52736321879E+03  0.39792057009E+03  0.52172855934E+03  0.84181651632E+03  0.12699999809E+01 0.  1.
</event>
<event>
 5   0  0.2467303E-05  0.1400077E+04  0.7818609E-02  0.8953763E-01
        1   -1    0    0  501    0  0.00000000000E+00  0.00000000000E+00  0.11334092666E+04  0.11334092666E+04  0.50400001928E-02 0.  1.
       -1   -1    0    0    0  501  0.00000000000E+00  0.00000000000E+00 -0.43237145598E+03  0.43237145601E+03  0.50400001928E-02 0. -1.
    10030    2    1    2    0    0  0.00000000000E+00  0.00000000000E+00  0.70103781062E+03  0.15657807226E+04  0.14000768762E+04 0.  0.
        3    1    3    3  502    0  0.58125996774E+02 -0.63115495302E+03  0.68287614488E+03  0.93169471699E+03  0.10100000352E+00 0.  1.
       -3    1    3    3    0  502 -0.58125996774E+02  0.63115495302E+03  0.18161665744E+02  0.63408600563E+03  0.10100000352E+00 0. -1.
</event>
<event>
 5   0  0.4441253E-05  0.1400192E+04  0.7818609E-02  0.8953679E-01
       -2   -1    0    0    0  501  0.00000000000E+00  0.00000000000E+00  0.72011374612E+03  0.72011374612E+03  0.25500000920E-02 0. -1.
        2   -1    0    0  501    0  0.00000000000E+00  0.00000000000E+00 -0.68063481715E+03  0.68063481715E+03  0.25500000920E-02 0.  1.
    10030    2    1    2    0    0  0.00000000000E+00  0.00000000000E+00  0.39478928972E+02  0.14007485633E+04  0.14001921124E+04 0.  0.
        3    1    3    3  502    0  0.29310591523E+03  0.12173225801E+03 -0.60453149105E+03  0.68277972587E+03  0.10100000352E+00 0.  1.
       -3    1    3    3    0  502 -0.29310591523E+03 -0.12173225801E+03  0.64401042002E+03  0.71796883740E+03  0.10100000352E+00 0. -1.
</event>
<event>
 5   0  0.2467303E-05  0.1400423E+04  0.7818609E-02  0.8953513E-01
       -1   -1    0    0    0  501  0.00000000000E+00  0.00000000000E+00  0.36698961479E+03  0.36698961483E+03  0.50400001928E-02 0.  1.
        1   -1    0    0  501    0  0.00000000000E+00  0.00000000000E+00 -0.13359943329E+04  0.13359943329E+04  0.50400001928E-02 0. -1.
    10030    2    1    2    0    0  0.00000000000E+00  0.00000000000E+00 -0.96900471806E+03  0.17029839477E+04  0.14004228585E+04 0.  0.
        3    1    3    3  502    0  0.38519585939E+03  0.15448540986E+02  0.22632169152E+03  0.44703022914E+03  0.10100000352E+00 0.  1.
       -3    1    3    3    0  502 -0.38519585939E+03 -0.15448540986E+02 -0.11953264096E+04  0.12559537186E+04  0.10100000352E+00 0. -1.
</event>
<event>
 5   0  0.2363419E-05  0.1399829E+04  0.7818609E-02  0.8953942E-01
       -1   -1    0    0    0  501  0.00000000000E+00  0.00000000000E+00  0.60714363409E+03  0.60714363411E+03  0.50400001928E-02 0.  1.
        1   -1    0    0  501    0  0.00000000000E+00  0.00000000000E+00 -0.80686103155E+03  0.80686103157E+03  0.50400001928E-02 0. -1.
    10030    2    1    2    0    0  0.00000000000E+00  0.00000000000E+00 -0.19971739746E+03  0.14140046657E+04  0.13998293309E+04 0.  0.
        2    1    3    3  502    0  0.20079278805E+03  0.11248087983E+03  0.56782714237E+03  0.61269678935E+03  0.25500000920E-02 0.  1.
       -2    1    3    3    0  502 -0.20079278805E+03 -0.11248087983E+03 -0.76754453982E+03  0.80130787634E+03  0.25500000920E-02 0. -1.
</event>
<event>
 5   0  0.4243281E-05  0.1400276E+04  0.7818609E-02  0.8953619E-01
        2   -1    0    0  501    0  0.00000000000E+00  0.00000000000E+00  0.70617383357E+03  0.70617383358E+03  0.25500000920E-02 0.  1.
       -2   -1    0    0    0  501  0.00000000000E+00  0.00000000000E+00 -0.69415364391E+03  0.69415364391E+03  0.25500000920E-02 0. -1.
    10030    2    1    2    0    0  0.00000000000E+00  0.00000000000E+00  0.12020189666E+02  0.14003274775E+04  0.14002758868E+04 0.  0.
        2    1    3    3  502    0  0.52003231196E+03 -0.45952384229E+03 -0.86715339738E+02  0.69936779827E+03  0.25500000920E-02 0.  1.
       -2    1    3    3    0  502 -0.52003231196E+03  0.45952384229E+03  0.98735529404E+02  0.70095967921E+03  0.25500000920E-02 0. -1.
</event>
<event>
 5   0  0.2316714E-05  0.1399875E+04  0.7818609E-02  0.8953909E-01
       -1   -1    0    0    0  501  0.00000000000E+00  0.00000000000E+00  0.58385915229E+03  0.58385915232E+03  0.50400001928E-02 0. -1.
        1   -1    0    0  501    0  0.00000000000E+00  0.00000000000E+00 -0.83909316074E+03  0.83909316076E+03  0.50400001928E-02 0.  1.
    10030    2    1    2    0    0  0.00000000000E+00  0.00000000000E+00 -0.25523400845E+03  0.14229523131E+04  0.13998745966E+04 0.  0.
        5    1    3    3  502    0 -0.21276425827E+03  0.59626245311E+03 -0.43102149400E+03  0.76589761775E+03  0.46999998093E+01 0.  1.
       -5    1    3    3    0  502  0.21276425827E+03 -0.59626245311E+03  0.17578748555E+03  0.65705469533E+03  0.46999998093E+01 0. -1.
</event>
<event>
 5   0  0.2427569E-05  0.1400486E+04  0.7818609E-02  0.8953467E-01
        1   -1    0    0  501    0  0.00000000000E+00  0.00000000000E+00  0.83886280407E+03  0.83886280409E+03  0.50400001928E-02 0. -1.
       -1   -1    0    0    0  501  0.00000000000E+00  0.00000000000E+00 -0.58452970427E+03  0.58452970429E+03  0.50400001928E-02 0.  1.
    10030    2    1    2    0    0  0.00000000000E+00  0.00000000000E+00  0.25433309980E+03  0.14233925084E+04  0.14004859540E+04 0.  0.
        1    1    3    3  502    0 -0.65975019715E+03  0.91636677174E+02  0.34673858404E+03  0.75092958986E+03  0.50400001928E-02 0. -1.
       -1    1    3    3    0  502  0.65975019715E+03 -0.91636677174E+02 -0.92405484238E+02  0.67246291852E+03  0.50400001928E-02 0.  1.
</event>
<event>
 5   0  0.4527503E-05  0.1401164E+04  0.7818609E-02  0.8952977E-01
        2   -1    0    0  501    0  0.00000000000E+00  0.00000000000E+00  0.42196475551E+03  0.42196475552E+03  0.25500000920E-02 0. -1.
       -2   -1    0    0    0  501  0.00000000000E+00  0.00000000000E+00 -0.11631656112E+04  0.11631656112E+04  0.25500000920E-02 0.  1.
    10030    2    1    2    0    0  0.00000000000E+00  0.00000000000E+00 -0.74120085567E+03  0.15851303667E+04  0.14011636489E+04 0.  0.
        4    1    3    3  502    0 -0.69261352102E+02 -0.53277464966E+03  0.13806427092E+03  0.55471552891E+03  0.12699999809E+01 0. -1.
       -4    1    3    3    0  502  0.69261352102E+02  0.53277464966E+03 -0.87926512659E+03  0.10304148378E+04  0.12699999809E+01 0.  1.
</event>
<event>
 5   0  0.2427569E-05  0.1401812E+04  0.7818609E-02  0.8952508E-01
       -1   -1    0    0    0  501  0.00000000000E+00  0.00000000000E+00  0.12590667211E+04  0.12590667211E+04  0.50400001928E-02 0. -1.
        1   -1    0    0  501    0  0.00000000000E+00  0.00000000000E+00 -0.39018532922E+03  0.39018532925E+03  0.50400001928E-02 0.  1.
    10030    2    1    2    0    0  0.00000000000E+00  0.00000000000E+00  0.86888139183E+03  0.16492520503E+04  0.14018122030E+04 0.  0.
        1    1    3    3  502    0 -0.35310156542E+03 -0.57425991731E+03  0.20870260378E+03  0.70569961385E+03  0.50400001928E-02 0. -1.
       -1    1    3    3    0  502  0.35310156542E+03  0.57425991731E+03  0.66017878806E+03  0.94355243647E+03  0.50400001928E-02 0.  1.
</event>
<event>
 5   0  0.4527503E-05  0.1400132E+04  0.7818609E-02  0.8953723E-01
       -2   -1    0    0    0  501  0.00000000000E+00  0.00000000000E+00  0.27532617587E+03  0.27532617588E+03  0.25500000920E-02 0.  1.
        2   -1    0    0  501    0  0.00000000000E+00  0.00000000000E+00 -0.17800426666E+04  0.17800426666E+04  0.25500000920E-02 0. -1.
    10030    2    1    2    0    0  0.00000000000E+00  0.00000000000E+00 -0.15047164907E+04  0.20553688425E+04  0.14001319085E+04 0.  0.
        4    1    3    3  502    0 -0.48278411499E+02 -0.68112008062E+03 -0.97899568575E+03  0.11936035920E+04  0.12699999809E+01 0.  1.
       -4    1    3    3    0  502  0.48278411499E+02  0.68112008062E+03 -0.52572080499E+03  0.86176525048E+03  0.12699999809E+01 0. -1.
</event>
<event>
 5   0  0.4621450E-05  0.1396692E+04  0.7818609E-02  0.8956217E-01
        2   -1    0    0  501    0  0.00000000000E+00  0.00000000000E+00  0.11647215970E+04  0.11647215970E+04  0.25500000920E-02 0.  1.
       -2   -1    0    0    0  501  0.00000000000E+00  0.00000000000E+00 -0.41871561433E+03  0.41871561434E+03  0.25500000920E-02 0. -1.
    10030    2    1    2    0    0  0.00000000000E+00  0.00000000000E+00  0.74600598267E+03  0.15834372113E+04  0.13966919761E+04 0.  0.
        5    1    3    3  502    0 -0.24494446908E+03  0.50800594045E+03 -0.93881607764E+02  0.57175490793E+03  0.46999998093E+01 0. -1.
       -5    1    3    3    0  502  0.24494446908E+03 -0.50800594045E+03  0.83988759043E+03  0.10116823034E+04  0.46999998093E+01 0.  1.
</event>
<event>
 5   0  0.2428507E-05  0.1400191E+04  0.7818609E-02  0.8953680E-01
       -1   -1    0    0    0  501  0.00000000000E+00  0.00000000000E+00  0.75907239379E+03  0.75907239381E+03  0.50400001928E-02 0. -1.
        1   -1    0    0  501    0  0.00000000000E+00  0.00000000000E+00 -0.64570128112E+03  0.64570128114E+03  0.50400001928E-02 0.  1.
    10030    2    1    2    0    0  0.00000000000E+00  0.00000000000E+00  0.11337111267E+03  0.14047736749E+04  0.14001914400E+04 0.  0.
        4    1    3    3  502    0  0.24232921705E+03 -0.29907372320E+03 -0.53000493424E+03  0.65503846037E+03  0.12699999809E+01 0.  1.
       -4    1    3    3    0  502 -0.24232921705E+03  0.29907372320E+03  0.64337604691E+03  0.74973521458E+03  0.12699999809E+01 0. -1.
</event>
<event>
 5   0  0.4621450E-05  0.1399879E+04  0.7818609E-02  0.8953906E-01
       -2   -1    0    0    0  501  0.00000000000E+00  0.00000000000E+00  0.24009676989E+03  0.24009676991E+03  0.25500000920E-02 0. -1.
        2   -1    0    0  501    0  0.00000000000E+00  0.00000000000E+00 -0.20404921962E+04  0.20404921963E+04  0.25500000920E-02 0.  1.
    10030    2    1    2    0    0  0.00000000000E+00  0.00000000000E+00 -0.18003954264E+04  0.22805889662E+04  0.13998794024E+04 0.  0.
        5    1    3    3  502    0  0.45824232900E+03 -0.22514860002E+03 -0.16801687101E+04  0.17560372742E+04  0.46999998093E+01 0.  1.
       -5    1    3    3    0  502 -0.45824232900E+03  0.22514860002E+03 -0.12022671627E+03  0.52455169191E+03  0.46999998093E+01 0. -1.
</event>
<event>
 5   0  0.2363419E-05  0.1400819E+04  0.7818609E-02  0.8953226E-01
       -1   -1    0    0    0  501  0.00000000000E+00  0.00000000000E+00  0.57542611442E+03  0.57542611444E+03  0.50400001928E-02 0.  1.
        1   -1    0    0  501    0  0.00000000000E+00  0.00000000000E+00 -0.85253958472E+03  0.85253958473E+03  0.50400001928E-02 0. -1.
    10030    2    1    2    0    0  0.00000000000E+00  0.00000000000E+00 -0.27711347030E+03  0.14279656992E+04  0.14008191042E+04 0.  0.
        2    1    3    3  502    0 -0.60216087794E+03  0.35472619242E+03 -0.91343456443E+02  0.70482055982E+03  0.25500000920E-02 0. -1.
       -2    1    3    3    0  502  0.60216087794E+03 -0.35472619242E+03 -0.18577001386E+03  0.72314513935E+03  0.25500000920E-02 0.  1.
</event>
<event>
 5   0  0.4243281E-05  0.1404840E+04  0.7818609E-02  0.8950323E-01
        2   -1    0    0  501    0  0.00000000000E+00  0.00000000000E+00  0.10199891311E+04  0.10199891311E+04  0.25500000920E-02 0. -1.
       -2   -1    0    0    0  501  0.00000000000E+00  0.00000000000E+00 -0.48372465083E+03  0.48372465084E+03  0.25500000920E-02 0.  1.
    10030    2    1    2    0    0  0.00000000000E+00  0.00000000000E+00  0.53626448024E+03  0.15037137819E+04  0.14048400426E+04 0.  0.
        2    1    3    3  502    0 -0.75205147336E+01 -0.60286738240E+03 -0.11763312310E+03  0.61428266341E+03  0.25500000920E-02 0.  1.
       -2    1    3    3    0  502  0.75205147336E+01  0.60286738240E+03  0.65389760334E+03  0.88943111851E+03  0.25500000920E-02 0. -1.
</event>
<event>
 5   0  0.2316714E-05  0.1395830E+04  0.7818609E-02  0.8956843E-01
        1   -1    0    0  501    0  0.00000000000E+00  0.00000000000E+00  0.19770128648E+04  0.19770128648E+04  0.50400001928E-02 0. -1.
       -1   -1    0    0    0  501  0.00000000000E+00  0.00000000000E+00 -0.24637424931E+03  0.24637424936E+03  0.50400001928E-02 0.  1.
    10030    2    1    2    0    0  0.00000000000E+00  0.00000000000E+00  0.17306386155E+04  0.22233871142E+04  0.13958295892E+04 0.  0.
        5    1    3    3  502    0  0.18714065809E+03 -0.66538314443E+03  0.71165302895E+03  0.99208289896E+03  0.46999998093E+01 0.  1.
       -5    1    3    3    0  502 -0.18714065809E+03  0.66538314443E+03  0.10189855866E+04  0.12313042152E+04  0.46999998093E+01 0. -1.
</event>
</LesHouchesEvents>
