<LesHouchesEvents version="3.0">
<header>
<!--
#*********************************************************************
#                                                                    *
#                        MadGraph5_aMC@NLO                           *
#                                                                    *
#                           Going Beyond                             *
#                                                                    *
#                   http://madgraph.hep.uiuc.edu                     *
#                   http://madgraph.phys.ucl.ac.be                   *
#                   http://amcatnlo.cern.ch                          *
#                                                                    *
#                     The MadGraph5_aMC@NLO team                     *
#                                                                    *
#....................................................................*
#                                                                    *
# This file contains all the information necessary to reproduce      *
# the events generated:                                              *
#                                                                    *
# 1. software version                                                *
# 2. proc_card          : code generation info including model       *
# 3. param_card         : model primary parameters in the LH format  *
# 4. run_card           : running parameters (collider and cuts)     *
# 5. pythia_card        : present only if pythia has been run        *
# 6. pgs_card           : present only if pgs has been run           *
# 7. delphes_cards      : present only if delphes has been run       *
#                                                                    *
#                                                                    *
#*********************************************************************
-->
<MGVersion>
#5.2.2.3
</MGVersion>
<MG5ProcCard>
#************************************************************
#*                     MadGraph5_aMC@NLO                    *
#*                                                          *
#*                *                       *                 *
#*                  *        * *        *                   *
#*                    * * * * 5 * * * *                     *
#*                  *        * *        *                   *
#*                *                       *                 *
#*                                                          *
#*                                                          *
#*         VERSION 2.2.3                 2015-02-10         *
#*                                                          *
#*    The MadGraph5_aMC@NLO Development Team - Find us at   *
#*    https://server06.fynu.ucl.ac.be/projects/madgraph     *
#*                                                          *
#************************************************************
#*                                                          *
#*               Command File for MadGraph5_aMC@NLO         *
#*                                                          *
#*     run as ./bin/mg5_aMC  filename                       *
#*                                                          *
#************************************************************
set group_subprocesses Auto
set ignore_six_quark_processes False
set loop_optimized_output True
set gauge unitary
set complex_mass_scheme False
import model sm
define p = g u c d s u~ c~ d~ s~
define j = g u c d s u~ c~ d~ s~
define l+ = e+ mu+
define l- = e- mu-
define vl = ve vm vt
define vl~ = ve~ vm~ vt~
import model Zprime_UFO
generate p p > zph, zph > j j
add process p p > zph, zph > b b~
output Dijet_signal
</MG5ProcCard>
<MGProcCard>
#*********************************************************************
#                        MadGraph/MadEvent                           *
#                   http://madgraph.hep.uiuc.edu                     *
#                                                                    *
#                          proc_card.dat                             *
#*********************************************************************
#                                                                    *
#            This Files is generated by MADGRAPH 5                   *
#                                                                    *
# WARNING: This Files is generated for MADEVENT (compatibility issue)*
#          This files is NOT a valid MG4 proc_card.dat               *
#          Running this in MG4 will NEVER reproduce the result of MG5*
#                                                                    *
#*********************************************************************
#*********************************************************************
# Process(es) requested : mg2 input                                  *
#*********************************************************************
# Begin PROCESS # This is TAG. Do not modify this line
p p > zph , zph > j j           #Process
# Be carefull the coupling are here in MG5 convention
          
end_coup           # End the couplings input

done               # this tells MG there are no more procs
# End PROCESS  # This is TAG. Do not modify this line
#*********************************************************************
# Model information                                                  *
#*********************************************************************
# Begin MODEL  # This is TAG. Do not modify this line
Zprime_UFO
# End   MODEL  # This is TAG. Do not modify this line
#*********************************************************************
# Start multiparticle definitions                                    *
#*********************************************************************
# Begin MULTIPARTICLES # This is TAG. Do not modify this line

# End  MULTIPARTICLES # This is TAG. Do not modify this line
</MGProcCard>
<MGRunCard>
#*********************************************************************
#                       MadGraph5_aMC@NLO                            *
#                                                                    *
#                     run_card.dat MadEvent                          *
#                                                                    *
#  This file is used to set the parameters of the run.               *
#                                                                    *
#  Some notation/conventions:                                        *
#                                                                    *
#   Lines starting with a '# ' are info or comments                  *
#                                                                    *
#   mind the format:   value    = variable     ! comment             *
#*********************************************************************
#
#*******************                                                 
# Running parameters
#*******************                                                 
#                                                                    
#*********************************************************************
# Tag name for the run (one word)                                    *
#*********************************************************************
  tag_1     = run_tag ! name of the run 
#*********************************************************************
# Run to generate the grid pack                                      *
#*********************************************************************
  .false.     = gridpack  !True = setting up the grid pack
#*********************************************************************
# Number of events and rnd seed                                      *
# Warning: Do not generate more than 1M events in a single run       *
# If you want to run Pythia, avoid more than 50k events in a run.    *
#*********************************************************************
  2000 = nevents ! Number of unweighted events requested 
 651 = iseed   ! rnd seed (0=assigned automatically=default))
#*********************************************************************
# Collider type and energy                                           *
# lpp: 0=No PDF, 1=proton, -1=antiproton, 2=photon from proton,      *
#                                         3=photon from electron     *
#*********************************************************************
        1     = lpp1    ! beam 1 type 
        1     = lpp2    ! beam 2 type
     4000     = ebeam1  ! beam 1 total energy in GeV
     4000     = ebeam2  ! beam 2 total energy in GeV
#*********************************************************************
# Beam polarization from -100 (left-handed) to 100 (right-handed)    *
#*********************************************************************
        0     = polbeam1 ! beam polarization for beam 1
        0     = polbeam2 ! beam polarization for beam 2
#*********************************************************************
# PDF CHOICE: this automatically fixes also alpha_s and its evol.    *
#*********************************************************************
 'nn23lo1'    = pdlabel     ! PDF set                                     
 230000    = lhaid     ! if pdlabel=lhapdf, this is the lhapdf number
#*********************************************************************
# Renormalization and factorization scales                           *
#*********************************************************************
 F        = fixed_ren_scale  ! if .true. use fixed ren scale
 F        = fixed_fac_scale  ! if .true. use fixed fac scale
 91.1880  = scale            ! fixed ren scale
 91.1880  = dsqrt_q2fact1    ! fixed fact scale for pdf1
 91.1880  = dsqrt_q2fact2    ! fixed fact scale for pdf2
 1        = scalefact        ! scale factor for event-by-event scales
#*********************************************************************
# Matching - Warning! ickkw > 1 is still beta
#*********************************************************************
 0        = ickkw            ! 0 no matching, 1 MLM, 2 CKKW matching
 1        = highestmult      ! for ickkw=2, highest mult group
 1        = ktscheme         ! for ickkw=1, 1 Durham kT, 2 Pythia pTE
 1        = alpsfact         ! scale factor for QCD emission vx
 F        = chcluster        ! cluster only according to channel diag
 T        = pdfwgt           ! for ickkw=1, perform pdf reweighting
 5        = asrwgtflavor     ! highest quark flavor for a_s reweight
 T        = clusinfo         ! include clustering tag in output
 3.0      = lhe_version       ! Change the way clustering information pass to shower.        
#*********************************************************************
#**********************************************************
#
#**********************************************************
# Automatic ptj and mjj cuts if xqcut > 0
# (turn off for VBF and single top processes)
#**********************************************************
   T  = auto_ptj_mjj  ! Automatic setting of ptj and mjj
#**********************************************************
#                                                                    
#**********************************
# BW cutoff (M+/-bwcutoff*Gamma)
#**********************************
  15  = bwcutoff      ! (M+/-bwcutoff*Gamma)
#**********************************************************
# Apply pt/E/eta/dr/mij cuts on decay products or not
# (note that etmiss/ptll/ptheavy/ht/sorted cuts always apply)
#**********************************************************
   T  = cut_decays    ! Cut decay products 
#*************************************************************
# Number of helicities to sum per event (0 = all helicities)
# 0 gives more stable result, but longer run time (needed for
# long decay chains e.g.).
# Use >=2 if most helicities contribute, e.g. pure QCD.
#*************************************************************
   0  = nhel          ! Number of helicities used per event
#*******************                                                 
# Standard Cuts
#*******************                                                 
#                                                                    
#*********************************************************************
# Minimum and maximum pt's (for max, -1 means no cut)                *
#*********************************************************************
 20  = ptj       ! minimum pt for the jets 
  0  = ptb       ! minimum pt for the b 
 10  = pta       ! minimum pt for the photons 
 10  = ptl       ! minimum pt for the charged leptons 
  0  = misset    ! minimum missing Et (sum of neutrino's momenta)
  0  = ptheavy   ! minimum pt for one heavy final state
 1.0 = ptonium   ! minimum pt for the quarkonium states
 -1  = ptjmax    ! maximum pt for the jets
 -1  = ptbmax    ! maximum pt for the b
 -1  = ptamax    ! maximum pt for the photons
 -1  = ptlmax    ! maximum pt for the charged leptons
 -1  = missetmax ! maximum missing Et (sum of neutrino's momenta)
#*********************************************************************
# Minimum and maximum E's (in the center of mass frame)              *
#*********************************************************************
  0  = ej     ! minimum E for the jets 
  0  = eb     ! minimum E for the b 
  0  = ea     ! minimum E for the photons 
  0  = el     ! minimum E for the charged leptons 
 -1   = ejmax ! maximum E for the jets
 -1   = ebmax ! maximum E for the b
 -1   = eamax ! maximum E for the photons
 -1   = elmax ! maximum E for the charged leptons
#*********************************************************************
# Maximum and minimum absolute rapidity (for max, -1 means no cut)   *
#*********************************************************************
   5  = etaj    ! max rap for the jets 
  -1  = etab    ! max rap for the b
 2.5  = etaa    ! max rap for the photons 
 2.5  = etal    ! max rap for the charged leptons 
 0.6  = etaonium ! max rap for the quarkonium states
   0  = etajmin ! min rap for the jets
   0  = etabmin ! min rap for the b
   0  = etaamin ! min rap for the photons
   0  = etalmin ! main rap for the charged leptons
#*********************************************************************
# Minimum and maximum DeltaR distance                                *
#*********************************************************************
 0.4 = drjj    ! min distance between jets 
 0   = drbb    ! min distance between b's 
 0.4 = drll    ! min distance between leptons 
 0.4 = draa    ! min distance between gammas 
 0   = drbj    ! min distance between b and jet 
 0.4 = draj    ! min distance between gamma and jet 
 0.4 = drjl    ! min distance between jet and lepton 
 0   = drab    ! min distance between gamma and b 
 0   = drbl    ! min distance between b and lepton 
 0.4 = dral    ! min distance between gamma and lepton 
 -1  = drjjmax ! max distance between jets
 -1  = drbbmax ! max distance between b's
 -1  = drllmax ! max distance between leptons
 -1  = draamax ! max distance between gammas
 -1  = drbjmax ! max distance between b and jet
 -1  = drajmax ! max distance between gamma and jet
 -1  = drjlmax ! max distance between jet and lepton
 -1  = drabmax ! max distance between gamma and b
 -1  = drblmax ! max distance between b and lepton
 -1  = dralmax ! maxdistance between gamma and lepton
#*********************************************************************
# Minimum and maximum invariant mass for pairs                       *
# WARNING: for four lepton final state mmll cut require to have      *
#          different lepton masses for each flavor!                  *           
#*********************************************************************
 0   = mmjj    ! min invariant mass of a jet pair 
 0   = mmbb    ! min invariant mass of a b pair 
 0   = mmaa    ! min invariant mass of gamma gamma pair
 0   = mmll    ! min invariant mass of l+l- (same flavour) lepton pair
 -1  = mmjjmax ! max invariant mass of a jet pair
 -1  = mmbbmax ! max invariant mass of a b pair
 -1  = mmaamax ! max invariant mass of gamma gamma pair
 -1  = mmllmax ! max invariant mass of l+l- (same flavour) lepton pair
#*********************************************************************
# Minimum and maximum invariant mass for all letpons                 *
#*********************************************************************
 0   = mmnl    ! min invariant mass for all letpons (l+- and vl) 
 -1  = mmnlmax ! max invariant mass for all letpons (l+- and vl) 
#*********************************************************************
# Minimum and maximum pt for 4-momenta sum of leptons                *
#*********************************************************************
 0   = ptllmin  ! Minimum pt for 4-momenta sum of leptons(l and vl)
 -1  = ptllmax  ! Maximum pt for 4-momenta sum of leptons(l and vl)
#*********************************************************************
# Inclusive cuts                                                     *
#*********************************************************************
 0  = xptj ! minimum pt for at least one jet  
 0  = xptb ! minimum pt for at least one b 
 0  = xpta ! minimum pt for at least one photon 
 0  = xptl ! minimum pt for at least one charged lepton 
#*********************************************************************
# Control the pt's of the jets sorted by pt                          *
#*********************************************************************
 0   = ptj1min ! minimum pt for the leading jet in pt
 0   = ptj2min ! minimum pt for the second jet in pt
 0   = ptj3min ! minimum pt for the third jet in pt
 0   = ptj4min ! minimum pt for the fourth jet in pt
 -1  = ptj1max ! maximum pt for the leading jet in pt 
 -1  = ptj2max ! maximum pt for the second jet in pt
 -1  = ptj3max ! maximum pt for the third jet in pt
 -1  = ptj4max ! maximum pt for the fourth jet in pt
 0   = cutuse  ! reject event if fails any (0) / all (1) jet pt cuts
#*********************************************************************
# Control the pt's of leptons sorted by pt                           *
#*********************************************************************
 0   = ptl1min ! minimum pt for the leading lepton in pt
 0   = ptl2min ! minimum pt for the second lepton in pt
 0   = ptl3min ! minimum pt for the third lepton in pt
 0   = ptl4min ! minimum pt for the fourth lepton in pt
 -1  = ptl1max ! maximum pt for the leading lepton in pt 
 -1  = ptl2max ! maximum pt for the second lepton in pt
 -1  = ptl3max ! maximum pt for the third lepton in pt
 -1  = ptl4max ! maximum pt for the fourth lepton in pt
#*********************************************************************
# Control the Ht(k)=Sum of k leading jets                            *
#*********************************************************************
 0   = htjmin ! minimum jet HT=Sum(jet pt)
 -1  = htjmax ! maximum jet HT=Sum(jet pt)
 0   = ihtmin  !inclusive Ht for all partons (including b)
 -1  = ihtmax  !inclusive Ht for all partons (including b)
 0   = ht2min ! minimum Ht for the two leading jets
 0   = ht3min ! minimum Ht for the three leading jets
 0   = ht4min ! minimum Ht for the four leading jets
 -1  = ht2max ! maximum Ht for the two leading jets
 -1  = ht3max ! maximum Ht for the three leading jets
 -1  = ht4max ! maximum Ht for the four leading jets
#***********************************************************************
# Photon-isolation cuts, according to hep-ph/9801442                   *
# When ptgmin=0, all the other parameters are ignored                  *
# When ptgmin>0, pta and draj are not going to be used                 *
#***********************************************************************
   0 = ptgmin ! Min photon transverse momentum
 0.4 = R0gamma ! Radius of isolation code
 1.0 = xn ! n parameter of eq.(3.4) in hep-ph/9801442
 1.0 = epsgamma ! epsilon_gamma parameter of eq.(3.4) in hep-ph/9801442
 .true. = isoEM ! isolate photons from EM energy (photons and leptons)
#*********************************************************************
# WBF cuts                                                           *
#*********************************************************************
 0   = xetamin ! minimum rapidity for two jets in the WBF case  
 0   = deltaeta ! minimum rapidity for two jets in the WBF case 
#*********************************************************************
# KT DURHAM CUT                                                      *
#*********************************************************************
 -1    =  ktdurham        
 0.4  =  dparameter 
#*********************************************************************
# maximal pdg code for quark to be considered as a light jet         *
# (otherwise b cuts are applied)                                     *
#*********************************************************************
 4 = maxjetflavor    ! Maximum jet pdg code
#*********************************************************************
# Jet measure cuts                                                   *
#*********************************************************************
 0   = xqcut   ! minimum kt jet measure between partons
#*********************************************************************
#
#*********************************************************************
# Store info for systematics studies                                 *
# WARNING: If use_syst is T, matched Pythia output is                *
#          meaningful ONLY if plotted taking matchscale              *
#          reweighting into account!                                 *
#*********************************************************************
   F  = use_syst      ! Enable systematics studies
#
#**************************************
# Parameter of the systematics study
#  will be used by SysCalc (if installed)
#**************************************                                  
#
0.5 1 2 = sys_scalefact  # factorization/renormalization scale factor
0.5 1 2 = sys_alpsfact  # \alpha_s emission scale factors
30 50 = sys_matchscale # variation of merging scale
# PDF sets and number of members (0 or none for all members).
CT10nlo.LHgrid = sys_pdf # matching scales
# MSTW2008nlo68cl.LHgrid 1  = sys_pdf
</MGRunCard>
<slha>
######################################################################
## PARAM_CARD AUTOMATICALY GENERATED BY MG5 FOLLOWING UFO MODEL   ####
######################################################################
##                                                                  ##
##  Width set on Auto will be computed following the information    ##
##        present in the decay.py files of the model.               ##
##        See  arXiv:1402.1178 for more details.                    ##
##                                                                  ##
######################################################################

###################################
## INFORMATION FOR CKMBLOCK
###################################
Block ckmblock 
    1 2.277360e-01 # cabi 

###################################
## INFORMATION FOR FRBLOCK
###################################
Block frblock 
    1 2.000000e-01 # gz 

###################################
## INFORMATION FOR MASS
###################################
Block mass 
    1 5.040000e-03 # MD 
    2 2.550000e-03 # MU 
    3 1.010000e-01 # MS 
    4 1.270000e+00 # MC 
    5 4.700000e+00 # MB 
    6 1.720000e+02 # MT 
   11 5.110000e-04 # Me 
   13 1.056600e-01 # MM 
   15 1.777000e+00 # MTA 
   23 9.118760e+01 # MZ 
   25 1.200000e+02 # MH 
  10030 2.200000e+03 # MZph 
  10031 3.000000e+02 # MZpl 
## Dependent parameters, given by model restrictions.
## Those values should be edited following the 
## analytical expression. MG5 ignores those values 
## but they are important for interfacing the output of MG5
## to external program such as Pythia.
  12 0.000000 # ve : 0.0 
  14 0.000000 # vm : 0.0 
  16 0.000000 # vt : 0.0 
  21 0.000000 # g : 0.0 
  22 0.000000 # a : 0.0 
  24 79.824360 # w+ : cmath.sqrt(MZ__exp__2/2. + cmath.sqrt(MZ__exp__4/4. - (aEW*cmath.pi*MZ__exp__2)/(Gf*sqrt__2))) 

###################################
## INFORMATION FOR SMINPUTS
###################################
Block sminputs 
    1 1.279000e+02 # aEWM1 
    2 1.166370e-05 # Gf 
    3 1.184000e-01 # aS 

###################################
## INFORMATION FOR YUKAWA
###################################
Block yukawa 
    1 5.040000e-03 # ymdo 
    2 2.550000e-03 # ymup 
    3 1.010000e-01 # yms 
    4 1.270000e+00 # ymc 
    5 4.700000e+00 # ymb 
    6 1.720000e+02 # ymt 
   11 5.110000e-04 # yme 
   13 1.056600e-01 # ymm 
   15 1.777000e+00 # ymtau 

###################################
## INFORMATION FOR DECAY
###################################
DECAY   6 1.508336e+00 # WT 
DECAY  23 2.495200e+00 # WZ 
DECAY  24 2.085000e+00 # WW 
DECAY  25 5.753088e-03 # WH 
## Dependent parameters, given by model restrictions.
## Those values should be edited following the 
## analytical expression. MG5 ignores those values 
## but they are important for interfacing the output of MG5
## to external program such as Pythia.
DECAY  1 0.000000 # d : 0.0 
DECAY  2 0.000000 # u : 0.0 
DECAY  3 0.000000 # s : 0.0 
DECAY  4 0.000000 # c : 0.0 
DECAY  5 0.000000 # b : 0.0 
DECAY  11 0.000000 # e- : 0.0 
DECAY  12 0.000000 # ve : 0.0 
DECAY  13 0.000000 # mu- : 0.0 
DECAY  14 0.000000 # vm : 0.0 
DECAY  15 0.000000 # ta- : 0.0 
DECAY  16 0.000000 # vt : 0.0 
DECAY  21 0.000000 # g : 0.0 
DECAY  22 0.000000 # a : 0.0 
DECAY  10030 0.308725 # zph : (gz__exp__2*MZph*(5 + cmath.sqrt(1 - (4*MT__exp__2)/MZph__exp__2)))/(144.*cmath.pi) 
DECAY  10031 0.132629 # zpl : (5*gz__exp__2*MZpl)/(144.*cmath.pi) 
#===========================================================
# QUANTUM NUMBERS OF NEW STATE(S) (NON SM PDG CODE)
#===========================================================

Block QNUMBERS 10030  # zph 
        1 0  # 3 times electric charge
        2 3  # number of spin states (2S+1)
        3 1  # colour rep (1: singlet, 3: triplet, 8: octet)
        4 0  # Particle/Antiparticle distinction (0=own anti)
Block QNUMBERS 10031  # zpl 
        1 0  # 3 times electric charge
        2 3  # number of spin states (2S+1)
        3 1  # colour rep (1: singlet, 3: triplet, 8: octet)
        4 0  # Particle/Antiparticle distinction (0=own anti)
</slha>
## END BANNER##
<MGGenerationInfo>
#  Number of Events        :         3948
#  Integrated weight (pb)  :  0.71240E-03
#  Max wgt                 :  0.26062E-06
#  Average wgt             :  0.18045E-06
</MGGenerationInfo>
</header>
<init>
     2212     2212  0.40000000000E+04  0.40000000000E+04 0 0  247000  247000 2   1
  0.71243256930E-03  0.16164738981E-05  0.26061540000E-06   0
</init>
<event>
 5   0  0.2581058E-06  0.2199636E+04  0.7818609E-02  0.8518580E-01
       -2   -1    0    0    0  501  0.00000000000E+00  0.00000000000E+00  0.98834588458E+03  0.98834588458E+03  0.25500000920E-02 0.  1.
        2   -1    0    0  501    0  0.00000000000E+00  0.00000000000E+00 -0.12238627710E+04  0.12238627710E+04  0.25500000920E-02 0. -1.
    10030    2    1    2    0    0  0.00000000000E+00  0.00000000000E+00 -0.23551688641E+03  0.22122086556E+04  0.21996360908E+04 0.  0.
        1    1    3    3  502    0 -0.69292729244E+02 -0.10669736888E+04 -0.37684572935E+03  0.11336873638E+04  0.50400001928E-02 0. -1.
       -1    1    3    3    0  502  0.69292729244E+02  0.10669736888E+04  0.14132884294E+03  0.10785212918E+04  0.50400001928E-02 0.  1.
</event>
<event>
 5   0  0.2581058E-06  0.2200002E+04  0.7818609E-02  0.8518427E-01
        2   -1    0    0  501    0  0.00000000000E+00  0.00000000000E+00  0.13207056497E+04  0.13207056497E+04  0.25500000920E-02 0. -1.
       -2   -1    0    0    0  501  0.00000000000E+00  0.00000000000E+00 -0.91617896636E+03  0.91617896636E+03  0.25500000920E-02 0.  1.
    10030    2    1    2    0    0  0.00000000000E+00  0.00000000000E+00  0.40452668332E+03  0.22368846160E+04  0.22000024882E+04 0.  0.
        1    1    3    3  502    0  0.14748860147E+03 -0.10850202816E+04  0.95717096012E+02  0.10991740816E+04  0.50400001928E-02 0. -1.
       -1    1    3    3    0  502 -0.14748860147E+03  0.10850202816E+04  0.30880958731E+03  0.11377105345E+04  0.50400001928E-02 0.  1.
</event>
<event>
 5   0  0.2532239E-06  0.2200526E+04  0.7818609E-02  0.8518209E-01
        2   -1    0    0  501    0  0.00000000000E+00  0.00000000000E+00  0.72400271498E+03  0.72400271499E+03  0.25500000920E-02 0. -1.
       -2   -1    0    0    0  501  0.00000000000E+00  0.00000000000E+00 -0.16720633989E+04  0.16720633989E+04  0.25500000920E-02 0.  1.
    10030    2    1    2    0    0  0.00000000000E+00  0.00000000000E+00 -0.94806068393E+03  0.23960661139E+04  0.22005257921E+04 0.  0.
        3    1    3    3  502    0 -0.83359979376E+03  0.43977010161E+03 -0.10921849985E+04  0.14426206846E+04  0.10100000352E+00 0.  1.
       -3    1    3    3    0  502  0.83359979376E+03 -0.43977010161E+03  0.14412431458E+03  0.95344542932E+03  0.10100000352E+00 0. -1.
</event>
<event>
 5   0  0.2581058E-06  0.2197712E+04  0.7818609E-02  0.8519381E-01
        2   -1    0    0  501    0  0.00000000000E+00  0.00000000000E+00  0.13913945009E+04  0.13913945009E+04  0.25500000920E-02 0.  1.
       -2   -1    0    0    0  501  0.00000000000E+00  0.00000000000E+00 -0.86782294456E+03  0.86782294457E+03  0.25500000920E-02 0. -1.
    10030    2    1    2    0    0  0.00000000000E+00  0.00000000000E+00  0.52357155633E+03  0.22592174455E+04  0.21977116033E+04 0.  0.
        1    1    3    3  502    0  0.11975913154E+02  0.25251863493E+03 -0.83752289921E+03  0.87484495209E+03  0.50400001928E-02 0. -1.
       -1    1    3    3    0  502 -0.11975913154E+02 -0.25251863493E+03  0.13610944555E+04  0.13843724934E+04  0.50400001928E-02 0.  1.
</event>
<event>
 5   0  0.2532239E-06  0.2200471E+04  0.7818609E-02  0.8518232E-01
        2   -1    0    0  501    0  0.00000000000E+00  0.00000000000E+00  0.27100256521E+04  0.27100256521E+04  0.25500000920E-02 0. -1.
       -2   -1    0    0    0  501  0.00000000000E+00  0.00000000000E+00 -0.44668158143E+03  0.44668158144E+03  0.25500000920E-02 0.  1.
    10030    2    1    2    0    0  0.00000000000E+00  0.00000000000E+00  0.22633440707E+04  0.31567072336E+04  0.22004713532E+04 0.  0.
        3    1    3    3  502    0 -0.20364180008E+03 -0.37209339221E+03 -0.32466741542E+03  0.53416515808E+03  0.10100000352E+00 0.  1.
       -3    1    3    3    0  502  0.20364180008E+03  0.37209339221E+03  0.25880114861E+04  0.26225420755E+04  0.10100000352E+00 0. -1.
</event>
<event>
 5   0  0.1107101E-06  0.2209537E+04  0.7818609E-02  0.8514469E-01
       -1   -1    0    0    0  501  0.00000000000E+00  0.00000000000E+00  0.11406409817E+04  0.11406409817E+04  0.50400001928E-02 0.  1.
        1   -1    0    0  501    0  0.00000000000E+00  0.00000000000E+00 -0.10700239041E+04  0.10700239041E+04  0.50400001928E-02 0. -1.
    10030    2    1    2    0    0  0.00000000000E+00  0.00000000000E+00  0.70617077592E+02  0.22106648858E+04  0.22095367084E+04 0.  0.
        1    1    3    3  502    0 -0.25067151494E+02 -0.10927769777E+04  0.19577506581E+03  0.11104583565E+04  0.50400001928E-02 0.  1.
       -1    1    3    3    0  502  0.25067151494E+02  0.10927769777E+04 -0.12515798822E+03  0.11002065293E+04  0.50400001928E-02 0. -1.
</event>
<event>
 5   0  0.1144271E-06  0.2200321E+04  0.7818609E-02  0.8518295E-01
       -1   -1    0    0    0  501  0.00000000000E+00  0.00000000000E+00  0.11615730446E+04  0.11615730446E+04  0.50400001928E-02 0.  1.
        1   -1    0    0  501    0  0.00000000000E+00  0.00000000000E+00 -0.10419947346E+04  0.10419947346E+04  0.50400001928E-02 0. -1.
    10030    2    1    2    0    0  0.00000000000E+00  0.00000000000E+00  0.11957831003E+03  0.22035677792E+04  0.22003208823E+04 0.  0.
        3    1    3    3  502    0 -0.96843599576E+03  0.52199820415E+03  0.58179589022E+02  0.11016965452E+04  0.10100000352E+00 0.  1.
       -3    1    3    3    0  502  0.96843599576E+03 -0.52199820415E+03  0.61398721013E+02  0.11018712339E+04  0.10100000352E+00 0. -1.
</event>
<event>
 5   0  0.2581058E-06  0.2199871E+04  0.7818609E-02  0.8518482E-01
       -2   -1    0    0    0  501  0.00000000000E+00  0.00000000000E+00  0.47495718107E+03  0.47495718107E+03  0.25500000920E-02 0. -1.
        2   -1    0    0  501    0  0.00000000000E+00  0.00000000000E+00 -0.25472999946E+04  0.25472999946E+04  0.25500000920E-02 0.  1.
    10030    2    1    2    0    0  0.00000000000E+00  0.00000000000E+00 -0.20723428136E+04  0.30222571757E+04  0.21998712915E+04 0.  0.
        1    1    3    3  502    0 -0.37148582584E+03  0.93919083251E+03 -0.43768228490E+03  0.11007483460E+04  0.50400001928E-02 0. -1.
       -1    1    3    3    0  502  0.37148582584E+03 -0.93919083251E+03 -0.16346605287E+04  0.19215088297E+04  0.50400001928E-02 0.  1.
</event>
<event>
 5   0  0.1082209E-06  0.2200145E+04  0.7818609E-02  0.8518368E-01
       -1   -1    0    0    0  501  0.00000000000E+00  0.00000000000E+00  0.73297634365E+03  0.73297634367E+03  0.50400001928E-02 0. -1.
        1   -1    0    0  501    0  0.00000000000E+00  0.00000000000E+00 -0.16510212175E+04  0.16510212175E+04  0.50400001928E-02 0.  1.
    10030    2    1    2    0    0  0.00000000000E+00  0.00000000000E+00 -0.91804487381E+03  0.23839975611E+04  0.22001449909E+04 0.  0.
        2    1    3    3  502    0  0.10184618460E+04 -0.41579522717E+03 -0.45571931867E+03  0.11907267949E+04  0.25500000920E-02 0.  1.
       -2    1    3    3    0  502 -0.10184618460E+04  0.41579522717E+03 -0.46232555514E+03  0.11932707663E+04  0.25500000920E-02 0. -1.
</event>
<event>
 5   0  0.2581058E-06  0.2182597E+04  0.7818609E-02  0.8525707E-01
        2   -1    0    0  501    0  0.00000000000E+00  0.00000000000E+00  0.13004840226E+04  0.13004840226E+04  0.25500000920E-02 0. -1.
       -2   -1    0    0    0  501  0.00000000000E+00  0.00000000000E+00 -0.91576079348E+03  0.91576079348E+03  0.25500000920E-02 0.  1.
    10030    2    1    2    0    0  0.00000000000E+00  0.00000000000E+00  0.38472322913E+03  0.22162448161E+04  0.21825968757E+04 0.  0.
        1    1    3    3  502    0  0.40077626088E+03  0.61801370150E+03  0.10099892658E+04  0.12500563442E+04  0.50400001928E-02 0. -1.
       -1    1    3    3    0  502 -0.40077626088E+03 -0.61801370150E+03 -0.62526603671E+03  0.96618847190E+03  0.50400001928E-02 0.  1.
</event>
<event>
 5   0  0.1082209E-06  0.2200878E+04  0.7818609E-02  0.8518063E-01
        1   -1    0    0  501    0  0.00000000000E+00  0.00000000000E+00  0.68693252798E+03  0.68693252800E+03  0.50400001928E-02 0. -1.
       -1   -1    0    0    0  501  0.00000000000E+00  0.00000000000E+00 -0.17628605594E+04  0.17628605594E+04  0.50400001928E-02 0.  1.
    10030    2    1    2    0    0  0.00000000000E+00  0.00000000000E+00 -0.10759280314E+04  0.24497930874E+04  0.22008782434E+04 0.  0.
        2    1    3    3  502    0 -0.20800162873E+03 -0.93246584696E+03 -0.11458103201E+04  0.14918574071E+04  0.25500000920E-02 0.  1.
       -2    1    3    3    0  502  0.20800162873E+03  0.93246584696E+03  0.69882288747E+02  0.95793568030E+03  0.25500000920E-02 0. -1.
</event>
<event>
 5   0  0.2556869E-06  0.2201138E+04  0.7818609E-02  0.8517954E-01
        2   -1    0    0  501    0  0.00000000000E+00  0.00000000000E+00  0.99995099348E+03  0.99995099348E+03  0.25500000920E-02 0.  1.
       -2   -1    0    0    0  501  0.00000000000E+00  0.00000000000E+00 -0.12113118163E+04  0.12113118163E+04  0.25500000920E-02 0. -1.
    10030    2    1    2    0    0  0.00000000000E+00  0.00000000000E+00 -0.21136082284E+03  0.22112628098E+04  0.22011383002E+04 0.  0.
        5    1    3    3  502    0 -0.56124186562E+03  0.56934604950E+03  0.65416029418E+03  0.10330029701E+04  0.46999998093E+01 0.  1.
       -5    1    3    3    0  502  0.56124186562E+03 -0.56934604950E+03 -0.86552111702E+03  0.11782598397E+04  0.46999998093E+01 0. -1.
</event>
<event>
 5   0  0.1137869E-06  0.2200394E+04  0.7818609E-02  0.8518264E-01
        1   -1    0    0  501    0  0.00000000000E+00  0.00000000000E+00  0.10028512394E+04  0.10028512394E+04  0.50400001928E-02 0.  1.
       -1   -1    0    0    0  501  0.00000000000E+00  0.00000000000E+00 -0.12069922521E+04  0.12069922521E+04  0.50400001928E-02 0. -1.
    10030    2    1    2    0    0  0.00000000000E+00  0.00000000000E+00 -0.20414101270E+03  0.22098434914E+04  0.22003942155E+04 0.  0.
        5    1    3    3  502    0 -0.36388849152E+03 -0.87575804420E+03  0.45803824042E+03  0.10531799969E+04  0.46999998093E+01 0. -1.
       -5    1    3    3    0  502  0.36388849152E+03  0.87575804420E+03 -0.66217925312E+03  0.11566634945E+04  0.46999998093E+01 0.  1.
</event>
<event>
 5   0  0.1107101E-06  0.2200021E+04  0.7818609E-02  0.8518419E-01
        1   -1    0    0  501    0  0.00000000000E+00  0.00000000000E+00  0.12726161439E+04  0.12726161439E+04  0.50400001928E-02 0. -1.
       -1   -1    0    0    0  501  0.00000000000E+00  0.00000000000E+00 -0.95081534103E+03  0.95081534104E+03  0.50400001928E-02 0.  1.
    10030    2    1    2    0    0  0.00000000000E+00  0.00000000000E+00  0.32180080283E+03  0.22234314849E+04  0.22000208661E+04 0.  0.
        1    1    3    3  502    0  0.38613034597E+03 -0.83123271150E+03 -0.45383070250E+03  0.10227447244E+04  0.50400001928E-02 0. -1.
       -1    1    3    3    0  502 -0.38613034597E+03  0.83123271150E+03  0.77563150533E+03  0.12006867605E+04  0.50400001928E-02 0.  1.
</event>
<event>
 5   0  0.1144271E-06  0.2202940E+04  0.7818609E-02  0.8517205E-01
        1   -1    0    0  501    0  0.00000000000E+00  0.00000000000E+00  0.10339975897E+04  0.10339975897E+04  0.50400001928E-02 0. -1.
       -1   -1    0    0    0  501  0.00000000000E+00  0.00000000000E+00 -0.11733452478E+04  0.11733452478E+04  0.50400001928E-02 0.  1.
    10030    2    1    2    0    0  0.00000000000E+00  0.00000000000E+00 -0.13934765809E+03  0.22073428376E+04  0.22029399975E+04 0.  0.
        3    1    3    3  502    0  0.47816033777E+03 -0.23987716490E+03 -0.10344365775E+04  0.11645760627E+04  0.10100000352E+00 0.  1.
       -3    1    3    3    0  502 -0.47816033777E+03  0.23987716490E+03  0.89508891939E+03  0.10427667748E+04  0.10100000352E+00 0. -1.
</event>
<event>
 5   0  0.1144271E-06  0.2201367E+04  0.7818609E-02  0.8517859E-01
        1   -1    0    0  501    0  0.00000000000E+00  0.00000000000E+00  0.75591686801E+03  0.75591686802E+03  0.50400001928E-02 0. -1.
       -1   -1    0    0    0  501  0.00000000000E+00  0.00000000000E+00 -0.16026953103E+04  0.16026953103E+04  0.50400001928E-02 0.  1.
    10030    2    1    2    0    0  0.00000000000E+00  0.00000000000E+00 -0.84677844229E+03  0.23586121783E+04  0.22013672291E+04 0.  0.
        3    1    3    3  502    0  0.55385021903E+03 -0.31729656818E+03  0.53736637333E+03  0.83437989350E+03  0.10100000352E+00 0. -1.
       -3    1    3    3    0  502 -0.55385021903E+03  0.31729656818E+03 -0.13841448156E+04  0.15242322848E+04  0.10100000352E+00 0.  1.
</event>
<event>
 5   0  0.2581058E-06  0.2199978E+04  0.7818609E-02  0.8518437E-01
       -2   -1    0    0    0  501  0.00000000000E+00  0.00000000000E+00  0.92444304484E+03  0.92444304485E+03  0.25500000920E-02 0. -1.
        2   -1    0    0  501    0  0.00000000000E+00  0.00000000000E+00 -0.13088694963E+04  0.13088694963E+04  0.25500000920E-02 0.  1.
    10030    2    1    2    0    0  0.00000000000E+00  0.00000000000E+00 -0.38442645150E+03  0.22333125412E+04  0.21999775476E+04 0.  0.
        1    1    3    3  502    0 -0.76046635940E+03  0.47894002503E+03 -0.83608134048E+03  0.12274871239E+04  0.50400001928E-02 0.  1.
       -1    1    3    3    0  502  0.76046635940E+03 -0.47894002503E+03  0.45165488898E+03  0.10058254173E+04  0.50400001928E-02 0. -1.
</event>
<event>
 5   0  0.1146827E-06  0.2200020E+04  0.7818609E-02  0.8518420E-01
        1   -1    0    0  501    0  0.00000000000E+00  0.00000000000E+00  0.13944837098E+04  0.13944837098E+04  0.50400001928E-02 0.  1.
       -1   -1    0    0    0  501  0.00000000000E+00  0.00000000000E+00 -0.86772031868E+03  0.86772031869E+03  0.50400001928E-02 0. -1.
    10030    2    1    2    0    0  0.00000000000E+00  0.00000000000E+00  0.52676339108E+03  0.22622040285E+04  0.22000198627E+04 0.  0.
        4    1    3    3  502    0  0.70916453484E+03  0.72804441780E+03 -0.16929349687E+03  0.10303518393E+04  0.12699999809E+01 0. -1.
       -4    1    3    3    0  502 -0.70916453484E+03 -0.72804441780E+03  0.69605688795E+03  0.12318521892E+04  0.12699999809E+01 0.  1.
</event>
<event>
 5   0  0.1107101E-06  0.2203397E+04  0.7818609E-02  0.8517016E-01
        1   -1    0    0  501    0  0.00000000000E+00  0.00000000000E+00  0.12789444611E+04  0.12789444611E+04  0.50400001928E-02 0.  1.
       -1   -1    0    0    0  501  0.00000000000E+00  0.00000000000E+00 -0.94901651414E+03  0.94901651416E+03  0.50400001928E-02 0. -1.
    10030    2    1    2    0    0  0.00000000000E+00  0.00000000000E+00  0.32992794693E+03  0.22279609752E+04  0.22033968451E+04 0.  0.
        1    1    3    3  502    0 -0.30545530318E+03  0.95602808572E+03  0.62439350096E+03  0.11820151805E+04  0.50400001928E-02 0.  1.
       -1    1    3    3    0  502  0.30545530318E+03 -0.95602808572E+03 -0.29446555404E+03  0.10459457947E+04  0.50400001928E-02 0. -1.
</event>
<event>
 5   0  0.2606154E-06  0.2200132E+04  0.7818609E-02  0.8518373E-01
       -2   -1    0    0    0  501  0.00000000000E+00  0.00000000000E+00  0.10546814799E+04  0.10546814799E+04  0.25500000920E-02 0.  1.
        2   -1    0    0  501    0  0.00000000000E+00  0.00000000000E+00 -0.11474039800E+04  0.11474039800E+04  0.25500000920E-02 0. -1.
    10030    2    1    2    0    0  0.00000000000E+00  0.00000000000E+00 -0.92722500096E+02  0.22020854600E+04  0.22001324758E+04 0.  0.
        2    1    3    3  502    0  0.49285836184E+03 -0.22904275602E+03 -0.10036493632E+04  0.11413509509E+04  0.25500000920E-02 0. -1.
       -2    1    3    3    0  502 -0.49285836184E+03  0.22904275602E+03  0.91092686307E+03  0.10607345091E+04  0.25500000920E-02 0.  1.
</event>
<event>
 5   0  0.1144271E-06  0.2200038E+04  0.7818609E-02  0.8518412E-01
        1   -1    0    0  501    0  0.00000000000E+00  0.00000000000E+00  0.13691812558E+04  0.13691812558E+04  0.50400001928E-02 0.  1.
       -1   -1    0    0    0  501  0.00000000000E+00  0.00000000000E+00 -0.88377004099E+03  0.88377004101E+03  0.50400001928E-02 0. -1.
    10030    2    1    2    0    0  0.00000000000E+00  0.00000000000E+00  0.48541121481E+03  0.22529512968E+04  0.22000376129E+04 0.  0.
        3    1    3    3  502    0 -0.64300852818E+03  0.51498619035E+02  0.11551630327E+04  0.13230698082E+04  0.10100000352E+00 0.  1.
       -3    1    3    3    0  502  0.64300852818E+03 -0.51498619035E+02 -0.66975181790E+03  0.92988148860E+03  0.10100000352E+00 0. -1.
</event>
<event>
 5   0  0.2532239E-06  0.2201002E+04  0.7818609E-02  0.8518011E-01
        2   -1    0    0  501    0  0.00000000000E+00  0.00000000000E+00  0.11362929503E+04  0.11362929503E+04  0.25500000920E-02 0. -1.
       -2   -1    0    0    0  501  0.00000000000E+00  0.00000000000E+00 -0.10658364851E+04  0.10658364851E+04  0.25500000920E-02 0.  1.
    10030    2    1    2    0    0  0.00000000000E+00  0.00000000000E+00  0.70456465182E+02  0.22021294353E+04  0.22010020301E+04 0.  0.
        3    1    3    3  502    0 -0.51897732822E+03 -0.12227673615E+03  0.99843284280E+03  0.11318821578E+04  0.10100000352E+00 0. -1.
       -3    1    3    3    0  502  0.51897732822E+03  0.12227673615E+03 -0.92797637762E+03  0.10702472775E+04  0.10100000352E+00 0.  1.
</event>
<event>
 5   0  0.1107101E-06  0.2199670E+04  0.7818609E-02  0.8518566E-01
       -1   -1    0    0    0  501  0.00000000000E+00  0.00000000000E+00  0.69544236714E+03  0.69544236716E+03  0.50400001928E-02 0. -1.
        1   -1    0    0  501    0  0.00000000000E+00  0.00000000000E+00 -0.17393774918E+04  0.17393774918E+04  0.50400001928E-02 0.  1.
    10030    2    1    2    0    0  0.00000000000E+00  0.00000000000E+00 -0.10439351246E+04  0.24348198589E+04  0.21996697936E+04 0.  0.
        1    1    3    3  502    0  0.17168121694E+03 -0.10803484532E+04 -0.39571477431E+03  0.11632787298E+04  0.50400001928E-02 0. -1.
       -1    1    3    3    0  502 -0.17168121694E+03  0.10803484532E+04 -0.64822035031E+03  0.12715411291E+04  0.50400001928E-02 0.  1.
</event>
<event>
 5   0  0.2606154E-06  0.2201565E+04  0.7818609E-02  0.8517777E-01
       -2   -1    0    0    0  501  0.00000000000E+00  0.00000000000E+00  0.88822155396E+03  0.88822155397E+03  0.25500000920E-02 0.  1.
        2   -1    0    0  501    0  0.00000000000E+00  0.00000000000E+00 -0.13642121421E+04  0.13642121421E+04  0.25500000920E-02 0. -1.
    10030    2    1    2    0    0  0.00000000000E+00  0.00000000000E+00 -0.47599058812E+03  0.22524336960E+04  0.22015654692E+04 0.  0.
        2    1    3    3  502    0  0.23739420341E+03 -0.13145028816E+03 -0.13294563052E+04  0.13568674414E+04  0.25500000920E-02 0. -1.
       -2    1    3    3    0  502 -0.23739420341E+03  0.13145028816E+03  0.85346571713E+03  0.89556625461E+03  0.25500000920E-02 0.  1.
</event>
<event>
 5   0  0.1082209E-06  0.2199403E+04  0.7818609E-02  0.8518677E-01
       -1   -1    0    0    0  501  0.00000000000E+00  0.00000000000E+00  0.87971435270E+03  0.87971435271E+03  0.50400001928E-02 0.  1.
        1   -1    0    0  501    0  0.00000000000E+00  0.00000000000E+00 -0.13746998487E+04  0.13746998487E+04  0.50400001928E-02 0. -1.
    10030    2    1    2    0    0  0.00000000000E+00  0.00000000000E+00 -0.49498549603E+03  0.22544142014E+04  0.21994028168E+04 0.  0.
        2    1    3    3  502    0  0.69381260365E+03 -0.80850565153E+03 -0.52686421083E+03  0.11885466815E+04  0.25500000920E-02 0. -1.
       -2    1    3    3    0  502 -0.69381260365E+03  0.80850565153E+03  0.31878714797E+02  0.10658675199E+04  0.25500000920E-02 0.  1.
</event>
<event>
 5   0  0.2532239E-06  0.2200106E+04  0.7818609E-02  0.8518384E-01
       -2   -1    0    0    0  501  0.00000000000E+00  0.00000000000E+00  0.11830715293E+04  0.11830715293E+04  0.25500000920E-02 0. -1.
        2   -1    0    0  501    0  0.00000000000E+00  0.00000000000E+00 -0.10228598832E+04  0.10228598832E+04  0.25500000920E-02 0.  1.
    10030    2    1    2    0    0  0.00000000000E+00  0.00000000000E+00  0.16021164604E+03  0.22059314125E+04  0.22001058213E+04 0.  0.
        3    1    3    3  502    0 -0.36317836860E+03  0.80166389516E+03 -0.58160596855E+03  0.10549071244E+04  0.10100000352E+00 0.  1.
       -3    1    3    3    0  502  0.36317836860E+03 -0.80166389516E+03  0.74181761459E+03  0.11510242881E+04  0.10100000352E+00 0. -1.
</event>
<event>
 5   0  0.2556869E-06  0.2199704E+04  0.7818609E-02  0.8518551E-01
       -2   -1    0    0    0  501  0.00000000000E+00  0.00000000000E+00  0.67535320304E+03  0.67535320304E+03  0.25500000920E-02 0.  1.
        2   -1    0    0  501    0  0.00000000000E+00  0.00000000000E+00 -0.17911734794E+04  0.17911734794E+04  0.25500000920E-02 0. -1.
    10030    2    1    2    0    0  0.00000000000E+00  0.00000000000E+00 -0.11158202764E+04  0.24665266825E+04  0.21997042951E+04 0.  0.
        5    1    3    3  502    0  0.46505812940E+03 -0.75799773708E+03  0.16774722126E+03  0.90498665923E+03  0.46999998093E+01 0.  1.
       -5    1    3    3    0  502 -0.46505812940E+03  0.75799773708E+03 -0.12835674976E+04  0.15615400232E+04  0.46999998093E+01 0. -1.
</event>
<event>
 5   0  0.1082209E-06  0.2199999E+04  0.7818609E-02  0.8518429E-01
        1   -1    0    0  501    0  0.00000000000E+00  0.00000000000E+00  0.13044311415E+04  0.13044311415E+04  0.50400001928E-02 0.  1.
       -1   -1    0    0    0  501  0.00000000000E+00  0.00000000000E+00 -0.92760646189E+03  0.92760646190E+03  0.50400001928E-02 0. -1.
    10030    2    1    2    0    0  0.00000000000E+00  0.00000000000E+00  0.37682467961E+03  0.22320376034E+04  0.21999988691E+04 0.  0.
        2    1    3    3  502    0 -0.47479934801E+03 -0.16230887783E+03 -0.80473046831E+03  0.94835105278E+03  0.25500000920E-02 0. -1.
       -2    1    3    3    0  502  0.47479934801E+03  0.16230887783E+03  0.11815551479E+04  0.12836865506E+04  0.25500000920E-02 0.  1.
</event>
<event>
 5   0  0.2532239E-06  0.2200029E+04  0.7818609E-02  0.8518416E-01
       -2   -1    0    0    0  501  0.00000000000E+00  0.00000000000E+00  0.10684912153E+04  0.10684912153E+04  0.25500000920E-02 0. -1.
        2   -1    0    0  501    0  0.00000000000E+00  0.00000000000E+00 -0.11324680492E+04  0.11324680492E+04  0.25500000920E-02 0.  1.
    10030    2    1    2    0    0  0.00000000000E+00  0.00000000000E+00 -0.63976833953E+02  0.22009592645E+04  0.22000292382E+04 0.  0.
        3    1    3    3  502    0  0.45313015302E+03  0.66605055419E+03 -0.78135905446E+03  0.11222621167E+04  0.10100000352E+00 0.  1.
       -3    1    3    3    0  502 -0.45313015302E+03 -0.66605055419E+03  0.71738222051E+03  0.10786971479E+04  0.10100000352E+00 0. -1.
</event>
<event>
 5   0  0.2581058E-06  0.2198567E+04  0.7818609E-02  0.8519025E-01
       -2   -1    0    0    0  501  0.00000000000E+00  0.00000000000E+00  0.70041571452E+03  0.70041571453E+03  0.25500000920E-02 0.  1.
        2   -1    0    0  501    0  0.00000000000E+00  0.00000000000E+00 -0.17252953318E+04  0.17252953318E+04  0.25500000920E-02 0. -1.
    10030    2    1    2    0    0  0.00000000000E+00  0.00000000000E+00 -0.10248796173E+04  0.24257110463E+04  0.21985667719E+04 0.  0.
        1    1    3    3  502    0  0.47450438207E+03 -0.43649383176E+03 -0.14947881782E+04  0.16279044724E+04  0.50400001928E-02 0. -1.
       -1    1    3    3    0  502 -0.47450438207E+03  0.43649383176E+03  0.46990856087E+03  0.79780657391E+03  0.50400001928E-02 0.  1.
</event>
<event>
 5   0  0.1137869E-06  0.2200692E+04  0.7818609E-02  0.8518140E-01
        1   -1    0    0  501    0  0.00000000000E+00  0.00000000000E+00  0.13752177447E+04  0.13752177447E+04  0.50400001928E-02 0. -1.
       -1   -1    0    0    0  501  0.00000000000E+00  0.00000000000E+00 -0.88041394131E+03  0.88041394132E+03  0.50400001928E-02 0.  1.
    10030    2    1    2    0    0  0.00000000000E+00  0.00000000000E+00  0.49480380342E+03  0.22556316861E+04  0.22006915957E+04 0.  0.
        5    1    3    3  502    0  0.73801567416E+03 -0.29759733637E+03  0.10263128472E+04  0.12986806614E+04  0.46999998093E+01 0. -1.
       -5    1    3    3    0  502 -0.73801567416E+03  0.29759733637E+03 -0.53150904382E+03  0.95695102465E+03  0.46999998093E+01 0.  1.
</event>
<event>
 5   0  0.2532239E-06  0.2199888E+04  0.7818609E-02  0.8518475E-01
        2   -1    0    0  501    0  0.00000000000E+00  0.00000000000E+00  0.10764291982E+04  0.10764291982E+04  0.25500000920E-02 0. -1.
       -2   -1    0    0    0  501  0.00000000000E+00  0.00000000000E+00 -0.11239722405E+04  0.11239722405E+04  0.25500000920E-02 0.  1.
    10030    2    1    2    0    0  0.00000000000E+00  0.00000000000E+00 -0.47543042247E+02  0.22004014387E+04  0.21998877586E+04 0.  0.
        3    1    3    3  502    0 -0.41611408043E+03 -0.51771991154E+03 -0.90072688945E+03  0.11191486828E+04  0.10100000352E+00 0.  1.
       -3    1    3    3    0  502  0.41611408043E+03  0.51771991154E+03  0.85318384721E+03  0.10812527559E+04  0.10100000352E+00 0. -1.
</event>
<event>
 5   0  0.1146827E-06  0.2202050E+04  0.7818609E-02  0.8517575E-01
        1   -1    0    0  501    0  0.00000000000E+00  0.00000000000E+00  0.17937310697E+04  0.17937310697E+04  0.50400001928E-02 0.  1.
       -1   -1    0    0    0  501  0.00000000000E+00  0.00000000000E+00 -0.67582957780E+03  0.67582957782E+03  0.50400001928E-02 0. -1.
    10030    2    1    2    0    0  0.00000000000E+00  0.00000000000E+00  0.11179014919E+04  0.24695606475E+04  0.22020504186E+04 0.  0.
        4    1    3    3  502    0 -0.14703017611E+03  0.84513616502E+03 -0.21510111390E+03  0.88438855274E+03  0.12699999809E+01 0. -1.
       -4    1    3    3    0  502  0.14703017611E+03 -0.84513616502E+03  0.13330026058E+04  0.15851720948E+04  0.12699999809E+01 0.  1.
</event>
<event>
 5   0  0.1107101E-06  0.2200977E+04  0.7818609E-02  0.8518022E-01
       -1   -1    0    0    0  501  0.00000000000E+00  0.00000000000E+00  0.78309112301E+03  0.78309112303E+03  0.50400001928E-02 0. -1.
        1   -1    0    0  501    0  0.00000000000E+00  0.00000000000E+00 -0.15465311576E+04  0.15465311576E+04  0.50400001928E-02 0.  1.
    10030    2    1    2    0    0  0.00000000000E+00  0.00000000000E+00 -0.76344003463E+03  0.23296222807E+04  0.22009768931E+04 0.  0.
        1    1    3    3  502    0  0.23772141051E+03 -0.35151409069E+03 -0.14564506130E+04  0.15170108811E+04  0.50400001928E-02 0.  1.
       -1    1    3    3    0  502 -0.23772141051E+03  0.35151409069E+03  0.69301057842E+03  0.81261139962E+03  0.50400001928E-02 0. -1.
</event>
<event>
 5   0  0.1144271E-06  0.2200111E+04  0.7818609E-02  0.8518382E-01
       -1   -1    0    0    0  501  0.00000000000E+00  0.00000000000E+00  0.89864634289E+03  0.89864634290E+03  0.50400001928E-02 0.  1.
        1   -1    0    0  501    0  0.00000000000E+00  0.00000000000E+00 -0.13466053394E+04  0.13466053394E+04  0.50400001928E-02 0. -1.
    10030    2    1    2    0    0  0.00000000000E+00  0.00000000000E+00 -0.44795899654E+03  0.22452516823E+04  0.22001108732E+04 0.  0.
        3    1    3    3  502    0  0.64233143544E+03 -0.73392629336E+03  0.29526687015E+03  0.10190289554E+04  0.10100000352E+00 0.  1.
       -3    1    3    3    0  502 -0.64233143544E+03  0.73392629336E+03 -0.74322586669E+03  0.12262227270E+04  0.10100000352E+00 0. -1.
</event>
<event>
 5   0  0.2524749E-06  0.2199215E+04  0.7818609E-02  0.8518755E-01
        2   -1    0    0  501    0  0.00000000000E+00  0.00000000000E+00  0.11930505939E+04  0.11930505939E+04  0.25500000920E-02 0. -1.
       -2   -1    0    0    0  501  0.00000000000E+00  0.00000000000E+00 -0.10134827698E+04  0.10134827698E+04  0.25500000920E-02 0.  1.
    10030    2    1    2    0    0  0.00000000000E+00  0.00000000000E+00  0.17956782415E+03  0.22065333637E+04  0.21992146056E+04 0.  0.
        4    1    3    3  502    0 -0.66666273345E+03  0.18547405006E+03 -0.76763288424E+03  0.10334900490E+04  0.12699999809E+01 0.  1.
       -4    1    3    3    0  502  0.66666273345E+03 -0.18547405006E+03  0.94720070839E+03  0.11730433148E+04  0.12699999809E+01 0. -1.
</event>
<event>
 5   0  0.2524749E-06  0.2199214E+04  0.7818609E-02  0.8518755E-01
        2   -1    0    0  501    0  0.00000000000E+00  0.00000000000E+00  0.10063842017E+04  0.10063842017E+04  0.25500000920E-02 0. -1.
       -2   -1    0    0    0  501  0.00000000000E+00  0.00000000000E+00 -0.12014649075E+04  0.12014649075E+04  0.25500000920E-02 0.  1.
    10030    2    1    2    0    0  0.00000000000E+00  0.00000000000E+00 -0.19508070586E+03  0.22078491092E+04  0.21992137702E+04 0.  0.
        4    1    3    3  502    0  0.16888035604E+03  0.14365138604E+03  0.98371110411E+03  0.10083875468E+04  0.12699999809E+01 0. -1.
       -4    1    3    3    0  502 -0.16888035604E+03 -0.14365138604E+03 -0.11787918100E+04  0.11994615623E+04  0.12699999809E+01 0.  1.
</event>
<event>
 5   0  0.1082209E-06  0.2200563E+04  0.7818609E-02  0.8518194E-01
       -1   -1    0    0    0  501  0.00000000000E+00  0.00000000000E+00  0.13098901621E+04  0.13098901621E+04  0.50400001928E-02 0.  1.
        1   -1    0    0  501    0  0.00000000000E+00  0.00000000000E+00 -0.92421425814E+03  0.92421425816E+03  0.50400001928E-02 0. -1.
    10030    2    1    2    0    0  0.00000000000E+00  0.00000000000E+00  0.38567590398E+03  0.22341044203E+04  0.22005628048E+04 0.  0.
        2    1    3    3  502    0  0.10266002105E+04  0.87178616152E+02 -0.19919685717E+03  0.10493748097E+04  0.25500000920E-02 0. -1.
       -2    1    3    3    0  502 -0.10266002105E+04 -0.87178616152E+02  0.58487276115E+03  0.11847296106E+04  0.25500000920E-02 0.  1.
</event>
<event>
 5   0  0.1144271E-06  0.2199949E+04  0.7818609E-02  0.8518449E-01
       -1   -1    0    0    0  501  0.00000000000E+00  0.00000000000E+00  0.10229916592E+04  0.10229916592E+04  0.50400001928E-02 0. -1.
        1   -1    0    0  501    0  0.00000000000E+00  0.00000000000E+00 -0.11827504372E+04  0.11827504372E+04  0.50400001928E-02 0.  1.
    10030    2    1    2    0    0  0.00000000000E+00  0.00000000000E+00 -0.15975877795E+03  0.22057420964E+04  0.21999489378E+04 0.  0.
        3    1    3    3  502    0 -0.25110535250E+03 -0.87911428482E+03  0.53332576789E+03  0.10584574667E+04  0.10100000352E+00 0. -1.
       -3    1    3    3    0  502  0.25110535250E+03  0.87911428482E+03 -0.69308454584E+03  0.11472846298E+04  0.10100000352E+00 0.  1.
</event>
<event>
 5   0  0.1137869E-06  0.2200223E+04  0.7818609E-02  0.8518335E-01
        1   -1    0    0  501    0  0.00000000000E+00  0.00000000000E+00  0.20399112673E+04  0.20399112673E+04  0.50400001928E-02 0. -1.
       -1   -1    0    0    0  501  0.00000000000E+00  0.00000000000E+00 -0.59328314053E+03  0.59328314056E+03  0.50400001928E-02 0.  1.
    10030    2    1    2    0    0  0.00000000000E+00  0.00000000000E+00  0.14466281268E+04  0.26331944078E+04  0.22002226825E+04 0.  0.
        5    1    3    3  502    0 -0.20523485588E+03  0.50132511541E+02  0.20153924697E+04  0.20264410951E+04  0.46999998093E+01 0. -1.
       -5    1    3    3    0  502  0.20523485588E+03 -0.50132511541E+02 -0.56876434295E+03  0.60675331280E+03  0.46999998093E+01 0.  1.
</event>
<event>
 5   0  0.2606154E-06  0.2200695E+04  0.7818609E-02  0.8518139E-01
        2   -1    0    0  501    0  0.00000000000E+00  0.00000000000E+00  0.23323527150E+04  0.23323527150E+04  0.25500000920E-02 0. -1.
       -2   -1    0    0    0  501  0.00000000000E+00  0.00000000000E+00 -0.51911749777E+03  0.51911749778E+03  0.25500000920E-02 0.  1.
    10030    2    1    2    0    0  0.00000000000E+00  0.00000000000E+00  0.18132352172E+04  0.28514702127E+04  0.22006954404E+04 0.  0.
        2    1    3    3  502    0 -0.22558040739E+03  0.39522211780E+02 -0.48789527811E+03  0.53897154640E+03  0.25500000920E-02 0.  1.
       -2    1    3    3    0  502  0.22558040739E+03 -0.39522211780E+02  0.23011304953E+04  0.23124986663E+04  0.25500000920E-02 0. -1.
</event>
<event>
 5   0  0.2532239E-06  0.2203393E+04  0.7818609E-02  0.8517017E-01
       -2   -1    0    0    0  501  0.00000000000E+00  0.00000000000E+00  0.10055884894E+04  0.10055884894E+04  0.25500000920E-02 0. -1.
        2   -1    0    0  501    0  0.00000000000E+00  0.00000000000E+00 -0.12069903932E+04  0.12069903932E+04  0.25500000920E-02 0.  1.
    10030    2    1    2    0    0  0.00000000000E+00  0.00000000000E+00 -0.20140190379E+03  0.22125788826E+04  0.22033934249E+04 0.  0.
        3    1    3    3  502    0  0.86897812155E+03 -0.20634392786E+03  0.54699557241E+03  0.10473323058E+04  0.10100000352E+00 0. -1.
       -3    1    3    3    0  502 -0.86897812155E+03  0.20634392786E+03 -0.74839747619E+03  0.11652465769E+04  0.10100000352E+00 0.  1.
</event>
<event>
 5   0  0.2581058E-06  0.2199863E+04  0.7818609E-02  0.8518485E-01
        2   -1    0    0  501    0  0.00000000000E+00  0.00000000000E+00  0.20591754454E+04  0.20591754454E+04  0.25500000920E-02 0. -1.
       -2   -1    0    0    0  501  0.00000000000E+00  0.00000000000E+00 -0.58754045616E+03  0.58754045617E+03  0.25500000920E-02 0.  1.
    10030    2    1    2    0    0  0.00000000000E+00  0.00000000000E+00  0.14716349892E+04  0.26467159016E+04  0.21998626144E+04 0.  0.
        1    1    3    3  502    0 -0.82957424223E+03  0.28397936872E+03  0.15347987026E+04  0.17676099012E+04  0.50400001928E-02 0. -1.
       -1    1    3    3    0  502  0.82957424223E+03 -0.28397936872E+03 -0.63163713348E+02  0.87910600040E+03  0.50400001928E-02 0.  1.
</event>
<event>
 5   0  0.2606154E-06  0.2199998E+04  0.7818609E-02  0.8518429E-01
        2   -1    0    0  501    0  0.00000000000E+00  0.00000000000E+00  0.19053202600E+04  0.19053202600E+04  0.25500000920E-02 0.  1.
       -2   -1    0    0    0  501  0.00000000000E+00  0.00000000000E+00 -0.63506275274E+03  0.63506275275E+03  0.25500000920E-02 0. -1.
    10030    2    1    2    0    0  0.00000000000E+00  0.00000000000E+00  0.12702575072E+04  0.25403830127E+04  0.21999981174E+04 0.  0.
        2    1    3    3  502    0  0.49229037136E+03 -0.54025148167E+03  0.15843739744E+04  0.17448387788E+04  0.25500000920E-02 0.  1.
       -2    1    3    3    0  502 -0.49229037136E+03  0.54025148167E+03 -0.31411646718E+03  0.79554423393E+03  0.25500000920E-02 0. -1.
</event>
<event>
 5   0  0.2532239E-06  0.2199851E+04  0.7818609E-02  0.8518490E-01
        2   -1    0    0  501    0  0.00000000000E+00  0.00000000000E+00  0.16305391460E+04  0.16305391460E+04  0.25500000920E-02 0.  1.
       -2   -1    0    0    0  501  0.00000000000E+00  0.00000000000E+00 -0.74198563729E+03  0.74198563729E+03  0.25500000920E-02 0. -1.
    10030    2    1    2    0    0  0.00000000000E+00  0.00000000000E+00  0.88855350866E+03  0.23725247832E+04  0.21998514744E+04 0.  0.
        3    1    3    3  502    0  0.35250933218E+03 -0.33609632127E+02  0.15673834052E+04  0.16068861770E+04  0.10100000352E+00 0.  1.
       -3    1    3    3    0  502 -0.35250933218E+03  0.33609632127E+02 -0.67882989658E+03  0.76563860622E+03  0.10100000352E+00 0. -1.
</event>
<event>
 5   0  0.1144271E-06  0.2199619E+04  0.7818609E-02  0.8518587E-01
       -1   -1    0    0    0  501  0.00000000000E+00  0.00000000000E+00  0.56092102121E+03  0.56092102123E+03  0.50400001928E-02 0.  1.
        1   -1    0    0  501    0  0.00000000000E+00  0.00000000000E+00 -0.21564184680E+04  0.21564184680E+04  0.50400001928E-02 0. -1.
    10030    2    1    2    0    0  0.00000000000E+00  0.00000000000E+00 -0.15954974468E+04  0.27173394892E+04  0.21996185572E+04 0.  0.
        3    1    3    3  502    0  0.55504751416E+03 -0.88044782587E+03 -0.12368076616E+04  0.16164650689E+04  0.10100000352E+00 0. -1.
       -3    1    3    3    0  502 -0.55504751416E+03  0.88044782587E+03 -0.35868978516E+03  0.11008744203E+04  0.10100000352E+00 0.  1.
</event>
<event>
 5   0  0.2556869E-06  0.2199226E+04  0.7818609E-02  0.8518750E-01
       -2   -1    0    0    0  501  0.00000000000E+00  0.00000000000E+00  0.20999262049E+04  0.20999262049E+04  0.25500000920E-02 0.  1.
        2   -1    0    0  501    0  0.00000000000E+00  0.00000000000E+00 -0.57580522111E+03  0.57580522112E+03  0.25500000920E-02 0. -1.
    10030    2    1    2    0    0  0.00000000000E+00  0.00000000000E+00  0.15241209838E+04  0.26757314260E+04  0.21992257481E+04 0.  0.
        5    1    3    3  502    0  0.35766812964E+03 -0.87340163596E+02 -0.49857117551E+03  0.61979843674E+03  0.46999998093E+01 0. -1.
       -5    1    3    3    0  502 -0.35766812964E+03  0.87340163596E+02  0.20226921593E+04  0.20559329893E+04  0.46999998093E+01 0.  1.
</event>
<event>
 5   0  0.1137869E-06  0.2198255E+04  0.7818609E-02  0.8519155E-01
        1   -1    0    0  501    0  0.00000000000E+00  0.00000000000E+00  0.10968823168E+04  0.10968823168E+04  0.50400001928E-02 0.  1.
       -1   -1    0    0    0  501  0.00000000000E+00  0.00000000000E+00 -0.11013774907E+04  0.11013774907E+04  0.50400001928E-02 0. -1.
    10030    2    1    2    0    0  0.00000000000E+00  0.00000000000E+00 -0.44951739294E+01  0.21982598075E+04  0.21982552114E+04 0.  0.
        5    1    3    3  502    0  0.88211089081E+03 -0.51535907504E+03 -0.40764306170E+03  0.10999588882E+04  0.46999998093E+01 0. -1.
       -5    1    3    3    0  502 -0.88211089081E+03  0.51535907504E+03  0.40314788777E+03  0.10983009193E+04  0.46999998093E+01 0.  1.
</event>
<event>
 5   0  0.1144271E-06  0.2199931E+04  0.7818609E-02  0.8518457E-01
       -1   -1    0    0    0  501  0.00000000000E+00  0.00000000000E+00  0.87768666595E+03  0.87768666596E+03  0.50400001928E-02 0.  1.
        1   -1    0    0  501    0  0.00000000000E+00  0.00000000000E+00 -0.13785376425E+04  0.13785376425E+04  0.50400001928E-02 0. -1.
    10030    2    1    2    0    0  0.00000000000E+00  0.00000000000E+00 -0.50085097651E+03  0.22562243084E+04  0.21999310056E+04 0.  0.
        3    1    3    3  502    0  0.57506173233E+03 -0.13652937245E+03  0.70099130728E+03  0.91691062193E+03  0.10100000352E+00 0.  1.
       -3    1    3    3    0  502 -0.57506173233E+03  0.13652937245E+03 -0.12018422838E+04  0.13393136865E+04  0.10100000352E+00 0. -1.
</event>
<event>
 5   0  0.2532239E-06  0.2199776E+04  0.7818609E-02  0.8518522E-01
        2   -1    0    0  501    0  0.00000000000E+00  0.00000000000E+00  0.13218194590E+04  0.13218194590E+04  0.25500000920E-02 0.  1.
       -2   -1    0    0    0  501  0.00000000000E+00  0.00000000000E+00 -0.91521808397E+03  0.91521808398E+03  0.25500000920E-02 0. -1.
    10030    2    1    2    0    0  0.00000000000E+00  0.00000000000E+00  0.40660137504E+03  0.22370375430E+04  0.21997755091E+04 0.  0.
        3    1    3    3  502    0  0.52778960864E+03  0.79362089492E+03 -0.35495814113E+03  0.10170502878E+04  0.10100000352E+00 0. -1.
       -3    1    3    3    0  502 -0.52778960864E+03 -0.79362089492E+03  0.76155951617E+03  0.12199872551E+04  0.10100000352E+00 0.  1.
</event>
<event>
 5   0  0.1107101E-06  0.2200058E+04  0.7818609E-02  0.8518404E-01
        1   -1    0    0  501    0  0.00000000000E+00  0.00000000000E+00  0.91824073469E+03  0.91824073470E+03  0.50400001928E-02 0. -1.
       -1   -1    0    0    0  501  0.00000000000E+00  0.00000000000E+00 -0.13178062273E+04  0.13178062273E+04  0.50400001928E-02 0.  1.
    10030    2    1    2    0    0  0.00000000000E+00  0.00000000000E+00 -0.39956549260E+03  0.22360469620E+04  0.22000575977E+04 0.  0.
        1    1    3    3  502    0  0.29192381989E+03  0.81193126851E+02  0.87498993212E+03  0.92596934172E+03  0.50400001928E-02 0. -1.
       -1    1    3    3    0  502 -0.29192381989E+03 -0.81193126851E+02 -0.12745554247E+04  0.13100776203E+04  0.50400001928E-02 0.  1.
</event>
<event>
 5   0  0.1144271E-06  0.2201538E+04  0.7818609E-02  0.8517788E-01
        1   -1    0    0  501    0  0.00000000000E+00  0.00000000000E+00  0.92811691851E+03  0.92811691853E+03  0.50400001928E-02 0.  1.
       -1   -1    0    0    0  501  0.00000000000E+00  0.00000000000E+00 -0.13055380651E+04  0.13055380652E+04  0.50400001928E-02 0. -1.
    10030    2    1    2    0    0  0.00000000000E+00  0.00000000000E+00 -0.37742114663E+03  0.22336549837E+04  0.22015376136E+04 0.  0.
        3    1    3    3  502    0  0.57997267645E+03  0.22518102213E+03  0.73262144742E+03  0.96114982889E+03  0.10100000352E+00 0.  1.
       -3    1    3    3    0  502 -0.57997267645E+03 -0.22518102213E+03 -0.11100425941E+04  0.12725051548E+04  0.10100000352E+00 0. -1.
</event>
<event>
 5   0  0.1082209E-06  0.2199636E+04  0.7818609E-02  0.8518580E-01
        1   -1    0    0  501    0  0.00000000000E+00  0.00000000000E+00  0.18558896821E+04  0.18558896822E+04  0.50400001928E-02 0.  1.
       -1   -1    0    0    0  501  0.00000000000E+00  0.00000000000E+00 -0.65176261653E+03  0.65176261655E+03  0.50400001928E-02 0. -1.
    10030    2    1    2    0    0  0.00000000000E+00  0.00000000000E+00  0.12041270656E+04  0.25076522987E+04  0.21996358928E+04 0.  0.
        2    1    3    3  502    0 -0.10709444895E+02  0.10743977045E+04  0.33432764691E+03  0.11252644557E+04  0.25500000920E-02 0. -1.
       -2    1    3    3    0  502  0.10709444895E+02 -0.10743977045E+04  0.86979941870E+03  0.13823878430E+04  0.25500000920E-02 0.  1.
</event>
<event>
 5   0  0.1137869E-06  0.2200921E+04  0.7818609E-02  0.8518045E-01
       -1   -1    0    0    0  501  0.00000000000E+00  0.00000000000E+00  0.23570060581E+04  0.23570060581E+04  0.50400001928E-02 0. -1.
        1   -1    0    0  501    0  0.00000000000E+00  0.00000000000E+00 -0.51379290037E+03  0.51379290039E+03  0.50400001928E-02 0.  1.
    10030    2    1    2    0    0  0.00000000000E+00  0.00000000000E+00  0.18432131577E+04  0.28707989585E+04  0.22009206972E+04 0.  0.
        5    1    3    3  502    0 -0.28716708406E+03 -0.58922556211E+03 -0.23136390628E+03  0.69512807766E+03  0.46999998093E+01 0.  1.
       -5    1    3    3    0  502  0.28716708406E+03  0.58922556211E+03  0.20745770640E+04  0.21756708808E+04  0.46999998093E+01 0. -1.
</event>
<event>
 5   0  0.2524749E-06  0.2199592E+04  0.7818609E-02  0.8518598E-01
        2   -1    0    0  501    0  0.00000000000E+00  0.00000000000E+00  0.11027029500E+04  0.11027029500E+04  0.25500000920E-02 0. -1.
       -2   -1    0    0    0  501  0.00000000000E+00  0.00000000000E+00 -0.10968966462E+04  0.10968966462E+04  0.25500000920E-02 0.  1.
    10030    2    1    2    0    0  0.00000000000E+00  0.00000000000E+00  0.58063037414E+01  0.21995995962E+04  0.21995919327E+04 0.  0.
        4    1    3    3  502    0  0.57521542363E+03 -0.49474199298E+03 -0.79328247264E+03  0.10976980994E+04  0.12699999809E+01 0.  1.
       -4    1    3    3    0  502 -0.57521542363E+03  0.49474199298E+03  0.79908877638E+03  0.11019014968E+04  0.12699999809E+01 0. -1.
</event>
<event>
 5   0  0.2581058E-06  0.2201044E+04  0.7818609E-02  0.8517994E-01
        2   -1    0    0  501    0  0.00000000000E+00  0.00000000000E+00  0.83981751752E+03  0.83981751752E+03  0.25500000920E-02 0. -1.
       -2   -1    0    0    0  501  0.00000000000E+00  0.00000000000E+00 -0.14421563019E+04  0.14421563019E+04  0.25500000920E-02 0.  1.
    10030    2    1    2    0    0  0.00000000000E+00  0.00000000000E+00 -0.60233878437E+03  0.22819738194E+04  0.22010435028E+04 0.  0.
        1    1    3    3  502    0 -0.55968410717E+03 -0.12896706380E+01 -0.12835868157E+04  0.14003010664E+04  0.50400001928E-02 0.  1.
       -1    1    3    3    0  502  0.55968410717E+03  0.12896706380E+01  0.68124803138E+03  0.88167275298E+03  0.50400001928E-02 0. -1.
</event>
<event>
 5   0  0.1146827E-06  0.2199390E+04  0.7818609E-02  0.8518682E-01
       -1   -1    0    0    0  501  0.00000000000E+00  0.00000000000E+00  0.82767309992E+03  0.82767309993E+03  0.50400001928E-02 0. -1.
        1   -1    0    0  501    0  0.00000000000E+00  0.00000000000E+00 -0.14611193618E+04  0.14611193618E+04  0.50400001928E-02 0.  1.
    10030    2    1    2    0    0  0.00000000000E+00  0.00000000000E+00 -0.63344626185E+03  0.22887924617E+04  0.21993900896E+04 0.  0.
        4    1    3    3  502    0 -0.43820914851E+03 -0.27612506804E+03  0.69278940347E+03  0.86500351531E+03  0.12699999809E+01 0. -1.
       -4    1    3    3    0  502  0.43820914851E+03  0.27612506804E+03 -0.13262356653E+04  0.14237889464E+04  0.12699999809E+01 0.  1.
</event>
<event>
 5   0  0.2606154E-06  0.2200164E+04  0.7818609E-02  0.8518360E-01
        2   -1    0    0  501    0  0.00000000000E+00  0.00000000000E+00  0.11470965096E+04  0.11470965096E+04  0.25500000920E-02 0.  1.
       -2   -1    0    0    0  501  0.00000000000E+00  0.00000000000E+00 -0.10549939846E+04  0.10549939846E+04  0.25500000920E-02 0. -1.
    10030    2    1    2    0    0  0.00000000000E+00  0.00000000000E+00  0.92102524993E+02  0.22020904941E+04  0.22001635551E+04 0.  0.
        2    1    3    3  502    0  0.48859521490E+03  0.72807272574E+03 -0.61888346114E+03  0.10732343251E+04  0.25500000920E-02 0. -1.
       -2    1    3    3    0  502 -0.48859521490E+03 -0.72807272574E+03  0.71098598613E+03  0.11288561691E+04  0.25500000920E-02 0.  1.
</event>
<event>
 5   0  0.1137869E-06  0.2199240E+04  0.7818609E-02  0.8518745E-01
       -1   -1    0    0    0  501  0.00000000000E+00  0.00000000000E+00  0.82611549475E+03  0.82611549477E+03  0.50400001928E-02 0.  1.
        1   -1    0    0  501    0  0.00000000000E+00  0.00000000000E+00 -0.14636743039E+04  0.14636743039E+04  0.50400001928E-02 0. -1.
    10030    2    1    2    0    0  0.00000000000E+00  0.00000000000E+00 -0.63755880918E+03  0.22897897987E+04  0.21992398885E+04 0.  0.
        5    1    3    3  502    0 -0.15096805670E+03  0.20217440027E+03 -0.14331150589E+04  0.14551655247E+04  0.46999998093E+01 0. -1.
       -5    1    3    3    0  502  0.15096805670E+03 -0.20217440027E+03  0.79555624972E+03  0.83462427400E+03  0.46999998093E+01 0.  1.
</event>
<event>
 5   0  0.2606154E-06  0.2199421E+04  0.7818609E-02  0.8518669E-01
        2   -1    0    0  501    0  0.00000000000E+00  0.00000000000E+00  0.13749336572E+04  0.13749336572E+04  0.25500000920E-02 0.  1.
       -2   -1    0    0    0  501  0.00000000000E+00  0.00000000000E+00 -0.87957893868E+03  0.87957893869E+03  0.25500000920E-02 0. -1.
    10030    2    1    2    0    0  0.00000000000E+00  0.00000000000E+00  0.49535471848E+03  0.22545125959E+04  0.21994205482E+04 0.  0.
        2    1    3    3  502    0  0.27994252165E+03 -0.57185852233E+02  0.13362211994E+04  0.13664278725E+04  0.25500000920E-02 0.  1.
       -2    1    3    3    0  502 -0.27994252165E+03  0.57185852233E+02 -0.84086648089E+03  0.88808472334E+03  0.25500000920E-02 0. -1.
</event>
<event>
 5   0  0.1146827E-06  0.2198975E+04  0.7818609E-02  0.8518855E-01
       -1   -1    0    0    0  501  0.00000000000E+00  0.00000000000E+00  0.13340894860E+04  0.13340894860E+04  0.50400001928E-02 0.  1.
        1   -1    0    0  501    0  0.00000000000E+00  0.00000000000E+00 -0.90614038570E+03  0.90614038571E+03  0.50400001928E-02 0. -1.
    10030    2    1    2    0    0  0.00000000000E+00  0.00000000000E+00  0.42794910033E+03  0.22402298718E+04  0.21989746351E+04 0.  0.
        4    1    3    3  502    0  0.88774921945E+01  0.10887988866E+04  0.36951146158E+03  0.11498270124E+04  0.12699999809E+01 0.  1.
       -4    1    3    3    0  502 -0.88774921945E+01 -0.10887988866E+04  0.58437638754E+02  0.10904028594E+04  0.12699999809E+01 0. -1.
</event>
<event>
 5   0  0.1146827E-06  0.2200108E+04  0.7818609E-02  0.8518383E-01
       -1   -1    0    0    0  501  0.00000000000E+00  0.00000000000E+00  0.11873093387E+04  0.11873093387E+04  0.50400001928E-02 0. -1.
        1   -1    0    0  501    0  0.00000000000E+00  0.00000000000E+00 -0.10192113398E+04  0.10192113398E+04  0.50400001928E-02 0.  1.
    10030    2    1    2    0    0  0.00000000000E+00  0.00000000000E+00  0.16809799887E+03  0.22065206786E+04  0.22001083082E+04 0.  0.
        4    1    3    3  502    0  0.74392195014E+03 -0.62388481796E+03 -0.43462889723E+03  0.10637462222E+04  0.12699999809E+01 0.  1.
       -4    1    3    3    0  502 -0.74392195014E+03  0.62388481796E+03  0.60272689611E+03  0.11427744564E+04  0.12699999809E+01 0. -1.
</event>
<event>
 5   0  0.1082209E-06  0.2200650E+04  0.7818609E-02  0.8518158E-01
       -1   -1    0    0    0  501  0.00000000000E+00  0.00000000000E+00  0.16728539090E+04  0.16728539090E+04  0.50400001928E-02 0.  1.
        1   -1    0    0  501    0  0.00000000000E+00  0.00000000000E+00 -0.72374240206E+03  0.72374240208E+03  0.50400001928E-02 0. -1.
    10030    2    1    2    0    0  0.00000000000E+00  0.00000000000E+00  0.94911150695E+03  0.23965963111E+04  0.22006501825E+04 0.  0.
        2    1    3    3  502    0 -0.74256767718E+03  0.70071833328E+03  0.27780624960E+02  0.10213641373E+04  0.25500000920E-02 0. -1.
       -2    1    3    3    0  502  0.74256767718E+03 -0.70071833328E+03  0.92133088199E+03  0.13752321738E+04  0.25500000920E-02 0.  1.
</event>
<event>
 5   0  0.2524749E-06  0.2199333E+04  0.7818609E-02  0.8518706E-01
        2   -1    0    0  501    0  0.00000000000E+00  0.00000000000E+00  0.11286190823E+04  0.11286190823E+04  0.25500000920E-02 0.  1.
       -2   -1    0    0    0  501  0.00000000000E+00  0.00000000000E+00 -0.10714564587E+04  0.10714564587E+04  0.25500000920E-02 0. -1.
    10030    2    1    2    0    0  0.00000000000E+00  0.00000000000E+00  0.57162623654E+02  0.22000755410E+04  0.21993328126E+04 0.  0.
        4    1    3    3  502    0  0.57119036867E+03  0.16296104477E+03 -0.89717697598E+03  0.10759846089E+04  0.12699999809E+01 0. -1.
       -4    1    3    3    0  502 -0.57119036867E+03 -0.16296104477E+03  0.95433959963E+03  0.11240909321E+04  0.12699999809E+01 0.  1.
</event>
<event>
 5   0  0.1137869E-06  0.2199817E+04  0.7818609E-02  0.8518504E-01
        1   -1    0    0  501    0  0.00000000000E+00  0.00000000000E+00  0.13540078947E+04  0.13540078947E+04  0.50400001928E-02 0. -1.
       -1   -1    0    0    0  501  0.00000000000E+00  0.00000000000E+00 -0.89349495698E+03  0.89349495699E+03  0.50400001928E-02 0.  1.
    10030    2    1    2    0    0  0.00000000000E+00  0.00000000000E+00  0.46051293771E+03  0.22475028517E+04  0.21998174703E+04 0.  0.
        5    1    3    3  502    0 -0.33693827393E+03 -0.16790380129E+03  0.12861278854E+04  0.13400992928E+04  0.46999998093E+01 0. -1.
       -5    1    3    3    0  502  0.33693827393E+03  0.16790380129E+03 -0.82561494767E+03  0.90740355892E+03  0.46999998093E+01 0.  1.
</event>
<event>
 5   0  0.2556869E-06  0.2200001E+04  0.7818609E-02  0.8518428E-01
        2   -1    0    0  501    0  0.00000000000E+00  0.00000000000E+00  0.18772355617E+04  0.18772355617E+04  0.25500000920E-02 0.  1.
       -2   -1    0    0    0  501  0.00000000000E+00  0.00000000000E+00 -0.64456559878E+03  0.64456559878E+03  0.25500000920E-02 0. -1.
    10030    2    1    2    0    0  0.00000000000E+00  0.00000000000E+00  0.12326699629E+04  0.25218011605E+04  0.22000013308E+04 0.  0.
        5    1    3    3  502    0 -0.51070714257E+03  0.29810884386E+03 -0.44685287455E+03  0.74120864117E+03  0.46999998093E+01 0. -1.
       -5    1    3    3    0  502  0.51070714257E+03 -0.29810884386E+03  0.16795228375E+04  0.17805925193E+04  0.46999998093E+01 0.  1.
</event>
<event>
 5   0  0.2556869E-06  0.2199468E+04  0.7818609E-02  0.8518650E-01
       -2   -1    0    0    0  501  0.00000000000E+00  0.00000000000E+00  0.63801557131E+03  0.63801557131E+03  0.25500000920E-02 0. -1.
        2   -1    0    0  501    0  0.00000000000E+00  0.00000000000E+00 -0.18955878482E+04  0.18955878482E+04  0.25500000920E-02 0.  1.
    10030    2    1    2    0    0  0.00000000000E+00  0.00000000000E+00 -0.12575722768E+04  0.25336034195E+04  0.21994677210E+04 0.  0.
        5    1    3    3  502    0  0.25619260293E+03  0.95007289449E+03 -0.11944221460E+04  0.15475592097E+04  0.46999998093E+01 0.  1.
       -5    1    3    3    0  502 -0.25619260293E+03 -0.95007289449E+03 -0.63150130864E+02  0.98604420979E+03  0.46999998093E+01 0. -1.
</event>
<event>
 5   0  0.2524749E-06  0.2199383E+04  0.7818609E-02  0.8518685E-01
       -2   -1    0    0    0  501  0.00000000000E+00  0.00000000000E+00  0.95701540847E+03  0.95701540848E+03  0.25500000920E-02 0. -1.
        2   -1    0    0  501    0  0.00000000000E+00  0.00000000000E+00 -0.12636388292E+04  0.12636388292E+04  0.25500000920E-02 0.  1.
    10030    2    1    2    0    0  0.00000000000E+00  0.00000000000E+00 -0.30662342069E+03  0.22206542376E+04  0.21993833956E+04 0.  0.
        4    1    3    3  502    0  0.45483309743E+03  0.93192493976E+03 -0.52286102121E+03  0.11613537361E+04  0.12699999809E+01 0.  1.
       -4    1    3    3    0  502 -0.45483309743E+03 -0.93192493976E+03  0.21623760052E+03  0.10593005016E+04  0.12699999809E+01 0. -1.
</event>
<event>
 5   0  0.1146827E-06  0.2200564E+04  0.7818609E-02  0.8518193E-01
       -1   -1    0    0    0  501  0.00000000000E+00  0.00000000000E+00  0.62150944740E+03  0.62150944742E+03  0.50400001928E-02 0.  1.
        1   -1    0    0  501    0  0.00000000000E+00  0.00000000000E+00 -0.19478718515E+04  0.19478718516E+04  0.50400001928E-02 0. -1.
    10030    2    1    2    0    0  0.00000000000E+00  0.00000000000E+00 -0.13263624041E+04  0.25693812990E+04  0.22005642532E+04 0.  0.
        4    1    3    3  502    0 -0.70362115448E+03 -0.43065616499E+03 -0.15132651343E+04  0.17235197826E+04  0.12699999809E+01 0. -1.
       -4    1    3    3    0  502  0.70362115448E+03  0.43065616499E+03  0.18690273012E+03  0.84586151638E+03  0.12699999809E+01 0.  1.
</event>
<event>
 5   0  0.1082209E-06  0.2200371E+04  0.7818609E-02  0.8518274E-01
       -1   -1    0    0    0  501  0.00000000000E+00  0.00000000000E+00  0.13303710449E+04  0.13303710449E+04  0.50400001928E-02 0.  1.
        1   -1    0    0  501    0  0.00000000000E+00  0.00000000000E+00 -0.90982744924E+03  0.90982744925E+03  0.50400001928E-02 0. -1.
    10030    2    1    2    0    0  0.00000000000E+00  0.00000000000E+00  0.42054359561E+03  0.22401984941E+04  0.22003709635E+04 0.  0.
        2    1    3    3  502    0 -0.55452290029E+03  0.90959737552E+03  0.49010138777E+03  0.11726305483E+04  0.25500000920E-02 0. -1.
       -2    1    3    3    0  502  0.55452290029E+03 -0.90959737552E+03 -0.69557792153E+02  0.10675679458E+04  0.25500000920E-02 0.  1.
</event>
<event>
 5   0  0.2606154E-06  0.2200818E+04  0.7818609E-02  0.8518088E-01
        2   -1    0    0  501    0  0.00000000000E+00  0.00000000000E+00  0.19083853723E+04  0.19083853723E+04  0.25500000920E-02 0. -1.
       -2   -1    0    0    0  501  0.00000000000E+00  0.00000000000E+00 -0.63451541201E+03  0.63451541202E+03  0.25500000920E-02 0.  1.
    10030    2    1    2    0    0  0.00000000000E+00  0.00000000000E+00  0.12738699603E+04  0.25429007843E+04  0.22008179668E+04 0.  0.
        2    1    3    3  502    0  0.78891755519E+03  0.30350936148E+03 -0.17712664276E+03  0.86364500171E+03  0.25500000920E-02 0.  1.
       -2    1    3    3    0  502 -0.78891755519E+03 -0.30350936148E+03  0.14509966030E+04  0.16792557826E+04  0.25500000920E-02 0. -1.
</event>
<event>
 5   0  0.1082209E-06  0.2192791E+04  0.7818609E-02  0.8521435E-01
        1   -1    0    0  501    0  0.00000000000E+00  0.00000000000E+00  0.10214501098E+04  0.10214501099E+04  0.50400001928E-02 0.  1.
       -1   -1    0    0    0  501  0.00000000000E+00  0.00000000000E+00 -0.11768399350E+04  0.11768399351E+04  0.50400001928E-02 0. -1.
    10030    2    1    2    0    0  0.00000000000E+00  0.00000000000E+00 -0.15538982521E+03  0.21982900449E+04  0.21927911720E+04 0.  0.
        2    1    3    3  502    0  0.15498667474E+03  0.15862608359E+03  0.99872958263E+03  0.10230561485E+04  0.25500000920E-02 0.  1.
       -2    1    3    3    0  502 -0.15498667474E+03 -0.15862608359E+03 -0.11541194078E+04  0.11752338964E+04  0.25500000920E-02 0. -1.
</event>
<event>
 5   0  0.2532239E-06  0.2199366E+04  0.7818609E-02  0.8518692E-01
        2   -1    0    0  501    0  0.00000000000E+00  0.00000000000E+00  0.22149792653E+04  0.22149792653E+04  0.25500000920E-02 0.  1.
       -2   -1    0    0    0  501  0.00000000000E+00  0.00000000000E+00 -0.54596573766E+03  0.54596573767E+03  0.25500000920E-02 0. -1.
    10030    2    1    2    0    0  0.00000000000E+00  0.00000000000E+00  0.16690135276E+04  0.27609450030E+04  0.21993660800E+04 0.  0.
        3    1    3    3  502    0 -0.45918336975E+03  0.45072224550E+03 -0.28499944723E+03  0.70372196553E+03  0.10100000352E+00 0. -1.
       -3    1    3    3    0  502  0.45918336975E+03 -0.45072224550E+03  0.19540129749E+04  0.20572230374E+04  0.10100000352E+00 0.  1.
</event>
<event>
 5   0  0.2556869E-06  0.2198854E+04  0.7818609E-02  0.8518905E-01
        2   -1    0    0  501    0  0.00000000000E+00  0.00000000000E+00  0.70488834608E+03  0.70488834609E+03  0.25500000920E-02 0. -1.
       -2   -1    0    0    0  501  0.00000000000E+00  0.00000000000E+00 -0.17147963927E+04  0.17147963927E+04  0.25500000920E-02 0.  1.
    10030    2    1    2    0    0  0.00000000000E+00  0.00000000000E+00 -0.10099080466E+04  0.24196847388E+04  0.21988542409E+04 0.  0.
        5    1    3    3  502    0  0.64309185812E+01  0.22701021294E+03 -0.16886927148E+04  0.17039014551E+04  0.46999998093E+01 0.  1.
       -5    1    3    3    0  502 -0.64309185812E+01 -0.22701021294E+03  0.67878466820E+03  0.71578328373E+03  0.46999998093E+01 0. -1.
</event>
<event>
 5   0  0.1137869E-06  0.2200897E+04  0.7818609E-02  0.8518055E-01
       -1   -1    0    0    0  501  0.00000000000E+00  0.00000000000E+00  0.78882098567E+03  0.78882098569E+03  0.50400001928E-02 0.  1.
        1   -1    0    0  501    0  0.00000000000E+00  0.00000000000E+00 -0.15351862060E+04  0.15351862061E+04  0.50400001928E-02 0. -1.
    10030    2    1    2    0    0  0.00000000000E+00  0.00000000000E+00 -0.74636522037E+03  0.23240071917E+04  0.22008971773E+04 0.  0.
        5    1    3    3  502    0 -0.19034016557E+02 -0.38462580039E+03  0.71533647241E+03  0.81242086315E+03  0.46999998093E+01 0.  1.
       -5    1    3    3    0  502  0.19034016557E+02  0.38462580039E+03 -0.14617016928E+04  0.15115863286E+04  0.46999998093E+01 0. -1.
</event>
<event>
 5   0  0.1144271E-06  0.2200888E+04  0.7818609E-02  0.8518059E-01
        1   -1    0    0  501    0  0.00000000000E+00  0.00000000000E+00  0.13581803277E+04  0.13581803277E+04  0.50400001928E-02 0. -1.
       -1   -1    0    0    0  501  0.00000000000E+00  0.00000000000E+00 -0.89161727253E+03  0.89161727255E+03  0.50400001928E-02 0.  1.
    10030    2    1    2    0    0  0.00000000000E+00  0.00000000000E+00  0.46656305519E+03  0.22497976003E+04  0.22008880384E+04 0.  0.
        3    1    3    3  502    0  0.60898427930E+03 -0.33781374788E+03 -0.63770798681E+03  0.94427298348E+03  0.10100000352E+00 0.  1.
       -3    1    3    3    0  502 -0.60898427930E+03  0.33781374788E+03  0.11042710420E+04  0.13055246168E+04  0.10100000352E+00 0. -1.
</event>
<event>
 5   0  0.2532239E-06  0.2200880E+04  0.7818609E-02  0.8518062E-01
       -2   -1    0    0    0  501  0.00000000000E+00  0.00000000000E+00  0.41940232852E+03  0.41940232853E+03  0.25500000920E-02 0.  1.
        2   -1    0    0  501    0  0.00000000000E+00  0.00000000000E+00 -0.28873651705E+04  0.28873651705E+04  0.25500000920E-02 0. -1.
    10030    2    1    2    0    0  0.00000000000E+00  0.00000000000E+00 -0.24679628420E+04  0.33067674990E+04  0.22008795295E+04 0.  0.
        3    1    3    3  502    0  0.27472718310E+03 -0.26416583555E+03 -0.27850347019E+04  0.28109921584E+04  0.10100000352E+00 0. -1.
       -3    1    3    3    0  502 -0.27472718310E+03  0.26416583555E+03  0.31707185991E+03  0.49577534061E+03  0.10100000352E+00 0.  1.
</event>
<event>
 5   0  0.2581058E-06  0.2206066E+04  0.7818609E-02  0.8515907E-01
       -2   -1    0    0    0  501  0.00000000000E+00  0.00000000000E+00  0.89148183893E+03  0.89148183893E+03  0.25500000920E-02 0.  1.
        2   -1    0    0  501    0  0.00000000000E+00  0.00000000000E+00 -0.13647862365E+04  0.13647862365E+04  0.25500000920E-02 0. -1.
    10030    2    1    2    0    0  0.00000000000E+00  0.00000000000E+00 -0.47330439754E+03  0.22562680754E+04  0.22060663125E+04 0.  0.
        1    1    3    3  502    0 -0.21928897097E+02  0.11890469439E+03  0.88468373555E+03  0.89290789830E+03  0.50400001928E-02 0.  1.
       -1    1    3    3    0  502  0.21928897097E+02 -0.11890469439E+03 -0.13579881331E+04  0.13633601771E+04  0.50400001928E-02 0. -1.
</event>
<event>
 5   0  0.2581058E-06  0.2201196E+04  0.7818609E-02  0.8517930E-01
       -2   -1    0    0    0  501  0.00000000000E+00  0.00000000000E+00  0.82633694623E+03  0.82633694623E+03  0.25500000920E-02 0.  1.
        2   -1    0    0  501    0  0.00000000000E+00  0.00000000000E+00 -0.14658865641E+04  0.14658865641E+04  0.25500000920E-02 0. -1.
    10030    2    1    2    0    0  0.00000000000E+00  0.00000000000E+00 -0.63954961790E+03  0.22922235104E+04  0.22011962447E+04 0.  0.
        1    1    3    3  502    0 -0.19993619978E+03  0.10755826947E+04 -0.44501293157E+03  0.11810542436E+04  0.50400001928E-02 0. -1.
       -1    1    3    3    0  502  0.19993619978E+03 -0.10755826947E+04 -0.19453668633E+03  0.11111692668E+04  0.50400001928E-02 0.  1.
</event>
<event>
 5   0  0.2606154E-06  0.2200017E+04  0.7818609E-02  0.8518421E-01
        2   -1    0    0  501    0  0.00000000000E+00  0.00000000000E+00  0.17386977652E+04  0.17386977652E+04  0.25500000920E-02 0. -1.
       -2   -1    0    0    0  501  0.00000000000E+00  0.00000000000E+00 -0.69593378513E+03  0.69593378514E+03  0.25500000920E-02 0.  1.
    10030    2    1    2    0    0  0.00000000000E+00  0.00000000000E+00  0.10427639801E+04  0.24346315504E+04  0.22000168335E+04 0.  0.
        2    1    3    3  502    0  0.14163357918E+03  0.88937350384E+03  0.12203851082E+04  0.15167020513E+04  0.25500000920E-02 0. -1.
       -2    1    3    3    0  502 -0.14163357918E+03 -0.88937350384E+03 -0.17762112812E+03  0.91792949906E+03  0.25500000920E-02 0.  1.
</event>
<event>
 5   0  0.1107101E-06  0.2192741E+04  0.7818609E-02  0.8521455E-01
        1   -1    0    0  501    0  0.00000000000E+00  0.00000000000E+00  0.15212305095E+04  0.15212305095E+04  0.50400001928E-02 0. -1.
       -1   -1    0    0    0  501  0.00000000000E+00  0.00000000000E+00 -0.79016855829E+03  0.79016855830E+03  0.50400001928E-02 0.  1.
    10030    2    1    2    0    0  0.00000000000E+00  0.00000000000E+00  0.73106195123E+03  0.23113990678E+04  0.21927412237E+04 0.  0.
        1    1    3    3  502    0  0.81473205563E+02  0.10544878551E+04  0.67003308891E+03  0.12520091293E+04  0.50400001928E-02 0.  1.
       -1    1    3    3    0  502 -0.81473205563E+02 -0.10544878551E+04  0.61028862317E+02  0.10593899385E+04  0.50400001928E-02 0. -1.
</event>
<event>
 5   0  0.2581058E-06  0.2196892E+04  0.7818609E-02  0.8519723E-01
       -2   -1    0    0    0  501  0.00000000000E+00  0.00000000000E+00  0.69179156150E+03  0.69179156150E+03  0.25500000920E-02 0.  1.
        2   -1    0    0  501    0  0.00000000000E+00  0.00000000000E+00 -0.17441430620E+04  0.17441430620E+04  0.25500000920E-02 0. -1.
    10030    2    1    2    0    0  0.00000000000E+00  0.00000000000E+00 -0.10523515005E+04  0.24359346235E+04  0.21968918520E+04 0.  0.
        1    1    3    3  502    0 -0.64619092327E+03  0.81236773978E+03 -0.12780685934E+03  0.10458674138E+04  0.50400001928E-02 0.  1.
       -1    1    3    3    0  502  0.64619092327E+03 -0.81236773978E+03 -0.92454464117E+03  0.13900672097E+04  0.50400001928E-02 0. -1.
</event>
<event>
 5   0  0.2524749E-06  0.2201695E+04  0.7818609E-02  0.8517723E-01
        2   -1    0    0  501    0  0.00000000000E+00  0.00000000000E+00  0.20894938054E+04  0.20894938054E+04  0.25500000920E-02 0.  1.
       -2   -1    0    0    0  501  0.00000000000E+00  0.00000000000E+00 -0.57998032783E+03  0.57998032783E+03  0.25500000920E-02 0. -1.
    10030    2    1    2    0    0  0.00000000000E+00  0.00000000000E+00  0.15095134776E+04  0.26694741333E+04  0.22016950763E+04 0.  0.
        4    1    3    3  502    0  0.40548710843E+03 -0.89604661043E+03  0.13543370688E+04  0.16737830898E+04  0.12699999809E+01 0.  1.
       -4    1    3    3    0  502 -0.40548710843E+03  0.89604661043E+03  0.15517640885E+03  0.99569104341E+03  0.12699999809E+01 0. -1.
</event>
<event>
 5   0  0.2532239E-06  0.2200497E+04  0.7818609E-02  0.8518221E-01
        2   -1    0    0  501    0  0.00000000000E+00  0.00000000000E+00  0.94832779391E+03  0.94832779392E+03  0.25500000920E-02 0. -1.
       -2   -1    0    0    0  501  0.00000000000E+00  0.00000000000E+00 -0.12765064016E+04  0.12765064016E+04  0.25500000920E-02 0.  1.
    10030    2    1    2    0    0  0.00000000000E+00  0.00000000000E+00 -0.32817860766E+03  0.22248341955E+04  0.22004967619E+04 0.  0.
        3    1    3    3  502    0  0.21080805884E+03 -0.48727955771E+03  0.81024159589E+03  0.96869647411E+03  0.10100000352E+00 0. -1.
       -3    1    3    3    0  502 -0.21080805884E+03  0.48727955771E+03 -0.11384202036E+04  0.12561377214E+04  0.10100000352E+00 0.  1.
</event>
<event>
 5   0  0.1137869E-06  0.2196567E+04  0.7818609E-02  0.8519858E-01
        1   -1    0    0  501    0  0.00000000000E+00  0.00000000000E+00  0.21164583573E+04  0.21164583573E+04  0.50400001928E-02 0.  1.
       -1   -1    0    0    0  501  0.00000000000E+00  0.00000000000E+00 -0.56992687789E+03  0.56992687791E+03  0.50400001928E-02 0. -1.
    10030    2    1    2    0    0  0.00000000000E+00  0.00000000000E+00  0.15465314794E+04  0.26863852352E+04  0.21965668702E+04 0.  0.
        5    1    3    3  502    0  0.45511344687E+02 -0.27907481288E+01  0.21152879744E+04  0.21157845768E+04  0.46999998093E+01 0.  1.
       -5    1    3    3    0  502 -0.45511344687E+02  0.27907481288E+01 -0.56875649500E+03  0.57060065841E+03  0.46999998093E+01 0. -1.
</event>
<event>
 5   0  0.1082209E-06  0.2200246E+04  0.7818609E-02  0.8518326E-01
       -1   -1    0    0    0  501  0.00000000000E+00  0.00000000000E+00  0.25609948853E+04  0.25609948853E+04  0.50400001928E-02 0.  1.
        1   -1    0    0  501    0  0.00000000000E+00  0.00000000000E+00 -0.47257832424E+03  0.47257832426E+03  0.50400001928E-02 0. -1.
    10030    2    1    2    0    0  0.00000000000E+00  0.00000000000E+00  0.20884165611E+04  0.30335732096E+04  0.22002460511E+04 0.  0.
        2    1    3    3  502    0 -0.46143222084E+03 -0.78143296105E+03  0.19015972643E+04  0.21070427909E+04  0.25500000920E-02 0.  1.
       -2    1    3    3    0  502  0.46143222084E+03  0.78143296105E+03  0.18681929673E+03  0.92653041865E+03  0.25500000920E-02 0. -1.
</event>
<event>
 5   0  0.2581058E-06  0.2201281E+04  0.7818609E-02  0.8517895E-01
        2   -1    0    0  501    0  0.00000000000E+00  0.00000000000E+00  0.17155583176E+04  0.17155583176E+04  0.25500000920E-02 0. -1.
       -2   -1    0    0    0  501  0.00000000000E+00  0.00000000000E+00 -0.70613124900E+03  0.70613124900E+03  0.25500000920E-02 0.  1.
    10030    2    1    2    0    0  0.00000000000E+00  0.00000000000E+00  0.10094270686E+04  0.24216895666E+04  0.22012808431E+04 0.  0.
        1    1    3    3  502    0  0.32195316447E+03  0.67379162941E+03  0.13942265376E+04  0.15816183604E+04  0.50400001928E-02 0. -1.
       -1    1    3    3    0  502 -0.32195316447E+03 -0.67379162941E+03 -0.38479946902E+03  0.84007120612E+03  0.50400001928E-02 0.  1.
</event>
<event>
 5   0  0.2524749E-06  0.2199754E+04  0.7818609E-02  0.8518531E-01
        2   -1    0    0  501    0  0.00000000000E+00  0.00000000000E+00  0.71126760122E+03  0.71126760122E+03  0.25500000920E-02 0. -1.
       -2   -1    0    0    0  501  0.00000000000E+00  0.00000000000E+00 -0.17008072146E+04  0.17008072146E+04  0.25500000920E-02 0.  1.
    10030    2    1    2    0    0  0.00000000000E+00  0.00000000000E+00 -0.98953961342E+03  0.24120748159E+04  0.21997536841E+04 0.  0.
        4    1    3    3  502    0 -0.90621749372E+03  0.31110887999E+03  0.97461439965E+02  0.96307799596E+03  0.12699999809E+01 0. -1.
       -4    1    3    3    0  502  0.90621749372E+03 -0.31110887999E+03 -0.10870010534E+04  0.14489968199E+04  0.12699999809E+01 0.  1.
</event>
<event>
 5   0  0.2532239E-06  0.2200423E+04  0.7818609E-02  0.8518252E-01
        2   -1    0    0  501    0  0.00000000000E+00  0.00000000000E+00  0.89395229731E+03  0.89395229731E+03  0.25500000920E-02 0.  1.
       -2   -1    0    0    0  501  0.00000000000E+00  0.00000000000E+00 -0.13540602096E+04  0.13540602096E+04  0.25500000920E-02 0. -1.
    10030    2    1    2    0    0  0.00000000000E+00  0.00000000000E+00 -0.46010791225E+03  0.22480125069E+04  0.22004229003E+04 0.  0.
        3    1    3    3  502    0  0.27112863282E+03 -0.10157540161E+04 -0.56141149969E+03  0.11918262620E+04  0.10100000352E+00 0. -1.
       -3    1    3    3    0  502 -0.27112863282E+03  0.10157540161E+04  0.10130358745E+03  0.10561862448E+04  0.10100000352E+00 0.  1.
</event>
<event>
 5   0  0.1107101E-06  0.2198892E+04  0.7818609E-02  0.8518889E-01
       -1   -1    0    0    0  501  0.00000000000E+00  0.00000000000E+00  0.86465521419E+03  0.86465521420E+03  0.50400001928E-02 0. -1.
        1   -1    0    0  501    0  0.00000000000E+00  0.00000000000E+00 -0.13979930242E+04  0.13979930242E+04  0.50400001928E-02 0.  1.
    10030    2    1    2    0    0  0.00000000000E+00  0.00000000000E+00 -0.53333780999E+03  0.22626482384E+04  0.21988924101E+04 0.  0.
        1    1    3    3  502    0 -0.82020077044E+03  0.81052052933E+02 -0.10154229156E+04  0.13078159032E+04  0.50400001928E-02 0.  1.
       -1    1    3    3    0  502  0.82020077044E+03 -0.81052052933E+02  0.48208510566E+03  0.95483233515E+03  0.50400001928E-02 0. -1.
</event>
<event>
 5   0  0.2606154E-06  0.2200294E+04  0.7818609E-02  0.8518306E-01
        2   -1    0    0  501    0  0.00000000000E+00  0.00000000000E+00  0.15738507633E+04  0.15738507633E+04  0.25500000920E-02 0.  1.
       -2   -1    0    0    0  501  0.00000000000E+00  0.00000000000E+00 -0.76902035764E+03  0.76902035765E+03  0.25500000920E-02 0. -1.
    10030    2    1    2    0    0  0.00000000000E+00  0.00000000000E+00  0.80483040562E+03  0.23428711209E+04  0.22002938684E+04 0.  0.
        2    1    3    3  502    0  0.89693474728E+03 -0.61608259068E+03  0.57500984735E+03  0.12307258119E+04  0.25500000920E-02 0.  1.
       -2    1    3    3    0  502 -0.89693474728E+03  0.61608259068E+03  0.22982055826E+03  0.11121453090E+04  0.25500000920E-02 0. -1.
</event>
<event>
 5   0  0.1107101E-06  0.2203726E+04  0.7818609E-02  0.8516879E-01
        1   -1    0    0  501    0  0.00000000000E+00  0.00000000000E+00  0.12707781543E+04  0.12707781544E+04  0.50400001928E-02 0.  1.
       -1   -1    0    0    0  501  0.00000000000E+00  0.00000000000E+00 -0.95540020016E+03  0.95540020017E+03  0.50400001928E-02 0. -1.
    10030    2    1    2    0    0  0.00000000000E+00  0.00000000000E+00  0.31537795419E+03  0.22261783545E+04  0.22037256663E+04 0.  0.
        1    1    3    3  502    0  0.87338579844E+03 -0.21575330092E+03  0.80037013379E+03  0.12041364503E+04  0.50400001928E-02 0.  1.
       -1    1    3    3    0  502 -0.87338579844E+03  0.21575330092E+03 -0.48499217960E+03  0.10220419043E+04  0.50400001928E-02 0. -1.
</event>
<event>
 5   0  0.1082209E-06  0.2198965E+04  0.7818609E-02  0.8518859E-01
       -1   -1    0    0    0  501  0.00000000000E+00  0.00000000000E+00  0.61006894857E+03  0.61006894859E+03  0.50400001928E-02 0.  1.
        1   -1    0    0  501    0  0.00000000000E+00  0.00000000000E+00 -0.19815166897E+04  0.19815166897E+04  0.50400001928E-02 0. -1.
    10030    2    1    2    0    0  0.00000000000E+00  0.00000000000E+00 -0.13714477411E+04  0.25915856383E+04  0.21989650324E+04 0.  0.
        2    1    3    3  502    0  0.53408447879E+03  0.40091229254E+03  0.34365856259E+03  0.75105133276E+03  0.25500000920E-02 0.  1.
       -2    1    3    3    0  502 -0.53408447879E+03 -0.40091229254E+03 -0.17151063037E+04  0.18405343055E+04  0.25500000920E-02 0. -1.
</event>
<event>
 5   0  0.2556869E-06  0.2201131E+04  0.7818609E-02  0.8517957E-01
       -2   -1    0    0    0  501  0.00000000000E+00  0.00000000000E+00  0.11681215037E+04  0.11681215037E+04  0.25500000920E-02 0. -1.
        2   -1    0    0  501    0  0.00000000000E+00  0.00000000000E+00 -0.10369168692E+04  0.10369168692E+04  0.25500000920E-02 0.  1.
    10030    2    1    2    0    0  0.00000000000E+00  0.00000000000E+00  0.13120463451E+03  0.22050383728E+04  0.22011314294E+04 0.  0.
        5    1    3    3  502    0  0.95629178059E+02  0.94205529608E+03 -0.49629404227E+03  0.10690851168E+04  0.46999998093E+01 0.  1.
       -5    1    3    3    0  502 -0.95629178059E+02 -0.94205529608E+03  0.62749867678E+03  0.11359532560E+04  0.46999998093E+01 0. -1.
</event>
<event>
 5   0  0.1107101E-06  0.2186897E+04  0.7818609E-02  0.8523902E-01
       -1   -1    0    0    0  501  0.00000000000E+00  0.00000000000E+00  0.11664954048E+04  0.11664954049E+04  0.50400001928E-02 0. -1.
        1   -1    0    0  501    0  0.00000000000E+00  0.00000000000E+00 -0.10249754253E+04  0.10249754253E+04  0.50400001928E-02 0.  1.
    10030    2    1    2    0    0  0.00000000000E+00  0.00000000000E+00  0.14151997952E+03  0.21914708302E+04  0.21868965442E+04 0.  0.
        1    1    3    3  502    0  0.86666583372E+03  0.12185244524E+03  0.72762434977E+03  0.11381541548E+04  0.50400001928E-02 0. -1.
       -1    1    3    3    0  502 -0.86666583372E+03 -0.12185244524E+03 -0.58610437025E+03  0.10533166754E+04  0.50400001928E-02 0.  1.
</event>
<event>
 5   0  0.2524749E-06  0.2200274E+04  0.7818609E-02  0.8518314E-01
        2   -1    0    0  501    0  0.00000000000E+00  0.00000000000E+00  0.12908157394E+04  0.12908157394E+04  0.25500000920E-02 0. -1.
       -2   -1    0    0    0  501  0.00000000000E+00  0.00000000000E+00 -0.93762509818E+03  0.93762509818E+03  0.25500000920E-02 0.  1.
    10030    2    1    2    0    0  0.00000000000E+00  0.00000000000E+00  0.35319064121E+03  0.22284408376E+04  0.22002738324E+04 0.  0.
        4    1    3    3  502    0  0.10318062613E+04  0.35558724001E+03  0.36136224142E+02  0.10919587381E+04  0.12699999809E+01 0. -1.
       -4    1    3    3    0  502 -0.10318062613E+04 -0.35558724001E+03  0.31705441707E+03  0.11364820995E+04  0.12699999809E+01 0.  1.
</event>
<event>
 5   0  0.8905000E-07  0.2199656E+04  0.7818609E-02  0.8518571E-01
       -3   -1    0    0    0  501  0.00000000000E+00  0.00000000000E+00  0.12359483251E+04  0.12359483292E+04  0.10100000352E+00 0. -1.
        3   -1    0    0  501    0  0.00000000000E+00  0.00000000000E+00 -0.97869888127E+03  0.97869888648E+03  0.10100000352E+00 0.  1.
    10030    2    1    2    0    0  0.00000000000E+00  0.00000000000E+00  0.25724944382E+03  0.22146472157E+04  0.21996556580E+04 0.  0.
        2    1    3    3  502    0 -0.82616258360E+01  0.10312307975E+04 -0.25623175790E+03  0.10626193702E+04  0.25500000920E-02 0. -1.
       -2    1    3    3    0  502  0.82616258360E+01 -0.10312307975E+04  0.51348120172E+03  0.11520278455E+04  0.25500000920E-02 0.  1.
</event>
<event>
 5   0  0.2532239E-06  0.2201071E+04  0.7818609E-02  0.8517983E-01
       -2   -1    0    0    0  501  0.00000000000E+00  0.00000000000E+00  0.88444331979E+03  0.88444331979E+03  0.25500000920E-02 0. -1.
        2   -1    0    0  501    0  0.00000000000E+00  0.00000000000E+00 -0.13694241251E+04  0.13694241251E+04  0.25500000920E-02 0.  1.
    10030    2    1    2    0    0  0.00000000000E+00  0.00000000000E+00 -0.48498080530E+03  0.22538674449E+04  0.22010706662E+04 0.  0.
        3    1    3    3  502    0  0.44429040025E+03 -0.98960902469E+03 -0.52409015554E+02  0.10860325486E+04  0.10100000352E+00 0. -1.
       -3    1    3    3    0  502 -0.44429040025E+03  0.98960902469E+03 -0.43257178974E+03  0.11678348963E+04  0.10100000352E+00 0.  1.
</event>
<event>
 5   0  0.2532239E-06  0.2213496E+04  0.7818609E-02  0.8512832E-01
       -2   -1    0    0    0  501  0.00000000000E+00  0.00000000000E+00  0.87529996135E+03  0.87529996136E+03  0.25500000920E-02 0.  1.
        2   -1    0    0  501    0  0.00000000000E+00  0.00000000000E+00 -0.13993953624E+04  0.13993953624E+04  0.25500000920E-02 0. -1.
    10030    2    1    2    0    0  0.00000000000E+00  0.00000000000E+00 -0.52409540104E+03  0.22746953238E+04  0.22134956125E+04 0.  0.
        3    1    3    3  502    0 -0.94080720225E+03  0.28778219157E+03  0.25887368708E+03  0.10173260921E+04  0.10100000352E+00 0.  1.
       -3    1    3    3    0  502  0.94080720225E+03 -0.28778219157E+03 -0.78296908812E+03  0.12573692317E+04  0.10100000352E+00 0. -1.
</event>
<event>
 5   0  0.1144271E-06  0.2200276E+04  0.7818609E-02  0.8518313E-01
        1   -1    0    0  501    0  0.00000000000E+00  0.00000000000E+00  0.16260306874E+04  0.16260306874E+04  0.50400001928E-02 0.  1.
       -1   -1    0    0    0  501  0.00000000000E+00  0.00000000000E+00 -0.74432990870E+03  0.74432990871E+03  0.50400001928E-02 0. -1.
    10030    2    1    2    0    0  0.00000000000E+00  0.00000000000E+00  0.88170077869E+03  0.23703605961E+04  0.22002756856E+04 0.  0.
        3    1    3    3  502    0  0.83473642814E+03 -0.49787914109E+02  0.12109813153E+04  0.14716451668E+04  0.10100000352E+00 0.  1.
       -3    1    3    3    0  502 -0.83473642814E+03  0.49787914109E+02 -0.32928053659E+03  0.89871542929E+03  0.10100000352E+00 0. -1.
</event>
<event>
 5   0  0.2606154E-06  0.2200838E+04  0.7818609E-02  0.8518079E-01
       -2   -1    0    0    0  501  0.00000000000E+00  0.00000000000E+00  0.54837395207E+03  0.54837395207E+03  0.25500000920E-02 0. -1.
        2   -1    0    0  501    0  0.00000000000E+00  0.00000000000E+00 -0.22082057233E+04  0.22082057233E+04  0.25500000920E-02 0.  1.
    10030    2    1    2    0    0  0.00000000000E+00  0.00000000000E+00 -0.16598317713E+04  0.27565796754E+04  0.22008384761E+04 0.  0.
        2    1    3    3  502    0  0.60067174168E+03  0.80806489797E+03 -0.27378431104E+03  0.10434238207E+04  0.25500000920E-02 0. -1.
       -2    1    3    3    0  502 -0.60067174168E+03 -0.80806489797E+03 -0.13860474602E+04  0.17131558547E+04  0.25500000920E-02 0.  1.
</event>
<event>
 5   0  0.2524749E-06  0.2200070E+04  0.7818609E-02  0.8518399E-01
        2   -1    0    0  501    0  0.00000000000E+00  0.00000000000E+00  0.63250888888E+03  0.63250888888E+03  0.25500000920E-02 0. -1.
       -2   -1    0    0    0  501  0.00000000000E+00  0.00000000000E+00 -0.19131376998E+04  0.19131376998E+04  0.25500000920E-02 0.  1.
    10030    2    1    2    0    0  0.00000000000E+00  0.00000000000E+00 -0.12806288109E+04  0.25456465887E+04  0.22000696360E+04 0.  0.
        4    1    3    3  502    0  0.58579249376E+03  0.85100755882E+03 -0.10774198989E+04  0.14927163034E+04  0.12699999809E+01 0.  1.
       -4    1    3    3    0  502 -0.58579249376E+03 -0.85100755882E+03 -0.20320891204E+03  0.10529302853E+04  0.12699999809E+01 0. -1.
</event>
<event>
 5   0  0.2524749E-06  0.2199753E+04  0.7818609E-02  0.8518531E-01
        2   -1    0    0  501    0  0.00000000000E+00  0.00000000000E+00  0.85546575094E+03  0.85546575094E+03  0.25500000920E-02 0. -1.
       -2   -1    0    0    0  501  0.00000000000E+00  0.00000000000E+00 -0.14141163016E+04  0.14141163016E+04  0.25500000920E-02 0.  1.
    10030    2    1    2    0    0  0.00000000000E+00  0.00000000000E+00 -0.55865055062E+03  0.22695820525E+04  0.21997527714E+04 0.  0.
        4    1    3    3  502    0  0.61951638785E+03  0.86774281342E+03 -0.55798847543E+03  0.12033831047E+04  0.12699999809E+01 0.  1.
       -4    1    3    3    0  502 -0.61951638785E+03 -0.86774281342E+03 -0.66207519098E+00  0.10661989478E+04  0.12699999809E+01 0. -1.
</event>
<event>
 5   0  0.1146827E-06  0.2199595E+04  0.7818609E-02  0.8518597E-01
        1   -1    0    0  501    0  0.00000000000E+00  0.00000000000E+00  0.12786129774E+04  0.12786129774E+04  0.50400001928E-02 0.  1.
       -1   -1    0    0    0  501  0.00000000000E+00  0.00000000000E+00 -0.94598922603E+03  0.94598922605E+03  0.50400001928E-02 0. -1.
    10030    2    1    2    0    0  0.00000000000E+00  0.00000000000E+00  0.33262375140E+03  0.22246022035E+04  0.21995945999E+04 0.  0.
        4    1    3    3  502    0 -0.84210889067E+03 -0.56428857332E+03 -0.26513341928E+03  0.10477911627E+04  0.12699999809E+01 0.  1.
       -4    1    3    3    0  502  0.84210889067E+03  0.56428857332E+03  0.59775717068E+03  0.11768110408E+04  0.12699999809E+01 0. -1.
</event>
<event>
 5   0  0.1144271E-06  0.2200830E+04  0.7818609E-02  0.8518083E-01
        1   -1    0    0  501    0  0.00000000000E+00  0.00000000000E+00  0.16802684633E+04  0.16802684634E+04  0.50400001928E-02 0. -1.
       -1   -1    0    0    0  501  0.00000000000E+00  0.00000000000E+00 -0.72066616124E+03  0.72066616125E+03  0.50400001928E-02 0.  1.
    10030    2    1    2    0    0  0.00000000000E+00  0.00000000000E+00  0.95960230211E+03  0.24009346246E+04  0.22008295012E+04 0.  0.
        3    1    3    3  502    0  0.69152591137E+03  0.79439331596E+02 -0.44997849748E+03  0.82885424044E+03  0.10100000352E+00 0.  1.
       -3    1    3    3    0  502 -0.69152591137E+03 -0.79439331596E+02  0.14095807996E+04  0.15720803842E+04  0.10100000352E+00 0. -1.
</event>
<event>
 5   0  0.1107101E-06  0.2199242E+04  0.7818609E-02  0.8518744E-01
       -1   -1    0    0    0  501  0.00000000000E+00  0.00000000000E+00  0.89150415614E+03  0.89150415616E+03  0.50400001928E-02 0. -1.
        1   -1    0    0  501    0  0.00000000000E+00  0.00000000000E+00 -0.13563210241E+04  0.13563210241E+04  0.50400001928E-02 0.  1.
    10030    2    1    2    0    0  0.00000000000E+00  0.00000000000E+00 -0.46481686792E+03  0.22478251802E+04  0.21992415329E+04 0.  0.
        1    1    3    3  502    0 -0.55739008600E+03  0.49741947670E+03 -0.10571137072E+04  0.12944493941E+04  0.50400001928E-02 0.  1.
       -1    1    3    3    0  502  0.55739008600E+03 -0.49741947670E+03  0.59229683930E+03  0.95337578616E+03  0.50400001928E-02 0. -1.
</event>
<event>
 5   0  0.1146827E-06  0.2200308E+04  0.7818609E-02  0.8518300E-01
        1   -1    0    0  501    0  0.00000000000E+00  0.00000000000E+00  0.83385024820E+03  0.83385024822E+03  0.50400001928E-02 0.  1.
       -1   -1    0    0    0  501  0.00000000000E+00  0.00000000000E+00 -0.14515062711E+04  0.14515062711E+04  0.50400001928E-02 0. -1.
    10030    2    1    2    0    0  0.00000000000E+00  0.00000000000E+00 -0.61765602290E+03  0.22853565193E+04  0.22003080370E+04 0.  0.
        4    1    3    3  502    0  0.47482593232E+03 -0.92070776696E+03 -0.69351511996E+03  0.12466464185E+04  0.12699999809E+01 0. -1.
       -4    1    3    3    0  502 -0.47482593232E+03  0.92070776696E+03  0.75859097069E+02  0.10387101009E+04  0.12699999809E+01 0.  1.
</event>
<event>
 5   0  0.1107101E-06  0.2199993E+04  0.7818609E-02  0.8518431E-01
       -1   -1    0    0    0  501  0.00000000000E+00  0.00000000000E+00  0.85765878348E+03  0.85765878349E+03  0.50400001928E-02 0.  1.
        1   -1    0    0  501    0  0.00000000000E+00  0.00000000000E+00 -0.14108080560E+04  0.14108080560E+04  0.50400001928E-02 0. -1.
    10030    2    1    2    0    0  0.00000000000E+00  0.00000000000E+00 -0.55314927248E+03  0.22684668395E+04  0.21999926555E+04 0.  0.
        1    1    3    3  502    0  0.32265738831E+03 -0.69650519797E+03  0.53583429555E+03  0.93613336301E+03  0.50400001928E-02 0.  1.
       -1    1    3    3    0  502 -0.32265738831E+03  0.69650519797E+03 -0.10889835680E+04  0.13323334765E+04  0.50400001928E-02 0. -1.
</event>
<event>
 5   0  0.2606154E-06  0.2199491E+04  0.7818609E-02  0.8518640E-01
        2   -1    0    0  501    0  0.00000000000E+00  0.00000000000E+00  0.16895686077E+04  0.16895686077E+04  0.25500000920E-02 0.  1.
       -2   -1    0    0    0  501  0.00000000000E+00  0.00000000000E+00 -0.71582764219E+03  0.71582764219E+03  0.25500000920E-02 0. -1.
    10030    2    1    2    0    0  0.00000000000E+00  0.00000000000E+00  0.97374096551E+03  0.24053962499E+04  0.21994907708E+04 0.  0.
        2    1    3    3  502    0 -0.72784429340E+03  0.17925351933E+03  0.13669084286E+04  0.15589508626E+04  0.25500000920E-02 0. -1.
       -2    1    3    3    0  502  0.72784429340E+03 -0.17925351933E+03 -0.39316746313E+03  0.84644538731E+03  0.25500000920E-02 0.  1.
</event>
<event>
 5   0  0.1146827E-06  0.2199986E+04  0.7818609E-02  0.8518434E-01
        1   -1    0    0  501    0  0.00000000000E+00  0.00000000000E+00  0.21302657758E+04  0.21302657758E+04  0.50400001928E-02 0. -1.
       -1   -1    0    0    0  501  0.00000000000E+00  0.00000000000E+00 -0.56799720399E+03  0.56799720401E+03  0.50400001928E-02 0.  1.
    10030    2    1    2    0    0  0.00000000000E+00  0.00000000000E+00  0.15622685718E+04  0.26982629798E+04  0.21999863676E+04 0.  0.
        4    1    3    3  502    0 -0.53706519965E+03  0.89130500778E+03  0.34384302991E+03  0.10959440167E+04  0.12699999809E+01 0.  1.
       -4    1    3    3    0  502  0.53706519965E+03 -0.89130500778E+03  0.12184255419E+04  0.16023189631E+04  0.12699999809E+01 0. -1.
</event>
<event>
 5   0  0.2524749E-06  0.2199406E+04  0.7818609E-02  0.8518676E-01
       -2   -1    0    0    0  501  0.00000000000E+00  0.00000000000E+00  0.57516316988E+03  0.57516316988E+03  0.25500000920E-02 0.  1.
        2   -1    0    0  501    0  0.00000000000E+00  0.00000000000E+00 -0.21026141588E+04  0.21026141588E+04  0.25500000920E-02 0. -1.
    10030    2    1    2    0    0  0.00000000000E+00  0.00000000000E+00 -0.15274509889E+04  0.26777773286E+04  0.21994055784E+04 0.  0.
        4    1    3    3  502    0 -0.67806158142E+03 -0.72375410638E+03 -0.13422074864E+04  0.16688649029E+04  0.12699999809E+01 0. -1.
       -4    1    3    3    0  502  0.67806158142E+03  0.72375410638E+03 -0.18524350250E+03  0.10089124257E+04  0.12699999809E+01 0.  1.
</event>
<event>
 5   0  0.1107101E-06  0.2203181E+04  0.7818609E-02  0.8517105E-01
        1   -1    0    0  501    0  0.00000000000E+00  0.00000000000E+00  0.48592788083E+03  0.48592788085E+03  0.50400001928E-02 0. -1.
       -1   -1    0    0    0  501  0.00000000000E+00  0.00000000000E+00 -0.24972879911E+04  0.24972879911E+04  0.50400001928E-02 0.  1.
    10030    2    1    2    0    0  0.00000000000E+00  0.00000000000E+00 -0.20113601103E+04  0.29832158720E+04  0.22031812103E+04 0.  0.
        1    1    3    3  502    0 -0.51086101834E+03  0.61184627101E+03 -0.20352624791E+04  0.21857786251E+04  0.50400001928E-02 0.  1.
       -1    1    3    3    0  502  0.51086101834E+03 -0.61184627101E+03  0.23902368758E+02  0.79743724685E+03  0.50400001928E-02 0. -1.
</event>
<event>
 5   0  0.1144271E-06  0.2205559E+04  0.7818609E-02  0.8516118E-01
        1   -1    0    0  501    0  0.00000000000E+00  0.00000000000E+00  0.14365208172E+04  0.14365208172E+04  0.50400001928E-02 0. -1.
       -1   -1    0    0    0  501  0.00000000000E+00  0.00000000000E+00 -0.84657517475E+03  0.84657517477E+03  0.50400001928E-02 0.  1.
    10030    2    1    2    0    0  0.00000000000E+00  0.00000000000E+00  0.58994564245E+03  0.22830959920E+04  0.22055592142E+04 0.  0.
        3    1    3    3  502    0  0.17602793386E+03 -0.50621536104E+03  0.12926406387E+04  0.13993425800E+04  0.10100000352E+00 0. -1.
       -3    1    3    3    0  502 -0.17602793386E+03  0.50621536104E+03 -0.70269499622E+03  0.88375341197E+03  0.10100000352E+00 0.  1.
</event>
<event>
 5   0  0.2606154E-06  0.2198464E+04  0.7818609E-02  0.8519068E-01
        2   -1    0    0  501    0  0.00000000000E+00  0.00000000000E+00  0.81645336556E+03  0.81645336556E+03  0.25500000920E-02 0. -1.
       -2   -1    0    0    0  501  0.00000000000E+00  0.00000000000E+00 -0.14799515518E+04  0.14799515518E+04  0.25500000920E-02 0.  1.
    10030    2    1    2    0    0  0.00000000000E+00  0.00000000000E+00 -0.66349818623E+03  0.22964049174E+04  0.21984643962E+04 0.  0.
        2    1    3    3  502    0  0.24643679560E+03  0.10614876341E+04 -0.48248426108E+03  0.11917542338E+04  0.25500000920E-02 0. -1.
       -2    1    3    3    0  502 -0.24643679560E+03 -0.10614876341E+04 -0.18101392516E+03  0.11046506836E+04  0.25500000920E-02 0.  1.
</event>
<event>
 5   0  0.2532239E-06  0.2197476E+04  0.7818609E-02  0.8519480E-01
       -2   -1    0    0    0  501  0.00000000000E+00  0.00000000000E+00  0.94831919583E+03  0.94831919584E+03  0.25500000920E-02 0. -1.
        2   -1    0    0  501    0  0.00000000000E+00  0.00000000000E+00 -0.12730150979E+04  0.12730150979E+04  0.25500000920E-02 0.  1.
    10030    2    1    2    0    0  0.00000000000E+00  0.00000000000E+00 -0.32469590208E+03  0.22213342938E+04  0.21974755097E+04 0.  0.
        3    1    3    3  502    0 -0.29091260397E+03  0.42996980713E+03 -0.11412214590E+04  0.12537506159E+04  0.10100000352E+00 0.  1.
       -3    1    3    3    0  502  0.29091260397E+03 -0.42996980713E+03  0.81652555696E+03  0.96758367781E+03  0.10100000352E+00 0. -1.
</event>
<event>
 5   0  0.2556869E-06  0.2198284E+04  0.7818609E-02  0.8519143E-01
       -2   -1    0    0    0  501  0.00000000000E+00  0.00000000000E+00  0.57713388114E+03  0.57713388114E+03  0.25500000920E-02 0.  1.
        2   -1    0    0  501    0  0.00000000000E+00  0.00000000000E+00 -0.20932972863E+04  0.20932972863E+04  0.25500000920E-02 0. -1.
    10030    2    1    2    0    0  0.00000000000E+00  0.00000000000E+00 -0.15161634051E+04  0.26704311674E+04  0.21982836825E+04 0.  0.
        5    1    3    3  502    0  0.56735005540E+03  0.77439054887E+03 -0.10783513100E+03  0.96603173499E+03  0.46999998093E+01 0.  1.
       -5    1    3    3    0  502 -0.56735005540E+03 -0.77439054887E+03 -0.14083282741E+04  0.17043994324E+04  0.46999998093E+01 0. -1.
</event>
<event>
 5   0  0.1146827E-06  0.2199098E+04  0.7818609E-02  0.8518804E-01
        1   -1    0    0  501    0  0.00000000000E+00  0.00000000000E+00  0.86325929109E+03  0.86325929111E+03  0.50400001928E-02 0.  1.
       -1   -1    0    0    0  501  0.00000000000E+00  0.00000000000E+00 -0.14005156127E+04  0.14005156127E+04  0.50400001928E-02 0. -1.
    10030    2    1    2    0    0  0.00000000000E+00  0.00000000000E+00 -0.53725632157E+03  0.22637749038E+04  0.21990981015E+04 0.  0.
        4    1    3    3  502    0 -0.34743360696E+03  0.10178679548E+04 -0.33342596836E+02  0.10760476878E+04  0.12699999809E+01 0.  1.
       -4    1    3    3    0  502  0.34743360696E+03 -0.10178679548E+04 -0.50391372474E+03  0.11877272160E+04  0.12699999809E+01 0. -1.
</event>
<event>
 5   0  0.1107101E-06  0.2199682E+04  0.7818609E-02  0.8518561E-01
        1   -1    0    0  501    0  0.00000000000E+00  0.00000000000E+00  0.98850938472E+03  0.98850938474E+03  0.50400001928E-02 0. -1.
       -1   -1    0    0    0  501  0.00000000000E+00  0.00000000000E+00 -0.12237111522E+04  0.12237111522E+04  0.50400001928E-02 0.  1.
    10030    2    1    2    0    0  0.00000000000E+00  0.00000000000E+00 -0.23520176743E+03  0.22122205369E+04  0.21996817571E+04 0.  0.
        1    1    3    3  502    0  0.22248245634E+03 -0.45914253548E+03 -0.10974955098E+04  0.12102919918E+04  0.50400001928E-02 0.  1.
       -1    1    3    3    0  502 -0.22248245634E+03  0.45914253548E+03  0.86229374241E+03  0.10019285451E+04  0.50400001928E-02 0. -1.
</event>
<event>
 5   0  0.1144271E-06  0.2201918E+04  0.7818609E-02  0.8517630E-01
       -1   -1    0    0    0  501  0.00000000000E+00  0.00000000000E+00  0.99198800968E+03  0.99198800969E+03  0.50400001928E-02 0. -1.
        1   -1    0    0  501    0  0.00000000000E+00  0.00000000000E+00 -0.12219008134E+04  0.12219008134E+04  0.50400001928E-02 0.  1.
    10030    2    1    2    0    0  0.00000000000E+00  0.00000000000E+00 -0.22991280368E+03  0.22138888231E+04  0.22019182146E+04 0.  0.
        3    1    3    3  502    0 -0.28468758876E+03  0.10335733070E+04 -0.36689827545E+03  0.11331086262E+04  0.10100000352E+00 0.  1.
       -3    1    3    3    0  502  0.28468758876E+03 -0.10335733070E+04  0.13698547176E+03  0.10807801968E+04  0.10100000352E+00 0. -1.
</event>
<event>
 5   0  0.2532239E-06  0.2197432E+04  0.7818609E-02  0.8519498E-01
       -2   -1    0    0    0  501  0.00000000000E+00  0.00000000000E+00  0.12687170903E+04  0.12687170903E+04  0.25500000920E-02 0. -1.
        2   -1    0    0  501    0  0.00000000000E+00  0.00000000000E+00 -0.95149389449E+03  0.95149389449E+03  0.25500000920E-02 0.  1.
    10030    2    1    2    0    0  0.00000000000E+00  0.00000000000E+00  0.31722319584E+03  0.22202109848E+04  0.21974317421E+04 0.  0.
        3    1    3    3  502    0  0.22005711640E+03  0.35581390644E+03  0.11850900022E+04  0.12567684727E+04  0.10100000352E+00 0. -1.
       -3    1    3    3    0  502 -0.22005711640E+03 -0.35581390644E+03 -0.86786680632E+03  0.96344251214E+03  0.10100000352E+00 0.  1.
</event>
<event>
 5   0  0.2606154E-06  0.2200988E+04  0.7818609E-02  0.8518017E-01
       -2   -1    0    0    0  501  0.00000000000E+00  0.00000000000E+00  0.83961596206E+03  0.83961596207E+03  0.25500000920E-02 0.  1.
        2   -1    0    0  501    0  0.00000000000E+00  0.00000000000E+00 -0.14424299466E+04  0.14424299466E+04  0.25500000920E-02 0. -1.
    10030    2    1    2    0    0  0.00000000000E+00  0.00000000000E+00 -0.60281398450E+03  0.22820459086E+04  0.22009881484E+04 0.  0.
        2    1    3    3  502    0 -0.28189142902E+03  0.98976085557E+03  0.10282011706E+03  0.10342443161E+04  0.25500000920E-02 0.  1.
       -2    1    3    3    0  502  0.28189142902E+03 -0.98976085557E+03 -0.70563410156E+03  0.12478015925E+04  0.25500000920E-02 0. -1.
</event>
<event>
 5   0  0.1082209E-06  0.2199472E+04  0.7818609E-02  0.8518648E-01
        1   -1    0    0  501    0  0.00000000000E+00  0.00000000000E+00  0.27849438201E+04  0.27849438201E+04  0.50400001928E-02 0. -1.
       -1   -1    0    0    0  501  0.00000000000E+00  0.00000000000E+00 -0.43427048642E+03  0.43427048645E+03  0.50400001928E-02 0.  1.
    10030    2    1    2    0    0  0.00000000000E+00  0.00000000000E+00  0.23506733336E+04  0.32192143065E+04  0.21994716706E+04 0.  0.
        2    1    3    3  502    0  0.29348591114E+03 -0.73097347698E+03  0.22985840442E+04  0.24298034514E+04  0.25500000920E-02 0. -1.
       -2    1    3    3    0  502 -0.29348591114E+03  0.73097347698E+03  0.52089289408E+02  0.78941085511E+03  0.25500000920E-02 0.  1.
</event>
<event>
 5   0  0.1082209E-06  0.2199739E+04  0.7818609E-02  0.8518537E-01
       -1   -1    0    0    0  501  0.00000000000E+00  0.00000000000E+00  0.88155472022E+03  0.88155472023E+03  0.50400001928E-02 0.  1.
        1   -1    0    0  501    0  0.00000000000E+00  0.00000000000E+00 -0.13722499966E+04  0.13722499966E+04  0.50400001928E-02 0. -1.
    10030    2    1    2    0    0  0.00000000000E+00  0.00000000000E+00 -0.49069527641E+03  0.22538047169E+04  0.21997394954E+04 0.  0.
        2    1    3    3  502    0 -0.52693120677E+01  0.45445058095E+03 -0.12715433926E+04  0.13503242927E+04  0.25500000920E-02 0. -1.
       -2    1    3    3    0  502  0.52693120677E+01 -0.45445058095E+03  0.78084811623E+03  0.90348042414E+03  0.25500000920E-02 0.  1.
</event>
<event>
 5   0  0.2581058E-06  0.2195394E+04  0.7818609E-02  0.8520348E-01
       -2   -1    0    0    0  501  0.00000000000E+00  0.00000000000E+00  0.81667812369E+03  0.81667812369E+03  0.25500000920E-02 0. -1.
        2   -1    0    0  501    0  0.00000000000E+00  0.00000000000E+00 -0.14754148929E+04  0.14754148929E+04  0.25500000920E-02 0.  1.
    10030    2    1    2    0    0  0.00000000000E+00  0.00000000000E+00 -0.65873676919E+03  0.22920930166E+04  0.21953943303E+04 0.  0.
        1    1    3    3  502    0  0.33487868552E+02 -0.40570663100E+03 -0.13936912621E+04  0.14519279052E+04  0.50400001928E-02 0.  1.
       -1    1    3    3    0  502 -0.33487868552E+02  0.40570663100E+03  0.73495449289E+03  0.84016511141E+03  0.50400001928E-02 0. -1.
</event>
<event>
 5   0  0.1144271E-06  0.2197899E+04  0.7818609E-02  0.8519303E-01
        1   -1    0    0  501    0  0.00000000000E+00  0.00000000000E+00  0.10227234205E+04  0.10227234205E+04  0.50400001928E-02 0.  1.
       -1   -1    0    0    0  501  0.00000000000E+00  0.00000000000E+00 -0.11808567908E+04  0.11808567908E+04  0.50400001928E-02 0. -1.
    10030    2    1    2    0    0  0.00000000000E+00  0.00000000000E+00 -0.15813337028E+03  0.22035802112E+04  0.21978989023E+04 0.  0.
        3    1    3    3  502    0  0.41167232765E+03  0.20295936032E+03 -0.10801582470E+04  0.11736304597E+04  0.10100000352E+00 0. -1.
       -3    1    3    3    0  502 -0.41167232765E+03 -0.20295936032E+03  0.92202487667E+03  0.10299497515E+04  0.10100000352E+00 0.  1.
</event>
<event>
 5   0  0.2581058E-06  0.2199854E+04  0.7818609E-02  0.8518489E-01
       -2   -1    0    0    0  501  0.00000000000E+00  0.00000000000E+00  0.58299999660E+03  0.58299999661E+03  0.25500000920E-02 0. -1.
        2   -1    0    0  501    0  0.00000000000E+00  0.00000000000E+00 -0.20751968793E+04  0.20751968793E+04  0.25500000920E-02 0.  1.
    10030    2    1    2    0    0  0.00000000000E+00  0.00000000000E+00 -0.14921968827E+04  0.26581968759E+04  0.21998543348E+04 0.  0.
        1    1    3    3  502    0 -0.93138200447E+03  0.50054283845E+03 -0.11122592010E+04  0.15346452690E+04  0.50400001928E-02 0.  1.
       -1    1    3    3    0  502  0.93138200447E+03 -0.50054283845E+03 -0.37993768164E+03  0.11235516069E+04  0.50400001928E-02 0. -1.
</event>
<event>
 5   0  0.1082209E-06  0.2200544E+04  0.7818609E-02  0.8518202E-01
       -1   -1    0    0    0  501  0.00000000000E+00  0.00000000000E+00  0.51550195248E+03  0.51550195250E+03  0.50400001928E-02 0. -1.
        1   -1    0    0  501    0  0.00000000000E+00  0.00000000000E+00 -0.23483869860E+04  0.23483869860E+04  0.50400001928E-02 0.  1.
    10030    2    1    2    0    0  0.00000000000E+00  0.00000000000E+00 -0.18328850336E+04  0.28638889386E+04  0.22005436388E+04 0.  0.
        2    1    3    3  502    0 -0.31715280770E+03  0.24387155793E+03  0.41748503436E+03  0.57823264706E+03  0.25500000920E-02 0. -1.
       -2    1    3    3    0  502  0.31715280770E+03 -0.24387155793E+03 -0.22503700679E+04  0.22856562915E+04  0.25500000920E-02 0.  1.
</event>
<event>
 5   0  0.1146827E-06  0.2199686E+04  0.7818609E-02  0.8518559E-01
        1   -1    0    0  501    0  0.00000000000E+00  0.00000000000E+00  0.18991340394E+04  0.18991340394E+04  0.50400001928E-02 0. -1.
       -1   -1    0    0    0  501  0.00000000000E+00  0.00000000000E+00 -0.63695079386E+03  0.63695079388E+03  0.50400001928E-02 0.  1.
    10030    2    1    2    0    0  0.00000000000E+00  0.00000000000E+00  0.12621832456E+04  0.25360848333E+04  0.21996862813E+04 0.  0.
        4    1    3    3  502    0  0.45252801091E+03 -0.87236659467E+02 -0.52025887748E+03  0.69502715623E+03  0.12699999809E+01 0.  1.
       -4    1    3    3    0  502 -0.45252801091E+03  0.87236659467E+02  0.17824421230E+04  0.18410576771E+04  0.12699999809E+01 0. -1.
</event>
<event>
 5   0  0.2524749E-06  0.2200257E+04  0.7818609E-02  0.8518321E-01
       -2   -1    0    0    0  501  0.00000000000E+00  0.00000000000E+00  0.11102245380E+04  0.11102245380E+04  0.25500000920E-02 0. -1.
        2   -1    0    0  501    0  0.00000000000E+00  0.00000000000E+00 -0.10901246458E+04  0.10901246458E+04  0.25500000920E-02 0.  1.
    10030    2    1    2    0    0  0.00000000000E+00  0.00000000000E+00  0.20099892257E+02  0.22003491838E+04  0.22002573770E+04 0.  0.
        4    1    3    3  502    0 -0.53453120676E+03  0.74897050894E+02 -0.94860798444E+03  0.10914173813E+04  0.12699999809E+01 0.  1.
       -4    1    3    3    0  502  0.53453120676E+03 -0.74897050894E+02  0.96870787669E+03  0.11089318025E+04  0.12699999809E+01 0. -1.
</event>
<event>
 5   0  0.2606154E-06  0.2198938E+04  0.7818609E-02  0.8518870E-01
        2   -1    0    0  501    0  0.00000000000E+00  0.00000000000E+00  0.13370677274E+04  0.13370677274E+04  0.25500000920E-02 0. -1.
       -2   -1    0    0    0  501  0.00000000000E+00  0.00000000000E+00 -0.90409165974E+03  0.90409165975E+03  0.25500000920E-02 0.  1.
    10030    2    1    2    0    0  0.00000000000E+00  0.00000000000E+00  0.43297606765E+03  0.22411593871E+04  0.21989377261E+04 0.  0.
        2    1    3    3  502    0 -0.19167861172E+03  0.41619680175E+03 -0.80213755959E+03  0.92378846740E+03  0.25500000920E-02 0.  1.
       -2    1    3    3    0  502  0.19167861172E+03 -0.41619680175E+03  0.12351136272E+04  0.13173709197E+04  0.25500000920E-02 0. -1.
</event>
<event>
 5   0  0.1137869E-06  0.2201073E+04  0.7818609E-02  0.8517982E-01
       -1   -1    0    0    0  501  0.00000000000E+00  0.00000000000E+00  0.10557550783E+04  0.10557550783E+04  0.50400001928E-02 0. -1.
        1   -1    0    0  501    0  0.00000000000E+00  0.00000000000E+00 -0.11472176151E+04  0.11472176152E+04  0.50400001928E-02 0.  1.
    10030    2    1    2    0    0  0.00000000000E+00  0.00000000000E+00 -0.91462536821E+02  0.22029726935E+04  0.22010732138E+04 0.  0.
        5    1    3    3  502    0  0.52547429750E+03  0.76103818741E+03  0.55132051427E+03  0.10766980819E+04  0.46999998093E+01 0. -1.
       -5    1    3    3    0  502 -0.52547429750E+03 -0.76103818741E+03 -0.64278305109E+03  0.11262746116E+04  0.46999998093E+01 0.  1.
</event>
<event>
 5   0  0.2556869E-06  0.2199792E+04  0.7818609E-02  0.8518515E-01
       -2   -1    0    0    0  501  0.00000000000E+00  0.00000000000E+00  0.91579361957E+03  0.91579361957E+03  0.25500000920E-02 0. -1.
        2   -1    0    0  501    0  0.00000000000E+00  0.00000000000E+00 -0.13210086435E+04  0.13210086435E+04  0.25500000920E-02 0.  1.
    10030    2    1    2    0    0  0.00000000000E+00  0.00000000000E+00 -0.40521502394E+03  0.22368022631E+04  0.21997920694E+04 0.  0.
        5    1    3    3  502    0 -0.70636346014E+03  0.48357656175E+03 -0.90484500416E+03  0.12456171966E+04  0.46999998093E+01 0.  1.
       -5    1    3    3    0  502  0.70636346014E+03 -0.48357656175E+03  0.49962998022E+03  0.99118506649E+03  0.46999998093E+01 0. -1.
</event>
<event>
 5   0  0.2606154E-06  0.2201407E+04  0.7818609E-02  0.8517843E-01
        2   -1    0    0  501    0  0.00000000000E+00  0.00000000000E+00  0.60526402407E+03  0.60526402408E+03  0.25500000920E-02 0.  1.
       -2   -1    0    0    0  501  0.00000000000E+00  0.00000000000E+00 -0.20016849391E+04  0.20016849391E+04  0.25500000920E-02 0. -1.
    10030    2    1    2    0    0  0.00000000000E+00  0.00000000000E+00 -0.13964209151E+04  0.26069489632E+04  0.22014067150E+04 0.  0.
        2    1    3    3  502    0 -0.45002329180E+03 -0.71840204536E+03 -0.15296350177E+04  0.17488298228E+04  0.25500000920E-02 0. -1.
       -2    1    3    3    0  502  0.45002329180E+03  0.71840204536E+03  0.13321410261E+03  0.85811914038E+03  0.25500000920E-02 0.  1.
</event>
<event>
 5   0  0.8905000E-07  0.2200172E+04  0.7818609E-02  0.8518356E-01
       -4   -1    0    0    0  501  0.00000000000E+00  0.00000000000E+00  0.10483739829E+04  0.10483747521E+04  0.12699999809E+01 0.  1.
        4   -1    0    0  501    0  0.00000000000E+00  0.00000000000E+00 -0.11543476209E+04  0.11543483196E+04  0.12699999809E+01 0. -1.
    10030    2    1    2    0    0  0.00000000000E+00  0.00000000000E+00 -0.10597363804E+03  0.22027230717E+04  0.22001723839E+04 0.  0.
        3    1    3    3  502    0 -0.92123524654E+02 -0.90497102318E+02  0.10407599818E+04  0.10487410639E+04  0.10100000352E+00 0.  1.
       -3    1    3    3    0  502  0.92123524654E+02  0.90497102318E+02 -0.11467336198E+04  0.11539820078E+04  0.10100000352E+00 0. -1.
</event>
<event>
 5   0  0.1144271E-06  0.2199916E+04  0.7818609E-02  0.8518463E-01
        1   -1    0    0  501    0  0.00000000000E+00  0.00000000000E+00  0.85073000182E+03  0.85073000184E+03  0.50400001928E-02 0.  1.
       -1   -1    0    0    0  501  0.00000000000E+00  0.00000000000E+00 -0.14221990781E+04  0.14221990781E+04  0.50400001928E-02 0. -1.
    10030    2    1    2    0    0  0.00000000000E+00  0.00000000000E+00 -0.57146907623E+03  0.22729290799E+04  0.21999158387E+04 0.  0.
        3    1    3    3  502    0 -0.11482962947E+03 -0.88839316542E+03 -0.94526144218E+03  0.13022854773E+04  0.10100000352E+00 0. -1.
       -3    1    3    3    0  502  0.11482962947E+03  0.88839316542E+03  0.37379236595E+03  0.97064360257E+03  0.10100000352E+00 0.  1.
</event>
<event>
 5   0  0.2581058E-06  0.2199693E+04  0.7818609E-02  0.8518556E-01
        2   -1    0    0  501    0  0.00000000000E+00  0.00000000000E+00  0.11073116464E+04  0.11073116464E+04  0.25500000920E-02 0.  1.
       -2   -1    0    0    0  501  0.00000000000E+00  0.00000000000E+00 -0.10924318105E+04  0.10924318105E+04  0.25500000920E-02 0. -1.
    10030    2    1    2    0    0  0.00000000000E+00  0.00000000000E+00  0.14879835917E+02  0.21997434569E+04  0.21996931301E+04 0.  0.
        1    1    3    3  502    0 -0.65993082595E+03  0.85320148496E+03  0.22238900906E+03  0.11013257195E+04  0.50400001928E-02 0.  1.
       -1    1    3    3    0  502  0.65993082595E+03 -0.85320148496E+03 -0.20750917314E+03  0.10984177374E+04  0.50400001928E-02 0. -1.
</event>
<event>
 5   0  0.1144271E-06  0.2199665E+04  0.7818609E-02  0.8518568E-01
       -1   -1    0    0    0  501  0.00000000000E+00  0.00000000000E+00  0.64868418959E+03  0.64868418960E+03  0.50400001928E-02 0. -1.
        1   -1    0    0  501    0  0.00000000000E+00  0.00000000000E+00 -0.18647461949E+04  0.18647461949E+04  0.50400001928E-02 0.  1.
    10030    2    1    2    0    0  0.00000000000E+00  0.00000000000E+00 -0.12160620053E+04  0.25134303845E+04  0.21996648602E+04 0.  0.
        3    1    3    3  502    0 -0.69852454653E+03 -0.59608491816E+03  0.83600547193E+02  0.92208613126E+03  0.10100000352E+00 0. -1.
       -3    1    3    3    0  502  0.69852454653E+03  0.59608491816E+03 -0.12996625525E+04  0.15913442532E+04  0.10100000352E+00 0.  1.
</event>
<event>
 5   0  0.2606154E-06  0.2199785E+04  0.7818609E-02  0.8518518E-01
       -2   -1    0    0    0  501  0.00000000000E+00  0.00000000000E+00  0.71021053758E+03  0.71021053758E+03  0.25500000920E-02 0.  1.
        2   -1    0    0  501    0  0.00000000000E+00  0.00000000000E+00 -0.17033874378E+04  0.17033874378E+04  0.25500000920E-02 0. -1.
    10030    2    1    2    0    0  0.00000000000E+00  0.00000000000E+00 -0.99317690025E+03  0.24135979754E+04  0.21997851785E+04 0.  0.
        2    1    3    3  502    0 -0.21863734921E+03 -0.10566331916E+04 -0.26257990007E+03  0.11105062792E+04  0.25500000920E-02 0.  1.
       -2    1    3    3    0  502  0.21863734921E+03  0.10566331916E+04 -0.73059700018E+03  0.13030916962E+04  0.25500000920E-02 0. -1.
</event>
<event>
 5   0  0.2532239E-06  0.2199321E+04  0.7818609E-02  0.8518711E-01
        2   -1    0    0  501    0  0.00000000000E+00  0.00000000000E+00  0.17923169337E+04  0.17923169337E+04  0.25500000920E-02 0.  1.
       -2   -1    0    0    0  501  0.00000000000E+00  0.00000000000E+00 -0.67468710649E+03  0.67468710649E+03  0.25500000920E-02 0. -1.
    10030    2    1    2    0    0  0.00000000000E+00  0.00000000000E+00  0.11176298272E+04  0.24670040402E+04  0.21993209188E+04 0.  0.
        3    1    3    3  502    0 -0.55851461810E+03  0.92473097698E+03  0.32842079587E+03  0.11291262940E+04  0.10100000352E+00 0. -1.
       -3    1    3    3    0  502  0.55851461810E+03 -0.92473097698E+03  0.78920903134E+03  0.13378777462E+04  0.10100000352E+00 0.  1.
</event>
<event>
 5   0  0.2581058E-06  0.2199315E+04  0.7818609E-02  0.8518713E-01
       -2   -1    0    0    0  501  0.00000000000E+00  0.00000000000E+00  0.56248484670E+03  0.56248484670E+03  0.25500000920E-02 0. -1.
        2   -1    0    0  501    0  0.00000000000E+00  0.00000000000E+00 -0.21498290486E+04  0.21498290486E+04  0.25500000920E-02 0.  1.
    10030    2    1    2    0    0  0.00000000000E+00  0.00000000000E+00 -0.15873442019E+04  0.27123138953E+04  0.21993146777E+04 0.  0.
        1    1    3    3  502    0  0.10832870962E+04 -0.14025217844E+03 -0.94998265342E+03  0.14476355371E+04  0.50400001928E-02 0.  1.
       -1    1    3    3    0  502 -0.10832870962E+04  0.14025217844E+03 -0.63736154849E+03  0.12646783583E+04  0.50400001928E-02 0. -1.
</event>
<event>
 5   0  0.2556869E-06  0.2196305E+04  0.7818609E-02  0.8519968E-01
       -2   -1    0    0    0  501  0.00000000000E+00  0.00000000000E+00  0.18478418651E+04  0.18478418651E+04  0.25500000920E-02 0. -1.
        2   -1    0    0  501    0  0.00000000000E+00  0.00000000000E+00 -0.65262004640E+03  0.65262004640E+03  0.25500000920E-02 0.  1.
    10030    2    1    2    0    0  0.00000000000E+00  0.00000000000E+00  0.11952218187E+04  0.25004619115E+04  0.21963047546E+04 0.  0.
        5    1    3    3  502    0 -0.52589552861E+03 -0.79540241593E+02 -0.49617944871E+03  0.72739871623E+03  0.46999998093E+01 0.  1.
       -5    1    3    3    0  502  0.52589552861E+03  0.79540241593E+02  0.16914012674E+04  0.17730631953E+04  0.46999998093E+01 0. -1.
</event>
<event>
 5   0  0.1146827E-06  0.2200391E+04  0.7818609E-02  0.8518265E-01
        1   -1    0    0  501    0  0.00000000000E+00  0.00000000000E+00  0.63102508768E+03  0.63102508770E+03  0.50400001928E-02 0.  1.
       -1   -1    0    0    0  501  0.00000000000E+00  0.00000000000E+00 -0.19181968650E+04  0.19181968650E+04  0.50400001928E-02 0. -1.
    10030    2    1    2    0    0  0.00000000000E+00  0.00000000000E+00 -0.12871717773E+04  0.25492219527E+04  0.22003911879E+04 0.  0.
        4    1    3    3  502    0 -0.72809775254E+03 -0.74726005126E+03 -0.23908621576E+03  0.10703680455E+04  0.12699999809E+01 0.  1.
       -4    1    3    3    0  502  0.72809775254E+03  0.74726005126E+03 -0.10480855616E+04  0.14788539072E+04  0.12699999809E+01 0. -1.
</event>
<event>
 5   0  0.1137869E-06  0.2199037E+04  0.7818609E-02  0.8518829E-01
       -1   -1    0    0    0  501  0.00000000000E+00  0.00000000000E+00  0.71753688949E+03  0.71753688951E+03  0.50400001928E-02 0. -1.
        1   -1    0    0  501    0  0.00000000000E+00  0.00000000000E+00 -0.16848487632E+04  0.16848487632E+04  0.50400001928E-02 0.  1.
    10030    2    1    2    0    0  0.00000000000E+00  0.00000000000E+00 -0.96731187371E+03  0.24023856527E+04  0.21990371901E+04 0.  0.
        5    1    3    3  502    0 -0.47152919721E+03  0.50988157315E+03 -0.14148878753E+04  0.15761499904E+04  0.46999998093E+01 0.  1.
       -5    1    3    3    0  502  0.47152919721E+03 -0.50988157315E+03  0.44757600162E+03  0.82623566232E+03  0.46999998093E+01 0. -1.
</event>
<event>
 5   0  0.2524749E-06  0.2199630E+04  0.7818609E-02  0.8518582E-01
       -2   -1    0    0    0  501  0.00000000000E+00  0.00000000000E+00  0.88033041116E+03  0.88033041117E+03  0.25500000920E-02 0.  1.
        2   -1    0    0  501    0  0.00000000000E+00  0.00000000000E+00 -0.13740217549E+04  0.13740217549E+04  0.25500000920E-02 0. -1.
    10030    2    1    2    0    0  0.00000000000E+00  0.00000000000E+00 -0.49369134376E+03  0.22543521661E+04  0.21996300930E+04 0.  0.
        4    1    3    3  502    0  0.82599653817E+03  0.72283400450E+03 -0.17560195716E+03  0.11115740818E+04  0.12699999809E+01 0. -1.
       -4    1    3    3    0  502 -0.82599653817E+03 -0.72283400450E+03 -0.31808938660E+03  0.11427780843E+04  0.12699999809E+01 0.  1.
</event>
<event>
 5   0  0.1146827E-06  0.2199766E+04  0.7818609E-02  0.8518525E-01
       -1   -1    0    0    0  501  0.00000000000E+00  0.00000000000E+00  0.10772181830E+04  0.10772181830E+04  0.50400001928E-02 0. -1.
        1   -1    0    0  501    0  0.00000000000E+00  0.00000000000E+00 -0.11230248655E+04  0.11230248655E+04  0.50400001928E-02 0.  1.
    10030    2    1    2    0    0  0.00000000000E+00  0.00000000000E+00 -0.45806682533E+02  0.22002430485E+04  0.21997661740E+04 0.  0.
        4    1    3    3  502    0  0.63591708524E+03  0.47998809754E+03  0.73552357775E+03  0.10843318954E+04  0.12699999809E+01 0. -1.
       -4    1    3    3    0  502 -0.63591708524E+03 -0.47998809754E+03 -0.78133026028E+03  0.11159111531E+04  0.12699999809E+01 0.  1.
</event>
<event>
 5   0  0.1107101E-06  0.2202569E+04  0.7818609E-02  0.8517359E-01
       -1   -1    0    0    0  501  0.00000000000E+00  0.00000000000E+00  0.70316667147E+03  0.70316667149E+03  0.50400001928E-02 0.  1.
        1   -1    0    0  501    0  0.00000000000E+00  0.00000000000E+00 -0.17248088220E+04  0.17248088220E+04  0.50400001928E-02 0. -1.
    10030    2    1    2    0    0  0.00000000000E+00  0.00000000000E+00 -0.10216421505E+04  0.24279754935E+04  0.22025694798E+04 0.  0.
        1    1    3    3  502    0 -0.16497396552E+03 -0.10786750599E+04 -0.34705143274E+03  0.11450768495E+04  0.50400001928E-02 0.  1.
       -1    1    3    3    0  502  0.16497396552E+03  0.10786750599E+04 -0.67459071779E+03  0.12828986440E+04  0.50400001928E-02 0. -1.
</event>
<event>
 5   0  0.2581058E-06  0.2200348E+04  0.7818609E-02  0.8518283E-01
        2   -1    0    0  501    0  0.00000000000E+00  0.00000000000E+00  0.87098087210E+03  0.87098087210E+03  0.25500000920E-02 0. -1.
       -2   -1    0    0    0  501  0.00000000000E+00  0.00000000000E+00 -0.13896773002E+04  0.13896773002E+04  0.25500000920E-02 0.  1.
    10030    2    1    2    0    0  0.00000000000E+00  0.00000000000E+00 -0.51869642815E+03  0.22606581724E+04  0.22003475606E+04 0.  0.
        1    1    3    3  502    0 -0.47355487943E+03 -0.43511799258E+03 -0.11764518169E+04  0.13407538062E+04  0.50400001928E-02 0.  1.
       -1    1    3    3    0  502  0.47355487943E+03  0.43511799258E+03  0.65775538879E+03  0.91990436612E+03  0.50400001928E-02 0. -1.
</event>
<event>
 5   0  0.1137869E-06  0.2200647E+04  0.7818609E-02  0.8518159E-01
       -1   -1    0    0    0  501  0.00000000000E+00  0.00000000000E+00  0.17394003834E+04  0.17394003834E+04  0.50400001928E-02 0.  1.
        1   -1    0    0  501    0  0.00000000000E+00  0.00000000000E+00 -0.69605154471E+03  0.69605154473E+03  0.50400001928E-02 0. -1.
    10030    2    1    2    0    0  0.00000000000E+00  0.00000000000E+00  0.10433488387E+04  0.24354519281E+04  0.22006474718E+04 0.  0.
        5    1    3    3  502    0  0.36679206550E+03  0.26563327051E+03 -0.58811392118E+03  0.74229207728E+03  0.46999998093E+01 0. -1.
       -5    1    3    3    0  502 -0.36679206550E+03 -0.26563327051E+03  0.16314627598E+04  0.16931598508E+04  0.46999998093E+01 0.  1.
</event>
<event>
 5   0  0.2524749E-06  0.2199306E+04  0.7818609E-02  0.8518717E-01
       -2   -1    0    0    0  501  0.00000000000E+00  0.00000000000E+00  0.11436470153E+04  0.11436470153E+04  0.25500000920E-02 0. -1.
        2   -1    0    0  501    0  0.00000000000E+00  0.00000000000E+00 -0.10573516570E+04  0.10573516570E+04  0.25500000920E-02 0.  1.
    10030    2    1    2    0    0  0.00000000000E+00  0.00000000000E+00  0.86295358262E+02  0.22009986723E+04  0.21993063149E+04 0.  0.
        4    1    3    3  502    0 -0.74441896256E+03 -0.76520014966E+03 -0.22076833523E+03  0.10901518846E+04  0.12699999809E+01 0.  1.
       -4    1    3    3    0  502  0.74441896256E+03  0.76520014966E+03  0.30706369350E+03  0.11108467876E+04  0.12699999809E+01 0. -1.
</event>
<event>
 5   0  0.2581058E-06  0.2200252E+04  0.7818609E-02  0.8518323E-01
        2   -1    0    0  501    0  0.00000000000E+00  0.00000000000E+00  0.22543474389E+04  0.22543474389E+04  0.25500000920E-02 0.  1.
       -2   -1    0    0    0  501  0.00000000000E+00  0.00000000000E+00 -0.53686346556E+03  0.53686346557E+03  0.25500000920E-02 0. -1.
    10030    2    1    2    0    0  0.00000000000E+00  0.00000000000E+00  0.17174839733E+04  0.27912109045E+04  0.22002516026E+04 0.  0.
        1    1    3    3  502    0 -0.76479450916E+03 -0.77379328631E+03  0.65180245690E+03  0.12682717114E+04  0.50400001928E-02 0.  1.
       -1    1    3    3    0  502  0.76479450916E+03  0.77379328631E+03  0.10656815164E+04  0.15229391930E+04  0.50400001928E-02 0. -1.
</event>
<event>
 5   0  0.2532239E-06  0.2199740E+04  0.7818609E-02  0.8518536E-01
        2   -1    0    0  501    0  0.00000000000E+00  0.00000000000E+00  0.19778722849E+04  0.19778722849E+04  0.25500000920E-02 0. -1.
       -2   -1    0    0    0  501  0.00000000000E+00  0.00000000000E+00 -0.61162388617E+03  0.61162388618E+03  0.25500000920E-02 0.  1.
    10030    2    1    2    0    0  0.00000000000E+00  0.00000000000E+00  0.13662483988E+04  0.25894961711E+04  0.21997399240E+04 0.  0.
        3    1    3    3  502    0  0.43440294651E+03 -0.24611947419E+03 -0.47053496393E+03  0.68606404803E+03  0.10100000352E+00 0.  1.
       -3    1    3    3    0  502 -0.43440294651E+03  0.24611947419E+03  0.18367833627E+04  0.19034321231E+04  0.10100000352E+00 0. -1.
</event>
<event>
 5   0  0.2606154E-06  0.2195225E+04  0.7818609E-02  0.8520418E-01
        2   -1    0    0  501    0  0.00000000000E+00  0.00000000000E+00  0.19617731660E+04  0.19617731660E+04  0.25500000920E-02 0. -1.
       -2   -1    0    0    0  501  0.00000000000E+00  0.00000000000E+00 -0.61411419919E+03  0.61411419920E+03  0.25500000920E-02 0.  1.
    10030    2    1    2    0    0  0.00000000000E+00  0.00000000000E+00  0.13476589668E+04  0.25758873652E+04  0.21952245961E+04 0.  0.
        2    1    3    3  502    0 -0.28840407097E+03 -0.82805341686E+03  0.14485463850E+04  0.16932619404E+04  0.25500000920E-02 0. -1.
       -2    1    3    3    0  502  0.28840407097E+03  0.82805341686E+03 -0.10088741819E+03  0.88262542479E+03  0.25500000920E-02 0.  1.
</event>
<event>
 5   0  0.2581058E-06  0.2205719E+04  0.7818609E-02  0.8516052E-01
       -2   -1    0    0    0  501  0.00000000000E+00  0.00000000000E+00  0.12381097144E+04  0.12381097144E+04  0.25500000920E-02 0. -1.
        2   -1    0    0  501    0  0.00000000000E+00  0.00000000000E+00 -0.98238352865E+03  0.98238352865E+03  0.25500000920E-02 0.  1.
    10030    2    1    2    0    0  0.00000000000E+00  0.00000000000E+00  0.25572618578E+03  0.22204932431E+04  0.22057185588E+04 0.  0.
        1    1    3    3  502    0 -0.23777546649E+03 -0.74609347415E+03 -0.65393780258E+03  0.10202094365E+04  0.50400001928E-02 0.  1.
       -1    1    3    3    0  502  0.23777546649E+03  0.74609347415E+03  0.90966398836E+03  0.12002838066E+04  0.50400001928E-02 0. -1.
</event>
<event>
 5   0  0.2556869E-06  0.2200056E+04  0.7818609E-02  0.8518405E-01
       -2   -1    0    0    0  501  0.00000000000E+00  0.00000000000E+00  0.12681008636E+04  0.12681008636E+04  0.25500000920E-02 0.  1.
        2   -1    0    0  501    0  0.00000000000E+00  0.00000000000E+00 -0.95423144413E+03  0.95423144414E+03  0.25500000920E-02 0. -1.
    10030    2    1    2    0    0  0.00000000000E+00  0.00000000000E+00  0.31386941950E+03  0.22223323078E+04  0.22000561069E+04 0.  0.
        5    1    3    3  502    0 -0.70928866685E+02 -0.92922632122E+03 -0.43340308404E+03  0.10277902429E+04  0.46999998093E+01 0. -1.
       -5    1    3    3    0  502  0.70928866685E+02  0.92922632122E+03  0.74727250353E+03  0.11945420649E+04  0.46999998093E+01 0.  1.
</event>
<event>
 5   0  0.2606154E-06  0.2199974E+04  0.7818609E-02  0.8518439E-01
        2   -1    0    0  501    0  0.00000000000E+00  0.00000000000E+00  0.13794310988E+04  0.13794310988E+04  0.25500000920E-02 0. -1.
       -2   -1    0    0    0  501  0.00000000000E+00  0.00000000000E+00 -0.87715220212E+03  0.87715220213E+03  0.25500000920E-02 0.  1.
    10030    2    1    2    0    0  0.00000000000E+00  0.00000000000E+00  0.50227889670E+03  0.22565833009E+04  0.21999736599E+04 0.  0.
        2    1    3    3  502    0  0.98120264594E+03 -0.19978303959E+03  0.71815638345E+03  0.12322420567E+04  0.25500000920E-02 0. -1.
       -2    1    3    3    0  502 -0.98120264594E+03  0.19978303959E+03 -0.21587748675E+03  0.10243412442E+04  0.25500000920E-02 0.  1.
</event>
<event>
 5   0  0.1144271E-06  0.2199630E+04  0.7818609E-02  0.8518582E-01
       -1   -1    0    0    0  501  0.00000000000E+00  0.00000000000E+00  0.85824085376E+03  0.85824085377E+03  0.50400001928E-02 0.  1.
        1   -1    0    0  501    0  0.00000000000E+00  0.00000000000E+00 -0.14093863660E+04  0.14093863660E+04  0.50400001928E-02 0. -1.
    10030    2    1    2    0    0  0.00000000000E+00  0.00000000000E+00 -0.55114551220E+03  0.22676272197E+04  0.21996299307E+04 0.  0.
        3    1    3    3  502    0 -0.13935883292E+03  0.39552209904E+03  0.77258465912E+03  0.87905954340E+03  0.10100000352E+00 0.  1.
       -3    1    3    3    0  502  0.13935883292E+03 -0.39552209904E+03 -0.13237301713E+04  0.13885676763E+04  0.10100000352E+00 0. -1.
</event>
<event>
 5   0  0.1107101E-06  0.2200096E+04  0.7818609E-02  0.8518388E-01
       -1   -1    0    0    0  501  0.00000000000E+00  0.00000000000E+00  0.97317129491E+03  0.97317129492E+03  0.50400001928E-02 0.  1.
        1   -1    0    0  501    0  0.00000000000E+00  0.00000000000E+00 -0.12434666268E+04  0.12434666269E+04  0.50400001928E-02 0. -1.
    10030    2    1    2    0    0  0.00000000000E+00  0.00000000000E+00 -0.27029533194E+03  0.22166379218E+04  0.22000963865E+04 0.  0.
        1    1    3    3  502    0  0.57872464710E+03 -0.84508542077E+03 -0.53943065365E+03  0.11576169555E+04  0.50400001928E-02 0. -1.
       -1    1    3    3    0  502 -0.57872464710E+03  0.84508542077E+03  0.26913532171E+03  0.10590209663E+04  0.50400001928E-02 0.  1.
</event>
<event>
 5   0  0.2524749E-06  0.2200238E+04  0.7818609E-02  0.8518329E-01
       -2   -1    0    0    0  501  0.00000000000E+00  0.00000000000E+00  0.91612149243E+03  0.91612149244E+03  0.25500000920E-02 0.  1.
        2   -1    0    0  501    0  0.00000000000E+00  0.00000000000E+00 -0.13210716972E+04  0.13210716972E+04  0.25500000920E-02 0. -1.
    10030    2    1    2    0    0  0.00000000000E+00  0.00000000000E+00 -0.40495020477E+03  0.22371931896E+04  0.22002383279E+04 0.  0.
        4    1    3    3  502    0 -0.92160639448E+03 -0.59358291865E+03 -0.29655775711E+03  0.11356263223E+04  0.12699999809E+01 0. -1.
       -4    1    3    3    0  502  0.92160639448E+03  0.59358291865E+03 -0.10839244766E+03  0.11015668674E+04  0.12699999809E+01 0.  1.
</event>
<event>
 5   0  0.2556869E-06  0.2198657E+04  0.7818609E-02  0.8518987E-01
        2   -1    0    0  501    0  0.00000000000E+00  0.00000000000E+00  0.15829085656E+04  0.15829085656E+04  0.25500000920E-02 0.  1.
       -2   -1    0    0    0  501  0.00000000000E+00  0.00000000000E+00 -0.76348234227E+03  0.76348234227E+03  0.25500000920E-02 0. -1.
    10030    2    1    2    0    0  0.00000000000E+00  0.00000000000E+00  0.81942622332E+03  0.23463909079E+04  0.21986566255E+04 0.  0.
        5    1    3    3  502    0 -0.60117353661E+03  0.32997118422E+02 -0.57187368748E+03  0.83039751648E+03  0.46999998093E+01 0. -1.
       -5    1    3    3    0  502  0.60117353661E+03 -0.32997118422E+02  0.13912999108E+04  0.15159933914E+04  0.46999998093E+01 0.  1.
</event>
<event>
 5   0  0.2556869E-06  0.2199636E+04  0.7818609E-02  0.8518580E-01
        2   -1    0    0  501    0  0.00000000000E+00  0.00000000000E+00  0.87353602657E+03  0.87353602657E+03  0.25500000920E-02 0. -1.
       -2   -1    0    0    0  501  0.00000000000E+00  0.00000000000E+00 -0.13847161085E+04  0.13847161085E+04  0.25500000920E-02 0.  1.
    10030    2    1    2    0    0  0.00000000000E+00  0.00000000000E+00 -0.51118008197E+03  0.22582521351E+04  0.21996357948E+04 0.  0.
        5    1    3    3  502    0 -0.84067213948E+03 -0.64345557678E+03 -0.56154600528E+03  0.11983825480E+04  0.46999998093E+01 0.  1.
       -5    1    3    3    0  502  0.84067213948E+03  0.64345557678E+03  0.50365923309E+02  0.10598695871E+04  0.46999998093E+01 0. -1.
</event>
<event>
 5   0  0.1146827E-06  0.2198711E+04  0.7818609E-02  0.8518965E-01
        1   -1    0    0  501    0  0.00000000000E+00  0.00000000000E+00  0.10123753470E+04  0.10123753470E+04  0.50400001928E-02 0.  1.
       -1   -1    0    0    0  501  0.00000000000E+00  0.00000000000E+00 -0.11938081955E+04  0.11938081955E+04  0.50400001928E-02 0. -1.
    10030    2    1    2    0    0  0.00000000000E+00  0.00000000000E+00 -0.18143284849E+03  0.22061835425E+04  0.21987105186E+04 0.  0.
        4    1    3    3  502    0  0.61560078716E+03  0.88201430343E+03 -0.31879233716E+03  0.11218483533E+04  0.12699999809E+01 0. -1.
       -4    1    3    3    0  502 -0.61560078716E+03 -0.88201430343E+03  0.13735948867E+03  0.10843351892E+04  0.12699999809E+01 0.  1.
</event>
<event>
 5   0  0.1137869E-06  0.2199846E+04  0.7818609E-02  0.8518492E-01
        1   -1    0    0  501    0  0.00000000000E+00  0.00000000000E+00  0.18178782826E+04  0.18178782826E+04  0.50400001928E-02 0. -1.
       -1   -1    0    0    0  501  0.00000000000E+00  0.00000000000E+00 -0.66551787055E+03  0.66551787057E+03  0.50400001928E-02 0.  1.
    10030    2    1    2    0    0  0.00000000000E+00  0.00000000000E+00  0.11523604121E+04  0.24833961532E+04  0.21998458888E+04 0.  0.
        5    1    3    3  502    0 -0.93447943671E+03  0.29685030610E+03  0.11388601341E+04  0.15027961994E+04  0.46999998093E+01 0. -1.
       -5    1    3    3    0  502  0.93447943671E+03 -0.29685030610E+03  0.13500277960E+02  0.98059995379E+03  0.46999998093E+01 0.  1.
</event>
<event>
 5   0  0.2581058E-06  0.2197939E+04  0.7818609E-02  0.8519287E-01
        2   -1    0    0  501    0  0.00000000000E+00  0.00000000000E+00  0.17377044065E+04  0.17377044065E+04  0.25500000920E-02 0.  1.
       -2   -1    0    0    0  501  0.00000000000E+00  0.00000000000E+00 -0.69501677775E+03  0.69501677775E+03  0.25500000920E-02 0. -1.
    10030    2    1    2    0    0  0.00000000000E+00  0.00000000000E+00  0.10426876288E+04  0.24327211843E+04  0.21979387774E+04 0.  0.
        1    1    3    3  502    0  0.67786743845E+03  0.25224073083E+03 -0.39444742189E+03  0.82384368606E+03  0.50400001928E-02 0. -1.
       -1    1    3    3    0  502 -0.67786743845E+03 -0.25224073083E+03  0.14371350507E+04  0.16088774982E+04  0.50400001928E-02 0.  1.
</event>
<event>
 5   0  0.2524749E-06  0.2199705E+04  0.7818609E-02  0.8518551E-01
       -2   -1    0    0    0  501  0.00000000000E+00  0.00000000000E+00  0.71125445060E+03  0.71125445061E+03  0.25500000920E-02 0.  1.
        2   -1    0    0  501    0  0.00000000000E+00  0.00000000000E+00 -0.17007631422E+04  0.17007631422E+04  0.25500000920E-02 0. -1.
    10030    2    1    2    0    0  0.00000000000E+00  0.00000000000E+00 -0.98950869156E+03  0.24120175928E+04  0.21997048477E+04 0.  0.
        4    1    3    3  502    0  0.82659720865E+03  0.22143562812E+03  0.26285763049E+03  0.89520524437E+03  0.12699999809E+01 0. -1.
       -4    1    3    3    0  502 -0.82659720865E+03 -0.22143562812E+03 -0.12523663220E+04  0.15168123484E+04  0.12699999809E+01 0.  1.
</event>
<event>
 5   0  0.2606154E-06  0.2199621E+04  0.7818609E-02  0.8518586E-01
        2   -1    0    0  501    0  0.00000000000E+00  0.00000000000E+00  0.95785671064E+03  0.95785671064E+03  0.25500000920E-02 0.  1.
       -2   -1    0    0    0  501  0.00000000000E+00  0.00000000000E+00 -0.12628021107E+04  0.12628021107E+04  0.25500000920E-02 0. -1.
    10030    2    1    2    0    0  0.00000000000E+00  0.00000000000E+00 -0.30494540005E+03  0.22206588213E+04  0.21996213092E+04 0.  0.
        2    1    3    3  502    0  0.48004993583E+03  0.26778424747E+03 -0.11141731101E+04  0.12423920731E+04  0.25500000920E-02 0. -1.
       -2    1    3    3    0  502 -0.48004993583E+03 -0.26778424747E+03  0.80922771001E+03  0.97826674825E+03  0.25500000920E-02 0.  1.
</event>
<event>
 5   0  0.2606154E-06  0.2200045E+04  0.7818609E-02  0.8518409E-01
        2   -1    0    0  501    0  0.00000000000E+00  0.00000000000E+00  0.13748787778E+04  0.13748787779E+04  0.25500000920E-02 0.  1.
       -2   -1    0    0    0  501  0.00000000000E+00  0.00000000000E+00 -0.88011366125E+03  0.88011366125E+03  0.25500000920E-02 0. -1.
    10030    2    1    2    0    0  0.00000000000E+00  0.00000000000E+00  0.49476511660E+03  0.22549924391E+04  0.22000450859E+04 0.  0.
        2    1    3    3  502    0  0.32600977342E+03  0.66165482040E+03  0.10838405640E+04  0.13110224414E+04  0.25500000920E-02 0.  1.
       -2    1    3    3    0  502 -0.32600977342E+03 -0.66165482040E+03 -0.58907544743E+03  0.94396999766E+03  0.25500000920E-02 0. -1.
</event>
<event>
 5   0  0.1082209E-06  0.2200602E+04  0.7818609E-02  0.8518178E-01
       -1   -1    0    0    0  501  0.00000000000E+00  0.00000000000E+00  0.79419485599E+03  0.79419485600E+03  0.50400001928E-02 0.  1.
        1   -1    0    0  501    0  0.00000000000E+00  0.00000000000E+00 -0.15243888112E+04  0.15243888112E+04  0.50400001928E-02 0. -1.
    10030    2    1    2    0    0  0.00000000000E+00  0.00000000000E+00 -0.73019395516E+03  0.23185836672E+04  0.22006015108E+04 0.  0.
        2    1    3    3  502    0 -0.98885843560E+03 -0.82834063906E+02  0.13574006423E+03  0.10015627054E+04  0.25500000920E-02 0.  1.
       -2    1    3    3    0  502  0.98885843560E+03  0.82834063906E+02 -0.86593401940E+03  0.13170209618E+04  0.25500000920E-02 0. -1.
</event>
<event>
 5   0  0.1144271E-06  0.2196884E+04  0.7818609E-02  0.8519726E-01
       -1   -1    0    0    0  501  0.00000000000E+00  0.00000000000E+00  0.73023810305E+03  0.73023810307E+03  0.50400001928E-02 0. -1.
        1   -1    0    0  501    0  0.00000000000E+00  0.00000000000E+00 -0.16523034769E+04  0.16523034769E+04  0.50400001928E-02 0.  1.
    10030    2    1    2    0    0  0.00000000000E+00  0.00000000000E+00 -0.92206537386E+03  0.23825415800E+04  0.21968841177E+04 0.  0.
        3    1    3    3  502    0 -0.25573216784E+03 -0.10681501331E+04 -0.44453894327E+03  0.11848875604E+04  0.10100000352E+00 0.  1.
       -3    1    3    3    0  502  0.25573216784E+03  0.10681501331E+04 -0.47752643059E+03  0.11976540196E+04  0.10100000352E+00 0. -1.
</event>
<event>
 5   0  0.2556869E-06  0.2202598E+04  0.7818609E-02  0.8517348E-01
        2   -1    0    0  501    0  0.00000000000E+00  0.00000000000E+00  0.16834847007E+04  0.16834847007E+04  0.25500000920E-02 0. -1.
       -2   -1    0    0    0  501  0.00000000000E+00  0.00000000000E+00 -0.72044574855E+03  0.72044574856E+03  0.25500000920E-02 0.  1.
    10030    2    1    2    0    0  0.00000000000E+00  0.00000000000E+00  0.96303895219E+03  0.24039304493E+04  0.22025979165E+04 0.  0.
        5    1    3    3  502    0 -0.30518420637E+02 -0.77670089724E+03 -0.36994690998E+03  0.86085914294E+03  0.46999998093E+01 0.  1.
       -5    1    3    3    0  502  0.30518420637E+02  0.77670089724E+03  0.13329858622E+04  0.15430713064E+04  0.46999998093E+01 0. -1.
</event>
<event>
 5   0  0.2581058E-06  0.2201221E+04  0.7818609E-02  0.8517920E-01
        2   -1    0    0  501    0  0.00000000000E+00  0.00000000000E+00  0.10174923458E+04  0.10174923458E+04  0.25500000920E-02 0. -1.
       -2   -1    0    0    0  501  0.00000000000E+00  0.00000000000E+00 -0.11905188272E+04  0.11905188273E+04  0.25500000920E-02 0.  1.
    10030    2    1    2    0    0  0.00000000000E+00  0.00000000000E+00 -0.17302648149E+03  0.22080111730E+04  0.22012212921E+04 0.  0.
        1    1    3    3  502    0 -0.44377845991E+03 -0.78687894221E+03 -0.71712246164E+03  0.11534220460E+04  0.50400001928E-02 0.  1.
       -1    1    3    3    0  502  0.44377845991E+03  0.78687894221E+03  0.54409598016E+03  0.10545891270E+04  0.50400001928E-02 0. -1.
</event>
<event>
 5   0  0.1146827E-06  0.2199451E+04  0.7818609E-02  0.8518657E-01
        1   -1    0    0  501    0  0.00000000000E+00  0.00000000000E+00  0.10184994446E+04  0.10184994446E+04  0.50400001928E-02 0. -1.
       -1   -1    0    0    0  501  0.00000000000E+00  0.00000000000E+00 -0.11874294864E+04  0.11874294864E+04  0.50400001928E-02 0.  1.
    10030    2    1    2    0    0  0.00000000000E+00  0.00000000000E+00 -0.16893004185E+03  0.22059289310E+04  0.21994510882E+04 0.  0.
        4    1    3    3  502    0 -0.54909521258E+03 -0.58341808720E+03 -0.84001796453E+03  0.11608247114E+04  0.12699999809E+01 0.  1.
       -4    1    3    3    0  502  0.54909521258E+03  0.58341808720E+03  0.67108792268E+03  0.10451042196E+04  0.12699999809E+01 0. -1.
</event>
<event>
 5   0  0.1144271E-06  0.2197258E+04  0.7818609E-02  0.8519570E-01
        1   -1    0    0  501    0  0.00000000000E+00  0.00000000000E+00  0.17830194693E+04  0.17830194693E+04  0.50400001928E-02 0. -1.
       -1   -1    0    0    0  501  0.00000000000E+00  0.00000000000E+00 -0.67693357993E+03  0.67693357995E+03  0.50400001928E-02 0.  1.
    10030    2    1    2    0    0  0.00000000000E+00  0.00000000000E+00  0.11060858894E+04  0.24599530493E+04  0.21972580663E+04 0.  0.
        3    1    3    3  502    0 -0.79551062744E+03 -0.22286662747E+03 -0.25774974342E+03  0.86541413926E+03  0.10100000352E+00 0.  1.
       -3    1    3    3    0  502  0.79551062744E+03  0.22286662747E+03  0.13638356328E+04  0.15945389100E+04  0.10100000352E+00 0. -1.
</event>
<event>
 5   0  0.2556869E-06  0.2201767E+04  0.7818609E-02  0.8517693E-01
        2   -1    0    0  501    0  0.00000000000E+00  0.00000000000E+00  0.22213564064E+04  0.22213564064E+04  0.25500000920E-02 0. -1.
       -2   -1    0    0    0  501  0.00000000000E+00  0.00000000000E+00 -0.54558758301E+03  0.54558758302E+03  0.25500000920E-02 0.  1.
    10030    2    1    2    0    0  0.00000000000E+00  0.00000000000E+00  0.16757688234E+04  0.27669439894E+04  0.22017669929E+04 0.  0.
        5    1    3    3  502    0 -0.22584660490E+03  0.10355739790E+04  0.12117419250E+04  0.16098946356E+04  0.46999998093E+01 0. -1.
       -5    1    3    3    0  502  0.22584660490E+03 -0.10355739790E+04  0.46402689838E+03  0.11570493539E+04  0.46999998093E+01 0.  1.
</event>
<event>
 5   0  0.8905000E-07  0.2199618E+04  0.7818609E-02  0.8518587E-01
       -4   -1    0    0    0  501  0.00000000000E+00  0.00000000000E+00  0.10408482338E+04  0.10408490086E+04  0.12699999809E+01 0. -1.
        4   -1    0    0  501    0  0.00000000000E+00  0.00000000000E+00 -0.11621086472E+04  0.11621093411E+04  0.12699999809E+01 0.  1.
    10030    2    1    2    0    0  0.00000000000E+00  0.00000000000E+00 -0.12126041335E+03  0.22029583498E+04  0.21996184676E+04 0.  0.
        2    1    3    3  502    0  0.11451514244E+03  0.45006985371E+03 -0.10590911830E+04  0.11564388116E+04  0.25500000920E-02 0.  1.
       -2    1    3    3    0  502 -0.11451514244E+03 -0.45006985371E+03  0.93783076970E+03  0.10465195381E+04  0.25500000920E-02 0. -1.
</event>
<event>
 5   0  0.2606154E-06  0.2200324E+04  0.7818609E-02  0.8518293E-01
       -2   -1    0    0    0  501  0.00000000000E+00  0.00000000000E+00  0.98097512471E+03  0.98097512471E+03  0.25500000920E-02 0.  1.
        2   -1    0    0  501    0  0.00000000000E+00  0.00000000000E+00 -0.12338298882E+04  0.12338298882E+04  0.25500000920E-02 0. -1.
    10030    2    1    2    0    0  0.00000000000E+00  0.00000000000E+00 -0.25285476350E+03  0.22148050129E+04  0.22003240020E+04 0.  0.
        2    1    3    3  502    0  0.41605214606E+03 -0.89374629724E+03  0.36512513358E+03  0.10512840697E+04  0.25500000920E-02 0.  1.
       -2    1    3    3    0  502 -0.41605214606E+03  0.89374629724E+03 -0.61797989708E+03  0.11635209432E+04  0.25500000920E-02 0. -1.
</event>
<event>
 5   0  0.2524749E-06  0.2199865E+04  0.7818609E-02  0.8518484E-01
       -2   -1    0    0    0  501  0.00000000000E+00  0.00000000000E+00  0.78222660020E+03  0.78222660020E+03  0.25500000920E-02 0. -1.
        2   -1    0    0  501    0  0.00000000000E+00  0.00000000000E+00 -0.15466767606E+04  0.15466767606E+04  0.25500000920E-02 0.  1.
    10030    2    1    2    0    0  0.00000000000E+00  0.00000000000E+00 -0.76445016044E+03  0.23289033608E+04  0.21998651814E+04 0.  0.
        4    1    3    3  502    0  0.10363552980E+02 -0.79893714226E+03 -0.11825042813E+04  0.14271390783E+04  0.12699999809E+01 0.  1.
       -4    1    3    3    0  502 -0.10363552980E+02  0.79893714226E+03  0.41805412085E+03  0.90176428260E+03  0.12699999809E+01 0. -1.
</event>
<event>
 5   0  0.1107101E-06  0.2199640E+04  0.7818609E-02  0.8518578E-01
        1   -1    0    0  501    0  0.00000000000E+00  0.00000000000E+00  0.13503890362E+04  0.13503890362E+04  0.50400001928E-02 0. -1.
       -1   -1    0    0    0  501  0.00000000000E+00  0.00000000000E+00 -0.89574503662E+03  0.89574503664E+03  0.50400001928E-02 0.  1.
    10030    2    1    2    0    0  0.00000000000E+00  0.00000000000E+00  0.45464399961E+03  0.22461340729E+04  0.21996402222E+04 0.  0.
        1    1    3    3  502    0  0.93840519846E+03  0.15571677389E+03 -0.33639026163E+03  0.10089650332E+04  0.50400001928E-02 0. -1.
       -1    1    3    3    0  502 -0.93840519846E+03 -0.15571677389E+03  0.79103426123E+03  0.12371690396E+04  0.50400001928E-02 0.  1.
</event>
<event>
 5   0  0.1107101E-06  0.2198828E+04  0.7818609E-02  0.8518916E-01
       -1   -1    0    0    0  501  0.00000000000E+00  0.00000000000E+00  0.58633713304E+03  0.58633713306E+03  0.50400001928E-02 0. -1.
        1   -1    0    0  501    0  0.00000000000E+00  0.00000000000E+00 -0.20614616879E+04  0.20614616879E+04  0.50400001928E-02 0.  1.
    10030    2    1    2    0    0  0.00000000000E+00  0.00000000000E+00 -0.14751245548E+04  0.26477988210E+04  0.21988283571E+04 0.  0.
        1    1    3    3  502    0 -0.21874859302E+03  0.13433415076E+03 -0.20248677248E+04  0.20410746959E+04  0.50400001928E-02 0.  1.
       -1    1    3    3    0  502  0.21874859302E+03 -0.13433415076E+03  0.54974316998E+03  0.60672412510E+03  0.50400001928E-02 0. -1.
</event>
<event>
 5   0  0.1144271E-06  0.2199298E+04  0.7818609E-02  0.8518720E-01
        1   -1    0    0  501    0  0.00000000000E+00  0.00000000000E+00  0.16914440978E+04  0.16914440978E+04  0.50400001928E-02 0. -1.
       -1   -1    0    0    0  501  0.00000000000E+00  0.00000000000E+00 -0.71490846871E+03  0.71490846873E+03  0.50400001928E-02 0.  1.
    10030    2    1    2    0    0  0.00000000000E+00  0.00000000000E+00  0.97653562911E+03  0.24063525665E+04  0.21992978060E+04 0.  0.
        3    1    3    3  502    0 -0.70252242367E+03 -0.77782466190E+03  0.85227278931E+03  0.13508952136E+04  0.10100000352E+00 0.  1.
       -3    1    3    3    0  502  0.70252242367E+03  0.77782466190E+03  0.12426283980E+03  0.10554573530E+04  0.10100000352E+00 0. -1.
</event>
<event>
 5   0  0.2581058E-06  0.2203325E+04  0.7818609E-02  0.8517045E-01
        2   -1    0    0  501    0  0.00000000000E+00  0.00000000000E+00  0.27553601220E+04  0.27553601220E+04  0.25500000920E-02 0. -1.
       -2   -1    0    0    0  501  0.00000000000E+00  0.00000000000E+00 -0.44047256642E+03  0.44047256643E+03  0.25500000920E-02 0.  1.
    10030    2    1    2    0    0  0.00000000000E+00  0.00000000000E+00  0.23148875556E+04  0.31958326885E+04  0.22033252546E+04 0.  0.
        1    1    3    3  502    0 -0.90291510260E+03  0.63009985436E+03  0.11035804570E+04  0.15589006813E+04  0.50400001928E-02 0.  1.
       -1    1    3    3    0  502  0.90291510260E+03 -0.63009985436E+03  0.12113070986E+04  0.16369320072E+04  0.50400001928E-02 0. -1.
</event>
<event>
 5   0  0.8905000E-07  0.2200029E+04  0.7818609E-02  0.8518416E-01
       -3   -1    0    0    0  501  0.00000000000E+00  0.00000000000E+00  0.67318872112E+03  0.67318872869E+03  0.10100000352E+00 0.  1.
        3   -1    0    0  501    0  0.00000000000E+00  0.00000000000E+00 -0.17974639159E+04  0.17974639187E+04  0.10100000352E+00 0. -1.
    10030    2    1    2    0    0  0.00000000000E+00  0.00000000000E+00 -0.11242751948E+04  0.24706526474E+04  0.22000294977E+04 0.  0.
        5    1    3    3  502    0 -0.90714466506E+02  0.10480529483E+04 -0.92319195489E+03  0.13996247970E+04  0.46999998093E+01 0. -1.
       -5    1    3    3    0  502  0.90714466506E+02 -0.10480529483E+04 -0.20108323990E+03  0.10710278504E+04  0.46999998093E+01 0.  1.
</event>
<event>
 5   0  0.2524749E-06  0.2200058E+04  0.7818609E-02  0.8518404E-01
       -2   -1    0    0    0  501  0.00000000000E+00  0.00000000000E+00  0.73101102382E+03  0.73101102383E+03  0.25500000920E-02 0.  1.
        2   -1    0    0  501    0  0.00000000000E+00  0.00000000000E+00 -0.16553288261E+04  0.16553288261E+04  0.25500000920E-02 0. -1.
    10030    2    1    2    0    0  0.00000000000E+00  0.00000000000E+00 -0.92431780225E+03  0.23863398499E+04  0.22000578355E+04 0.  0.
        4    1    3    3  502    0  0.65776525734E+03  0.87605534139E+03 -0.57026703030E+03  0.12350442072E+04  0.12699999809E+01 0. -1.
       -4    1    3    3    0  502 -0.65776525734E+03 -0.87605534139E+03 -0.35405077196E+03  0.11512956427E+04  0.12699999809E+01 0.  1.
</event>
<event>
 5   0  0.1146827E-06  0.2199650E+04  0.7818609E-02  0.8518574E-01
        1   -1    0    0  501    0  0.00000000000E+00  0.00000000000E+00  0.19728680439E+04  0.19728680439E+04  0.50400001928E-02 0.  1.
       -1   -1    0    0    0  501  0.00000000000E+00  0.00000000000E+00 -0.61312507775E+03  0.61312507777E+03  0.50400001928E-02 0. -1.
    10030    2    1    2    0    0  0.00000000000E+00  0.00000000000E+00  0.13597429661E+04  0.25859931216E+04  0.21996498565E+04 0.  0.
        4    1    3    3  502    0  0.26470413344E+03 -0.10193640048E+04  0.10524617473E+04  0.14889085247E+04  0.12699999809E+01 0. -1.
       -4    1    3    3    0  502 -0.26470413344E+03  0.10193640048E+04  0.30728121883E+03  0.10970845969E+04  0.12699999809E+01 0.  1.
</event>
<event>
 5   0  0.1137869E-06  0.2200375E+04  0.7818609E-02  0.8518272E-01
       -1   -1    0    0    0  501  0.00000000000E+00  0.00000000000E+00  0.46677174253E+03  0.46677174256E+03  0.50400001928E-02 0.  1.
        1   -1    0    0  501    0  0.00000000000E+00  0.00000000000E+00 -0.25931570945E+04  0.25931570945E+04  0.50400001928E-02 0. -1.
    10030    2    1    2    0    0  0.00000000000E+00  0.00000000000E+00 -0.21263853520E+04  0.30599288371E+04  0.22003749278E+04 0.  0.
        5    1    3    3  502    0  0.31715936932E+03 -0.55614014707E+03 -0.23074138720E+04  0.23945903189E+04  0.46999998093E+01 0. -1.
       -5    1    3    3    0  502 -0.31715936932E+03  0.55614014707E+03  0.18102851999E+03  0.66533851819E+03  0.46999998093E+01 0.  1.
</event>
<event>
 5   0  0.2581058E-06  0.2198938E+04  0.7818609E-02  0.8518870E-01
        2   -1    0    0  501    0  0.00000000000E+00  0.00000000000E+00  0.13353769625E+04  0.13353769625E+04  0.25500000920E-02 0.  1.
       -2   -1    0    0    0  501  0.00000000000E+00  0.00000000000E+00 -0.90523684339E+03  0.90523684339E+03  0.25500000920E-02 0. -1.
    10030    2    1    2    0    0  0.00000000000E+00  0.00000000000E+00  0.43014011907E+03  0.22406138058E+04  0.21989383131E+04 0.  0.
        1    1    3    3  502    0 -0.16569649827E+02  0.20497078181E+03 -0.88546702637E+03  0.90903213887E+03  0.50400001928E-02 0. -1.
       -1    1    3    3    0  502  0.16569649827E+02 -0.20497078181E+03  0.13156071454E+04  0.13315816670E+04  0.50400001928E-02 0.  1.
</event>
<event>
 5   0  0.1144271E-06  0.2203912E+04  0.7818609E-02  0.8516802E-01
        1   -1    0    0  501    0  0.00000000000E+00  0.00000000000E+00  0.11712563195E+04  0.11712563195E+04  0.50400001928E-02 0. -1.
       -1   -1    0    0    0  501  0.00000000000E+00  0.00000000000E+00 -0.10367559830E+04  0.10367559830E+04  0.50400001928E-02 0.  1.
    10030    2    1    2    0    0  0.00000000000E+00  0.00000000000E+00  0.13450033649E+03  0.22080123026E+04  0.22039119737E+04 0.  0.
        3    1    3    3  502    0  0.54579990576E+03  0.86049790935E+03 -0.35299751959E+03  0.10784069029E+04  0.10100000352E+00 0.  1.
       -3    1    3    3    0  502 -0.54579990576E+03 -0.86049790935E+03  0.48749785607E+03  0.11296053997E+04  0.10100000352E+00 0. -1.
</event>
<event>
 5   0  0.2606154E-06  0.2194792E+04  0.7818609E-02  0.8520599E-01
       -2   -1    0    0    0  501  0.00000000000E+00  0.00000000000E+00  0.59656836400E+03  0.59656836401E+03  0.25500000920E-02 0. -1.
        2   -1    0    0  501    0  0.00000000000E+00  0.00000000000E+00 -0.20186764460E+04  0.20186764460E+04  0.25500000920E-02 0.  1.
    10030    2    1    2    0    0  0.00000000000E+00  0.00000000000E+00 -0.14221080820E+04  0.26152448101E+04  0.21947924776E+04 0.  0.
        2    1    3    3  502    0  0.60587216108E+03 -0.69481215566E+03 -0.14204460077E+04  0.16933729265E+04  0.25500000920E-02 0.  1.
       -2    1    3    3    0  502 -0.60587216108E+03  0.69481215566E+03 -0.16620742921E+01  0.92187188357E+03  0.25500000920E-02 0. -1.
</event>
<event>
 5   0  0.2606154E-06  0.2200465E+04  0.7818609E-02  0.8518235E-01
        2   -1    0    0  501    0  0.00000000000E+00  0.00000000000E+00  0.15780730379E+04  0.15780730379E+04  0.25500000920E-02 0. -1.
       -2   -1    0    0    0  501  0.00000000000E+00  0.00000000000E+00 -0.76708184304E+03  0.76708184304E+03  0.25500000920E-02 0.  1.
    10030    2    1    2    0    0  0.00000000000E+00  0.00000000000E+00  0.81099119486E+03  0.23451548809E+04  0.22004646549E+04 0.  0.
        2    1    3    3  502    0  0.75961283802E+03  0.36532452197E+03  0.11591260213E+04  0.14331946146E+04  0.25500000920E-02 0. -1.
       -2    1    3    3    0  502 -0.75961283802E+03 -0.36532452197E+03 -0.34813482642E+03  0.91196026636E+03  0.25500000920E-02 0.  1.
</event>
<event>
 5   0  0.2524749E-06  0.2201074E+04  0.7818609E-02  0.8517981E-01
       -2   -1    0    0    0  501  0.00000000000E+00  0.00000000000E+00  0.96630153232E+03  0.96630153232E+03  0.25500000920E-02 0. -1.
        2   -1    0    0  501    0  0.00000000000E+00  0.00000000000E+00 -0.12534196585E+04  0.12534196585E+04  0.25500000920E-02 0.  1.
    10030    2    1    2    0    0  0.00000000000E+00  0.00000000000E+00 -0.28711812613E+03  0.22197211908E+04  0.22010736804E+04 0.  0.
        4    1    3    3  502    0  0.43968111135E+03  0.62511748308E+03 -0.94215707153E+03  0.12131582369E+04  0.12699999809E+01 0.  1.
       -4    1    3    3    0  502 -0.43968111135E+03 -0.62511748308E+03  0.65503894540E+03  0.10065629539E+04  0.12699999809E+01 0. -1.
</event>
<event>
 5   0  0.2556869E-06  0.2201860E+04  0.7818609E-02  0.8517654E-01
       -2   -1    0    0    0  501  0.00000000000E+00  0.00000000000E+00  0.82345546229E+03  0.82345546230E+03  0.25500000920E-02 0.  1.
        2   -1    0    0  501    0  0.00000000000E+00  0.00000000000E+00 -0.14719029193E+04  0.14719029193E+04  0.25500000920E-02 0. -1.
    10030    2    1    2    0    0  0.00000000000E+00  0.00000000000E+00 -0.64844745703E+03  0.22953583816E+04  0.22018596675E+04 0.  0.
        5    1    3    3  502    0  0.54135439327E+03 -0.13552011147E+03  0.66507037908E+03  0.86819984961E+03  0.46999998093E+01 0.  1.
       -5    1    3    3    0  502 -0.54135439327E+03  0.13552011147E+03 -0.13135178361E+04  0.14271585320E+04  0.46999998093E+01 0. -1.
</event>
<event>
 5   0  0.2581058E-06  0.2201885E+04  0.7818609E-02  0.8517644E-01
        2   -1    0    0  501    0  0.00000000000E+00  0.00000000000E+00  0.23986354658E+04  0.23986354658E+04  0.25500000920E-02 0.  1.
       -2   -1    0    0    0  501  0.00000000000E+00  0.00000000000E+00 -0.50531832858E+03  0.50531832859E+03  0.25500000920E-02 0. -1.
    10030    2    1    2    0    0  0.00000000000E+00  0.00000000000E+00  0.18933171372E+04  0.29039537943E+04  0.22018850692E+04 0.  0.
        1    1    3    3  502    0 -0.48222530455E+03  0.50303247807E+03  0.20707725198E+04  0.21848756823E+04  0.50400001928E-02 0.  1.
       -1    1    3    3    0  502  0.48222530455E+03 -0.50303247807E+03 -0.17745538264E+03  0.71907811203E+03  0.50400001928E-02 0. -1.
</event>
<event>
 5   0  0.2556869E-06  0.2199992E+04  0.7818609E-02  0.8518431E-01
        2   -1    0    0  501    0  0.00000000000E+00  0.00000000000E+00  0.15404798341E+04  0.15404798341E+04  0.25500000920E-02 0.  1.
       -2   -1    0    0    0  501  0.00000000000E+00  0.00000000000E+00 -0.78546387034E+03  0.78546387034E+03  0.25500000920E-02 0. -1.
    10030    2    1    2    0    0  0.00000000000E+00  0.00000000000E+00  0.75501596375E+03  0.23259437044E+04  0.21999920479E+04 0.  0.
        5    1    3    3  502    0 -0.62753923217E+03  0.11570167627E+03 -0.56976574872E+03  0.85548083802E+03  0.46999998093E+01 0. -1.
       -5    1    3    3    0  502  0.62753923217E+03 -0.11570167627E+03  0.13247817125E+04  0.14704628664E+04  0.46999998093E+01 0.  1.
</event>
<event>
 5   0  0.1146827E-06  0.2199034E+04  0.7818609E-02  0.8518830E-01
       -1   -1    0    0    0  501  0.00000000000E+00  0.00000000000E+00  0.62172557607E+03  0.62172557609E+03  0.50400001928E-02 0.  1.
        1   -1    0    0  501    0  0.00000000000E+00  0.00000000000E+00 -0.19444881000E+04  0.19444881000E+04  0.50400001928E-02 0. -1.
    10030    2    1    2    0    0  0.00000000000E+00  0.00000000000E+00 -0.13227625239E+04  0.25662136760E+04  0.21990343191E+04 0.  0.
        4    1    3    3  502    0  0.33077079736E+03  0.73206248020E+03  0.21471284718E+03  0.83152150600E+03  0.12699999809E+01 0.  1.
       -4    1    3    3    0  502 -0.33077079736E+03 -0.73206248020E+03 -0.15374753711E+04  0.17346921700E+04  0.12699999809E+01 0. -1.
</event>
<event>
 5   0  0.1137869E-06  0.2198439E+04  0.7818609E-02  0.8519078E-01
        1   -1    0    0  501    0  0.00000000000E+00  0.00000000000E+00  0.84412573377E+03  0.84412573378E+03  0.50400001928E-02 0. -1.
       -1   -1    0    0    0  501  0.00000000000E+00  0.00000000000E+00 -0.14314017071E+04  0.14314017072E+04  0.50400001928E-02 0.  1.
    10030    2    1    2    0    0  0.00000000000E+00  0.00000000000E+00 -0.58727597337E+03  0.22755274409E+04  0.21984385517E+04 0.  0.
        5    1    3    3  502    0 -0.38505834563E+03  0.10114769270E+04 -0.94793827233E+02  0.10864453337E+04  0.46999998093E+01 0. -1.
       -5    1    3    3    0  502  0.38505834563E+03 -0.10114769270E+04 -0.49248214614E+03  0.11890821072E+04  0.46999998093E+01 0.  1.
</event>
<event>
 5   0  0.2524749E-06  0.2199258E+04  0.7818609E-02  0.8518737E-01
       -2   -1    0    0    0  501  0.00000000000E+00  0.00000000000E+00  0.76594374657E+03  0.76594374657E+03  0.25500000920E-02 0.  1.
        2   -1    0    0  501    0  0.00000000000E+00  0.00000000000E+00 -0.15786846101E+04  0.15786846101E+04  0.25500000920E-02 0. -1.
    10030    2    1    2    0    0  0.00000000000E+00  0.00000000000E+00 -0.81274086352E+03  0.23446283567E+04  0.21992576974E+04 0.  0.
        4    1    3    3  502    0 -0.84275269411E+03  0.18675650695E+03 -0.11326277583E+04  0.14240636742E+04  0.12699999809E+01 0. -1.
       -4    1    3    3    0  502  0.84275269411E+03 -0.18675650695E+03  0.31988689477E+03  0.92056468250E+03  0.12699999809E+01 0.  1.
</event>
<event>
 5   0  0.2606154E-06  0.2200329E+04  0.7818609E-02  0.8518291E-01
       -2   -1    0    0    0  501  0.00000000000E+00  0.00000000000E+00  0.46240230037E+03  0.46240230038E+03  0.25500000920E-02 0.  1.
        2   -1    0    0  501    0  0.00000000000E+00  0.00000000000E+00 -0.26175512965E+04  0.26175512965E+04  0.25500000920E-02 0. -1.
    10030    2    1    2    0    0  0.00000000000E+00  0.00000000000E+00 -0.21551489961E+04  0.30799535969E+04  0.22003288307E+04 0.  0.
        2    1    3    3  502    0  0.44667122048E+03 -0.94109288321E+02 -0.24787362653E+04  0.25204176658E+04  0.25500000920E-02 0. -1.
       -2    1    3    3    0  502 -0.44667122048E+03  0.94109288321E+02  0.32358726916E+03  0.55953593104E+03  0.25500000920E-02 0.  1.
</event>
<event>
 5   0  0.1137869E-06  0.2200029E+04  0.7818609E-02  0.8518416E-01
        1   -1    0    0  501    0  0.00000000000E+00  0.00000000000E+00  0.62262328485E+03  0.62262328487E+03  0.50400001928E-02 0.  1.
       -1   -1    0    0    0  501  0.00000000000E+00  0.00000000000E+00 -0.19434421402E+04  0.19434421402E+04  0.50400001928E-02 0. -1.
    10030    2    1    2    0    0  0.00000000000E+00  0.00000000000E+00 -0.13208188553E+04  0.25660654250E+04  0.22000293900E+04 0.  0.
        5    1    3    3  502    0  0.89897454542E+03  0.56829713334E+03 -0.98802120651E+03  0.14516627913E+04  0.46999998093E+01 0. -1.
       -5    1    3    3    0  502 -0.89897454542E+03 -0.56829713334E+03 -0.33279764881E+03  0.11144026338E+04  0.46999998093E+01 0.  1.
</event>
<event>
 5   0  0.1082209E-06  0.2199168E+04  0.7818609E-02  0.8518774E-01
        1   -1    0    0  501    0  0.00000000000E+00  0.00000000000E+00  0.15554172630E+04  0.15554172630E+04  0.50400001928E-02 0. -1.
       -1   -1    0    0    0  501  0.00000000000E+00  0.00000000000E+00 -0.77733805155E+03  0.77733805156E+03  0.50400001928E-02 0.  1.
    10030    2    1    2    0    0  0.00000000000E+00  0.00000000000E+00  0.77807921148E+03  0.23327553146E+04  0.21991680469E+04 0.  0.
        2    1    3    3  502    0  0.34663838811E+03  0.98607576095E+03  0.26858750473E+02  0.10455739911E+04  0.25500000920E-02 0.  1.
       -2    1    3    3    0  502 -0.34663838811E+03 -0.98607576095E+03  0.75122046101E+03  0.12871813235E+04  0.25500000920E-02 0. -1.
</event>
<event>
 5   0  0.2556869E-06  0.2201173E+04  0.7818609E-02  0.8517940E-01
        2   -1    0    0  501    0  0.00000000000E+00  0.00000000000E+00  0.11764790468E+04  0.11764790468E+04  0.25500000920E-02 0.  1.
       -2   -1    0    0    0  501  0.00000000000E+00  0.00000000000E+00 -0.10295895748E+04  0.10295895748E+04  0.25500000920E-02 0. -1.
    10030    2    1    2    0    0  0.00000000000E+00  0.00000000000E+00  0.14688947208E+03  0.22060686216E+04  0.22011729251E+04 0.  0.
        5    1    3    3  502    0 -0.10041080614E+04  0.16827532151E+03  0.49236829504E+03  0.11309280308E+04  0.46999998093E+01 0. -1.
       -5    1    3    3    0  502  0.10041080614E+04 -0.16827532151E+03 -0.34547882296E+03  0.10751405908E+04  0.46999998093E+01 0.  1.
</event>
<event>
 5   0  0.1082209E-06  0.2198803E+04  0.7818609E-02  0.8518926E-01
       -1   -1    0    0    0  501  0.00000000000E+00  0.00000000000E+00  0.14482211586E+04  0.14482211586E+04  0.50400001928E-02 0.  1.
        1   -1    0    0  501    0  0.00000000000E+00  0.00000000000E+00 -0.83459903674E+03  0.83459903675E+03  0.50400001928E-02 0. -1.
    10030    2    1    2    0    0  0.00000000000E+00  0.00000000000E+00  0.61362212186E+03  0.22828201954E+04  0.21988032963E+04 0.  0.
        2    1    3    3  502    0  0.11452770305E+03  0.13560315931E+03 -0.81962517164E+03  0.83862401204E+03  0.25500000920E-02 0. -1.
       -2    1    3    3    0  502 -0.11452770305E+03 -0.13560315931E+03  0.14332472935E+04  0.14441961833E+04  0.25500000920E-02 0.  1.
</event>
<event>
 5   0  0.1144271E-06  0.2200718E+04  0.7818609E-02  0.8518129E-01
       -1   -1    0    0    0  501  0.00000000000E+00  0.00000000000E+00  0.57036716412E+03  0.57036716414E+03  0.50400001928E-02 0.  1.
        1   -1    0    0  501    0  0.00000000000E+00  0.00000000000E+00 -0.21228252303E+04  0.21228252304E+04  0.50400001928E-02 0. -1.
    10030    2    1    2    0    0  0.00000000000E+00  0.00000000000E+00 -0.15524580662E+04  0.26931923945E+04  0.22007178889E+04 0.  0.
        3    1    3    3  502    0  0.96349644956E+03  0.31135025349E+03 -0.13033432175E+04  0.16504447708E+04  0.10100000352E+00 0. -1.
       -3    1    3    3    0  502 -0.96349644956E+03 -0.31135025349E+03 -0.24911484873E+03  0.10427476237E+04  0.10100000352E+00 0.  1.
</event>
<event>
 5   0  0.1107101E-06  0.2198915E+04  0.7818609E-02  0.8518880E-01
        1   -1    0    0  501    0  0.00000000000E+00  0.00000000000E+00  0.98936372721E+03  0.98936372722E+03  0.50400001928E-02 0.  1.
       -1   -1    0    0    0  501  0.00000000000E+00  0.00000000000E+00 -0.12218023516E+04  0.12218023516E+04  0.50400001928E-02 0. -1.
    10030    2    1    2    0    0  0.00000000000E+00  0.00000000000E+00 -0.23243862435E+03  0.22111660788E+04  0.21989151220E+04 0.  0.
        1    1    3    3  502    0 -0.27770794437E+02  0.58019335989E+03  0.82247569973E+03  0.10069070605E+04  0.50400001928E-02 0.  1.
       -1    1    3    3    0  502  0.27770794437E+02 -0.58019335989E+03 -0.10549143241E+04  0.12042590183E+04  0.50400001928E-02 0. -1.
</event>
<event>
 5   0  0.2581058E-06  0.2199332E+04  0.7818609E-02  0.8518706E-01
        2   -1    0    0  501    0  0.00000000000E+00  0.00000000000E+00  0.13944857040E+04  0.13944857040E+04  0.25500000920E-02 0. -1.
       -2   -1    0    0    0  501  0.00000000000E+00  0.00000000000E+00 -0.86717659472E+03  0.86717659472E+03  0.25500000920E-02 0.  1.
    10030    2    1    2    0    0  0.00000000000E+00  0.00000000000E+00  0.52730910926E+03  0.22616622987E+04  0.21993320478E+04 0.  0.
        1    1    3    3  502    0  0.64063088500E+03 -0.76293362557E+03  0.74245692788E+03  0.12424644613E+04  0.50400001928E-02 0. -1.
       -1    1    3    3    0  502 -0.64063088500E+03  0.76293362557E+03 -0.21514781862E+03  0.10191978374E+04  0.50400001928E-02 0.  1.
</event>
<event>
 5   0  0.2532239E-06  0.2202102E+04  0.7818609E-02  0.8517554E-01
       -2   -1    0    0    0  501  0.00000000000E+00  0.00000000000E+00  0.11171547245E+04  0.11171547245E+04  0.25500000920E-02 0.  1.
        2   -1    0    0  501    0  0.00000000000E+00  0.00000000000E+00 -0.10851797363E+04  0.10851797363E+04  0.25500000920E-02 0. -1.
    10030    2    1    2    0    0  0.00000000000E+00  0.00000000000E+00  0.31974988201E+02  0.22023344609E+04  0.22021023313E+04 0.  0.
        3    1    3    3  502    0  0.68093787754E+03 -0.22079749120E+03  0.85266741824E+03  0.11133147181E+04  0.10100000352E+00 0.  1.
       -3    1    3    3    0  502 -0.68093787754E+03  0.22079749120E+03 -0.82069243004E+03  0.10890197428E+04  0.10100000352E+00 0. -1.
</event>
<event>
 5   0  0.2556869E-06  0.2199257E+04  0.7818609E-02  0.8518737E-01
       -2   -1    0    0    0  501  0.00000000000E+00  0.00000000000E+00  0.58495469422E+03  0.58495469423E+03  0.25500000920E-02 0.  1.
        2   -1    0    0  501    0  0.00000000000E+00  0.00000000000E+00 -0.20671396168E+04  0.20671396168E+04  0.25500000920E-02 0. -1.
    10030    2    1    2    0    0  0.00000000000E+00  0.00000000000E+00 -0.14821849225E+04  0.26520943110E+04  0.21992571677E+04 0.  0.
        5    1    3    3  502    0 -0.25383335578E+03  0.70495100615E+03 -0.17116573654E+04  0.18684700480E+04  0.46999998093E+01 0. -1.
       -5    1    3    3    0  502  0.25383335578E+03 -0.70495100615E+03  0.22947244286E+03  0.78362426303E+03  0.46999998093E+01 0.  1.
</event>
<event>
 5   0  0.2524749E-06  0.2200094E+04  0.7818609E-02  0.8518389E-01
       -2   -1    0    0    0  501  0.00000000000E+00  0.00000000000E+00  0.57756989329E+03  0.57756989330E+03  0.25500000920E-02 0. -1.
        2   -1    0    0  501    0  0.00000000000E+00  0.00000000000E+00 -0.20951631386E+04  0.20951631386E+04  0.25500000920E-02 0.  1.
    10030    2    1    2    0    0  0.00000000000E+00  0.00000000000E+00 -0.15175932453E+04  0.26727330319E+04  0.22000937711E+04 0.  0.
        4    1    3    3  502    0  0.75992141037E+03 -0.79033920014E+03 -0.65024155133E+03  0.12747283198E+04  0.12699999809E+01 0. -1.
       -4    1    3    3    0  502 -0.75992141037E+03  0.79033920014E+03 -0.86735169395E+03  0.13980047121E+04  0.12699999809E+01 0.  1.
</event>
<event>
 5   0  0.2581058E-06  0.2201040E+04  0.7818609E-02  0.8517995E-01
       -2   -1    0    0    0  501  0.00000000000E+00  0.00000000000E+00  0.12181880542E+04  0.12181880542E+04  0.25500000920E-02 0.  1.
        2   -1    0    0  501    0  0.00000000000E+00  0.00000000000E+00 -0.99421768695E+03  0.99421768696E+03  0.25500000920E-02 0. -1.
    10030    2    1    2    0    0  0.00000000000E+00  0.00000000000E+00  0.22397036720E+03  0.22124057411E+04  0.22010398538E+04 0.  0.
        1    1    3    3  502    0 -0.54844564882E+03  0.16447942328E+02 -0.84692268224E+03  0.10091289285E+04  0.50400001928E-02 0. -1.
       -1    1    3    3    0  502  0.54844564882E+03 -0.16447942328E+02  0.10708930494E+04  0.12032768127E+04  0.50400001928E-02 0.  1.
</event>
<event>
 5   0  0.1082209E-06  0.2211198E+04  0.7818609E-02  0.8513782E-01
       -1   -1    0    0    0  501  0.00000000000E+00  0.00000000000E+00  0.17777883023E+04  0.17777883023E+04  0.50400001928E-02 0. -1.
        1   -1    0    0  501    0  0.00000000000E+00  0.00000000000E+00 -0.68756743711E+03  0.68756743713E+03  0.50400001928E-02 0.  1.
    10030    2    1    2    0    0  0.00000000000E+00  0.00000000000E+00  0.10902208652E+04  0.24653557394E+04  0.22111981790E+04 0.  0.
        2    1    3    3  502    0 -0.86775622085E+03  0.31152176823E+03 -0.13518883843E+03  0.93183834056E+03  0.25500000920E-02 0.  1.
       -2    1    3    3    0  502  0.86775622085E+03 -0.31152176823E+03  0.12254097036E+04  0.15335173988E+04  0.25500000920E-02 0. -1.
</event>
<event>
 5   0  0.1144271E-06  0.2194459E+04  0.7818609E-02  0.8520738E-01
       -1   -1    0    0    0  501  0.00000000000E+00  0.00000000000E+00  0.89985169569E+03  0.89985169570E+03  0.50400001928E-02 0. -1.
        1   -1    0    0  501    0  0.00000000000E+00  0.00000000000E+00 -0.13379014614E+04  0.13379014614E+04  0.50400001928E-02 0.  1.
    10030    2    1    2    0    0  0.00000000000E+00  0.00000000000E+00 -0.43804976570E+03  0.22377531571E+04  0.21944592944E+04 0.  0.
        3    1    3    3  502    0 -0.73995036230E+03 -0.29638274208E+03  0.54986924530E+03  0.96836225948E+03  0.10100000352E+00 0. -1.
       -3    1    3    3    0  502  0.73995036230E+03  0.29638274208E+03 -0.98791901099E+03  0.12693908976E+04  0.10100000352E+00 0.  1.
</event>
<event>
 5   0  0.2532239E-06  0.2196801E+04  0.7818609E-02  0.8519761E-01
        2   -1    0    0  501    0  0.00000000000E+00  0.00000000000E+00  0.24515553753E+04  0.24515553753E+04  0.25500000920E-02 0.  1.
       -2   -1    0    0    0  501  0.00000000000E+00  0.00000000000E+00 -0.49212967298E+03  0.49212967299E+03  0.25500000920E-02 0. -1.
    10030    2    1    2    0    0  0.00000000000E+00  0.00000000000E+00  0.19594257023E+04  0.29436850483E+04  0.21968005327E+04 0.  0.
        3    1    3    3  502    0 -0.19152320110E+03 -0.79250929620E+03  0.19659754555E+04  0.21283354113E+04  0.10100000352E+00 0.  1.
       -3    1    3    3    0  502  0.19152320110E+03  0.79250929620E+03 -0.65497531630E+01  0.81534963702E+03  0.10100000352E+00 0. -1.
</event>
<event>
 5   0  0.2532239E-06  0.2205153E+04  0.7818609E-02  0.8516286E-01
        2   -1    0    0  501    0  0.00000000000E+00  0.00000000000E+00  0.16022237880E+04  0.16022237880E+04  0.25500000920E-02 0. -1.
       -2   -1    0    0    0  501  0.00000000000E+00  0.00000000000E+00 -0.75874223531E+03  0.75874223531E+03  0.25500000920E-02 0.  1.
    10030    2    1    2    0    0  0.00000000000E+00  0.00000000000E+00  0.84348155273E+03  0.23609660233E+04  0.22051529275E+04 0.  0.
        3    1    3    3  502    0 -0.23807120369E+03  0.32237948937E+03  0.15214841022E+04  0.15733786311E+04  0.10100000352E+00 0. -1.
       -3    1    3    3    0  502  0.23807120369E+03 -0.32237948937E+03 -0.67800254948E+03  0.78758739229E+03  0.10100000352E+00 0.  1.
</event>
<event>
 5   0  0.1082209E-06  0.2200364E+04  0.7818609E-02  0.8518277E-01
        1   -1    0    0  501    0  0.00000000000E+00  0.00000000000E+00  0.17544676828E+04  0.17544676828E+04  0.50400001928E-02 0. -1.
       -1   -1    0    0    0  501  0.00000000000E+00  0.00000000000E+00 -0.68989580713E+03  0.68989580715E+03  0.50400001928E-02 0.  1.
    10030    2    1    2    0    0  0.00000000000E+00  0.00000000000E+00  0.10645718757E+04  0.24443634900E+04  0.22003635138E+04 0.  0.
        2    1    3    3  502    0  0.51346177955E+02  0.10044158849E+03  0.17480263059E+04  0.17516623273E+04  0.25500000920E-02 0. -1.
       -2    1    3    3    0  502 -0.51346177955E+02 -0.10044158849E+03 -0.68345443018E+03  0.69270116272E+03  0.25500000920E-02 0.  1.
</event>
<event>
 5   0  0.1107101E-06  0.2200122E+04  0.7818609E-02  0.8518377E-01
       -1   -1    0    0    0  501  0.00000000000E+00  0.00000000000E+00  0.12338465110E+04  0.12338465110E+04  0.50400001928E-02 0.  1.
        1   -1    0    0  501    0  0.00000000000E+00  0.00000000000E+00 -0.98078174885E+03  0.98078174886E+03  0.50400001928E-02 0. -1.
    10030    2    1    2    0    0  0.00000000000E+00  0.00000000000E+00  0.25306476212E+03  0.22146282599E+04  0.22001219411E+04 0.  0.
        1    1    3    3  502    0 -0.71368399270E+02 -0.84524592406E+03  0.83157905048E+03  0.11878795552E+04  0.50400001928E-02 0.  1.
       -1    1    3    3    0  502  0.71368399270E+02  0.84524592406E+03 -0.57851428836E+03  0.10267487046E+04  0.50400001928E-02 0. -1.
</event>
<event>
 5   0  0.2556869E-06  0.2201854E+04  0.7818609E-02  0.8517657E-01
       -2   -1    0    0    0  501  0.00000000000E+00  0.00000000000E+00  0.53248173177E+03  0.53248173178E+03  0.25500000920E-02 0.  1.
        2   -1    0    0  501    0  0.00000000000E+00  0.00000000000E+00 -0.22762094946E+04  0.22762094946E+04  0.25500000920E-02 0. -1.
    10030    2    1    2    0    0  0.00000000000E+00  0.00000000000E+00 -0.17437277629E+04  0.28086912264E+04  0.22018537405E+04 0.  0.
        5    1    3    3  502    0 -0.55431915807E+02  0.78953147069E+03 -0.18480004711E+04  0.20103632686E+04  0.46999998093E+01 0. -1.
       -5    1    3    3    0  502  0.55431915807E+02 -0.78953147069E+03  0.10427270829E+03  0.79832795779E+03  0.46999998093E+01 0.  1.
</event>
<event>
 5   0  0.1146827E-06  0.2200245E+04  0.7818609E-02  0.8518326E-01
       -1   -1    0    0    0  501  0.00000000000E+00  0.00000000000E+00  0.11947088028E+04  0.11947088028E+04  0.50400001928E-02 0. -1.
        1   -1    0    0  501    0  0.00000000000E+00  0.00000000000E+00 -0.10130246655E+04  0.10130246655E+04  0.50400001928E-02 0.  1.
    10030    2    1    2    0    0  0.00000000000E+00  0.00000000000E+00  0.18168413734E+03  0.22077334683E+04  0.22002449730E+04 0.  0.
        4    1    3    3  502    0 -0.10341206141E+04  0.69955837749E+02 -0.27915214388E+03  0.10734182764E+04  0.12699999809E+01 0.  1.
       -4    1    3    3    0  502  0.10341206141E+04 -0.69955837749E+02  0.46083628122E+03  0.11343151920E+04  0.12699999809E+01 0. -1.
</event>
<event>
 5   0  0.1107101E-06  0.2198527E+04  0.7818609E-02  0.8519042E-01
       -1   -1    0    0    0  501  0.00000000000E+00  0.00000000000E+00  0.88552954925E+03  0.88552954926E+03  0.50400001928E-02 0. -1.
        1   -1    0    0  501    0  0.00000000000E+00  0.00000000000E+00 -0.13645843267E+04  0.13645843267E+04  0.50400001928E-02 0.  1.
    10030    2    1    2    0    0  0.00000000000E+00  0.00000000000E+00 -0.47905477747E+03  0.22501138760E+04  0.21985265464E+04 0.  0.
        1    1    3    3  502    0 -0.79448352096E+03 -0.72278200875E+03 -0.47903086743E+03  0.11760478176E+04  0.50400001928E-02 0. -1.
       -1    1    3    3    0  502  0.79448352096E+03  0.72278200875E+03 -0.23910038509E-01  0.10740660584E+04  0.50400001928E-02 0.  1.
</event>
<event>
 5   0  0.2524749E-06  0.2200375E+04  0.7818609E-02  0.8518272E-01
       -2   -1    0    0    0  501  0.00000000000E+00  0.00000000000E+00  0.60299340275E+03  0.60299340275E+03  0.25500000920E-02 0.  1.
        2   -1    0    0  501    0  0.00000000000E+00  0.00000000000E+00 -0.20073391812E+04  0.20073391812E+04  0.25500000920E-02 0. -1.
    10030    2    1    2    0    0  0.00000000000E+00  0.00000000000E+00 -0.14043457784E+04  0.26103325839E+04  0.22003747711E+04 0.  0.
        4    1    3    3  502    0  0.72131305311E+03 -0.64959228576E+03 -0.87864454181E+02  0.97467144901E+03  0.12699999809E+01 0.  1.
       -4    1    3    3    0  502 -0.72131305311E+03  0.64959228576E+03 -0.13164813243E+04  0.16356611349E+04  0.12699999809E+01 0. -1.
</event>
<event>
 5   0  0.1144271E-06  0.2200033E+04  0.7818609E-02  0.8518414E-01
       -1   -1    0    0    0  501  0.00000000000E+00  0.00000000000E+00  0.12615247279E+04  0.12615247279E+04  0.50400001928E-02 0. -1.
        1   -1    0    0  501    0  0.00000000000E+00  0.00000000000E+00 -0.95918594264E+03  0.95918594265E+03  0.50400001928E-02 0.  1.
    10030    2    1    2    0    0  0.00000000000E+00  0.00000000000E+00  0.30233878527E+03  0.22207106706E+04  0.22000334409E+04 0.  0.
        3    1    3    3  502    0 -0.88008212946E+03  0.32771102030E+03 -0.42701224544E+03  0.10316387621E+04  0.10100000352E+00 0.  1.
       -3    1    3    3    0  502  0.88008212946E+03 -0.32771102030E+03  0.72935103070E+03  0.11890719085E+04  0.10100000352E+00 0. -1.
</event>
<event>
 5   0  0.1107101E-06  0.2199974E+04  0.7818609E-02  0.8518439E-01
       -1   -1    0    0    0  501  0.00000000000E+00  0.00000000000E+00  0.12459717014E+04  0.12459717015E+04  0.50400001928E-02 0. -1.
        1   -1    0    0  501    0  0.00000000000E+00  0.00000000000E+00 -0.97110701424E+03  0.97110701426E+03  0.50400001928E-02 0.  1.
    10030    2    1    2    0    0  0.00000000000E+00  0.00000000000E+00  0.27486468720E+03  0.22170787157E+04  0.21999744170E+04 0.  0.
        1    1    3    3  502    0 -0.56542539900E+03  0.62825235878E+03  0.84686924340E+03  0.11964925506E+04  0.50400001928E-02 0. -1.
       -1    1    3    3    0  502  0.56542539900E+03 -0.62825235878E+03 -0.57200455619E+03  0.10205861651E+04  0.50400001928E-02 0.  1.
</event>
<event>
 5   0  0.1107101E-06  0.2200225E+04  0.7818609E-02  0.8518334E-01
        1   -1    0    0  501    0  0.00000000000E+00  0.00000000000E+00  0.12072221405E+04  0.12072221405E+04  0.50400001928E-02 0. -1.
       -1   -1    0    0    0  501  0.00000000000E+00  0.00000000000E+00 -0.10025063919E+04  0.10025063919E+04  0.50400001928E-02 0.  1.
    10030    2    1    2    0    0  0.00000000000E+00  0.00000000000E+00  0.20471574866E+03  0.22097285324E+04  0.22002253633E+04 0.  0.
        1    1    3    3  502    0  0.20811152090E+03  0.46838896298E+03 -0.87526794108E+03  0.10142941361E+04  0.50400001928E-02 0.  1.
       -1    1    3    3    0  502 -0.20811152090E+03 -0.46838896298E+03  0.10799836897E+04  0.11954343963E+04  0.50400001928E-02 0. -1.
</event>
<event>
 5   0  0.1137869E-06  0.2201016E+04  0.7818609E-02  0.8518005E-01
        1   -1    0    0  501    0  0.00000000000E+00  0.00000000000E+00  0.15366574353E+04  0.15366574353E+04  0.50400001928E-02 0.  1.
       -1   -1    0    0    0  501  0.00000000000E+00  0.00000000000E+00 -0.78815089845E+03  0.78815089847E+03  0.50400001928E-02 0. -1.
    10030    2    1    2    0    0  0.00000000000E+00  0.00000000000E+00  0.74850653683E+03  0.23248083338E+04  0.22010160729E+04 0.  0.
        5    1    3    3  502    0  0.46493943400E+03 -0.31772588188E+03  0.13729352589E+04  0.14839446514E+04  0.46999998093E+01 0.  1.
       -5    1    3    3    0  502 -0.46493943400E+03  0.31772588188E+03 -0.62442872209E+03  0.84086368233E+03  0.46999998093E+01 0. -1.
</event>
<event>
 5   0  0.1137869E-06  0.2199708E+04  0.7818609E-02  0.8518550E-01
       -1   -1    0    0    0  501  0.00000000000E+00  0.00000000000E+00  0.99081922634E+03  0.99081922635E+03  0.50400001928E-02 0. -1.
        1   -1    0    0  501    0  0.00000000000E+00  0.00000000000E+00 -0.12208870250E+04  0.12208870250E+04  0.50400001928E-02 0.  1.
    10030    2    1    2    0    0  0.00000000000E+00  0.00000000000E+00 -0.23006779867E+03  0.22117062514E+04  0.21997075602E+04 0.  0.
        5    1    3    3  502    0  0.55134938532E+03 -0.73916791050E+03 -0.71772066141E+03  0.11685462688E+04  0.46999998093E+01 0.  1.
       -5    1    3    3    0  502 -0.55134938532E+03  0.73916791050E+03  0.48765286274E+03  0.10431599825E+04  0.46999998093E+01 0. -1.
</event>
<event>
 5   0  0.1082209E-06  0.2198601E+04  0.7818609E-02  0.8519011E-01
       -1   -1    0    0    0  501  0.00000000000E+00  0.00000000000E+00  0.89596771443E+03  0.89596771444E+03  0.50400001928E-02 0.  1.
        1   -1    0    0  501    0  0.00000000000E+00  0.00000000000E+00 -0.13487782296E+04  0.13487782296E+04  0.50400001928E-02 0. -1.
    10030    2    1    2    0    0  0.00000000000E+00  0.00000000000E+00 -0.45281051521E+03  0.22447459441E+04  0.21986011441E+04 0.  0.
        2    1    3    3  502    0  0.51805042059E+03  0.93565219422E+03 -0.48598633774E+03  0.11747357095E+04  0.25500000920E-02 0. -1.
       -2    1    3    3    0  502 -0.51805042059E+03 -0.93565219422E+03  0.33175822531E+02  0.10700102345E+04  0.25500000920E-02 0.  1.
</event>
<event>
 5   0  0.1082209E-06  0.2200505E+04  0.7818609E-02  0.8518218E-01
       -1   -1    0    0    0  501  0.00000000000E+00  0.00000000000E+00  0.74554270014E+03  0.74554270016E+03  0.50400001928E-02 0.  1.
        1   -1    0    0  501    0  0.00000000000E+00  0.00000000000E+00 -0.16237236798E+04  0.16237236798E+04  0.50400001928E-02 0. -1.
    10030    2    1    2    0    0  0.00000000000E+00  0.00000000000E+00 -0.87818097967E+03  0.23692663800E+04  0.22005047935E+04 0.  0.
        2    1    3    3  502    0 -0.27841395039E+03  0.95573323293E+03  0.65480838942E+02  0.99761118707E+03  0.25500000920E-02 0.  1.
       -2    1    3    3    0  502  0.27841395039E+03 -0.95573323293E+03 -0.94366181861E+03  0.13716551929E+04  0.25500000920E-02 0. -1.
</event>
<event>
 5   0  0.1082209E-06  0.2201015E+04  0.7818609E-02  0.8518006E-01
       -1   -1    0    0    0  501  0.00000000000E+00  0.00000000000E+00  0.16663370935E+04  0.16663370935E+04  0.50400001928E-02 0.  1.
        1   -1    0    0  501    0  0.00000000000E+00  0.00000000000E+00 -0.72681393209E+03  0.72681393211E+03  0.50400001928E-02 0. -1.
    10030    2    1    2    0    0  0.00000000000E+00  0.00000000000E+00  0.93952316139E+03  0.23931510256E+04  0.22010152341E+04 0.  0.
        2    1    3    3  502    0  0.23452520765E+03  0.10719274353E+04  0.56129157341E+03  0.12325091197E+04  0.25500000920E-02 0. -1.
       -2    1    3    3    0  502 -0.23452520765E+03 -0.10719274353E+04  0.37823158798E+03  0.11606419059E+04  0.25500000920E-02 0.  1.
</event>
<event>
 5   0  0.2556869E-06  0.2200264E+04  0.7818609E-02  0.8518318E-01
        2   -1    0    0  501    0  0.00000000000E+00  0.00000000000E+00  0.10938600764E+04  0.10938600764E+04  0.25500000920E-02 0. -1.
       -2   -1    0    0    0  501  0.00000000000E+00  0.00000000000E+00 -0.11064401074E+04  0.11064401074E+04  0.25500000920E-02 0.  1.
    10030    2    1    2    0    0  0.00000000000E+00  0.00000000000E+00 -0.12580030957E+02  0.22003001838E+04  0.22002642209E+04 0.  0.
        5    1    3    3  502    0 -0.44042860449E+02  0.69089562882E+02 -0.11033746855E+04  0.11064225811E+04  0.46999998093E+01 0.  1.
       -5    1    3    3    0  502  0.44042860449E+02 -0.69089562882E+02  0.10907946546E+04  0.10938776027E+04  0.46999998093E+01 0. -1.
</event>
<event>
 5   0  0.1107101E-06  0.2200900E+04  0.7818609E-02  0.8518054E-01
       -1   -1    0    0    0  501  0.00000000000E+00  0.00000000000E+00  0.15325811148E+04  0.15325811148E+04  0.50400001928E-02 0.  1.
        1   -1    0    0  501    0  0.00000000000E+00  0.00000000000E+00 -0.79016371948E+03  0.79016371950E+03  0.50400001928E-02 0. -1.
    10030    2    1    2    0    0  0.00000000000E+00  0.00000000000E+00  0.74241739527E+03  0.23227448343E+04  0.22008998106E+04 0.  0.
        1    1    3    3  502    0 -0.25820856857E+03 -0.85562844190E+03 -0.30637798707E+03  0.94479583321E+03  0.50400001928E-02 0. -1.
       -1    1    3    3    0  502  0.25820856857E+03  0.85562844190E+03  0.10487953823E+04  0.13779490011E+04  0.50400001928E-02 0.  1.
</event>
<event>
 5   0  0.8905000E-07  0.2199758E+04  0.7818609E-02  0.8518529E-01
        3   -1    0    0  501    0  0.00000000000E+00  0.00000000000E+00  0.89569201561E+03  0.89569202130E+03  0.10100000352E+00 0.  1.
       -3   -1    0    0    0  501  0.00000000000E+00  0.00000000000E+00 -0.13506139219E+04  0.13506139256E+04  0.10100000352E+00 0. -1.
    10030    2    1    2    0    0  0.00000000000E+00  0.00000000000E+00 -0.45492190626E+03  0.22463059470E+04  0.21997582746E+04 0.  0.
        4    1    3    3  502    0  0.29046286199E+03  0.35578997329E+03  0.79307493993E+03  0.91647403265E+03  0.12699999809E+01 0.  1.
       -4    1    3    3    0  502 -0.29046286199E+03 -0.35578997329E+03 -0.12479968462E+04  0.13298319143E+04  0.12699999809E+01 0. -1.
</event>
<event>
 5   0  0.2532239E-06  0.2198117E+04  0.7818609E-02  0.8519212E-01
       -2   -1    0    0    0  501  0.00000000000E+00  0.00000000000E+00  0.12140814484E+04  0.12140814484E+04  0.25500000920E-02 0. -1.
        2   -1    0    0  501    0  0.00000000000E+00  0.00000000000E+00 -0.99493263480E+03  0.99493263481E+03  0.25500000920E-02 0.  1.
    10030    2    1    2    0    0  0.00000000000E+00  0.00000000000E+00  0.21914881360E+03  0.22090140832E+04  0.21981166978E+04 0.  0.
        3    1    3    3  502    0 -0.41150934799E+03  0.72986262199E+03 -0.60521107665E+03  0.10335955921E+04  0.10100000352E+00 0.  1.
       -3    1    3    3    0  502  0.41150934799E+03 -0.72986262199E+03  0.82435989025E+03  0.11754184911E+04  0.10100000352E+00 0. -1.
</event>
<event>
 5   0  0.1146827E-06  0.2199583E+04  0.7818609E-02  0.8518602E-01
        1   -1    0    0  501    0  0.00000000000E+00  0.00000000000E+00  0.22681381565E+04  0.22681381565E+04  0.50400001928E-02 0.  1.
       -1   -1    0    0    0  501  0.00000000000E+00  0.00000000000E+00 -0.53327497634E+03  0.53327497637E+03  0.50400001928E-02 0. -1.
    10030    2    1    2    0    0  0.00000000000E+00  0.00000000000E+00  0.17348631801E+04  0.28014131329E+04  0.21995829803E+04 0.  0.
        4    1    3    3  502    0 -0.87869072891E+03 -0.64514606783E+02  0.29089598730E+02  0.88153692448E+03  0.12699999809E+01 0. -1.
       -4    1    3    3    0  502  0.87869072891E+03  0.64514606783E+02  0.17057735814E+04  0.19198762084E+04  0.12699999809E+01 0.  1.
</event>
<event>
 5   0  0.2524749E-06  0.2199661E+04  0.7818609E-02  0.8518569E-01
       -2   -1    0    0    0  501  0.00000000000E+00  0.00000000000E+00  0.81711034265E+03  0.81711034266E+03  0.25500000920E-02 0. -1.
        2   -1    0    0  501    0  0.00000000000E+00  0.00000000000E+00 -0.14803723629E+04  0.14803723629E+04  0.25500000920E-02 0.  1.
    10030    2    1    2    0    0  0.00000000000E+00  0.00000000000E+00 -0.66326202027E+03  0.22974827056E+04  0.21996614001E+04 0.  0.
        4    1    3    3  502    0  0.94467354436E+03  0.37374929592E+03 -0.77171083062E+03  0.12757883291E+04  0.12699999809E+01 0.  1.
       -4    1    3    3    0  502 -0.94467354436E+03 -0.37374929592E+03  0.10844881035E+03  0.10216943765E+04  0.12699999809E+01 0. -1.
</event>
<event>
 5   0  0.2581058E-06  0.2199321E+04  0.7818609E-02  0.8518711E-01
        2   -1    0    0  501    0  0.00000000000E+00  0.00000000000E+00  0.42702299949E+03  0.42702299950E+03  0.25500000920E-02 0.  1.
       -2   -1    0    0    0  501  0.00000000000E+00  0.00000000000E+00 -0.28318228469E+04  0.28318228469E+04  0.25500000920E-02 0. -1.
    10030    2    1    2    0    0  0.00000000000E+00  0.00000000000E+00 -0.24047998475E+04  0.32588458464E+04  0.21993212463E+04 0.  0.
        1    1    3    3  502    0  0.27223414967E+02 -0.98547758618E+03 -0.19242822011E+04  0.21621214528E+04  0.50400001928E-02 0. -1.
       -1    1    3    3    0  502 -0.27223414967E+02  0.98547758618E+03 -0.48051764640E+03  0.10967243937E+04  0.50400001928E-02 0.  1.
</event>
<event>
 5   0  0.1144271E-06  0.2199640E+04  0.7818609E-02  0.8518578E-01
       -1   -1    0    0    0  501  0.00000000000E+00  0.00000000000E+00  0.87223019648E+03  0.87223019649E+03  0.50400001928E-02 0.  1.
        1   -1    0    0  501    0  0.00000000000E+00  0.00000000000E+00 -0.13867945352E+04  0.13867945352E+04  0.50400001928E-02 0. -1.
    10030    2    1    2    0    0  0.00000000000E+00  0.00000000000E+00 -0.51456433868E+03  0.22590247317E+04  0.21996400341E+04 0.  0.
        3    1    3    3  502    0  0.34197022513E+03 -0.44488790045E+03  0.71415927393E+03  0.90823584910E+03  0.10100000352E+00 0.  1.
       -3    1    3    3    0  502 -0.34197022513E+03  0.44488790045E+03 -0.12287236126E+04  0.13507888826E+04  0.10100000352E+00 0. -1.
</event>
<event>
 5   0  0.2532239E-06  0.2200095E+04  0.7818609E-02  0.8518389E-01
       -2   -1    0    0    0  501  0.00000000000E+00  0.00000000000E+00  0.97575530740E+03  0.97575530740E+03  0.25500000920E-02 0. -1.
        2   -1    0    0  501    0  0.00000000000E+00  0.00000000000E+00 -0.12401718756E+04  0.12401718756E+04  0.25500000920E-02 0.  1.
    10030    2    1    2    0    0  0.00000000000E+00  0.00000000000E+00 -0.26441656822E+03  0.22159271830E+04  0.22000948068E+04 0.  0.
        3    1    3    3  502    0 -0.39703730564E+03  0.69195726021E+03  0.63064615734E+03  0.10169356214E+04  0.10100000352E+00 0. -1.
       -3    1    3    3    0  502  0.39703730564E+03 -0.69195726021E+03 -0.89506272556E+03  0.11989915617E+04  0.10100000352E+00 0.  1.
</event>
<event>
 5   0  0.1146827E-06  0.2201021E+04  0.7818609E-02  0.8518003E-01
       -1   -1    0    0    0  501  0.00000000000E+00  0.00000000000E+00  0.10399078319E+04  0.10399078319E+04  0.50400001928E-02 0. -1.
        1   -1    0    0  501    0  0.00000000000E+00  0.00000000000E+00 -0.11646447412E+04  0.11646447412E+04  0.50400001928E-02 0.  1.
    10030    2    1    2    0    0  0.00000000000E+00  0.00000000000E+00 -0.12473690937E+03  0.22045525731E+04  0.22010208429E+04 0.  0.
        4    1    3    3  502    0  0.19245427633E+03 -0.85805690382E+03  0.60037391486E+03  0.10647773238E+04  0.12699999809E+01 0. -1.
       -4    1    3    3    0  502 -0.19245427633E+03  0.85805690382E+03 -0.72511082424E+03  0.11397752493E+04  0.12699999809E+01 0.  1.
</event>
<event>
 5   0  0.2606154E-06  0.2198936E+04  0.7818609E-02  0.8518871E-01
       -2   -1    0    0    0  501  0.00000000000E+00  0.00000000000E+00  0.43564923747E+03  0.43564923748E+03  0.25500000920E-02 0.  1.
        2   -1    0    0  501    0  0.00000000000E+00  0.00000000000E+00 -0.27747778685E+04  0.27747778685E+04  0.25500000920E-02 0. -1.
    10030    2    1    2    0    0  0.00000000000E+00  0.00000000000E+00 -0.23391286310E+04  0.32104271059E+04  0.21989359814E+04 0.  0.
        2    1    3    3  502    0 -0.39061717012E+03  0.95699232516E+03 -0.62247895829E+03  0.12066052120E+04  0.25500000920E-02 0.  1.
       -2    1    3    3    0  502  0.39061717012E+03 -0.95699232516E+03 -0.17166496727E+04  0.20038218940E+04  0.25500000920E-02 0. -1.
</event>
<event>
 5   0  0.1146827E-06  0.2199945E+04  0.7818609E-02  0.8518451E-01
        1   -1    0    0  501    0  0.00000000000E+00  0.00000000000E+00  0.11956357297E+04  0.11956357297E+04  0.50400001928E-02 0. -1.
       -1   -1    0    0    0  501  0.00000000000E+00  0.00000000000E+00 -0.10119635786E+04  0.10119635786E+04  0.50400001928E-02 0.  1.
    10030    2    1    2    0    0  0.00000000000E+00  0.00000000000E+00  0.18367215104E+03  0.22075993083E+04  0.21999452827E+04 0.  0.
        4    1    3    3  502    0 -0.88717473796E+03 -0.65903164171E+02 -0.55734280154E+03  0.10497880043E+04  0.12699999809E+01 0.  1.
       -4    1    3    3    0  502  0.88717473796E+03  0.65903164171E+02  0.74101495258E+03  0.11578113040E+04  0.12699999809E+01 0. -1.
</event>
<event>
 5   0  0.1146827E-06  0.2199000E+04  0.7818609E-02  0.8518844E-01
       -1   -1    0    0    0  501  0.00000000000E+00  0.00000000000E+00  0.50810416660E+03  0.50810416663E+03  0.50400001928E-02 0.  1.
        1   -1    0    0  501    0  0.00000000000E+00  0.00000000000E+00 -0.23792375928E+04  0.23792375928E+04  0.50400001928E-02 0. -1.
    10030    2    1    2    0    0  0.00000000000E+00  0.00000000000E+00 -0.18711334262E+04  0.28873417594E+04  0.21990002585E+04 0.  0.
        4    1    3    3  502    0 -0.67952741643E+03  0.86377135590E+03 -0.97791977914E+03  0.14711176609E+04  0.12699999809E+01 0.  1.
       -4    1    3    3    0  502  0.67952741643E+03 -0.86377135590E+03 -0.89321364702E+03  0.14162240985E+04  0.12699999809E+01 0. -1.
</event>
<event>
 5   0  0.1082209E-06  0.2200763E+04  0.7818609E-02  0.8518111E-01
       -1   -1    0    0    0  501  0.00000000000E+00  0.00000000000E+00  0.60465891113E+03  0.60465891116E+03  0.50400001928E-02 0.  1.
        1   -1    0    0  501    0  0.00000000000E+00  0.00000000000E+00 -0.20025164482E+04  0.20025164482E+04  0.50400001928E-02 0. -1.
    10030    2    1    2    0    0  0.00000000000E+00  0.00000000000E+00 -0.13978575371E+04  0.26071753594E+04  0.22007629724E+04 0.  0.
        2    1    3    3  502    0 -0.30567734723E+03 -0.60225069115E+03 -0.17280882374E+04  0.18553796085E+04  0.25500000920E-02 0. -1.
       -2    1    3    3    0  502  0.30567734723E+03  0.60225069115E+03  0.33023070028E+03  0.75179575086E+03  0.25500000920E-02 0.  1.
</event>
<event>
 5   0  0.2606154E-06  0.2199402E+04  0.7818609E-02  0.8518677E-01
        2   -1    0    0  501    0  0.00000000000E+00  0.00000000000E+00  0.47452055328E+03  0.47452055329E+03  0.25500000920E-02 0. -1.
       -2   -1    0    0    0  501  0.00000000000E+00  0.00000000000E+00 -0.25485556847E+04  0.25485556847E+04  0.25500000920E-02 0.  1.
    10030    2    1    2    0    0  0.00000000000E+00  0.00000000000E+00 -0.20740351314E+04  0.30230762379E+04  0.21994017855E+04 0.  0.
        2    1    3    3  502    0 -0.10467631681E+04 -0.23455757826E+03 -0.13697817365E+04  0.17398368870E+04  0.25500000920E-02 0.  1.
       -2    1    3    3    0  502  0.10467631681E+04  0.23455757826E+03 -0.70425339484E+03  0.12832393509E+04  0.25500000920E-02 0. -1.
</event>
<event>
 5   0  0.2581058E-06  0.2200081E+04  0.7818609E-02  0.8518395E-01
        2   -1    0    0  501    0  0.00000000000E+00  0.00000000000E+00  0.11218202927E+04  0.11218202927E+04  0.25500000920E-02 0.  1.
       -2   -1    0    0    0  501  0.00000000000E+00  0.00000000000E+00 -0.10786831911E+04  0.10786831911E+04  0.25500000920E-02 0. -1.
    10030    2    1    2    0    0  0.00000000000E+00  0.00000000000E+00  0.43137101589E+02  0.22005034838E+04  0.22000806287E+04 0.  0.
        1    1    3    3  502    0 -0.59469277308E+02 -0.63229723405E+03 -0.87679799530E+03  0.10826408046E+04  0.50400001928E-02 0. -1.
       -1    1    3    3    0  502  0.59469277308E+02  0.63229723405E+03  0.91993509689E+03  0.11178626792E+04  0.50400001928E-02 0.  1.
</event>
<event>
 5   0  0.8905000E-07  0.2199678E+04  0.7818609E-02  0.8518562E-01
        4   -1    0    0  501    0  0.00000000000E+00  0.00000000000E+00  0.91747885174E+03  0.91747973072E+03  0.12699999809E+01 0. -1.
       -4   -1    0    0    0  501  0.00000000000E+00  0.00000000000E+00 -0.13184433006E+04  0.13184439123E+04  0.12699999809E+01 0.  1.
    10030    2    1    2    0    0  0.00000000000E+00  0.00000000000E+00 -0.40096444890E+03  0.22359236430E+04  0.21996777146E+04 0.  0.
        4    1    3    3  502    0 -0.44044252532E+03 -0.40366871031E+03  0.73815448563E+03  0.94963766951E+03  0.12699999809E+01 0. -1.
       -4    1    3    3    0  502  0.44044252532E+03  0.40366871031E+03 -0.11391189345E+04  0.12862859735E+04  0.12699999809E+01 0.  1.
</event>
<event>
 5   0  0.2581058E-06  0.2200007E+04  0.7818609E-02  0.8518425E-01
       -2   -1    0    0    0  501  0.00000000000E+00  0.00000000000E+00  0.63025932921E+03  0.63025932921E+03  0.25500000920E-02 0. -1.
        2   -1    0    0  501    0  0.00000000000E+00  0.00000000000E+00 -0.19198563251E+04  0.19198563251E+04  0.25500000920E-02 0.  1.
    10030    2    1    2    0    0  0.00000000000E+00  0.00000000000E+00 -0.12895969958E+04  0.25501156543E+04  0.22000066905E+04 0.  0.
        1    1    3    3  502    0  0.53227032077E+03 -0.77019575364E+03 -0.13141896943E+04  0.16135698764E+04  0.50400001928E-02 0.  1.
       -1    1    3    3    0  502 -0.53227032077E+03  0.77019575364E+03  0.24592698430E+02  0.93654577792E+03  0.50400001928E-02 0. -1.
</event>
<event>
 5   0  0.1107101E-06  0.2198482E+04  0.7818609E-02  0.8519060E-01
        1   -1    0    0  501    0  0.00000000000E+00  0.00000000000E+00  0.16668359598E+04  0.16668359599E+04  0.50400001928E-02 0.  1.
       -1   -1    0    0    0  501  0.00000000000E+00  0.00000000000E+00 -0.72492509235E+03  0.72492509237E+03  0.50400001928E-02 0. -1.
    10030    2    1    2    0    0  0.00000000000E+00  0.00000000000E+00  0.94191086750E+03  0.23917610522E+04  0.21984823967E+04 0.  0.
        1    1    3    3  502    0 -0.10469161347E+04 -0.56312298551E+02  0.11157006218E+03  0.10543492528E+04  0.50400001928E-02 0. -1.
       -1    1    3    3    0  502  0.10469161347E+04  0.56312298551E+02  0.83034080531E+03  0.13374117994E+04  0.50400001928E-02 0.  1.
</event>
<event>
 5   0  0.2556869E-06  0.2201585E+04  0.7818609E-02  0.8517769E-01
        2   -1    0    0  501    0  0.00000000000E+00  0.00000000000E+00  0.12353946967E+04  0.12353946967E+04  0.25500000920E-02 0. -1.
       -2   -1    0    0    0  501  0.00000000000E+00  0.00000000000E+00 -0.98085608532E+03  0.98085608532E+03  0.25500000920E-02 0.  1.
    10030    2    1    2    0    0  0.00000000000E+00  0.00000000000E+00  0.25453861138E+03  0.22162507820E+04  0.22015852525E+04 0.  0.
        5    1    3    3  502    0  0.69465428317E+03 -0.65671680736E+03 -0.42216935271E+03  0.10450218134E+04  0.46999998093E+01 0.  1.
       -5    1    3    3    0  502 -0.69465428317E+03  0.65671680736E+03  0.67670796410E+03  0.11712289686E+04  0.46999998093E+01 0. -1.
</event>
<event>
 5   0  0.8905000E-07  0.2199777E+04  0.7818609E-02  0.8518521E-01
       -3   -1    0    0    0  501  0.00000000000E+00  0.00000000000E+00  0.86360977600E+03  0.86360978190E+03  0.10100000352E+00 0.  1.
        3   -1    0    0  501    0  0.00000000000E+00  0.00000000000E+00 -0.14008120036E+04  0.14008120073E+04  0.10100000352E+00 0. -1.
    10030    2    1    2    0    0  0.00000000000E+00  0.00000000000E+00 -0.53720222762E+03  0.22644217892E+04  0.21997772173E+04 0.  0.
        5    1    3    3  502    0 -0.51860639723E+03 -0.21089021715E+03 -0.12431568365E+04  0.13634105358E+04  0.46999998093E+01 0. -1.
       -5    1    3    3    0  502  0.51860639723E+03  0.21089021715E+03  0.70595460888E+03  0.90101125339E+03  0.46999998093E+01 0.  1.
</event>
<event>
 5   0  0.2524749E-06  0.2199886E+04  0.7818609E-02  0.8518476E-01
        2   -1    0    0  501    0  0.00000000000E+00  0.00000000000E+00  0.13027954829E+04  0.13027954829E+04  0.25500000920E-02 0.  1.
       -2   -1    0    0    0  501  0.00000000000E+00  0.00000000000E+00 -0.92867558543E+03  0.92867558543E+03  0.25500000920E-02 0. -1.
    10030    2    1    2    0    0  0.00000000000E+00  0.00000000000E+00  0.37411989747E+03  0.22314710683E+04  0.21998857768E+04 0.  0.
        4    1    3    3  502    0  0.40950130848E+03 -0.26265303719E+03 -0.81361037339E+03  0.94796697842E+03  0.12699999809E+01 0. -1.
       -4    1    3    3    0  502 -0.40950130848E+03  0.26265303719E+03  0.11877302709E+04  0.12835040899E+04  0.12699999809E+01 0.  1.
</event>
<event>
 5   0  0.2524749E-06  0.2200405E+04  0.7818609E-02  0.8518260E-01
       -2   -1    0    0    0  501  0.00000000000E+00  0.00000000000E+00  0.80731964920E+03  0.80731964921E+03  0.25500000920E-02 0.  1.
        2   -1    0    0  501    0  0.00000000000E+00  0.00000000000E+00 -0.14993385261E+04  0.14993385261E+04  0.25500000920E-02 0. -1.
    10030    2    1    2    0    0  0.00000000000E+00  0.00000000000E+00 -0.69201887685E+03  0.23066581753E+04  0.22004049199E+04 0.  0.
        4    1    3    3  502    0 -0.53938266576E+03 -0.59153318128E+03  0.44515201382E+03  0.91597330364E+03  0.12699999809E+01 0.  1.
       -4    1    3    3    0  502  0.53938266576E+03  0.59153318128E+03 -0.11371708907E+04  0.13906848716E+04  0.12699999809E+01 0. -1.
</event>
<event>
 5   0  0.1082209E-06  0.2194830E+04  0.7818609E-02  0.8520583E-01
       -1   -1    0    0    0  501  0.00000000000E+00  0.00000000000E+00  0.10230494781E+04  0.10230494781E+04  0.50400001928E-02 0.  1.
        1   -1    0    0  501    0  0.00000000000E+00  0.00000000000E+00 -0.11771858392E+04  0.11771858392E+04  0.50400001928E-02 0. -1.
    10030    2    1    2    0    0  0.00000000000E+00  0.00000000000E+00 -0.15413636112E+03  0.22002353173E+04  0.21948297049E+04 0.  0.
        2    1    3    3  502    0  0.42998796286E+03 -0.50194077586E+03  0.80115176796E+03  0.10385944088E+04  0.25500000920E-02 0.  1.
       -2    1    3    3    0  502 -0.42998796286E+03  0.50194077586E+03 -0.95528812907E+03  0.11616409085E+04  0.25500000920E-02 0. -1.
</event>
<event>
 5   0  0.1144271E-06  0.2199207E+04  0.7818609E-02  0.8518758E-01
        1   -1    0    0  501    0  0.00000000000E+00  0.00000000000E+00  0.22683742357E+04  0.22683742357E+04  0.50400001928E-02 0. -1.
       -1   -1    0    0    0  501  0.00000000000E+00  0.00000000000E+00 -0.53303711201E+03  0.53303711204E+03  0.50400001928E-02 0.  1.
    10030    2    1    2    0    0  0.00000000000E+00  0.00000000000E+00  0.17353371237E+04  0.28014113478E+04  0.21992068130E+04 0.  0.
        3    1    3    3  502    0 -0.74436620243E+01  0.32140141805E+03  0.22071721245E+04  0.22304625254E+04  0.10100000352E+00 0. -1.
       -3    1    3    3    0  502  0.74436620243E+01 -0.32140141805E+03 -0.47183500080E+03  0.57094882241E+03  0.10100000352E+00 0.  1.
</event>
<event>
 5   0  0.1137869E-06  0.2204791E+04  0.7818609E-02  0.8516437E-01
       -1   -1    0    0    0  501  0.00000000000E+00  0.00000000000E+00  0.59863890728E+03  0.59863890730E+03  0.50400001928E-02 0. -1.
        1   -1    0    0  501    0  0.00000000000E+00  0.00000000000E+00 -0.20300640902E+04  0.20300640902E+04  0.50400001928E-02 0.  1.
    10030    2    1    2    0    0  0.00000000000E+00  0.00000000000E+00 -0.14314251829E+04  0.26287029975E+04  0.22047905558E+04 0.  0.
        5    1    3    3  502    0  0.94801736849E+03  0.94551614278E+02 -0.13769396673E+04  0.16744138903E+04  0.46999998093E+01 0.  1.
       -5    1    3    3    0  502 -0.94801736849E+03 -0.94551614278E+02 -0.54485515659E+02  0.95428910721E+03  0.46999998093E+01 0. -1.
</event>
<event>
 5   0  0.2524749E-06  0.2200120E+04  0.7818609E-02  0.8518378E-01
        2   -1    0    0  501    0  0.00000000000E+00  0.00000000000E+00  0.26125327327E+04  0.26125327327E+04  0.25500000920E-02 0. -1.
       -2   -1    0    0    0  501  0.00000000000E+00  0.00000000000E+00 -0.46320255672E+03  0.46320255672E+03  0.25500000920E-02 0.  1.
    10030    2    1    2    0    0  0.00000000000E+00  0.00000000000E+00  0.21493301759E+04  0.30757352894E+04  0.22001198524E+04 0.  0.
        4    1    3    3  502    0  0.63019447363E+03 -0.18168255628E+02 -0.18558210806E+03  0.65720429992E+03  0.12699999809E+01 0.  1.
       -4    1    3    3    0  502 -0.63019447363E+03  0.18168255628E+02  0.23349122840E+04  0.24185309895E+04  0.12699999809E+01 0. -1.
</event>
<event>
 5   0  0.2556869E-06  0.2201095E+04  0.7818609E-02  0.8517973E-01
       -2   -1    0    0    0  501  0.00000000000E+00  0.00000000000E+00  0.87182475895E+03  0.87182475896E+03  0.25500000920E-02 0. -1.
        2   -1    0    0  501    0  0.00000000000E+00  0.00000000000E+00 -0.13892754732E+04  0.13892754732E+04  0.25500000920E-02 0.  1.
    10030    2    1    2    0    0  0.00000000000E+00  0.00000000000E+00 -0.51745071425E+03  0.22611002322E+04  0.22010949589E+04 0.  0.
        5    1    3    3  502    0 -0.64750818629E+03 -0.88857771297E+03 -0.30847559576E+03  0.11419354126E+04  0.46999998093E+01 0.  1.
       -5    1    3    3    0  502  0.64750818629E+03  0.88857771297E+03 -0.20897511849E+03  0.11191648196E+04  0.46999998093E+01 0. -1.
</event>
<event>
 5   0  0.2581058E-06  0.2198354E+04  0.7818609E-02  0.8519114E-01
        2   -1    0    0  501    0  0.00000000000E+00  0.00000000000E+00  0.21107522779E+04  0.21107522779E+04  0.25500000920E-02 0.  1.
       -2   -1    0    0    0  501  0.00000000000E+00  0.00000000000E+00 -0.57239767255E+03  0.57239767255E+03  0.25500000920E-02 0. -1.
    10030    2    1    2    0    0  0.00000000000E+00  0.00000000000E+00  0.15383546053E+04  0.26831499504E+04  0.21983536487E+04 0.  0.
        1    1    3    3  502    0  0.42661973508E+03  0.22968855971E+03  0.19733794717E+04  0.20319910856E+04  0.50400001928E-02 0.  1.
       -1    1    3    3    0  502 -0.42661973508E+03 -0.22968855971E+03 -0.43502486636E+03  0.65115886479E+03  0.50400001928E-02 0. -1.
</event>
<event>
 5   0  0.2581058E-06  0.2199550E+04  0.7818609E-02  0.8518615E-01
        2   -1    0    0  501    0  0.00000000000E+00  0.00000000000E+00  0.14069596469E+04  0.14069596469E+04  0.25500000920E-02 0.  1.
       -2   -1    0    0    0  501  0.00000000000E+00  0.00000000000E+00 -0.85965857499E+03  0.85965857499E+03  0.25500000920E-02 0. -1.
    10030    2    1    2    0    0  0.00000000000E+00  0.00000000000E+00  0.54730107191E+03  0.22666182219E+04  0.21995498859E+04 0.  0.
        1    1    3    3  502    0 -0.57804831803E+03 -0.88179192018E+03  0.59592947032E+03  0.12111270710E+04  0.50400001928E-02 0. -1.
       -1    1    3    3    0  502  0.57804831803E+03  0.88179192018E+03 -0.48628398403E+02  0.10554911509E+04  0.50400001928E-02 0.  1.
</event>
<event>
 5   0  0.1137869E-06  0.2200499E+04  0.7818609E-02  0.8518221E-01
       -1   -1    0    0    0  501  0.00000000000E+00  0.00000000000E+00  0.10488403368E+04  0.10488403368E+04  0.50400001928E-02 0. -1.
        1   -1    0    0  501    0  0.00000000000E+00  0.00000000000E+00 -0.11541780587E+04  0.11541780587E+04  0.50400001928E-02 0.  1.
    10030    2    1    2    0    0  0.00000000000E+00  0.00000000000E+00 -0.10533772190E+03  0.22030183954E+04  0.22004985833E+04 0.  0.
        5    1    3    3  502    0 -0.71902106064E+03 -0.23707589603E+03 -0.85191263425E+03  0.11397251829E+04  0.46999998093E+01 0.  1.
       -5    1    3    3    0  502  0.71902106064E+03  0.23707589603E+03  0.74657491234E+03  0.10632932126E+04  0.46999998093E+01 0. -1.
</event>
<event>
 5   0  0.1137869E-06  0.2198829E+04  0.7818609E-02  0.8518916E-01
       -1   -1    0    0    0  501  0.00000000000E+00  0.00000000000E+00  0.60383738779E+03  0.60383738781E+03  0.50400001928E-02 0. -1.
        1   -1    0    0  501    0  0.00000000000E+00  0.00000000000E+00 -0.20017175854E+04  0.20017175854E+04  0.50400001928E-02 0.  1.
    10030    2    1    2    0    0  0.00000000000E+00  0.00000000000E+00 -0.13978801976E+04  0.26055549732E+04  0.21988287045E+04 0.  0.
        5    1    3    3  502    0  0.35134463800E+03 -0.47537093129E+03  0.39949266418E+03  0.71346832845E+03  0.46999998093E+01 0. -1.
       -5    1    3    3    0  502 -0.35134463800E+03  0.47537093129E+03 -0.17973728618E+04  0.18920866447E+04  0.46999998093E+01 0.  1.
</event>
<event>
 5   0  0.2524749E-06  0.2202592E+04  0.7818609E-02  0.8517350E-01
        2   -1    0    0  501    0  0.00000000000E+00  0.00000000000E+00  0.21150660420E+04  0.21150660420E+04  0.25500000920E-02 0. -1.
       -2   -1    0    0    0  501  0.00000000000E+00  0.00000000000E+00 -0.57343509966E+03  0.57343509966E+03  0.25500000920E-02 0.  1.
    10030    2    1    2    0    0  0.00000000000E+00  0.00000000000E+00  0.15416309423E+04  0.26885011417E+04  0.22025922061E+04 0.  0.
        4    1    3    3  502    0  0.92451426170E+03  0.24109799773E+03  0.10226482254E+03  0.96089259100E+03  0.12699999809E+01 0.  1.
       -4    1    3    3    0  502 -0.92451426170E+03 -0.24109799773E+03  0.14393661198E+04  0.17276085507E+04  0.12699999809E+01 0. -1.
</event>
<event>
 5   0  0.1146827E-06  0.2199559E+04  0.7818609E-02  0.8518612E-01
        1   -1    0    0  501    0  0.00000000000E+00  0.00000000000E+00  0.89767991118E+03  0.89767991120E+03  0.50400001928E-02 0. -1.
       -1   -1    0    0    0  501  0.00000000000E+00  0.00000000000E+00 -0.13473785575E+04  0.13473785575E+04  0.50400001928E-02 0.  1.
    10030    2    1    2    0    0  0.00000000000E+00  0.00000000000E+00 -0.44969864633E+03  0.22450584687E+04  0.21995587411E+04 0.  0.
        4    1    3    3  502    0 -0.20663724302E+03  0.12137146734E+03 -0.13204038260E+04  0.13419753574E+04  0.12699999809E+01 0.  1.
       -4    1    3    3    0  502  0.20663724302E+03 -0.12137146734E+03  0.87070517962E+03  0.90308311135E+03  0.12699999809E+01 0. -1.
</event>
<event>
 5   0  0.2524749E-06  0.2200085E+04  0.7818609E-02  0.8518393E-01
       -2   -1    0    0    0  501  0.00000000000E+00  0.00000000000E+00  0.61171405784E+03  0.61171405784E+03  0.25500000920E-02 0.  1.
        2   -1    0    0  501    0  0.00000000000E+00  0.00000000000E+00 -0.19782019592E+04  0.19782019592E+04  0.25500000920E-02 0. -1.
    10030    2    1    2    0    0  0.00000000000E+00  0.00000000000E+00 -0.13664879014E+04  0.25899160170E+04  0.22000854053E+04 0.  0.
        4    1    3    3  502    0  0.93788762428E+02 -0.37627488998E+03 -0.18950700883E+04  0.19343400366E+04  0.12699999809E+01 0. -1.
       -4    1    3    3    0  502 -0.93788762428E+02  0.37627488998E+03  0.52858218697E+03  0.65557598039E+03  0.12699999809E+01 0.  1.
</event>
<event>
 5   0  0.1144271E-06  0.2199744E+04  0.7818609E-02  0.8518534E-01
       -1   -1    0    0    0  501  0.00000000000E+00  0.00000000000E+00  0.86979723690E+03  0.86979723691E+03  0.50400001928E-02 0.  1.
        1   -1    0    0  501    0  0.00000000000E+00  0.00000000000E+00 -0.13908056635E+04  0.13908056635E+04  0.50400001928E-02 0. -1.
    10030    2    1    2    0    0  0.00000000000E+00  0.00000000000E+00 -0.52100842658E+03  0.22606029004E+04  0.21997444608E+04 0.  0.
        3    1    3    3  502    0 -0.80804613497E+03  0.74560867914E+03 -0.23057716483E+03  0.11234040670E+04  0.10100000352E+00 0.  1.
       -3    1    3    3    0  502  0.80804613497E+03 -0.74560867914E+03 -0.29043126176E+03  0.11371988334E+04  0.10100000352E+00 0. -1.
</event>
<event>
 5   0  0.1146827E-06  0.2200798E+04  0.7818609E-02  0.8518096E-01
       -1   -1    0    0    0  501  0.00000000000E+00  0.00000000000E+00  0.13995487232E+04  0.13995487232E+04  0.50400001928E-02 0. -1.
        1   -1    0    0  501    0  0.00000000000E+00  0.00000000000E+00 -0.86519169287E+03  0.86519169288E+03  0.50400001928E-02 0.  1.
    10030    2    1    2    0    0  0.00000000000E+00  0.00000000000E+00  0.53435703031E+03  0.22647404161E+04  0.22007979726E+04 0.  0.
        4    1    3    3  502    0  0.28811766510E+03  0.68435947446E+03  0.11028799175E+04  0.13295508281E+04  0.12699999809E+01 0. -1.
       -4    1    3    3    0  502 -0.28811766510E+03 -0.68435947446E+03 -0.56852288720E+03  0.93518958794E+03  0.12699999809E+01 0.  1.
</event>
<event>
 5   0  0.1082209E-06  0.2201041E+04  0.7818609E-02  0.8517995E-01
        1   -1    0    0  501    0  0.00000000000E+00  0.00000000000E+00  0.29773191511E+04  0.29773191511E+04  0.50400001928E-02 0.  1.
       -1   -1    0    0    0  501  0.00000000000E+00  0.00000000000E+00 -0.40679041881E+03  0.40679041884E+03  0.50400001928E-02 0. -1.
    10030    2    1    2    0    0  0.00000000000E+00  0.00000000000E+00  0.25705287323E+04  0.33841095699E+04  0.22010405761E+04 0.  0.
        2    1    3    3  502    0  0.95137426340E+03  0.67396088669E+02  0.21294784527E+04  0.23333096028E+04  0.25500000920E-02 0.  1.
       -2    1    3    3    0  502 -0.95137426340E+03 -0.67396088669E+02  0.44105027953E+03  0.10507999671E+04  0.25500000920E-02 0. -1.
</event>
<event>
 5   0  0.2581058E-06  0.2199994E+04  0.7818609E-02  0.8518431E-01
        2   -1    0    0  501    0  0.00000000000E+00  0.00000000000E+00  0.11187907165E+04  0.11187907165E+04  0.25500000920E-02 0.  1.
       -2   -1    0    0    0  501  0.00000000000E+00  0.00000000000E+00 -0.10815190461E+04  0.10815190462E+04  0.25500000920E-02 0. -1.
    10030    2    1    2    0    0  0.00000000000E+00  0.00000000000E+00  0.37271670320E+02  0.22003097626E+04  0.21999940623E+04 0.  0.
        1    1    3    3  502    0  0.66030471838E+03 -0.78185680477E+03  0.42204354466E+03  0.11069883188E+04  0.50400001928E-02 0.  1.
       -1    1    3    3    0  502 -0.66030471838E+03  0.78185680477E+03 -0.38477187434E+03  0.10933214439E+04  0.50400001928E-02 0. -1.
</event>
<event>
 5   0  0.1107101E-06  0.2198007E+04  0.7818609E-02  0.8519258E-01
        1   -1    0    0  501    0  0.00000000000E+00  0.00000000000E+00  0.15680866558E+04  0.15680866559E+04  0.50400001928E-02 0.  1.
       -1   -1    0    0    0  501  0.00000000000E+00  0.00000000000E+00 -0.77024386373E+03  0.77024386375E+03  0.50400001928E-02 0. -1.
    10030    2    1    2    0    0  0.00000000000E+00  0.00000000000E+00  0.79784279212E+03  0.23383305196E+04  0.21980073926E+04 0.  0.
        1    1    3    3  502    0  0.22978803571E+03 -0.18216944548E+03 -0.72785699101E+03  0.78470634482E+03  0.50400001928E-02 0. -1.
       -1    1    3    3    0  502 -0.22978803571E+03  0.18216944548E+03  0.15256997831E+04  0.15536241748E+04  0.50400001928E-02 0.  1.
</event>
<event>
 5   0  0.2581058E-06  0.2200615E+04  0.7818609E-02  0.8518172E-01
       -2   -1    0    0    0  501  0.00000000000E+00  0.00000000000E+00  0.71952005027E+03  0.71952005027E+03  0.25500000920E-02 0.  1.
        2   -1    0    0  501    0  0.00000000000E+00  0.00000000000E+00 -0.16826169574E+04  0.16826169574E+04  0.25500000920E-02 0. -1.
    10030    2    1    2    0    0  0.00000000000E+00  0.00000000000E+00 -0.96309690717E+03  0.24021370077E+04  0.22006150393E+04 0.  0.
        1    1    3    3  502    0 -0.15055871763E+03  0.91962874285E+03 -0.11201822131E+04  0.14571180949E+04  0.50400001928E-02 0. -1.
       -1    1    3    3    0  502  0.15055871763E+03 -0.91962874285E+03  0.15708530589E+03  0.94501891277E+03  0.50400001928E-02 0.  1.
</event>
<event>
 5   0  0.2606154E-06  0.2201029E+04  0.7818609E-02  0.8518000E-01
       -2   -1    0    0    0  501  0.00000000000E+00  0.00000000000E+00  0.72257912718E+03  0.72257912718E+03  0.25500000920E-02 0. -1.
        2   -1    0    0  501    0  0.00000000000E+00  0.00000000000E+00 -0.16761240517E+04  0.16761240517E+04  0.25500000920E-02 0.  1.
    10030    2    1    2    0    0  0.00000000000E+00  0.00000000000E+00 -0.95354492454E+03  0.23987031789E+04  0.22010290814E+04 0.  0.
        2    1    3    3  502    0  0.48139620990E+03 -0.16822778099E+03  0.58605163082E+03  0.77685224541E+03  0.25500000920E-02 0. -1.
       -2    1    3    3    0  502 -0.48139620990E+03  0.16822778099E+03 -0.15395965554E+04  0.16218509335E+04  0.25500000920E-02 0.  1.
</event>
<event>
 5   0  0.2524749E-06  0.2201555E+04  0.7818609E-02  0.8517781E-01
       -2   -1    0    0    0  501  0.00000000000E+00  0.00000000000E+00  0.15692389049E+04  0.15692389049E+04  0.25500000920E-02 0.  1.
        2   -1    0    0  501    0  0.00000000000E+00  0.00000000000E+00 -0.77216487539E+03  0.77216487539E+03  0.25500000920E-02 0. -1.
    10030    2    1    2    0    0  0.00000000000E+00  0.00000000000E+00  0.79707402952E+03  0.23414037803E+04  0.22015550536E+04 0.  0.
        4    1    3    3  502    0  0.13853416383E+03  0.69940434793E+03 -0.49339744124E+03  0.86706447533E+03  0.12699999809E+01 0. -1.
       -4    1    3    3    0  502 -0.13853416383E+03 -0.69940434793E+03  0.12904714708E+04  0.14743393050E+04  0.12699999809E+01 0.  1.
</event>
<event>
 5   0  0.1146827E-06  0.2201502E+04  0.7818609E-02  0.8517803E-01
       -1   -1    0    0    0  501  0.00000000000E+00  0.00000000000E+00  0.10636543142E+04  0.10636543142E+04  0.50400001928E-02 0. -1.
        1   -1    0    0  501    0  0.00000000000E+00  0.00000000000E+00 -0.11391414688E+04  0.11391414688E+04  0.50400001928E-02 0.  1.
    10030    2    1    2    0    0  0.00000000000E+00  0.00000000000E+00 -0.75487154624E+02  0.22027957830E+04  0.22015019762E+04 0.  0.
        4    1    3    3  502    0 -0.35834949025E+02 -0.10310931579E+04  0.34616652269E+03  0.10882417554E+04  0.12699999809E+01 0. -1.
       -4    1    3    3    0  502  0.35834949025E+02  0.10310931579E+04 -0.42165367731E+03  0.11145540276E+04  0.12699999809E+01 0.  1.
</event>
<event>
 5   0  0.1107101E-06  0.2203741E+04  0.7818609E-02  0.8516873E-01
        1   -1    0    0  501    0  0.00000000000E+00  0.00000000000E+00  0.13214474793E+04  0.13214474793E+04  0.50400001928E-02 0.  1.
       -1   -1    0    0    0  501  0.00000000000E+00  0.00000000000E+00 -0.91877890111E+03  0.91877890112E+03  0.50400001928E-02 0. -1.
    10030    2    1    2    0    0  0.00000000000E+00  0.00000000000E+00  0.40266857817E+03  0.22402263804E+04  0.22037405137E+04 0.  0.
        1    1    3    3  502    0 -0.10986699994E+04  0.73739572040E+02  0.24205711984E+03  0.11274328988E+04  0.50400001928E-02 0. -1.
       -1    1    3    3    0  502  0.10986699994E+04 -0.73739572040E+02  0.16061145834E+03  0.11127934816E+04  0.50400001928E-02 0.  1.
</event>
<event>
 5   0  0.2524749E-06  0.2200584E+04  0.7818609E-02  0.8518185E-01
       -2   -1    0    0    0  501  0.00000000000E+00  0.00000000000E+00  0.60064005813E+03  0.60064005814E+03  0.25500000920E-02 0. -1.
        2   -1    0    0  501    0  0.00000000000E+00  0.00000000000E+00 -0.20155873587E+04  0.20155873587E+04  0.25500000920E-02 0.  1.
    10030    2    1    2    0    0  0.00000000000E+00  0.00000000000E+00 -0.14149473005E+04  0.26162274168E+04  0.22005840209E+04 0.  0.
        4    1    3    3  502    0  0.54997068127E+03  0.44694775191E+03  0.29317160453E+03  0.76692975285E+03  0.12699999809E+01 0. -1.
       -4    1    3    3    0  502 -0.54997068127E+03 -0.44694775191E+03 -0.17081189051E+04  0.18492976640E+04  0.12699999809E+01 0.  1.
</event>
<event>
 5   0  0.2556869E-06  0.2199689E+04  0.7818609E-02  0.8518557E-01
        2   -1    0    0  501    0  0.00000000000E+00  0.00000000000E+00  0.91175879703E+03  0.91175879703E+03  0.25500000920E-02 0.  1.
       -2   -1    0    0    0  501  0.00000000000E+00  0.00000000000E+00 -0.13267307585E+04  0.13267307585E+04  0.25500000920E-02 0. -1.
    10030    2    1    2    0    0  0.00000000000E+00  0.00000000000E+00 -0.41497196145E+03  0.22384895555E+04  0.21996894693E+04 0.  0.
        5    1    3    3  502    0  0.51442122959E+03 -0.23934487124E+03  0.75132276754E+03  0.94150048320E+03  0.46999998093E+01 0.  1.
       -5    1    3    3    0  502 -0.51442122959E+03  0.23934487124E+03 -0.11662947290E+04  0.12969890723E+04  0.46999998093E+01 0. -1.
</event>
<event>
 5   0  0.1082209E-06  0.2199943E+04  0.7818609E-02  0.8518452E-01
       -1   -1    0    0    0  501  0.00000000000E+00  0.00000000000E+00  0.48682876926E+03  0.48682876929E+03  0.50400001928E-02 0. -1.
        1   -1    0    0  501    0  0.00000000000E+00  0.00000000000E+00 -0.24853450228E+04  0.24853450228E+04  0.50400001928E-02 0.  1.
    10030    2    1    2    0    0  0.00000000000E+00  0.00000000000E+00 -0.19985162535E+04  0.29721737921E+04  0.21999431435E+04 0.  0.
        2    1    3    3  502    0  0.69477780187E+03  0.67359209793E+03 -0.17057991770E+04  0.19611714205E+04  0.25500000920E-02 0.  1.
       -2    1    3    3    0  502 -0.69477780187E+03 -0.67359209793E+03 -0.29271707647E+03  0.10110023715E+04  0.25500000920E-02 0. -1.
</event>
<event>
 5   0  0.1144271E-06  0.2203250E+04  0.7818609E-02  0.8517077E-01
        1   -1    0    0  501    0  0.00000000000E+00  0.00000000000E+00  0.67118487855E+03  0.67118487857E+03  0.50400001928E-02 0.  1.
       -1   -1    0    0    0  501  0.00000000000E+00  0.00000000000E+00 -0.18081117081E+04  0.18081117081E+04  0.50400001928E-02 0. -1.
    10030    2    1    2    0    0  0.00000000000E+00  0.00000000000E+00 -0.11369268296E+04  0.24792965867E+04  0.22032496338E+04 0.  0.
        3    1    3    3  502    0  0.77292323812E+03  0.40604624325E+03  0.18748861889E+03  0.89299265176E+03  0.10100000352E+00 0.  1.
       -3    1    3    3    0  502 -0.77292323812E+03 -0.40604624325E+03 -0.13244154485E+04  0.15863039349E+04  0.10100000352E+00 0. -1.
</event>
<event>
 5   0  0.2606154E-06  0.2200604E+04  0.7818609E-02  0.8518177E-01
        2   -1    0    0  501    0  0.00000000000E+00  0.00000000000E+00  0.26233074092E+04  0.26233074092E+04  0.25500000920E-02 0. -1.
       -2   -1    0    0    0  501  0.00000000000E+00  0.00000000000E+00 -0.46150326142E+03  0.46150326143E+03  0.25500000920E-02 0.  1.
    10030    2    1    2    0    0  0.00000000000E+00  0.00000000000E+00  0.21618041478E+04  0.30848106706E+04  0.22006043943E+04 0.  0.
        2    1    3    3  502    0 -0.59671339822E+03  0.43014850589E+02  0.23753865134E+04  0.24495669505E+04  0.25500000920E-02 0. -1.
       -2    1    3    3    0  502  0.59671339822E+03 -0.43014850589E+02 -0.21358236566E+03  0.63524372009E+03  0.25500000920E-02 0.  1.
</event>
<event>
 5   0  0.2524749E-06  0.2199236E+04  0.7818609E-02  0.8518746E-01
        2   -1    0    0  501    0  0.00000000000E+00  0.00000000000E+00  0.20331486195E+04  0.20331486195E+04  0.25500000920E-02 0.  1.
       -2   -1    0    0    0  501  0.00000000000E+00  0.00000000000E+00 -0.59472251760E+03  0.59472251761E+03  0.25500000920E-02 0. -1.
    10030    2    1    2    0    0  0.00000000000E+00  0.00000000000E+00  0.14384261019E+04  0.26278711371E+04  0.21992355632E+04 0.  0.
        4    1    3    3  502    0  0.45191004734E+03  0.51514548469E+03  0.17468011099E+04  0.18764096812E+04  0.12699999809E+01 0.  1.
       -4    1    3    3    0  502 -0.45191004734E+03 -0.51514548469E+03 -0.30837500798E+03  0.75146145592E+03  0.12699999809E+01 0. -1.
</event>
<event>
 5   0  0.1107101E-06  0.2199167E+04  0.7818609E-02  0.8518775E-01
       -1   -1    0    0    0  501  0.00000000000E+00  0.00000000000E+00  0.83413129279E+03  0.83413129281E+03  0.50400001928E-02 0. -1.
        1   -1    0    0  501    0  0.00000000000E+00  0.00000000000E+00 -0.14495121089E+04  0.14495121089E+04  0.50400001928E-02 0.  1.
    10030    2    1    2    0    0  0.00000000000E+00  0.00000000000E+00 -0.61538081610E+03  0.22836434017E+04  0.21991665779E+04 0.  0.
        1    1    3    3  502    0  0.13134714657E+03  0.99483059812E+03  0.15918388715E+03  0.10160115658E+04  0.50400001928E-02 0. -1.
       -1    1    3    3    0  502 -0.13134714657E+03 -0.99483059812E+03 -0.77456470325E+03  0.12676318359E+04  0.50400001928E-02 0.  1.
</event>
<event>
 5   0  0.1107101E-06  0.2202175E+04  0.7818609E-02  0.8517523E-01
       -1   -1    0    0    0  501  0.00000000000E+00  0.00000000000E+00  0.87873246921E+03  0.87873246923E+03  0.50400001928E-02 0.  1.
        1   -1    0    0  501    0  0.00000000000E+00  0.00000000000E+00 -0.13797073222E+04  0.13797073222E+04  0.50400001928E-02 0. -1.
    10030    2    1    2    0    0  0.00000000000E+00  0.00000000000E+00 -0.50097485296E+03  0.22584397914E+04  0.22021749449E+04 0.  0.
        1    1    3    3  502    0  0.33482510935E+02  0.34617416784E+03 -0.13218977703E+04  0.13668838093E+04  0.50400001928E-02 0. -1.
       -1    1    3    3    0  502 -0.33482510935E+02 -0.34617416784E+03  0.82092291733E+03  0.89155598211E+03  0.50400001928E-02 0.  1.
</event>
<event>
 5   0  0.2532239E-06  0.2200315E+04  0.7818609E-02  0.8518297E-01
        2   -1    0    0  501    0  0.00000000000E+00  0.00000000000E+00  0.10449433590E+04  0.10449433590E+04  0.25500000920E-02 0. -1.
       -2   -1    0    0    0  501  0.00000000000E+00  0.00000000000E+00 -0.11582891003E+04  0.11582891003E+04  0.25500000920E-02 0.  1.
    10030    2    1    2    0    0  0.00000000000E+00  0.00000000000E+00 -0.11334574130E+03  0.22032324592E+04  0.22003149802E+04 0.  0.
        3    1    3    3  502    0  0.36126360483E+03  0.10378256758E+04 -0.41345722427E+01  0.10989133862E+04  0.10100000352E+00 0.  1.
       -3    1    3    3    0  502 -0.36126360483E+03 -0.10378256758E+04 -0.10921116906E+03  0.11043190730E+04  0.10100000352E+00 0. -1.
</event>
<event>
 5   0  0.1146827E-06  0.2199408E+04  0.7818609E-02  0.8518674E-01
        1   -1    0    0  501    0  0.00000000000E+00  0.00000000000E+00  0.13544177237E+04  0.13544177237E+04  0.50400001928E-02 0. -1.
       -1   -1    0    0    0  501  0.00000000000E+00  0.00000000000E+00 -0.89289241187E+03  0.89289241188E+03  0.50400001928E-02 0.  1.
    10030    2    1    2    0    0  0.00000000000E+00  0.00000000000E+00  0.46152531179E+03  0.22473101355E+04  0.21994083823E+04 0.  0.
        4    1    3    3  502    0 -0.65613919549E+03  0.79219066268E+03  0.62815866087E+03  0.12052674417E+04  0.12699999809E+01 0. -1.
       -4    1    3    3    0  502  0.65613919549E+03 -0.79219066268E+03 -0.16663334908E+03  0.10420426939E+04  0.12699999809E+01 0.  1.
</event>
<event>
 5   0  0.1107101E-06  0.2198953E+04  0.7818609E-02  0.8518864E-01
        1   -1    0    0  501    0  0.00000000000E+00  0.00000000000E+00  0.20789685055E+04  0.20789685055E+04  0.50400001928E-02 0.  1.
       -1   -1    0    0    0  501  0.00000000000E+00  0.00000000000E+00 -0.58146563433E+03  0.58146563435E+03  0.50400001928E-02 0. -1.
    10030    2    1    2    0    0  0.00000000000E+00  0.00000000000E+00  0.14975028711E+04  0.26604341398E+04  0.21989531517E+04 0.  0.
        1    1    3    3  502    0 -0.38558146652E+03  0.59525452651E+02 -0.49489948559E+03  0.63019191339E+03  0.50400001928E-02 0. -1.
       -1    1    3    3    0  502  0.38558146652E+03 -0.59525452651E+02  0.19924023567E+04  0.20302422264E+04  0.50400001928E-02 0.  1.
</event>
<event>
 5   0  0.1107101E-06  0.2200278E+04  0.7818609E-02  0.8518312E-01
        1   -1    0    0  501    0  0.00000000000E+00  0.00000000000E+00  0.12093051411E+04  0.12093051411E+04  0.50400001928E-02 0. -1.
       -1   -1    0    0    0  501  0.00000000000E+00  0.00000000000E+00 -0.10008273260E+04  0.10008273260E+04  0.50400001928E-02 0.  1.
    10030    2    1    2    0    0  0.00000000000E+00  0.00000000000E+00  0.20847781512E+03  0.22101324672E+04  0.22002778286E+04 0.  0.
        1    1    3    3  502    0 -0.10218469137E+03 -0.66656415958E+02 -0.99401104604E+03  0.10014702934E+04  0.50400001928E-02 0.  1.
       -1    1    3    3    0  502  0.10218469137E+03  0.66656415958E+02  0.12024888612E+04  0.12086621737E+04  0.50400001928E-02 0. -1.
</event>
<event>
 5   0  0.1144271E-06  0.2199377E+04  0.7818609E-02  0.8518688E-01
       -1   -1    0    0    0  501  0.00000000000E+00  0.00000000000E+00  0.70776302687E+03  0.70776302689E+03  0.50400001928E-02 0.  1.
        1   -1    0    0  501    0  0.00000000000E+00  0.00000000000E+00 -0.17086428711E+04  0.17086428711E+04  0.50400001928E-02 0. -1.
    10030    2    1    2    0    0  0.00000000000E+00  0.00000000000E+00 -0.10008798443E+04  0.24164058980E+04  0.21993765029E+04 0.  0.
        3    1    3    3  502    0 -0.86287904623E+03  0.49270084468E+03  0.17222530455E+02  0.99378619256E+03  0.10100000352E+00 0.  1.
       -3    1    3    3    0  502  0.86287904623E+03 -0.49270084468E+03 -0.10181023747E+04  0.14226197055E+04  0.10100000352E+00 0. -1.
</event>
<event>
 5   0  0.2556869E-06  0.2199845E+04  0.7818609E-02  0.8518493E-01
        2   -1    0    0  501    0  0.00000000000E+00  0.00000000000E+00  0.22938247171E+04  0.22938247171E+04  0.25500000920E-02 0.  1.
       -2   -1    0    0    0  501  0.00000000000E+00  0.00000000000E+00 -0.52742869194E+03  0.52742869194E+03  0.25500000920E-02 0. -1.
    10030    2    1    2    0    0  0.00000000000E+00  0.00000000000E+00  0.17663960252E+04  0.28212534090E+04  0.21998445128E+04 0.  0.
        5    1    3    3  502    0 -0.87380045258E+02 -0.72617102105E+03 -0.17034641528E+03  0.75099907811E+03  0.46999998093E+01 0. -1.
       -5    1    3    3    0  502  0.87380045258E+02  0.72617102105E+03  0.19367424404E+04  0.20702543309E+04  0.46999998093E+01 0.  1.
</event>
<event>
 5   0  0.1146827E-06  0.2200138E+04  0.7818609E-02  0.8518371E-01
        1   -1    0    0  501    0  0.00000000000E+00  0.00000000000E+00  0.18549995272E+04  0.18549995272E+04  0.50400001928E-02 0.  1.
       -1   -1    0    0    0  501  0.00000000000E+00  0.00000000000E+00 -0.65237314634E+03  0.65237314636E+03  0.50400001928E-02 0. -1.
    10030    2    1    2    0    0  0.00000000000E+00  0.00000000000E+00  0.12026263809E+04  0.25073726736E+04  0.22001380666E+04 0.  0.
        4    1    3    3  502    0 -0.27471659088E+03  0.10591284847E+04  0.73089175328E+03  0.13158368897E+04  0.12699999809E+01 0.  1.
       -4    1    3    3    0  502  0.27471659088E+03 -0.10591284847E+04  0.47173462760E+03  0.11915357839E+04  0.12699999809E+01 0. -1.
</event>
<event>
 5   0  0.1107101E-06  0.2199683E+04  0.7818609E-02  0.8518560E-01
        1   -1    0    0  501    0  0.00000000000E+00  0.00000000000E+00  0.17332330152E+04  0.17332330152E+04  0.50400001928E-02 0. -1.
       -1   -1    0    0    0  501  0.00000000000E+00  0.00000000000E+00 -0.69791591219E+03  0.69791591221E+03  0.50400001928E-02 0.  1.
    10030    2    1    2    0    0  0.00000000000E+00  0.00000000000E+00  0.10353171030E+04  0.24311489275E+04  0.21996826143E+04 0.  0.
        1    1    3    3  502    0  0.28664930292E+03 -0.10612126350E+04  0.55767359494E+03  0.12326150729E+04  0.50400001928E-02 0. -1.
       -1    1    3    3    0  502 -0.28664930292E+03  0.10612126350E+04  0.47764350810E+03  0.11985338545E+04  0.50400001928E-02 0.  1.
</event>
<event>
 5   0  0.1107101E-06  0.2201300E+04  0.7818609E-02  0.8517887E-01
        1   -1    0    0  501    0  0.00000000000E+00  0.00000000000E+00  0.18462457871E+04  0.18462457871E+04  0.50400001928E-02 0. -1.
       -1   -1    0    0    0  501  0.00000000000E+00  0.00000000000E+00 -0.65615879268E+03  0.65615879270E+03  0.50400001928E-02 0.  1.
    10030    2    1    2    0    0  0.00000000000E+00  0.00000000000E+00  0.11900869944E+04  0.25024045798E+04  0.22012999856E+04 0.  0.
        1    1    3    3  502    0  0.80010773064E+02  0.92410450361E+03 -0.78504719911E+02  0.93087799871E+03  0.50400001928E-02 0.  1.
       -1    1    3    3    0  502 -0.80010773064E+02 -0.92410450361E+03  0.12685917144E+04  0.15715265811E+04  0.50400001928E-02 0. -1.
</event>
<event>
 5   0  0.2556869E-06  0.2200329E+04  0.7818609E-02  0.8518291E-01
        2   -1    0    0  501    0  0.00000000000E+00  0.00000000000E+00  0.11634666837E+04  0.11634666837E+04  0.25500000920E-02 0. -1.
       -2   -1    0    0    0  501  0.00000000000E+00  0.00000000000E+00 -0.10403067878E+04  0.10403067878E+04  0.25500000920E-02 0.  1.
    10030    2    1    2    0    0  0.00000000000E+00  0.00000000000E+00  0.12315989594E+03  0.22037734715E+04  0.22003293284E+04 0.  0.
        5    1    3    3  502    0 -0.66249792681E+02 -0.95873478072E+03  0.59793548997E+03  0.11318614557E+04  0.46999998093E+01 0. -1.
       -5    1    3    3    0  502  0.66249792681E+02  0.95873478072E+03 -0.47477559403E+03  0.10719120157E+04  0.46999998093E+01 0.  1.
</event>
<event>
 5   0  0.2524749E-06  0.2200510E+04  0.7818609E-02  0.8518216E-01
       -2   -1    0    0    0  501  0.00000000000E+00  0.00000000000E+00  0.50527800861E+03  0.50527800862E+03  0.25500000920E-02 0. -1.
        2   -1    0    0  501    0  0.00000000000E+00  0.00000000000E+00 -0.23958312666E+04  0.23958312666E+04  0.25500000920E-02 0.  1.
    10030    2    1    2    0    0  0.00000000000E+00  0.00000000000E+00 -0.18905532580E+04  0.29011092752E+04  0.22005098058E+04 0.  0.
        4    1    3    3  502    0 -0.70150667178E+03  0.88833973622E+02 -0.20565988077E+04  0.21747651262E+04  0.12699999809E+01 0.  1.
       -4    1    3    3    0  502  0.70150667178E+03 -0.88833973622E+02  0.16604554966E+03  0.72634414906E+03  0.12699999809E+01 0. -1.
</event>
<event>
 5   0  0.1137869E-06  0.2191725E+04  0.7818609E-02  0.8521880E-01
        1   -1    0    0  501    0  0.00000000000E+00  0.00000000000E+00  0.71413748692E+03  0.71413748694E+03  0.50400001928E-02 0.  1.
       -1   -1    0    0    0  501  0.00000000000E+00  0.00000000000E+00 -0.16816297730E+04  0.16816297730E+04  0.50400001928E-02 0. -1.
    10030    2    1    2    0    0  0.00000000000E+00  0.00000000000E+00 -0.96749228612E+03  0.23957672600E+04  0.21917252201E+04 0.  0.
        5    1    3    3  502    0 -0.11414407630E+03  0.17206857779E+03  0.69266967928E+03  0.72280691766E+03  0.46999998093E+01 0.  1.
       -5    1    3    3    0  502  0.11414407630E+03 -0.17206857779E+03 -0.16601619654E+04  0.16729603423E+04  0.46999998093E+01 0. -1.
</event>
<event>
 5   0  0.2524749E-06  0.2199461E+04  0.7818609E-02  0.8518652E-01
       -2   -1    0    0    0  501  0.00000000000E+00  0.00000000000E+00  0.14833629512E+04  0.14833629512E+04  0.25500000920E-02 0.  1.
        2   -1    0    0  501    0  0.00000000000E+00  0.00000000000E+00 -0.81531470682E+03  0.81531470683E+03  0.25500000920E-02 0. -1.
    10030    2    1    2    0    0  0.00000000000E+00  0.00000000000E+00  0.66804824437E+03  0.22986776580E+04  0.21994614156E+04 0.  0.
        4    1    3    3  502    0 -0.77374014624E+03 -0.36807031487E+03 -0.38646219102E+03  0.93994904574E+03  0.12699999809E+01 0. -1.
       -4    1    3    3    0  502  0.77374014624E+03  0.36807031487E+03  0.10545104354E+04  0.13587286123E+04  0.12699999809E+01 0.  1.
</event>
<event>
 5   0  0.1144271E-06  0.2200713E+04  0.7818609E-02  0.8518131E-01
        1   -1    0    0  501    0  0.00000000000E+00  0.00000000000E+00  0.25754148024E+04  0.25754148024E+04  0.50400001928E-02 0. -1.
       -1   -1    0    0    0  501  0.00000000000E+00  0.00000000000E+00 -0.47013175725E+03  0.47013175728E+03  0.50400001928E-02 0.  1.
    10030    2    1    2    0    0  0.00000000000E+00  0.00000000000E+00  0.21052830452E+04  0.30455465597E+04  0.22007128725E+04 0.  0.
        3    1    3    3  502    0 -0.52354637255E+03 -0.32895015405E+02 -0.28594759140E+03  0.59745202441E+03  0.10100000352E+00 0.  1.
       -3    1    3    3    0  502  0.52354637255E+03  0.32895015405E+02  0.23912306366E+04  0.24480945353E+04  0.10100000352E+00 0. -1.
</event>
<event>
 5   0  0.2606154E-06  0.2199590E+04  0.7818609E-02  0.8518599E-01
        2   -1    0    0  501    0  0.00000000000E+00  0.00000000000E+00  0.17661786723E+04  0.17661786723E+04  0.25500000920E-02 0. -1.
       -2   -1    0    0    0  501  0.00000000000E+00  0.00000000000E+00 -0.68483945928E+03  0.68483945928E+03  0.25500000920E-02 0.  1.
    10030    2    1    2    0    0  0.00000000000E+00  0.00000000000E+00  0.10813392131E+04  0.24510181316E+04  0.21995898226E+04 0.  0.
        2    1    3    3  502    0 -0.43014384347E+03  0.99640034054E+03  0.73910223886E+03  0.13130534963E+04  0.25500000920E-02 0.  1.
       -2    1    3    3    0  502  0.43014384347E+03 -0.99640034054E+03  0.34223697420E+03  0.11379646353E+04  0.25500000920E-02 0. -1.
</event>
<event>
 5   0  0.2581058E-06  0.2197334E+04  0.7818609E-02  0.8519539E-01
        2   -1    0    0  501    0  0.00000000000E+00  0.00000000000E+00  0.14010392194E+04  0.14010392194E+04  0.25500000920E-02 0. -1.
       -2   -1    0    0    0  501  0.00000000000E+00  0.00000000000E+00 -0.86155283788E+03  0.86155283788E+03  0.25500000920E-02 0.  1.
    10030    2    1    2    0    0  0.00000000000E+00  0.00000000000E+00  0.53948638150E+03  0.22625920573E+04  0.21973341261E+04 0.  0.
        1    1    3    3  502    0  0.48330201060E+03 -0.77837483579E+03  0.89406768048E+03  0.12801582854E+04  0.50400001928E-02 0. -1.
       -1    1    3    3    0  502 -0.48330201060E+03  0.77837483579E+03 -0.35458129898E+03  0.98243377184E+03  0.50400001928E-02 0.  1.
</event>
<event>
 5   0  0.1146827E-06  0.2206057E+04  0.7818609E-02  0.8515911E-01
        1   -1    0    0  501    0  0.00000000000E+00  0.00000000000E+00  0.10690456822E+04  0.10690456822E+04  0.50400001928E-02 0. -1.
       -1   -1    0    0    0  501  0.00000000000E+00  0.00000000000E+00 -0.11380912507E+04  0.11380912507E+04  0.50400001928E-02 0.  1.
    10030    2    1    2    0    0  0.00000000000E+00  0.00000000000E+00 -0.69045568543E+02  0.22071369329E+04  0.22060566969E+04 0.  0.
        4    1    3    3  502    0 -0.28591129354E+03  0.59830005738E+03  0.84736314454E+03  0.10759805472E+04  0.12699999809E+01 0. -1.
       -4    1    3    3    0  502  0.28591129354E+03 -0.59830005738E+03 -0.91640871308E+03  0.11311563856E+04  0.12699999809E+01 0.  1.
</event>
<event>
 5   0  0.2581058E-06  0.2197329E+04  0.7818609E-02  0.8519541E-01
       -2   -1    0    0    0  501  0.00000000000E+00  0.00000000000E+00  0.40038881823E+03  0.40038881824E+03  0.25500000920E-02 0. -1.
        2   -1    0    0  501    0  0.00000000000E+00  0.00000000000E+00 -0.30147280686E+04  0.30147280686E+04  0.25500000920E-02 0.  1.
    10030    2    1    2    0    0  0.00000000000E+00  0.00000000000E+00 -0.26143392504E+04  0.34151168868E+04  0.21973287498E+04 0.  0.
        1    1    3    3  502    0  0.85702356540E+03 -0.61554186871E+03 -0.83146307367E+03  0.13433957074E+04  0.50400001928E-02 0. -1.
       -1    1    3    3    0  502 -0.85702356540E+03  0.61554186871E+03 -0.17828761767E+04  0.20717211794E+04  0.50400001928E-02 0.  1.
</event>
<event>
 5   0  0.1082209E-06  0.2201544E+04  0.7818609E-02  0.8517786E-01
       -1   -1    0    0    0  501  0.00000000000E+00  0.00000000000E+00  0.10220196275E+04  0.10220196275E+04  0.50400001928E-02 0. -1.
        1   -1    0    0  501    0  0.00000000000E+00  0.00000000000E+00 -0.11855931066E+04  0.11855931066E+04  0.50400001928E-02 0.  1.
    10030    2    1    2    0    0  0.00000000000E+00  0.00000000000E+00 -0.16357347913E+03  0.22076127341E+04  0.22015443899E+04 0.  0.
        2    1    3    3  502    0 -0.50500304949E+03 -0.55742360969E+03 -0.88771240066E+03  0.11635215799E+04  0.25500000920E-02 0.  1.
       -2    1    3    3    0  502  0.50500304949E+03  0.55742360969E+03  0.72413892153E+03  0.10440911542E+04  0.25500000920E-02 0. -1.
</event>
<event>
 5   0  0.2524749E-06  0.2201961E+04  0.7818609E-02  0.8517612E-01
        2   -1    0    0  501    0  0.00000000000E+00  0.00000000000E+00  0.10700167333E+04  0.10700167333E+04  0.25500000920E-02 0. -1.
       -2   -1    0    0    0  501  0.00000000000E+00  0.00000000000E+00 -0.11328401192E+04  0.11328401193E+04  0.25500000920E-02 0.  1.
    10030    2    1    2    0    0  0.00000000000E+00  0.00000000000E+00 -0.62823385946E+02  0.22028568526E+04  0.22019608387E+04 0.  0.
        4    1    3    3  502    0 -0.82821908828E+03 -0.42526087492E+03 -0.61932641935E+03  0.11181951961E+04  0.12699999809E+01 0.  1.
       -4    1    3    3    0  502  0.82821908828E+03  0.42526087492E+03  0.55650303341E+03  0.10846616565E+04  0.12699999809E+01 0. -1.
</event>
<event>
 5   0  0.2532239E-06  0.2198748E+04  0.7818609E-02  0.8518949E-01
       -2   -1    0    0    0  501  0.00000000000E+00  0.00000000000E+00  0.13682173274E+04  0.13682173274E+04  0.25500000920E-02 0. -1.
        2   -1    0    0  501    0  0.00000000000E+00  0.00000000000E+00 -0.88335634943E+03  0.88335634943E+03  0.25500000920E-02 0.  1.
    10030    2    1    2    0    0  0.00000000000E+00  0.00000000000E+00  0.48486097798E+03  0.22515736768E+04  0.21987482471E+04 0.  0.
        3    1    3    3  502    0 -0.64994967098E+03 -0.88660439341E+03  0.23114165476E+03  0.11233558652E+04  0.10100000352E+00 0.  1.
       -3    1    3    3    0  502  0.64994967098E+03  0.88660439341E+03  0.25371932322E+03  0.11282178116E+04  0.10100000352E+00 0. -1.
</event>
<event>
 5   0  0.1082209E-06  0.2199958E+04  0.7818609E-02  0.8518446E-01
       -1   -1    0    0    0  501  0.00000000000E+00  0.00000000000E+00  0.10037179288E+04  0.10037179288E+04  0.50400001928E-02 0. -1.
        1   -1    0    0  501    0  0.00000000000E+00  0.00000000000E+00 -0.12054717803E+04  0.12054717803E+04  0.50400001928E-02 0.  1.
    10030    2    1    2    0    0  0.00000000000E+00  0.00000000000E+00 -0.20175385155E+03  0.22091897091E+04  0.21999578528E+04 0.  0.
        2    1    3    3  502    0 -0.69015779179E+03 -0.45749557591E+03 -0.82802443315E+03  0.11710014694E+04  0.25500000920E-02 0.  1.
       -2    1    3    3    0  502  0.69015779179E+03  0.45749557591E+03  0.62627058161E+03  0.10381882396E+04  0.25500000920E-02 0. -1.
</event>
<event>
 5   0  0.1146827E-06  0.2208850E+04  0.7818609E-02  0.8514754E-01
       -1   -1    0    0    0  501  0.00000000000E+00  0.00000000000E+00  0.65225615075E+03  0.65225615077E+03  0.50400001928E-02 0.  1.
        1   -1    0    0  501    0  0.00000000000E+00  0.00000000000E+00 -0.18700539180E+04  0.18700539180E+04  0.50400001928E-02 0. -1.
    10030    2    1    2    0    0  0.00000000000E+00  0.00000000000E+00 -0.12177977673E+04  0.25223100688E+04  0.22088496285E+04 0.  0.
        4    1    3    3  502    0  0.91655519680E+02  0.46826272841E+03 -0.17462801535E+04  0.18102946458E+04  0.12699999809E+01 0. -1.
       -4    1    3    3    0  502 -0.91655519680E+02 -0.46826272841E+03  0.52848238626E+03  0.71201542300E+03  0.12699999809E+01 0.  1.
</event>
<event>
 5   0  0.1144271E-06  0.2200148E+04  0.7818609E-02  0.8518366E-01
       -1   -1    0    0    0  501  0.00000000000E+00  0.00000000000E+00  0.71304981006E+03  0.71304981008E+03  0.50400001928E-02 0.  1.
        1   -1    0    0  501    0  0.00000000000E+00  0.00000000000E+00 -0.16971646705E+04  0.16971646705E+04  0.50400001928E-02 0. -1.
    10030    2    1    2    0    0  0.00000000000E+00  0.00000000000E+00 -0.98411486040E+03  0.24102144806E+04  0.22001481277E+04 0.  0.
        3    1    3    3  502    0 -0.41254926153E+03  0.12464477323E+03 -0.16008360819E+04  0.16578327371E+04  0.10100000352E+00 0. -1.
       -3    1    3    3    0  502  0.41254926153E+03 -0.12464477323E+03  0.61672122152E+03  0.75238174350E+03  0.10100000352E+00 0.  1.
</event>
<event>
 5   0  0.1144271E-06  0.2199707E+04  0.7818609E-02  0.8518550E-01
        1   -1    0    0  501    0  0.00000000000E+00  0.00000000000E+00  0.11544002078E+04  0.11544002078E+04  0.50400001928E-02 0. -1.
       -1   -1    0    0    0  501  0.00000000000E+00  0.00000000000E+00 -0.10478844483E+04  0.10478844483E+04  0.50400001928E-02 0.  1.
    10030    2    1    2    0    0  0.00000000000E+00  0.00000000000E+00  0.10651575954E+03  0.22022846561E+04  0.21997072759E+04 0.  0.
        3    1    3    3  502    0 -0.14465013401E+03  0.51559172371E+02 -0.10370985357E+04  0.10484061200E+04  0.10100000352E+00 0.  1.
       -3    1    3    3    0  502  0.14465013401E+03 -0.51559172371E+02  0.11436142953E+04  0.11538785361E+04  0.10100000352E+00 0. -1.
</event>
<event>
 5   0  0.2532239E-06  0.2200468E+04  0.7818609E-02  0.8518233E-01
        2   -1    0    0  501    0  0.00000000000E+00  0.00000000000E+00  0.10712739702E+04  0.10712739702E+04  0.25500000920E-02 0.  1.
       -2   -1    0    0    0  501  0.00000000000E+00  0.00000000000E+00 -0.11299769953E+04  0.11299769953E+04  0.25500000920E-02 0. -1.
    10030    2    1    2    0    0  0.00000000000E+00  0.00000000000E+00 -0.58703025041E+02  0.22012509655E+04  0.22004680793E+04 0.  0.
        3    1    3    3  502    0 -0.55511337773E+03  0.83886143765E+03 -0.47524046001E+03  0.11125164622E+04  0.10100000352E+00 0. -1.
       -3    1    3    3    0  502  0.55511337773E+03 -0.83886143765E+03  0.41653743496E+03  0.10887345033E+04  0.10100000352E+00 0.  1.
</event>
<event>
 5   0  0.2556869E-06  0.2199408E+04  0.7818609E-02  0.8518675E-01
       -2   -1    0    0    0  501  0.00000000000E+00  0.00000000000E+00  0.68010637998E+03  0.68010637998E+03  0.25500000920E-02 0. -1.
        2   -1    0    0  501    0  0.00000000000E+00  0.00000000000E+00 -0.17781756414E+04  0.17781756414E+04  0.25500000920E-02 0.  1.
    10030    2    1    2    0    0  0.00000000000E+00  0.00000000000E+00 -0.10980692614E+04  0.24582820214E+04  0.21994077370E+04 0.  0.
        5    1    3    3  502    0  0.19151491630E+03 -0.49093602027E+03  0.52978235350E+03  0.74725335144E+03  0.46999998093E+01 0. -1.
       -5    1    3    3    0  502 -0.19151491630E+03  0.49093602027E+03 -0.16278516149E+04  0.17110286699E+04  0.46999998093E+01 0.  1.
</event>
<event>
 5   0  0.2606154E-06  0.2203076E+04  0.7818609E-02  0.8517149E-01
       -2   -1    0    0    0  501  0.00000000000E+00  0.00000000000E+00  0.71937604665E+03  0.71937604666E+03  0.25500000920E-02 0.  1.
        2   -1    0    0  501    0  0.00000000000E+00  0.00000000000E+00 -0.16867205622E+04  0.16867205622E+04  0.25500000920E-02 0. -1.
    10030    2    1    2    0    0  0.00000000000E+00  0.00000000000E+00 -0.96734451551E+03  0.24060966088E+04  0.22030763671E+04 0.  0.
        2    1    3    3  502    0 -0.40705433155E+03 -0.10194693699E+04 -0.58362273140E+03  0.12432322863E+04  0.25500000920E-02 0.  1.
       -2    1    3    3    0  502  0.40705433155E+03  0.10194693699E+04 -0.38372178411E+03  0.11628643225E+04  0.25500000920E-02 0. -1.
</event>
<event>
 5   0  0.1107101E-06  0.2200561E+04  0.7818609E-02  0.8518195E-01
        1   -1    0    0  501    0  0.00000000000E+00  0.00000000000E+00  0.21208007793E+04  0.21208007793E+04  0.50400001928E-02 0.  1.
       -1   -1    0    0    0  501  0.00000000000E+00  0.00000000000E+00 -0.57083011019E+03  0.57083011021E+03  0.50400001928E-02 0. -1.
    10030    2    1    2    0    0  0.00000000000E+00  0.00000000000E+00  0.15499706691E+04  0.26916308895E+04  0.22005607854E+04 0.  0.
        1    1    3    3  502    0  0.81162497185E+03 -0.13837452364E+03  0.16677510007E+04  0.18599129023E+04  0.50400001928E-02 0.  1.
       -1    1    3    3    0  502 -0.81162497185E+03  0.13837452364E+03 -0.11778033160E+03  0.83171798722E+03  0.50400001928E-02 0. -1.
</event>
<event>
 5   0  0.2606154E-06  0.2199420E+04  0.7818609E-02  0.8518670E-01
        2   -1    0    0  501    0  0.00000000000E+00  0.00000000000E+00  0.10677058953E+04  0.10677058953E+04  0.25500000920E-02 0.  1.
       -2   -1    0    0    0  501  0.00000000000E+00  0.00000000000E+00 -0.11326734042E+04  0.11326734042E+04  0.25500000920E-02 0. -1.
    10030    2    1    2    0    0  0.00000000000E+00  0.00000000000E+00 -0.64967508926E+02  0.22003792994E+04  0.21994199881E+04 0.  0.
        2    1    3    3  502    0  0.42849037276E+03 -0.92712262789E+03 -0.44034000229E+03  0.11122318483E+04  0.25500000920E-02 0. -1.
       -2    1    3    3    0  502 -0.42849037276E+03  0.92712262789E+03  0.37537249336E+03  0.10881474512E+04  0.25500000920E-02 0.  1.
</event>
<event>
 5   0  0.1107101E-06  0.2199432E+04  0.7818609E-02  0.8518665E-01
        1   -1    0    0  501    0  0.00000000000E+00  0.00000000000E+00  0.11241242781E+04  0.11241242781E+04  0.50400001928E-02 0. -1.
       -1   -1    0    0    0  501  0.00000000000E+00  0.00000000000E+00 -0.10758376164E+04  0.10758376164E+04  0.50400001928E-02 0.  1.
    10030    2    1    2    0    0  0.00000000000E+00  0.00000000000E+00  0.48286661634E+02  0.21999618945E+04  0.21994319120E+04 0.  0.
        1    1    3    3  502    0  0.91715732106E+03  0.33774022032E+03  0.52837706857E+03  0.11110483044E+04  0.50400001928E-02 0.  1.
       -1    1    3    3    0  502 -0.91715732106E+03 -0.33774022032E+03 -0.48009040693E+03  0.10889135902E+04  0.50400001928E-02 0. -1.
</event>
<event>
 5   0  0.1137869E-06  0.2199894E+04  0.7818609E-02  0.8518472E-01
        1   -1    0    0  501    0  0.00000000000E+00  0.00000000000E+00  0.20384262146E+04  0.20384262146E+04  0.50400001928E-02 0.  1.
       -1   -1    0    0    0  501  0.00000000000E+00  0.00000000000E+00 -0.59353817400E+03  0.59353817402E+03  0.50400001928E-02 0. -1.
    10030    2    1    2    0    0  0.00000000000E+00  0.00000000000E+00  0.14448880406E+04  0.26319643886E+04  0.21998943368E+04 0.  0.
        5    1    3    3  502    0  0.37581778400E+03  0.87308537710E+03  0.13846350638E+04  0.16795098786E+04  0.46999998093E+01 0.  1.
       -5    1    3    3    0  502 -0.37581778400E+03 -0.87308537710E+03  0.60252976841E+02  0.95245451004E+03  0.46999998093E+01 0. -1.
</event>
<event>
 5   0  0.2524749E-06  0.2200474E+04  0.7818609E-02  0.8518231E-01
        2   -1    0    0  501    0  0.00000000000E+00  0.00000000000E+00  0.19507647146E+04  0.19507647146E+04  0.25500000920E-02 0.  1.
       -2   -1    0    0    0  501  0.00000000000E+00  0.00000000000E+00 -0.62053700649E+03  0.62053700650E+03  0.25500000920E-02 0. -1.
    10030    2    1    2    0    0  0.00000000000E+00  0.00000000000E+00  0.13302277081E+04  0.25713017211E+04  0.22004742183E+04 0.  0.
        4    1    3    3  502    0  0.95992551361E+03 -0.25362631831E+03  0.11115968481E+03  0.99907026251E+03  0.12699999809E+01 0.  1.
       -4    1    3    3    0  502 -0.95992551361E+03  0.25362631831E+03  0.12190680233E+04  0.15722314585E+04  0.12699999809E+01 0. -1.
</event>
<event>
 5   0  0.1144271E-06  0.2200515E+04  0.7818609E-02  0.8518214E-01
        1   -1    0    0  501    0  0.00000000000E+00  0.00000000000E+00  0.10098079795E+04  0.10098079795E+04  0.50400001928E-02 0.  1.
       -1   -1    0    0    0  501  0.00000000000E+00  0.00000000000E+00 -0.11988085645E+04  0.11988085645E+04  0.50400001928E-02 0. -1.
    10030    2    1    2    0    0  0.00000000000E+00  0.00000000000E+00 -0.18900058497E+03  0.22086165440E+04  0.22005148982E+04 0.  0.
        3    1    3    3  502    0 -0.62310651068E+03 -0.17260937126E+03  0.79900798873E+03  0.10278470192E+04  0.10100000352E+00 0.  1.
       -3    1    3    3    0  502  0.62310651068E+03  0.17260937126E+03 -0.98800857370E+03  0.11807695248E+04  0.10100000352E+00 0. -1.
</event>
<event>
 5   0  0.8905000E-07  0.2200424E+04  0.7818609E-02  0.8518252E-01
       -3   -1    0    0    0  501  0.00000000000E+00  0.00000000000E+00  0.10007877430E+04  0.10007877481E+04  0.10100000352E+00 0.  1.
        3   -1    0    0  501    0  0.00000000000E+00  0.00000000000E+00 -0.12095138275E+04  0.12095138317E+04  0.10100000352E+00 0. -1.
    10030    2    1    2    0    0  0.00000000000E+00  0.00000000000E+00 -0.20872608453E+03  0.22103015798E+04  0.22004241626E+04 0.  0.
        4    1    3    3  502    0 -0.98959374053E+03 -0.12827258448E+03 -0.56981698089E+03  0.11491051439E+04  0.12699999809E+01 0. -1.
       -4    1    3    3    0  502  0.98959374053E+03  0.12827258448E+03  0.36109089636E+03  0.10611964359E+04  0.12699999809E+01 0.  1.
</event>
<event>
 5   0  0.1107101E-06  0.2197382E+04  0.7818609E-02  0.8519518E-01
        1   -1    0    0  501    0  0.00000000000E+00  0.00000000000E+00  0.16865021104E+04  0.16865021104E+04  0.50400001928E-02 0. -1.
       -1   -1    0    0    0  501  0.00000000000E+00  0.00000000000E+00 -0.71575500842E+03  0.71575500843E+03  0.50400001928E-02 0.  1.
    10030    2    1    2    0    0  0.00000000000E+00  0.00000000000E+00  0.97074710194E+03  0.24022571188E+04  0.21973823811E+04 0.  0.
        1    1    3    3  502    0 -0.66720308699E+03  0.58248482648E+03 -0.22537587097E+03  0.91391619726E+03  0.50400001928E-02 0.  1.
       -1    1    3    3    0  502  0.66720308699E+03 -0.58248482648E+03  0.11961229729E+04  0.14883409215E+04  0.50400001928E-02 0. -1.
</event>
<event>
 5   0  0.1082209E-06  0.2200247E+04  0.7818609E-02  0.8518325E-01
        1   -1    0    0  501    0  0.00000000000E+00  0.00000000000E+00  0.14118538330E+04  0.14118538330E+04  0.50400001928E-02 0.  1.
       -1   -1    0    0    0  501  0.00000000000E+00  0.00000000000E+00 -0.85722136100E+03  0.85722136101E+03  0.50400001928E-02 0. -1.
    10030    2    1    2    0    0  0.00000000000E+00  0.00000000000E+00  0.55463247200E+03  0.22690751940E+04  0.22002465901E+04 0.  0.
        2    1    3    3  502    0 -0.40577120594E+03  0.53201900992E+03 -0.62325758037E+03  0.91440937768E+03  0.25500000920E-02 0. -1.
       -2    1    3    3    0  502  0.40577120594E+03 -0.53201900992E+03  0.11778900524E+04  0.13546658163E+04  0.25500000920E-02 0.  1.
</event>
<event>
 5   0  0.1146827E-06  0.2198683E+04  0.7818609E-02  0.8518976E-01
        1   -1    0    0  501    0  0.00000000000E+00  0.00000000000E+00  0.14230437693E+04  0.14230437693E+04  0.50400001928E-02 0.  1.
       -1   -1    0    0    0  501  0.00000000000E+00  0.00000000000E+00 -0.84927247651E+03  0.84927247653E+03  0.50400001928E-02 0. -1.
    10030    2    1    2    0    0  0.00000000000E+00  0.00000000000E+00  0.57377129280E+03  0.22723162458E+04  0.21986831570E+04 0.  0.
        4    1    3    3  502    0  0.78003021493E+03  0.42712099116E+03  0.95480371057E+03  0.13048107970E+04  0.12699999809E+01 0.  1.
       -4    1    3    3    0  502 -0.78003021493E+03 -0.42712099116E+03 -0.38103241777E+03  0.96750544887E+03  0.12699999809E+01 0. -1.
</event>
<event>
 5   0  0.1137869E-06  0.2201195E+04  0.7818609E-02  0.8517931E-01
        1   -1    0    0  501    0  0.00000000000E+00  0.00000000000E+00  0.89696747124E+03  0.89696747126E+03  0.50400001928E-02 0.  1.
       -1   -1    0    0    0  501  0.00000000000E+00  0.00000000000E+00 -0.13504551508E+04  0.13504551508E+04  0.50400001928E-02 0. -1.
    10030    2    1    2    0    0  0.00000000000E+00  0.00000000000E+00 -0.45348767960E+03  0.22474226221E+04  0.22011945318E+04 0.  0.
        5    1    3    3  502    0 -0.93723424843E+01  0.55708772516E+03 -0.11958122014E+04  0.13192511078E+04  0.46999998093E+01 0. -1.
       -5    1    3    3    0  502  0.93723424843E+01 -0.55708772516E+03  0.74232452181E+03  0.92817151433E+03  0.46999998093E+01 0.  1.
</event>
<event>
 5   0  0.2581058E-06  0.2200166E+04  0.7818609E-02  0.8518359E-01
       -2   -1    0    0    0  501  0.00000000000E+00  0.00000000000E+00  0.83503587859E+03  0.83503587860E+03  0.25500000920E-02 0.  1.
        2   -1    0    0  501    0  0.00000000000E+00  0.00000000000E+00 -0.14492581364E+04  0.14492581364E+04  0.25500000920E-02 0. -1.
    10030    2    1    2    0    0  0.00000000000E+00  0.00000000000E+00 -0.61422225777E+03  0.22842940150E+04  0.22001659403E+04 0.  0.
        1    1    3    3  502    0  0.15160902075E+03 -0.10652012725E+04 -0.69122589430E+02  0.10781544316E+04  0.50400001928E-02 0.  1.
       -1    1    3    3    0  502 -0.15160902075E+03  0.10652012725E+04 -0.54509966834E+03  0.12061395833E+04  0.50400001928E-02 0. -1.
</event>
<event>
 5   0  0.1082209E-06  0.2200492E+04  0.7818609E-02  0.8518223E-01
        1   -1    0    0  501    0  0.00000000000E+00  0.00000000000E+00  0.90309762242E+03  0.90309762243E+03  0.50400001928E-02 0. -1.
       -1   -1    0    0    0  501  0.00000000000E+00  0.00000000000E+00 -0.13404325497E+04  0.13404325497E+04  0.50400001928E-02 0.  1.
    10030    2    1    2    0    0  0.00000000000E+00  0.00000000000E+00 -0.43733492728E+03  0.22435301721E+04  0.22004921710E+04 0.  0.
        2    1    3    3  502    0  0.25498986737E+03 -0.59076732317E+03 -0.11286000663E+04  0.12991397047E+04  0.25500000920E-02 0.  1.
       -2    1    3    3    0  502 -0.25498986737E+03  0.59076732317E+03  0.69126513903E+03  0.94439046746E+03  0.25500000920E-02 0. -1.
</event>
<event>
 5   0  0.2532239E-06  0.2199590E+04  0.7818609E-02  0.8518599E-01
        2   -1    0    0  501    0  0.00000000000E+00  0.00000000000E+00  0.11672493694E+04  0.11672493694E+04  0.25500000920E-02 0. -1.
       -2   -1    0    0    0  501  0.00000000000E+00  0.00000000000E+00 -0.10362383174E+04  0.10362383174E+04  0.25500000920E-02 0.  1.
    10030    2    1    2    0    0  0.00000000000E+00  0.00000000000E+00  0.13101105207E+03  0.22034876868E+04  0.21995895277E+04 0.  0.
        3    1    3    3  502    0  0.14035500248E+03  0.22175318546E+03 -0.10044108950E+04  0.10381306557E+04  0.10100000352E+00 0.  1.
       -3    1    3    3    0  502 -0.14035500248E+03 -0.22175318546E+03  0.11354219471E+04  0.11653570312E+04  0.10100000352E+00 0. -1.
</event>
<event>
 5   0  0.1146827E-06  0.2200093E+04  0.7818609E-02  0.8518389E-01
        1   -1    0    0  501    0  0.00000000000E+00  0.00000000000E+00  0.16894324716E+04  0.16894324716E+04  0.50400001928E-02 0. -1.
       -1   -1    0    0    0  501  0.00000000000E+00  0.00000000000E+00 -0.71627765014E+03  0.71627765016E+03  0.50400001928E-02 0.  1.
    10030    2    1    2    0    0  0.00000000000E+00  0.00000000000E+00  0.97315482145E+03  0.24057101218E+04  0.22000933806E+04 0.  0.
        4    1    3    3  502    0  0.90282073043E+03  0.59667334429E+03  0.27064569948E+03  0.11155066376E+04  0.12699999809E+01 0. -1.
       -4    1    3    3    0  502 -0.90282073043E+03 -0.59667334429E+03  0.70250912197E+03  0.12902034841E+04  0.12699999809E+01 0.  1.
</event>
<event>
 5   0  0.2581058E-06  0.2200726E+04  0.7818609E-02  0.8518126E-01
       -2   -1    0    0    0  501  0.00000000000E+00  0.00000000000E+00  0.58513909303E+03  0.58513909304E+03  0.25500000920E-02 0. -1.
        2   -1    0    0  501    0  0.00000000000E+00  0.00000000000E+00 -0.20692502944E+04  0.20692502944E+04  0.25500000920E-02 0.  1.
    10030    2    1    2    0    0  0.00000000000E+00  0.00000000000E+00 -0.14841112014E+04  0.26543893874E+04  0.22007264624E+04 0.  0.
        1    1    3    3  502    0  0.98143312673E+03  0.41082236254E+03 -0.10806643460E+04  0.15165162131E+04  0.50400001928E-02 0.  1.
       -1    1    3    3    0  502 -0.98143312673E+03 -0.41082236254E+03 -0.40344685538E+03  0.11378731744E+04  0.50400001928E-02 0. -1.
</event>
<event>
 5   0  0.1144271E-06  0.2200222E+04  0.7818609E-02  0.8518336E-01
        1   -1    0    0  501    0  0.00000000000E+00  0.00000000000E+00  0.14159673099E+04  0.14159673099E+04  0.50400001928E-02 0.  1.
       -1   -1    0    0    0  501  0.00000000000E+00  0.00000000000E+00 -0.85471179298E+03  0.85471179300E+03  0.50400001928E-02 0. -1.
    10030    2    1    2    0    0  0.00000000000E+00  0.00000000000E+00  0.56125551691E+03  0.22706791029E+04  0.22002217691E+04 0.  0.
        3    1    3    3  502    0  0.69816210663E+03 -0.14119304008E+03  0.11458532896E+04  0.13492018282E+04  0.10100000352E+00 0.  1.
       -3    1    3    3    0  502 -0.69816210663E+03  0.14119304008E+03 -0.58459777272E+03  0.92147727469E+03  0.10100000352E+00 0. -1.
</event>
<event>
 5   0  0.2524749E-06  0.2198877E+04  0.7818609E-02  0.8518895E-01
        2   -1    0    0  501    0  0.00000000000E+00  0.00000000000E+00  0.15190154718E+04  0.15190154718E+04  0.25500000920E-02 0. -1.
       -2   -1    0    0    0  501  0.00000000000E+00  0.00000000000E+00 -0.79575590202E+03  0.79575590203E+03  0.25500000920E-02 0.  1.
    10030    2    1    2    0    0  0.00000000000E+00  0.00000000000E+00  0.72325956976E+03  0.23147713738E+04  0.21988774654E+04 0.  0.
        4    1    3    3  502    0 -0.37404283560E+03 -0.74650216494E+03  0.11145834694E+04  0.13926490758E+04  0.12699999809E+01 0. -1.
       -4    1    3    3    0  502  0.37404283560E+03  0.74650216494E+03 -0.39132389967E+03  0.92212229800E+03  0.12699999809E+01 0.  1.
</event>
<event>
 5   0  0.2524749E-06  0.2200718E+04  0.7818609E-02  0.8518129E-01
        2   -1    0    0  501    0  0.00000000000E+00  0.00000000000E+00  0.10566379681E+04  0.10566379681E+04  0.25500000920E-02 0. -1.
       -2   -1    0    0    0  501  0.00000000000E+00  0.00000000000E+00 -0.11458888959E+04  0.11458888959E+04  0.25500000920E-02 0.  1.
    10030    2    1    2    0    0  0.00000000000E+00  0.00000000000E+00 -0.89250927761E+02  0.22025268640E+04  0.22007178053E+04 0.  0.
        4    1    3    3  502    0 -0.95119738507E+03 -0.43490738286E+02 -0.59654972510E+03  0.11236285405E+04  0.12699999809E+01 0.  1.
       -4    1    3    3    0  502  0.95119738507E+03  0.43490738286E+02  0.50729879734E+03  0.10788983235E+04  0.12699999809E+01 0. -1.
</event>
<event>
 5   0  0.2556869E-06  0.2202312E+04  0.7818609E-02  0.8517467E-01
       -2   -1    0    0    0  501  0.00000000000E+00  0.00000000000E+00  0.69952336128E+03  0.69952336128E+03  0.25500000920E-02 0. -1.
        2   -1    0    0  501    0  0.00000000000E+00  0.00000000000E+00 -0.17333863401E+04  0.17333863401E+04  0.25500000920E-02 0.  1.
    10030    2    1    2    0    0  0.00000000000E+00  0.00000000000E+00 -0.10338629788E+04  0.24329097014E+04  0.22023117300E+04 0.  0.
        5    1    3    3  502    0  0.76641362344E+03  0.78075734813E+03 -0.65468927973E+03  0.12749949105E+04  0.46999998093E+01 0. -1.
       -5    1    3    3    0  502 -0.76641362344E+03 -0.78075734813E+03 -0.37917369911E+03  0.11579147909E+04  0.46999998093E+01 0.  1.
</event>
<event>
 5   0  0.2606154E-06  0.2200200E+04  0.7818609E-02  0.8518345E-01
       -2   -1    0    0    0  501  0.00000000000E+00  0.00000000000E+00  0.72388738352E+03  0.72388738352E+03  0.25500000920E-02 0. -1.
        2   -1    0    0  501    0  0.00000000000E+00  0.00000000000E+00 -0.16718341897E+04  0.16718341897E+04  0.25500000920E-02 0.  1.
    10030    2    1    2    0    0  0.00000000000E+00  0.00000000000E+00 -0.94794680621E+03  0.23957215732E+04  0.22001996976E+04 0.  0.
        2    1    3    3  502    0  0.44028452507E+03  0.58438511303E+03 -0.13684770877E+04  0.15518008773E+04  0.25500000920E-02 0.  1.
       -2    1    3    3    0  502 -0.44028452507E+03 -0.58438511303E+03  0.42053028148E+03  0.84392069592E+03  0.25500000920E-02 0. -1.
</event>
<event>
 5   0  0.2532239E-06  0.2199135E+04  0.7818609E-02  0.8518788E-01
        2   -1    0    0  501    0  0.00000000000E+00  0.00000000000E+00  0.15033425626E+04  0.15033425626E+04  0.25500000920E-02 0. -1.
       -2   -1    0    0    0  501  0.00000000000E+00  0.00000000000E+00 -0.80424049374E+03  0.80424049375E+03  0.25500000920E-02 0.  1.
    10030    2    1    2    0    0  0.00000000000E+00  0.00000000000E+00  0.69910206889E+03  0.23075830564E+04  0.21991352526E+04 0.  0.
        3    1    3    3  502    0  0.65852269837E+03  0.83316672558E+03  0.50487352996E+02  0.10631876221E+04  0.10100000352E+00 0. -1.
       -3    1    3    3    0  502 -0.65852269837E+03 -0.83316672558E+03  0.64861471590E+03  0.12443954342E+04  0.10100000352E+00 0.  1.
</event>
<event>
 5   0  0.2532239E-06  0.2200278E+04  0.7818609E-02  0.8518312E-01
       -2   -1    0    0    0  501  0.00000000000E+00  0.00000000000E+00  0.83766859380E+03  0.83766859381E+03  0.25500000920E-02 0. -1.
        2   -1    0    0  501    0  0.00000000000E+00  0.00000000000E+00 -0.14448507740E+04  0.14448507740E+04  0.25500000920E-02 0.  1.
    10030    2    1    2    0    0  0.00000000000E+00  0.00000000000E+00 -0.60718218016E+03  0.22825193678E+04  0.22002782698E+04 0.  0.
        3    1    3    3  502    0  0.39692568938E+03 -0.99442112933E+03 -0.56578860015E+03  0.12110079007E+04  0.10100000352E+00 0.  1.
       -3    1    3    3    0  502 -0.39692568938E+03  0.99442112933E+03 -0.41393580008E+02  0.10715114670E+04  0.10100000352E+00 0. -1.
</event>
<event>
 5   0  0.2606154E-06  0.2200910E+04  0.7818609E-02  0.8518049E-01
       -2   -1    0    0    0  501  0.00000000000E+00  0.00000000000E+00  0.60917144917E+03  0.60917144917E+03  0.25500000920E-02 0. -1.
        2   -1    0    0  501    0  0.00000000000E+00  0.00000000000E+00 -0.19879488310E+04  0.19879488310E+04  0.25500000920E-02 0.  1.
    10030    2    1    2    0    0  0.00000000000E+00  0.00000000000E+00 -0.13787773818E+04  0.25971202801E+04  0.22009104209E+04 0.  0.
        2    1    3    3  502    0  0.48396435662E+03 -0.93650170650E+03 -0.10620674721E+04  0.14964104584E+04  0.25500000920E-02 0. -1.
       -2    1    3    3    0  502 -0.48396435662E+03  0.93650170650E+03 -0.31670990973E+03  0.11007098217E+04  0.25500000920E-02 0.  1.
</event>
<event>
 5   0  0.8905000E-07  0.2200170E+04  0.7818609E-02  0.8518357E-01
        3   -1    0    0  501    0  0.00000000000E+00  0.00000000000E+00  0.12897948383E+04  0.12897948423E+04  0.10100000352E+00 0. -1.
       -3   -1    0    0    0  501  0.00000000000E+00  0.00000000000E+00 -0.93827891761E+03  0.93827892305E+03  0.10100000352E+00 0.  1.
    10030    2    1    2    0    0  0.00000000000E+00  0.00000000000E+00  0.35151592073E+03  0.22280737653E+04  0.22001702801E+04 0.  0.
        3    1    3    3  502    0 -0.24670049607E+03 -0.12693430307E+03  0.12537838939E+04  0.12841135132E+04  0.10100000352E+00 0. -1.
       -3    1    3    3    0  502  0.24670049607E+03  0.12693430307E+03 -0.90226797314E+03  0.94396025214E+03  0.10100000352E+00 0.  1.
</event>
<event>
 5   0  0.8905000E-07  0.2193311E+04  0.7818609E-02  0.8521217E-01
       -4   -1    0    0    0  501  0.00000000000E+00  0.00000000000E+00  0.11641975427E+04  0.11641982354E+04  0.12699999809E+01 0. -1.
        4   -1    0    0  501    0  0.00000000000E+00  0.00000000000E+00 -0.10330308595E+04  0.10330316402E+04  0.12699999809E+01 0.  1.
    10030    2    1    2    0    0  0.00000000000E+00  0.00000000000E+00  0.13116668316E+03  0.21972298756E+04  0.21933112929E+04 0.  0.
        1    1    3    3  502    0 -0.62473185739E+02  0.37062397225E+03 -0.96649443311E+03  0.10370036244E+04  0.50400001928E-02 0.  1.
       -1    1    3    3    0  502  0.62473185739E+02 -0.37062397225E+03  0.10976611163E+04  0.11602262512E+04  0.50400001928E-02 0. -1.
</event>
<event>
 5   0  0.2532239E-06  0.2200879E+04  0.7818609E-02  0.8518062E-01
        2   -1    0    0  501    0  0.00000000000E+00  0.00000000000E+00  0.10484289568E+04  0.10484289568E+04  0.25500000920E-02 0.  1.
       -2   -1    0    0    0  501  0.00000000000E+00  0.00000000000E+00 -0.11550301306E+04  0.11550301306E+04  0.25500000920E-02 0. -1.
    10030    2    1    2    0    0  0.00000000000E+00  0.00000000000E+00 -0.10660117377E+03  0.22034590874E+04  0.22008789470E+04 0.  0.
        3    1    3    3  502    0 -0.92225511813E+03 -0.27996470939E+03 -0.58499028637E+03  0.11274521661E+04  0.10100000352E+00 0. -1.
       -3    1    3    3    0  502  0.92225511813E+03  0.27996470939E+03  0.47838911261E+03  0.10760069213E+04  0.10100000352E+00 0.  1.
</event>
<event>
 5   0  0.1146827E-06  0.2199947E+04  0.7818609E-02  0.8518450E-01
       -1   -1    0    0    0  501  0.00000000000E+00  0.00000000000E+00  0.70265489809E+03  0.70265489811E+03  0.50400001928E-02 0.  1.
        1   -1    0    0  501    0  0.00000000000E+00  0.00000000000E+00 -0.17219578808E+04  0.17219578808E+04  0.50400001928E-02 0. -1.
    10030    2    1    2    0    0  0.00000000000E+00  0.00000000000E+00 -0.10193029827E+04  0.24246127789E+04  0.21999473987E+04 0.  0.
        4    1    3    3  502    0 -0.34680044981E+03  0.10420776015E+04 -0.44221230459E+03  0.11839550730E+04  0.12699999809E+01 0. -1.
       -4    1    3    3    0  502  0.34680044981E+03 -0.10420776015E+04 -0.57709067810E+03  0.12406577059E+04  0.12699999809E+01 0.  1.
</event>
<event>
 5   0  0.2581058E-06  0.2200638E+04  0.7818609E-02  0.8518163E-01
       -2   -1    0    0    0  501  0.00000000000E+00  0.00000000000E+00  0.58113032490E+03  0.58113032491E+03  0.25500000920E-02 0.  1.
        2   -1    0    0  501    0  0.00000000000E+00  0.00000000000E+00 -0.20833564055E+04  0.20833564055E+04  0.25500000920E-02 0. -1.
    10030    2    1    2    0    0  0.00000000000E+00  0.00000000000E+00 -0.15022260806E+04  0.26644867304E+04  0.22006377119E+04 0.  0.
        1    1    3    3  502    0  0.73944845793E+03 -0.52274475896E+03  0.56535854353E+01  0.90558161863E+03  0.50400001928E-02 0.  1.
       -1    1    3    3    0  502 -0.73944845793E+03  0.52274475896E+03 -0.15078796660E+04  0.17589051117E+04  0.50400001928E-02 0. -1.
</event>
<event>
 5   0  0.2606154E-06  0.2200970E+04  0.7818609E-02  0.8518024E-01
       -2   -1    0    0    0  501  0.00000000000E+00  0.00000000000E+00  0.53346254311E+03  0.53346254311E+03  0.25500000920E-02 0.  1.
        2   -1    0    0  501    0  0.00000000000E+00  0.00000000000E+00 -0.22702018700E+04  0.22702018700E+04  0.25500000920E-02 0. -1.
    10030    2    1    2    0    0  0.00000000000E+00  0.00000000000E+00 -0.17367393269E+04  0.28036644131E+04  0.22009703887E+04 0.  0.
        2    1    3    3  502    0 -0.10726643909E+04 -0.22765528306E+03 -0.98671836820E+03  0.14751437088E+04  0.25500000920E-02 0.  1.
       -2    1    3    3    0  502  0.10726643909E+04  0.22765528306E+03 -0.75002095872E+03  0.13285207044E+04  0.25500000920E-02 0. -1.
</event>
<event>
 5   0  0.1082209E-06  0.2199927E+04  0.7818609E-02  0.8518458E-01
       -1   -1    0    0    0  501  0.00000000000E+00  0.00000000000E+00  0.46602011294E+03  0.46602011296E+03  0.50400001928E-02 0.  1.
        1   -1    0    0  501    0  0.00000000000E+00  0.00000000000E+00 -0.25962822988E+04  0.25962822988E+04  0.50400001928E-02 0. -1.
    10030    2    1    2    0    0  0.00000000000E+00  0.00000000000E+00 -0.21302621859E+04  0.30623024118E+04  0.21999270626E+04 0.  0.
        2    1    3    3  502    0 -0.77788404928E+03 -0.23189683785E+03 -0.20984428473E+04  0.22499649155E+04  0.25500000920E-02 0. -1.
       -2    1    3    3    0  502  0.77788404928E+03  0.23189683785E+03 -0.31819338550E+02  0.81233749627E+03  0.25500000920E-02 0.  1.
</event>
<event>
 5   0  0.2556869E-06  0.2199946E+04  0.7818609E-02  0.8518450E-01
        2   -1    0    0  501    0  0.00000000000E+00  0.00000000000E+00  0.13339731422E+04  0.13339731422E+04  0.25500000920E-02 0. -1.
       -2   -1    0    0    0  501  0.00000000000E+00  0.00000000000E+00 -0.90702048696E+03  0.90702048696E+03  0.25500000920E-02 0.  1.
    10030    2    1    2    0    0  0.00000000000E+00  0.00000000000E+00  0.42695265522E+03  0.22409936291E+04  0.21999463348E+04 0.  0.
        5    1    3    3  502    0 -0.29476479969E+03 -0.65878005733E+03 -0.63209685758E+03  0.95939875882E+03  0.46999998093E+01 0.  1.
       -5    1    3    3    0  502  0.29476479969E+03  0.65878005733E+03  0.10590495128E+04  0.12815948703E+04  0.46999998093E+01 0. -1.
</event>
<event>
 5   0  0.1144271E-06  0.2196420E+04  0.7818609E-02  0.8519920E-01
        1   -1    0    0  501    0  0.00000000000E+00  0.00000000000E+00  0.13754313109E+04  0.13754313109E+04  0.50400001928E-02 0.  1.
       -1   -1    0    0    0  501  0.00000000000E+00  0.00000000000E+00 -0.87686302347E+03  0.87686302348E+03  0.50400001928E-02 0. -1.
    10030    2    1    2    0    0  0.00000000000E+00  0.00000000000E+00  0.49856828739E+03  0.22522943344E+04  0.21964196847E+04 0.  0.
        3    1    3    3  502    0 -0.10150840777E+04  0.41788257412E+03  0.28240625161E+03  0.11334790831E+04  0.10100000352E+00 0. -1.
       -3    1    3    3    0  502  0.10150840777E+04 -0.41788257412E+03  0.21616203578E+03  0.11188152513E+04  0.10100000352E+00 0.  1.
</event>
<event>
 5   0  0.1144271E-06  0.2201301E+04  0.7818609E-02  0.8517887E-01
        1   -1    0    0  501    0  0.00000000000E+00  0.00000000000E+00  0.11989005034E+04  0.11989005034E+04  0.50400001928E-02 0. -1.
       -1   -1    0    0    0  501  0.00000000000E+00  0.00000000000E+00 -0.10104522877E+04  0.10104522877E+04  0.50400001928E-02 0.  1.
    10030    2    1    2    0    0  0.00000000000E+00  0.00000000000E+00  0.18844821566E+03  0.22093527911E+04  0.22013012119E+04 0.  0.
        3    1    3    3  502    0  0.81870417822E+03 -0.69531788589E+03  0.33528640358E+03  0.11252379644E+04  0.10100000352E+00 0. -1.
       -3    1    3    3    0  502 -0.81870417822E+03  0.69531788589E+03 -0.14683818792E+03  0.10841148267E+04  0.10100000352E+00 0.  1.
</event>
<event>
 5   0  0.1146827E-06  0.2202406E+04  0.7818609E-02  0.8517427E-01
        1   -1    0    0  501    0  0.00000000000E+00  0.00000000000E+00  0.16977726082E+04  0.16977726082E+04  0.50400001928E-02 0. -1.
       -1   -1    0    0    0  501  0.00000000000E+00  0.00000000000E+00 -0.71425816420E+03  0.71425816422E+03  0.50400001928E-02 0.  1.
    10030    2    1    2    0    0  0.00000000000E+00  0.00000000000E+00  0.98351444395E+03  0.24120307724E+04  0.22024059084E+04 0.  0.
        4    1    3    3  502    0  0.43420540445E+03  0.66312504897E+03  0.13289627765E+04  0.15473890390E+04  0.12699999809E+01 0. -1.
       -4    1    3    3    0  502 -0.43420540445E+03 -0.66312504897E+03 -0.34544833251E+03  0.86464173341E+03  0.12699999809E+01 0.  1.
</event>
<event>
 5   0  0.2524749E-06  0.2200592E+04  0.7818609E-02  0.8518182E-01
        2   -1    0    0  501    0  0.00000000000E+00  0.00000000000E+00  0.15748049931E+04  0.15748049931E+04  0.25500000920E-02 0.  1.
       -2   -1    0    0    0  501  0.00000000000E+00  0.00000000000E+00 -0.76876250181E+03  0.76876250182E+03  0.25500000920E-02 0. -1.
    10030    2    1    2    0    0  0.00000000000E+00  0.00000000000E+00  0.80604249133E+03  0.23435674950E+04  0.22005917626E+04 0.  0.
        4    1    3    3  502    0 -0.73290511493E+03 -0.80910583219E+03  0.54922619492E+03  0.12220692211E+04  0.12699999809E+01 0. -1.
       -4    1    3    3    0  502  0.73290511493E+03  0.80910583219E+03  0.25681629641E+03  0.11214982738E+04  0.12699999809E+01 0.  1.
</event>
<event>
 5   0  0.2606154E-06  0.2201285E+04  0.7818609E-02  0.8517893E-01
       -2   -1    0    0    0  501  0.00000000000E+00  0.00000000000E+00  0.42037943129E+03  0.42037943130E+03  0.25500000920E-02 0. -1.
        2   -1    0    0  501    0  0.00000000000E+00  0.00000000000E+00 -0.28817162578E+04  0.28817162578E+04  0.25500000920E-02 0.  1.
    10030    2    1    2    0    0  0.00000000000E+00  0.00000000000E+00 -0.24613368265E+04  0.33020956891E+04  0.22012852987E+04 0.  0.
        2    1    3    3  502    0  0.66009457207E+03  0.83927451761E+03 -0.83009559185E+03  0.13524663588E+04  0.25500000920E-02 0. -1.
       -2    1    3    3    0  502 -0.66009457207E+03 -0.83927451761E+03 -0.16312412346E+04  0.19496293303E+04  0.25500000920E-02 0.  1.
</event>
<event>
 5   0  0.2524749E-06  0.2200602E+04  0.7818609E-02  0.8518178E-01
        2   -1    0    0  501    0  0.00000000000E+00  0.00000000000E+00  0.16702997734E+04  0.16702997734E+04  0.25500000920E-02 0. -1.
       -2   -1    0    0    0  501  0.00000000000E+00  0.00000000000E+00 -0.72481734034E+03  0.72481734034E+03  0.25500000920E-02 0.  1.
    10030    2    1    2    0    0  0.00000000000E+00  0.00000000000E+00  0.94548243309E+03  0.23951171138E+04  0.22006019534E+04 0.  0.
        4    1    3    3  502    0  0.86600444043E+03 -0.18447724958E+03 -0.23819200608E+03  0.91691471311E+03  0.12699999809E+01 0.  1.
       -4    1    3    3    0  502 -0.86600444043E+03  0.18447724958E+03  0.11836744392E+04  0.14782024007E+04  0.12699999809E+01 0. -1.
</event>
<event>
 5   0  0.2581058E-06  0.2199574E+04  0.7818609E-02  0.8518606E-01
       -2   -1    0    0    0  501  0.00000000000E+00  0.00000000000E+00  0.81280514059E+03  0.81280514059E+03  0.25500000920E-02 0. -1.
        2   -1    0    0  501    0  0.00000000000E+00  0.00000000000E+00 -0.14880948018E+04  0.14880948018E+04  0.25500000920E-02 0.  1.
    10030    2    1    2    0    0  0.00000000000E+00  0.00000000000E+00 -0.67528966118E+03  0.23008999424E+04  0.21995736901E+04 0.  0.
        1    1    3    3  502    0 -0.10167952589E+04  0.37457210161E+03 -0.14095585829E+03  0.10927238498E+04  0.50400001928E-02 0. -1.
       -1    1    3    3    0  502  0.10167952589E+04 -0.37457210161E+03 -0.53433380290E+03  0.12081760926E+04  0.50400001928E-02 0.  1.
</event>
<event>
 5   0  0.2532239E-06  0.2207466E+04  0.7818609E-02  0.8515327E-01
        2   -1    0    0  501    0  0.00000000000E+00  0.00000000000E+00  0.19921683734E+04  0.19921683734E+04  0.25500000920E-02 0. -1.
       -2   -1    0    0    0  501  0.00000000000E+00  0.00000000000E+00 -0.61150806410E+03  0.61150806410E+03  0.25500000920E-02 0.  1.
    10030    2    1    2    0    0  0.00000000000E+00  0.00000000000E+00  0.13806603093E+04  0.26036764375E+04  0.22074664441E+04 0.  0.
        3    1    3    3  502    0 -0.70020789788E+03  0.47968359211E+03 -0.14188880788E+03  0.86053465520E+03  0.10100000352E+00 0.  1.
       -3    1    3    3    0  502  0.70020789788E+03 -0.47968359211E+03  0.15225491172E+04  0.17431417823E+04  0.10100000352E+00 0. -1.
</event>
<event>
 5   0  0.1107101E-06  0.2200431E+04  0.7818609E-02  0.8518249E-01
        1   -1    0    0  501    0  0.00000000000E+00  0.00000000000E+00  0.10466046515E+04  0.10466046515E+04  0.50400001928E-02 0.  1.
       -1   -1    0    0    0  501  0.00000000000E+00  0.00000000000E+00 -0.11565724029E+04  0.11565724029E+04  0.50400001928E-02 0. -1.
    10030    2    1    2    0    0  0.00000000000E+00  0.00000000000E+00 -0.10996775139E+03  0.22031770544E+04  0.22004309184E+04 0.  0.
        1    1    3    3  502    0  0.51666504801E+03  0.85340491060E+03  0.40952543062E+03  0.10784033529E+04  0.50400001928E-02 0. -1.
       -1    1    3    3    0  502 -0.51666504801E+03 -0.85340491060E+03 -0.51949318201E+03  0.11247737014E+04  0.50400001928E-02 0.  1.
</event>
<event>
 5   0  0.2606154E-06  0.2199943E+04  0.7818609E-02  0.8518452E-01
        2   -1    0    0  501    0  0.00000000000E+00  0.00000000000E+00  0.91271325823E+03  0.91271325824E+03  0.25500000920E-02 0.  1.
       -2   -1    0    0    0  501  0.00000000000E+00  0.00000000000E+00 -0.13256489390E+04  0.13256489390E+04  0.25500000920E-02 0. -1.
    10030    2    1    2    0    0  0.00000000000E+00  0.00000000000E+00 -0.41293568073E+03  0.22383621972E+04  0.21999430560E+04 0.  0.
        2    1    3    3  502    0  0.30973866217E+03  0.31279163227E+02 -0.12798900828E+04  0.13172072916E+04  0.25500000920E-02 0. -1.
       -2    1    3    3    0  502 -0.30973866217E+03 -0.31279163227E+02  0.86695440207E+03  0.92115490563E+03  0.25500000920E-02 0.  1.
</event>
<event>
 5   0  0.1082209E-06  0.2195568E+04  0.7818609E-02  0.8520275E-01
        1   -1    0    0  501    0  0.00000000000E+00  0.00000000000E+00  0.68859042715E+03  0.68859042717E+03  0.50400001928E-02 0. -1.
       -1   -1    0    0    0  501  0.00000000000E+00  0.00000000000E+00 -0.17501407542E+04  0.17501407542E+04  0.50400001928E-02 0.  1.
    10030    2    1    2    0    0  0.00000000000E+00  0.00000000000E+00 -0.10615503270E+04  0.24387311814E+04  0.21955684180E+04 0.  0.
        2    1    3    3  502    0 -0.82470330334E+03 -0.39796316719E+03  0.14177549480E+03  0.92661238494E+03  0.25500000920E-02 0. -1.
       -2    1    3    3    0  502  0.82470330334E+03  0.39796316719E+03 -0.12033258218E+04  0.15121187964E+04  0.25500000920E-02 0.  1.
</event>
<event>
 5   0  0.2524749E-06  0.2200001E+04  0.7818609E-02  0.8518428E-01
        2   -1    0    0  501    0  0.00000000000E+00  0.00000000000E+00  0.14516433018E+04  0.14516433019E+04  0.25500000920E-02 0. -1.
       -2   -1    0    0    0  501  0.00000000000E+00  0.00000000000E+00 -0.83353872049E+03  0.83353872049E+03  0.25500000920E-02 0.  1.
    10030    2    1    2    0    0  0.00000000000E+00  0.00000000000E+00  0.61810458136E+03  0.22851820223E+04  0.22000008186E+04 0.  0.
        4    1    3    3  502    0  0.61281032395E+03 -0.55868174837E+03  0.10597646377E+04  0.13456464949E+04  0.12699999809E+01 0. -1.
       -4    1    3    3    0  502 -0.61281032395E+03  0.55868174837E+03 -0.44166005630E+03  0.93953552744E+03  0.12699999809E+01 0.  1.
</event>
<event>
 5   0  0.2524749E-06  0.2200707E+04  0.7818609E-02  0.8518134E-01
        2   -1    0    0  501    0  0.00000000000E+00  0.00000000000E+00  0.12821343989E+04  0.12821343989E+04  0.25500000920E-02 0.  1.
       -2   -1    0    0    0  501  0.00000000000E+00  0.00000000000E+00 -0.94434517457E+03  0.94434517457E+03  0.25500000920E-02 0. -1.
    10030    2    1    2    0    0  0.00000000000E+00  0.00000000000E+00  0.33778922436E+03  0.22264795735E+04  0.22007066436E+04 0.  0.
        4    1    3    3  502    0 -0.63193383660E+03  0.25333885209E+03  0.10434572869E+04  0.12459236214E+04  0.12699999809E+01 0.  1.
       -4    1    3    3    0  502  0.63193383660E+03 -0.25333885209E+03 -0.70566806255E+03  0.98055595211E+03  0.12699999809E+01 0. -1.
</event>
<event>
 5   0  0.1107101E-06  0.2198008E+04  0.7818609E-02  0.8519257E-01
        1   -1    0    0  501    0  0.00000000000E+00  0.00000000000E+00  0.52525863353E+03  0.52525863355E+03  0.50400001928E-02 0.  1.
       -1   -1    0    0    0  501  0.00000000000E+00  0.00000000000E+00 -0.22994582508E+04  0.22994582508E+04  0.50400001928E-02 0. -1.
    10030    2    1    2    0    0  0.00000000000E+00  0.00000000000E+00 -0.17741996173E+04  0.28247168844E+04  0.21980084611E+04 0.  0.
        1    1    3    3  502    0  0.38464846064E+03  0.59508085326E+03  0.19250866080E+03  0.73425829562E+03  0.50400001928E-02 0.  1.
       -1    1    3    3    0  502 -0.38464846064E+03 -0.59508085326E+03 -0.19667082781E+04  0.20904585888E+04  0.50400001928E-02 0. -1.
</event>
<event>
 5   0  0.1144271E-06  0.2200067E+04  0.7818609E-02  0.8518400E-01
       -1   -1    0    0    0  501  0.00000000000E+00  0.00000000000E+00  0.93153900639E+03  0.93153900641E+03  0.50400001928E-02 0. -1.
        1   -1    0    0  501    0  0.00000000000E+00  0.00000000000E+00 -0.12990053783E+04  0.12990053783E+04  0.50400001928E-02 0.  1.
    10030    2    1    2    0    0  0.00000000000E+00  0.00000000000E+00 -0.36746637187E+03  0.22305443847E+04  0.22000674348E+04 0.  0.
        3    1    3    3  502    0  0.62575926323E+03  0.68470551466E+03  0.41579409770E+03  0.10165043233E+04  0.10100000352E+00 0. -1.
       -3    1    3    3    0  502 -0.62575926323E+03 -0.68470551466E+03 -0.78326046957E+03  0.12140400614E+04  0.10100000352E+00 0.  1.
</event>
<event>
 5   0  0.2532239E-06  0.2196818E+04  0.7818609E-02  0.8519754E-01
        2   -1    0    0  501    0  0.00000000000E+00  0.00000000000E+00  0.16465493803E+04  0.16465493803E+04  0.25500000920E-02 0.  1.
       -2   -1    0    0    0  501  0.00000000000E+00  0.00000000000E+00 -0.73274609172E+03  0.73274609172E+03  0.25500000920E-02 0. -1.
    10030    2    1    2    0    0  0.00000000000E+00  0.00000000000E+00  0.91380328856E+03  0.23792954720E+04  0.21968182658E+04 0.  0.
        3    1    3    3  502    0  0.68519465169E+03 -0.82065731351E+03  0.18390825019E+03  0.10848006230E+04  0.10100000352E+00 0. -1.
       -3    1    3    3    0  502 -0.68519465169E+03  0.82065731351E+03  0.72989503837E+03  0.12944948490E+04  0.10100000352E+00 0.  1.
</event>
<event>
 5   0  0.1137869E-06  0.2200042E+04  0.7818609E-02  0.8518411E-01
        1   -1    0    0  501    0  0.00000000000E+00  0.00000000000E+00  0.11670391070E+04  0.11670391070E+04  0.50400001928E-02 0.  1.
       -1   -1    0    0    0  501  0.00000000000E+00  0.00000000000E+00 -0.10368515955E+04  0.10368515956E+04  0.50400001928E-02 0. -1.
    10030    2    1    2    0    0  0.00000000000E+00  0.00000000000E+00  0.13018751148E+03  0.22038907026E+04  0.22000421452E+04 0.  0.
        5    1    3    3  502    0  0.12018303232E+03 -0.93010920736E+03  0.64097082349E+03  0.11359633733E+04  0.46999998093E+01 0.  1.
       -5    1    3    3    0  502 -0.12018303232E+03  0.93010920736E+03 -0.51078331200E+03  0.10679273293E+04  0.46999998093E+01 0. -1.
</event>
<event>
 5   0  0.1146827E-06  0.2199256E+04  0.7818609E-02  0.8518738E-01
        1   -1    0    0  501    0  0.00000000000E+00  0.00000000000E+00  0.24406257569E+04  0.24406257569E+04  0.50400001928E-02 0. -1.
       -1   -1    0    0    0  501  0.00000000000E+00  0.00000000000E+00 -0.49543938304E+03  0.49543938307E+03  0.50400001928E-02 0.  1.
    10030    2    1    2    0    0  0.00000000000E+00  0.00000000000E+00  0.19451863739E+04  0.29360651400E+04  0.21992563464E+04 0.  0.
        4    1    3    3  502    0 -0.64830843792E+03  0.80263971978E+03  0.46485096283E+03  0.11316458726E+04  0.12699999809E+01 0. -1.
       -4    1    3    3    0  502  0.64830843792E+03 -0.80263971978E+03  0.14803354110E+04  0.18044192674E+04  0.12699999809E+01 0.  1.
</event>
<event>
 5   0  0.2524749E-06  0.2200537E+04  0.7818609E-02  0.8518204E-01
        2   -1    0    0  501    0  0.00000000000E+00  0.00000000000E+00  0.13771092874E+04  0.13771092874E+04  0.25500000920E-02 0. -1.
       -2   -1    0    0    0  501  0.00000000000E+00  0.00000000000E+00 -0.87908148764E+03  0.87908148764E+03  0.25500000920E-02 0.  1.
    10030    2    1    2    0    0  0.00000000000E+00  0.00000000000E+00  0.49802779976E+03  0.22561907750E+04  0.22005374625E+04 0.  0.
        4    1    3    3  502    0 -0.79219031815E+03  0.69963377547E+03 -0.64558757442E+02  0.10588778806E+04  0.12699999809E+01 0.  1.
       -4    1    3    3    0  502  0.79219031815E+03 -0.69963377547E+03  0.56258655720E+03  0.11973128944E+04  0.12699999809E+01 0. -1.
</event>
<event>
 5   0  0.2581058E-06  0.2200659E+04  0.7818609E-02  0.8518154E-01
       -2   -1    0    0    0  501  0.00000000000E+00  0.00000000000E+00  0.78865734293E+03  0.78865734293E+03  0.25500000920E-02 0. -1.
        2   -1    0    0  501    0  0.00000000000E+00  0.00000000000E+00 -0.15351720096E+04  0.15351720096E+04  0.25500000920E-02 0.  1.
    10030    2    1    2    0    0  0.00000000000E+00  0.00000000000E+00 -0.74651466667E+03  0.23238293525E+04  0.22006586996E+04 0.  0.
        1    1    3    3  502    0  0.10187562453E+04 -0.40115375506E+03 -0.48862442763E+03  0.11989755852E+04  0.50400001928E-02 0.  1.
       -1    1    3    3    0  502 -0.10187562453E+04  0.40115375506E+03 -0.25789023904E+03  0.11248537674E+04  0.50400001928E-02 0. -1.
</event>
<event>
 5   0  0.1082209E-06  0.2199402E+04  0.7818609E-02  0.8518677E-01
        1   -1    0    0  501    0  0.00000000000E+00  0.00000000000E+00  0.11265832294E+04  0.11265832294E+04  0.50400001928E-02 0.  1.
       -1   -1    0    0    0  501  0.00000000000E+00  0.00000000000E+00 -0.10734605606E+04  0.10734605606E+04  0.50400001928E-02 0. -1.
    10030    2    1    2    0    0  0.00000000000E+00  0.00000000000E+00  0.53122668773E+02  0.22000437900E+04  0.21994023415E+04 0.  0.
        2    1    3    3  502    0 -0.33988456254E+03  0.21010534134E+03 -0.99827487378E+03  0.10752760083E+04  0.25500000920E-02 0. -1.
       -2    1    3    3    0  502  0.33988456254E+03 -0.21010534134E+03  0.10513975426E+04  0.11247677817E+04  0.25500000920E-02 0.  1.
</event>
<event>
 5   0  0.2606154E-06  0.2199843E+04  0.7818609E-02  0.8518494E-01
        2   -1    0    0  501    0  0.00000000000E+00  0.00000000000E+00  0.10658494216E+04  0.10658494216E+04  0.25500000920E-02 0. -1.
       -2   -1    0    0    0  501  0.00000000000E+00  0.00000000000E+00 -0.11350826305E+04  0.11350826305E+04  0.25500000920E-02 0.  1.
    10030    2    1    2    0    0  0.00000000000E+00  0.00000000000E+00 -0.69233208930E+02  0.22009320521E+04  0.21998428718E+04 0.  0.
        2    1    3    3  502    0  0.99155536443E+03 -0.38127325201E+02 -0.50939495178E+03  0.11154008027E+04  0.25500000920E-02 0.  1.
       -2    1    3    3    0  502 -0.99155536443E+03  0.38127325201E+02  0.44016174285E+03  0.10855312495E+04  0.25500000920E-02 0. -1.
</event>
<event>
 5   0  0.2581058E-06  0.2199770E+04  0.7818609E-02  0.8518524E-01
        2   -1    0    0  501    0  0.00000000000E+00  0.00000000000E+00  0.11968206864E+04  0.11968206864E+04  0.25500000920E-02 0. -1.
       -2   -1    0    0    0  501  0.00000000000E+00  0.00000000000E+00 -0.10108002745E+04  0.10108002745E+04  0.25500000920E-02 0.  1.
    10030    2    1    2    0    0  0.00000000000E+00  0.00000000000E+00  0.18602041187E+03  0.22076209609E+04  0.21997696956E+04 0.  0.
        1    1    3    3  502    0  0.30626258253E+03  0.83720888597E+03  0.73953868803E+03  0.11582888065E+04  0.50400001928E-02 0. -1.
       -1    1    3    3    0  502 -0.30626258253E+03 -0.83720888597E+03 -0.55351827616E+03  0.10493321544E+04  0.50400001928E-02 0.  1.
</event>
<event>
 5   0  0.2532239E-06  0.2199583E+04  0.7818609E-02  0.8518602E-01
       -2   -1    0    0    0  501  0.00000000000E+00  0.00000000000E+00  0.11600689700E+04  0.11600689700E+04  0.25500000920E-02 0. -1.
        2   -1    0    0  501    0  0.00000000000E+00  0.00000000000E+00 -0.10426458836E+04  0.10426458836E+04  0.25500000920E-02 0.  1.
    10030    2    1    2    0    0  0.00000000000E+00  0.00000000000E+00  0.11742308640E+03  0.22027148535E+04  0.21995828115E+04 0.  0.
        3    1    3    3  502    0 -0.58593394239E+03  0.38973965233E+03 -0.78766974534E+03  0.10562382399E+04  0.10100000352E+00 0.  1.
       -3    1    3    3    0  502  0.58593394239E+03 -0.38973965233E+03  0.90509283174E+03  0.11464766137E+04  0.10100000352E+00 0. -1.
</event>
<event>
 5   0  0.2606154E-06  0.2199179E+04  0.7818609E-02  0.8518770E-01
       -2   -1    0    0    0  501  0.00000000000E+00  0.00000000000E+00  0.60540004409E+03  0.60540004409E+03  0.25500000920E-02 0. -1.
        2   -1    0    0  501    0  0.00000000000E+00  0.00000000000E+00 -0.19971863874E+04  0.19971863874E+04  0.25500000920E-02 0.  1.
    10030    2    1    2    0    0  0.00000000000E+00  0.00000000000E+00 -0.13917863433E+04  0.26025864315E+04  0.21991786894E+04 0.  0.
        2    1    3    3  502    0 -0.37814114801E+03 -0.87407593929E+03 -0.13463493301E+04  0.16491379548E+04  0.25500000920E-02 0.  1.
       -2    1    3    3    0  502  0.37814114801E+03  0.87407593929E+03 -0.45437013238E+02  0.95344847666E+03  0.25500000920E-02 0. -1.
</event>
<event>
 5   0  0.1137869E-06  0.2199716E+04  0.7818609E-02  0.8518546E-01
       -1   -1    0    0    0  501  0.00000000000E+00  0.00000000000E+00  0.12764818838E+04  0.12764818839E+04  0.50400001928E-02 0. -1.
        1   -1    0    0  501    0  0.00000000000E+00  0.00000000000E+00 -0.94767310954E+03  0.94767310955E+03  0.50400001928E-02 0.  1.
    10030    2    1    2    0    0  0.00000000000E+00  0.00000000000E+00  0.32880877430E+03  0.22241549934E+04  0.21997159418E+04 0.  0.
        5    1    3    3  502    0  0.20960171413E+03 -0.99569208893E+03  0.58657143004E+03  0.11744887173E+04  0.46999998093E+01 0. -1.
       -5    1    3    3    0  502 -0.20960171413E+03  0.99569208893E+03 -0.25776265573E+03  0.10496662761E+04  0.46999998093E+01 0.  1.
</event>
<event>
 5   0  0.2524749E-06  0.2195676E+04  0.7818609E-02  0.8520230E-01
       -2   -1    0    0    0  501  0.00000000000E+00  0.00000000000E+00  0.96110274433E+03  0.96110274433E+03  0.25500000920E-02 0. -1.
        2   -1    0    0  501    0  0.00000000000E+00  0.00000000000E+00 -0.12540261312E+04  0.12540261312E+04  0.25500000920E-02 0.  1.
    10030    2    1    2    0    0  0.00000000000E+00  0.00000000000E+00 -0.29292338690E+03  0.22151288756E+04  0.21956757103E+04 0.  0.
        4    1    3    3  502    0  0.66332538028E+03  0.48482643701E+03 -0.88105370654E+03  0.12047051427E+04  0.12699999809E+01 0.  1.
       -4    1    3    3    0  502 -0.66332538028E+03 -0.48482643701E+03  0.58813031964E+03  0.10104237329E+04  0.12699999809E+01 0. -1.
</event>
<event>
 5   0  0.1144271E-06  0.2200356E+04  0.7818609E-02  0.8518280E-01
        1   -1    0    0  501    0  0.00000000000E+00  0.00000000000E+00  0.57597565013E+03  0.57597565015E+03  0.50400001928E-02 0.  1.
       -1   -1    0    0    0  501  0.00000000000E+00  0.00000000000E+00 -0.21014623675E+04  0.21014623676E+04  0.50400001928E-02 0. -1.
    10030    2    1    2    0    0  0.00000000000E+00  0.00000000000E+00 -0.15254867174E+04  0.26774380177E+04  0.22003555653E+04 0.  0.
        3    1    3    3  502    0 -0.61259798549E+03 -0.88839855016E+03 -0.10233330083E+04  0.14871915585E+04  0.10100000352E+00 0. -1.
       -3    1    3    3    0  502  0.61259798549E+03  0.88839855016E+03 -0.50215370916E+03  0.11902464592E+04  0.10100000352E+00 0.  1.
</event>
<event>
 5   0  0.1107101E-06  0.2202556E+04  0.7818609E-02  0.8517365E-01
       -1   -1    0    0    0  501  0.00000000000E+00  0.00000000000E+00  0.94013704173E+03  0.94013704175E+03  0.50400001928E-02 0.  1.
        1   -1    0    0  501    0  0.00000000000E+00  0.00000000000E+00 -0.12900391092E+04  0.12900391092E+04  0.50400001928E-02 0. -1.
    10030    2    1    2    0    0  0.00000000000E+00  0.00000000000E+00 -0.34990206744E+03  0.22301761509E+04  0.22025562893E+04 0.  0.
        1    1    3    3  502    0 -0.58336065545E+03 -0.45671356207E+03 -0.99997947683E+03  0.12445303878E+04  0.50400001928E-02 0. -1.
       -1    1    3    3    0  502  0.58336065545E+03  0.45671356207E+03  0.65007740939E+03  0.98564576311E+03  0.50400001928E-02 0.  1.
</event>
<event>
 5   0  0.2532239E-06  0.2200790E+04  0.7818609E-02  0.8518099E-01
       -2   -1    0    0    0  501  0.00000000000E+00  0.00000000000E+00  0.13452305361E+04  0.13452305361E+04  0.25500000920E-02 0.  1.
        2   -1    0    0  501    0  0.00000000000E+00  0.00000000000E+00 -0.90012030929E+03  0.90012030929E+03  0.25500000920E-02 0. -1.
    10030    2    1    2    0    0  0.00000000000E+00  0.00000000000E+00  0.44511022684E+03  0.22453508454E+04  0.22007901547E+04 0.  0.
        3    1    3    3  502    0 -0.96970653273E+03 -0.30083509294E+03  0.65545375493E+03  0.12084916830E+04  0.10100000352E+00 0.  1.
       -3    1    3    3    0  502  0.96970653273E+03  0.30083509294E+03 -0.21034352809E+03  0.10368591625E+04  0.10100000352E+00 0. -1.
</event>
<event>
 5   0  0.8905000E-07  0.2200114E+04  0.7818609E-02  0.8518380E-01
       -3   -1    0    0    0  501  0.00000000000E+00  0.00000000000E+00  0.15379918309E+04  0.15379918343E+04  0.10100000352E+00 0.  1.
        3   -1    0    0  501    0  0.00000000000E+00  0.00000000000E+00 -0.78682202153E+03  0.78682202801E+03  0.10100000352E+00 0. -1.
    10030    2    1    2    0    0  0.00000000000E+00  0.00000000000E+00  0.75116980941E+03  0.23248138623E+04  0.22001144088E+04 0.  0.
        4    1    3    3  502    0 -0.47318068608E+03  0.17943989111E+03 -0.65651784817E+03  0.82892456476E+03  0.12699999809E+01 0. -1.
       -4    1    3    3    0  502  0.47318068608E+03 -0.17943989111E+03  0.14076876576E+04  0.14958892975E+04  0.12699999809E+01 0.  1.
</event>
<event>
 5   0  0.1144271E-06  0.2200007E+04  0.7818609E-02  0.8518425E-01
        1   -1    0    0  501    0  0.00000000000E+00  0.00000000000E+00  0.11928296471E+04  0.11928296471E+04  0.50400001928E-02 0.  1.
       -1   -1    0    0    0  501  0.00000000000E+00  0.00000000000E+00 -0.10144015300E+04  0.10144015300E+04  0.50400001928E-02 0. -1.
    10030    2    1    2    0    0  0.00000000000E+00  0.00000000000E+00  0.17842811714E+03  0.22072311771E+04  0.22000074718E+04 0.  0.
        3    1    3    3  502    0  0.66011287440E+03  0.33907172163E+03  0.90384662638E+03  0.11694688425E+04  0.10100000352E+00 0.  1.
       -3    1    3    3    0  502 -0.66011287440E+03 -0.33907172163E+03 -0.72541850924E+03  0.10377623346E+04  0.10100000352E+00 0. -1.
</event>
<event>
 5   0  0.1146827E-06  0.2199434E+04  0.7818609E-02  0.8518664E-01
        1   -1    0    0  501    0  0.00000000000E+00  0.00000000000E+00  0.13101334045E+04  0.13101334045E+04  0.50400001928E-02 0. -1.
       -1   -1    0    0    0  501  0.00000000000E+00  0.00000000000E+00 -0.92309482244E+03  0.92309482245E+03  0.50400001928E-02 0.  1.
    10030    2    1    2    0    0  0.00000000000E+00  0.00000000000E+00  0.38703858206E+03  0.22332282270E+04  0.21994338930E+04 0.  0.
        4    1    3    3  502    0  0.49477925446E+03 -0.61342628500E+03  0.97229660011E+03  0.12515832410E+04  0.12699999809E+01 0. -1.
       -4    1    3    3    0  502 -0.49477925446E+03  0.61342628500E+03 -0.58525801805E+03  0.98164498591E+03  0.12699999809E+01 0.  1.
</event>
<event>
 5   0  0.1137869E-06  0.2199354E+04  0.7818609E-02  0.8518697E-01
        1   -1    0    0  501    0  0.00000000000E+00  0.00000000000E+00  0.14517191414E+04  0.14517191414E+04  0.50400001928E-02 0. -1.
       -1   -1    0    0    0  501  0.00000000000E+00  0.00000000000E+00 -0.83300498079E+03  0.83300498081E+03  0.50400001928E-02 0.  1.
    10030    2    1    2    0    0  0.00000000000E+00  0.00000000000E+00  0.61871416057E+03  0.22847241222E+04  0.21993537919E+04 0.  0.
        5    1    3    3  502    0  0.96230155699E+03 -0.37429623350E+03  0.70238835394E+03  0.12487967996E+04  0.46999998093E+01 0.  1.
       -5    1    3    3    0  502 -0.96230155699E+03  0.37429623350E+03 -0.83674193369E+02  0.10359273226E+04  0.46999998093E+01 0. -1.
</event>
<event>
 5   0  0.1146827E-06  0.2203258E+04  0.7818609E-02  0.8517073E-01
        1   -1    0    0  501    0  0.00000000000E+00  0.00000000000E+00  0.10443499199E+04  0.10443499199E+04  0.50400001928E-02 0. -1.
       -1   -1    0    0    0  501  0.00000000000E+00  0.00000000000E+00 -0.11620492918E+04  0.11620492919E+04  0.50400001928E-02 0.  1.
    10030    2    1    2    0    0  0.00000000000E+00  0.00000000000E+00 -0.11769937199E+03  0.22063992117E+04  0.22032576652E+04 0.  0.
        4    1    3    3  502    0  0.12058464692E+03 -0.73265207200E+03  0.75610718531E+03  0.10597260987E+04  0.12699999809E+01 0. -1.
       -4    1    3    3    0  502 -0.12058464692E+03  0.73265207200E+03 -0.87380655730E+03  0.11466731130E+04  0.12699999809E+01 0.  1.
</event>
<event>
 5   0  0.2532239E-06  0.2199815E+04  0.7818609E-02  0.8518505E-01
        2   -1    0    0  501    0  0.00000000000E+00  0.00000000000E+00  0.10485843109E+04  0.10485843109E+04  0.25500000920E-02 0.  1.
       -2   -1    0    0    0  501  0.00000000000E+00  0.00000000000E+00 -0.11537422609E+04  0.11537422609E+04  0.25500000920E-02 0. -1.
    10030    2    1    2    0    0  0.00000000000E+00  0.00000000000E+00 -0.10515795001E+03  0.22023265718E+04  0.21998145682E+04 0.  0.
        3    1    3    3  502    0  0.61385413375E+03  0.22615155750E+03  0.83264483702E+03  0.10588951125E+04  0.10100000352E+00 0.  1.
       -3    1    3    3    0  502 -0.61385413375E+03 -0.22615155750E+03 -0.93780278703E+03  0.11434314593E+04  0.10100000352E+00 0. -1.
</event>
<event>
 5   0  0.1107101E-06  0.2200880E+04  0.7818609E-02  0.8518062E-01
        1   -1    0    0  501    0  0.00000000000E+00  0.00000000000E+00  0.16231658864E+04  0.16231658864E+04  0.50400001928E-02 0. -1.
       -1   -1    0    0    0  501  0.00000000000E+00  0.00000000000E+00 -0.74605340001E+03  0.74605340003E+03  0.50400001928E-02 0.  1.
    10030    2    1    2    0    0  0.00000000000E+00  0.00000000000E+00  0.87711248635E+03  0.23692192864E+04  0.22008802133E+04 0.  0.
        1    1    3    3  502    0 -0.18999148510E+03 -0.25451320258E+03  0.15727542159E+04  0.16045029007E+04  0.50400001928E-02 0. -1.
       -1    1    3    3    0  502  0.18999148510E+03  0.25451320258E+03 -0.69564172953E+03  0.76471638572E+03  0.50400001928E-02 0.  1.
</event>
<event>
 5   0  0.2532239E-06  0.2191960E+04  0.7818609E-02  0.8521782E-01
        2   -1    0    0  501    0  0.00000000000E+00  0.00000000000E+00  0.20873678643E+04  0.20873678643E+04  0.25500000920E-02 0. -1.
       -2   -1    0    0    0  501  0.00000000000E+00  0.00000000000E+00 -0.57544832147E+03  0.57544832147E+03  0.25500000920E-02 0.  1.
    10030    2    1    2    0    0  0.00000000000E+00  0.00000000000E+00  0.15119195429E+04  0.26628161858E+04  0.21919601582E+04 0.  0.
        3    1    3    3  502    0  0.87876207635E+03 -0.47307400457E+03  0.13061905072E+04  0.16438234248E+04  0.10100000352E+00 0.  1.
       -3    1    3    3    0  502 -0.87876207635E+03  0.47307400457E+03  0.20572903564E+03  0.10189927610E+04  0.10100000352E+00 0. -1.
</event>
<event>
 5   0  0.2524749E-06  0.2200245E+04  0.7818609E-02  0.8518326E-01
       -2   -1    0    0    0  501  0.00000000000E+00  0.00000000000E+00  0.15962508694E+04  0.15962508694E+04  0.25500000920E-02 0. -1.
        2   -1    0    0  501    0  0.00000000000E+00  0.00000000000E+00 -0.75819538308E+03  0.75819538309E+03  0.25500000920E-02 0.  1.
    10030    2    1    2    0    0  0.00000000000E+00  0.00000000000E+00  0.83805548630E+03  0.23544462525E+04  0.22002454767E+04 0.  0.
        4    1    3    3  502    0 -0.32815529687E+03 -0.10049130899E+04  0.93166321769E+02  0.10612340899E+04  0.12699999809E+01 0.  1.
       -4    1    3    3    0  502  0.32815529687E+03  0.10049130899E+04  0.74488916453E+03  0.12932121626E+04  0.12699999809E+01 0. -1.
</event>
<event>
 5   0  0.1146827E-06  0.2199677E+04  0.7818609E-02  0.8518563E-01
       -1   -1    0    0    0  501  0.00000000000E+00  0.00000000000E+00  0.85121973008E+03  0.85121973009E+03  0.50400001928E-02 0. -1.
        1   -1    0    0  501    0  0.00000000000E+00  0.00000000000E+00 -0.14210723867E+04  0.14210723867E+04  0.50400001928E-02 0.  1.
    10030    2    1    2    0    0  0.00000000000E+00  0.00000000000E+00 -0.56985265657E+03  0.22722921168E+04  0.21996771158E+04 0.  0.
        4    1    3    3  502    0  0.66554169911E+03 -0.50630795019E+03 -0.10228971265E+04  0.13212167263E+04  0.12699999809E+01 0.  1.
       -4    1    3    3    0  502 -0.66554169911E+03  0.50630795019E+03  0.45304446990E+03  0.95107539043E+03  0.12699999809E+01 0. -1.
</event>
<event>
 5   0  0.1107101E-06  0.2199905E+04  0.7818609E-02  0.8518468E-01
        1   -1    0    0  501    0  0.00000000000E+00  0.00000000000E+00  0.62580707919E+03  0.62580707921E+03  0.50400001928E-02 0. -1.
       -1   -1    0    0    0  501  0.00000000000E+00  0.00000000000E+00 -0.19333362376E+04  0.19333362376E+04  0.50400001928E-02 0.  1.
    10030    2    1    2    0    0  0.00000000000E+00  0.00000000000E+00 -0.13075291584E+04  0.25591433168E+04  0.21999050016E+04 0.  0.
        1    1    3    3  502    0 -0.10913328464E+04  0.13046273206E+03 -0.60349186151E+03  0.12538860925E+04  0.50400001928E-02 0. -1.
       -1    1    3    3    0  502  0.10913328464E+04 -0.13046273206E+03 -0.70403729688E+03  0.13052572243E+04  0.50400001928E-02 0.  1.
</event>
<event>
 5   0  0.2606154E-06  0.2201828E+04  0.7818609E-02  0.8517668E-01
       -2   -1    0    0    0  501  0.00000000000E+00  0.00000000000E+00  0.65871868116E+03  0.65871868116E+03  0.25500000920E-02 0. -1.
        2   -1    0    0  501    0  0.00000000000E+00  0.00000000000E+00 -0.18399531634E+04  0.18399531634E+04  0.25500000920E-02 0.  1.
    10030    2    1    2    0    0  0.00000000000E+00  0.00000000000E+00 -0.11812344822E+04  0.24986718445E+04  0.22018278962E+04 0.  0.
        2    1    3    3  502    0  0.37490982837E+03 -0.12934418898E+03 -0.17560717151E+04  0.18002986327E+04  0.25500000920E-02 0.  1.
       -2    1    3    3    0  502 -0.37490982837E+03  0.12934418898E+03  0.57483723286E+03  0.69837321177E+03  0.25500000920E-02 0. -1.
</event>
<event>
 5   0  0.2532239E-06  0.2201799E+04  0.7818609E-02  0.8517680E-01
        2   -1    0    0  501    0  0.00000000000E+00  0.00000000000E+00  0.19057168646E+04  0.19057168646E+04  0.25500000920E-02 0.  1.
       -2   -1    0    0    0  501  0.00000000000E+00  0.00000000000E+00 -0.63597028820E+03  0.63597028821E+03  0.25500000920E-02 0. -1.
    10030    2    1    2    0    0  0.00000000000E+00  0.00000000000E+00  0.12697465764E+04  0.25416871528E+04  0.22017986317E+04 0.  0.
        3    1    3    3  502    0 -0.99335594277E+03 -0.24099789124E+03  0.11068156456E+04  0.15066110633E+04  0.10100000352E+00 0.  1.
       -3    1    3    3    0  502  0.99335594277E+03  0.24099789124E+03  0.16293093081E+03  0.10350760895E+04  0.10100000352E+00 0. -1.
</event>
<event>
 5   0  0.1146827E-06  0.2200703E+04  0.7818609E-02  0.8518135E-01
        1   -1    0    0  501    0  0.00000000000E+00  0.00000000000E+00  0.11352437156E+04  0.11352437156E+04  0.50400001928E-02 0.  1.
       -1   -1    0    0    0  501  0.00000000000E+00  0.00000000000E+00 -0.10665320518E+04  0.10665320518E+04  0.50400001928E-02 0. -1.
    10030    2    1    2    0    0  0.00000000000E+00  0.00000000000E+00  0.68711663868E+02  0.22017757674E+04  0.22007033506E+04 0.  0.
        4    1    3    3  502    0  0.57808432620E+03 -0.81044801461E+03  0.50337498027E+03  0.11155247448E+04  0.12699999809E+01 0. -1.
       -4    1    3    3    0  502 -0.57808432620E+03  0.81044801461E+03 -0.43466331640E+03  0.10862510226E+04  0.12699999809E+01 0.  1.
</event>
<event>
 5   0  0.1082209E-06  0.2201428E+04  0.7818609E-02  0.8517834E-01
        1   -1    0    0  501    0  0.00000000000E+00  0.00000000000E+00  0.10447573045E+04  0.10447573045E+04  0.50400001928E-02 0. -1.
       -1   -1    0    0    0  501  0.00000000000E+00  0.00000000000E+00 -0.11596672950E+04  0.11596672951E+04  0.50400001928E-02 0.  1.
    10030    2    1    2    0    0  0.00000000000E+00  0.00000000000E+00 -0.11490999055E+03  0.22044245996E+04  0.22014276071E+04 0.  0.
        2    1    3    3  502    0 -0.37863539171E+03 -0.13814795260E+03  0.96820563223E+03  0.10487477118E+04  0.25500000920E-02 0. -1.
       -2    1    3    3    0  502  0.37863539171E+03  0.13814795260E+03 -0.10831156228E+04  0.11556768878E+04  0.25500000920E-02 0.  1.
</event>
<event>
 5   0  0.1107101E-06  0.2200560E+04  0.7818609E-02  0.8518195E-01
       -1   -1    0    0    0  501  0.00000000000E+00  0.00000000000E+00  0.73385540486E+03  0.73385540487E+03  0.50400001928E-02 0.  1.
        1   -1    0    0  501    0  0.00000000000E+00  0.00000000000E+00 -0.16496654864E+04  0.16496654864E+04  0.50400001928E-02 0. -1.
    10030    2    1    2    0    0  0.00000000000E+00  0.00000000000E+00 -0.91581008158E+03  0.23835208913E+04  0.22005598683E+04 0.  0.
        1    1    3    3  502    0  0.67399459201E+03 -0.83748312641E+03 -0.71185352576E+03  0.12893339906E+04  0.50400001928E-02 0.  1.
       -1    1    3    3    0  502 -0.67399459201E+03  0.83748312641E+03 -0.20395655582E+03  0.10941869007E+04  0.50400001928E-02 0. -1.
</event>
<event>
 5   0  0.2606154E-06  0.2196604E+04  0.7818609E-02  0.8519843E-01
        2   -1    0    0  501    0  0.00000000000E+00  0.00000000000E+00  0.11935210898E+04  0.11935210898E+04  0.25500000920E-02 0.  1.
       -2   -1    0    0    0  501  0.00000000000E+00  0.00000000000E+00 -0.10106797792E+04  0.10106797792E+04  0.25500000920E-02 0. -1.
    10030    2    1    2    0    0  0.00000000000E+00  0.00000000000E+00  0.18284131056E+03  0.22042008690E+04  0.21966043172E+04 0.  0.
        2    1    3    3  502    0 -0.17204608993E+03  0.76569883971E+03 -0.67959394601E+03  0.10381437770E+04  0.25500000920E-02 0. -1.
       -2    1    3    3    0  502  0.17204608993E+03 -0.76569883971E+03  0.86243525657E+03  0.11660570921E+04  0.25500000920E-02 0.  1.
</event>
<event>
 5   0  0.1137869E-06  0.2199378E+04  0.7818609E-02  0.8518687E-01
        1   -1    0    0  501    0  0.00000000000E+00  0.00000000000E+00  0.10312135421E+04  0.10312135421E+04  0.50400001928E-02 0.  1.
       -1   -1    0    0    0  501  0.00000000000E+00  0.00000000000E+00 -0.11727113890E+04  0.11727113891E+04  0.50400001928E-02 0. -1.
    10030    2    1    2    0    0  0.00000000000E+00  0.00000000000E+00 -0.14149784694E+03  0.22039249312E+04  0.21993779715E+04 0.  0.
        5    1    3    3  502    0 -0.38309109010E+03 -0.34977281891E+03 -0.10423895311E+04  0.11643443789E+04  0.46999998093E+01 0. -1.
       -5    1    3    3    0  502  0.38309109010E+03  0.34977281891E+03  0.90089168413E+03  0.10395805523E+04  0.46999998093E+01 0.  1.
</event>
<event>
 5   0  0.1144271E-06  0.2199719E+04  0.7818609E-02  0.8518545E-01
        1   -1    0    0  501    0  0.00000000000E+00  0.00000000000E+00  0.87456420529E+03  0.87456420530E+03  0.50400001928E-02 0.  1.
       -1   -1    0    0    0  501  0.00000000000E+00  0.00000000000E+00 -0.13831930625E+04  0.13831930625E+04  0.50400001928E-02 0. -1.
    10030    2    1    2    0    0  0.00000000000E+00  0.00000000000E+00 -0.50862885719E+03  0.22577572678E+04  0.21997192016E+04 0.  0.
        3    1    3    3  502    0  0.33733200573E+03 -0.78264929254E+03 -0.96789761520E+03  0.12896350650E+04  0.10100000352E+00 0. -1.
       -3    1    3    3    0  502 -0.33733200573E+03  0.78264929254E+03  0.45926875802E+03  0.96812220277E+03  0.10100000352E+00 0.  1.
</event>
<event>
 5   0  0.2532239E-06  0.2198991E+04  0.7818609E-02  0.8518848E-01
       -2   -1    0    0    0  501  0.00000000000E+00  0.00000000000E+00  0.10033320436E+04  0.10033320436E+04  0.25500000920E-02 0.  1.
        2   -1    0    0  501    0  0.00000000000E+00  0.00000000000E+00 -0.12048760450E+04  0.12048760450E+04  0.25500000920E-02 0. -1.
    10030    2    1    2    0    0  0.00000000000E+00  0.00000000000E+00 -0.20154400143E+03  0.22082080886E+04  0.21989913547E+04 0.  0.
        3    1    3    3  502    0 -0.59789768352E+03  0.90090725319E+03  0.99501156777E+02  0.10858250362E+04  0.10100000352E+00 0.  1.
       -3    1    3    3    0  502  0.59789768352E+03 -0.90090725319E+03 -0.30104515821E+03  0.11223830524E+04  0.10100000352E+00 0. -1.
</event>
<event>
 5   0  0.2532239E-06  0.2200399E+04  0.7818609E-02  0.8518262E-01
        2   -1    0    0  501    0  0.00000000000E+00  0.00000000000E+00  0.12822971202E+04  0.12822971202E+04  0.25500000920E-02 0.  1.
       -2   -1    0    0    0  501  0.00000000000E+00  0.00000000000E+00 -0.94396107810E+03  0.94396107811E+03  0.25500000920E-02 0. -1.
    10030    2    1    2    0    0  0.00000000000E+00  0.00000000000E+00  0.33833604209E+03  0.22262581983E+04  0.22003986657E+04 0.  0.
        3    1    3    3  502    0 -0.69261997904E+03  0.70387881092E+03 -0.32157951033E+03  0.10385476433E+04  0.10100000352E+00 0. -1.
       -3    1    3    3    0  502  0.69261997904E+03 -0.70387881092E+03  0.65991555241E+03  0.11877105550E+04  0.10100000352E+00 0.  1.
</event>
<event>
 5   0  0.1107101E-06  0.2199722E+04  0.7818609E-02  0.8518544E-01
        1   -1    0    0  501    0  0.00000000000E+00  0.00000000000E+00  0.16477243074E+04  0.16477243074E+04  0.50400001928E-02 0.  1.
       -1   -1    0    0    0  501  0.00000000000E+00  0.00000000000E+00 -0.73416035542E+03  0.73416035544E+03  0.50400001928E-02 0. -1.
    10030    2    1    2    0    0  0.00000000000E+00  0.00000000000E+00  0.91356395201E+03  0.23818846629E+04  0.21997216762E+04 0.  0.
        1    1    3    3  502    0  0.56965758629E+03  0.32649975393E+03 -0.49866188742E+03  0.82448501073E+03  0.50400001928E-02 0. -1.
       -1    1    3    3    0  502 -0.56965758629E+03 -0.32649975393E+03  0.14122258394E+04  0.15573996521E+04  0.50400001928E-02 0.  1.
</event>
<event>
 5   0  0.2581058E-06  0.2199857E+04  0.7818609E-02  0.8518488E-01
       -2   -1    0    0    0  501  0.00000000000E+00  0.00000000000E+00  0.81474418108E+03  0.81474418108E+03  0.25500000920E-02 0.  1.
        2   -1    0    0  501    0  0.00000000000E+00  0.00000000000E+00 -0.14849353853E+04  0.14849353853E+04  0.25500000920E-02 0. -1.
    10030    2    1    2    0    0  0.00000000000E+00  0.00000000000E+00 -0.67019120426E+03  0.22996795664E+04  0.21998567812E+04 0.  0.
        1    1    3    3  502    0  0.36366296754E+03 -0.10175193865E+04 -0.12023056144E+03  0.10872220766E+04  0.50400001928E-02 0.  1.
       -1    1    3    3    0  502 -0.36366296754E+03  0.10175193865E+04 -0.54996064282E+03  0.12124574898E+04  0.50400001928E-02 0. -1.
</event>
<event>
 5   0  0.1082209E-06  0.2201117E+04  0.7818609E-02  0.8517963E-01
        1   -1    0    0  501    0  0.00000000000E+00  0.00000000000E+00  0.16789130610E+04  0.16789130610E+04  0.50400001928E-02 0. -1.
       -1   -1    0    0    0  501  0.00000000000E+00  0.00000000000E+00 -0.72143670886E+03  0.72143670888E+03  0.50400001928E-02 0.  1.
    10030    2    1    2    0    0  0.00000000000E+00  0.00000000000E+00  0.95747635215E+03  0.24003497699E+04  0.22011174555E+04 0.  0.
        2    1    3    3  502    0  0.10632178846E+04  0.12695635883E+03  0.75607916218E+03  0.13108035271E+04  0.25500000920E-02 0. -1.
       -2    1    3    3    0  502 -0.10632178846E+04 -0.12695635883E+03  0.20139718997E+03  0.10895462428E+04  0.25500000920E-02 0.  1.
</event>
<event>
 5   0  0.1107101E-06  0.2200206E+04  0.7818609E-02  0.8518342E-01
       -1   -1    0    0    0  501  0.00000000000E+00  0.00000000000E+00  0.10340132059E+04  0.10340132059E+04  0.50400001928E-02 0. -1.
        1   -1    0    0  501    0  0.00000000000E+00  0.00000000000E+00 -0.11704168002E+04  0.11704168002E+04  0.50400001928E-02 0.  1.
    10030    2    1    2    0    0  0.00000000000E+00  0.00000000000E+00 -0.13640359434E+03  0.22044300062E+04  0.22002058339E+04 0.  0.
        1    1    3    3  502    0 -0.38547511171E+03 -0.40038596015E+03 -0.10194066553E+04  0.11610727401E+04  0.50400001928E-02 0.  1.
       -1    1    3    3    0  502  0.38547511171E+03  0.40038596015E+03  0.88300306101E+03  0.10433572660E+04  0.50400001928E-02 0. -1.
</event>
<event>
 5   0  0.8905000E-07  0.2200783E+04  0.7818609E-02  0.8518102E-01
        4   -1    0    0  501    0  0.00000000000E+00  0.00000000000E+00  0.83403756653E+03  0.83403853345E+03  0.12699999809E+01 0. -1.
       -4   -1    0    0    0  501  0.00000000000E+00  0.00000000000E+00 -0.14518050615E+04  0.14518056170E+04  0.12699999809E+01 0.  1.
    10030    2    1    2    0    0  0.00000000000E+00  0.00000000000E+00 -0.61776749495E+03  0.22858441504E+04  0.22007832247E+04 0.  0.
        5    1    3    3  502    0  0.96107566719E+03 -0.36894350081E+02  0.24639309721E+03  0.99285410785E+03  0.46999998093E+01 0.  1.
       -5    1    3    3    0  502 -0.96107566719E+03  0.36894350081E+02 -0.86416059216E+03  0.12929900426E+04  0.46999998093E+01 0. -1.
</event>
<event>
 5   0  0.2581058E-06  0.2197845E+04  0.7818609E-02  0.8519326E-01
        2   -1    0    0  501    0  0.00000000000E+00  0.00000000000E+00  0.13608117522E+04  0.13608117522E+04  0.25500000920E-02 0.  1.
       -2   -1    0    0    0  501  0.00000000000E+00  0.00000000000E+00 -0.88743398085E+03  0.88743398085E+03  0.25500000920E-02 0. -1.
    10030    2    1    2    0    0  0.00000000000E+00  0.00000000000E+00  0.47337777136E+03  0.22482457331E+04  0.21978449358E+04 0.  0.
        1    1    3    3  502    0  0.10333107770E+04 -0.34745467511E+03  0.95040782694E+02  0.10942982516E+04  0.50400001928E-02 0.  1.
       -1    1    3    3    0  502 -0.10333107770E+04  0.34745467511E+03  0.37833698867E+03  0.11539474815E+04  0.50400001928E-02 0. -1.
</event>
<event>
 5   0  0.1146827E-06  0.2199842E+04  0.7818609E-02  0.8518494E-01
        1   -1    0    0  501    0  0.00000000000E+00  0.00000000000E+00  0.94275663565E+03  0.94275663566E+03  0.50400001928E-02 0. -1.
       -1   -1    0    0    0  501  0.00000000000E+00  0.00000000000E+00 -0.12832854542E+04  0.12832854542E+04  0.50400001928E-02 0.  1.
    10030    2    1    2    0    0  0.00000000000E+00  0.00000000000E+00 -0.34052881857E+03  0.22260420899E+04  0.21998417011E+04 0.  0.
        4    1    3    3  502    0 -0.71851156756E+03 -0.21682344292E+03 -0.98392635011E+03  0.12374909913E+04  0.12699999809E+01 0.  1.
       -4    1    3    3    0  502  0.71851156756E+03  0.21682344292E+03  0.64339753154E+03  0.98855109863E+03  0.12699999809E+01 0. -1.
</event>
<event>
 5   0  0.1082209E-06  0.2199286E+04  0.7818609E-02  0.8518725E-01
       -1   -1    0    0    0  501  0.00000000000E+00  0.00000000000E+00  0.13932516114E+04  0.13932516114E+04  0.50400001928E-02 0. -1.
        1   -1    0    0  501    0  0.00000000000E+00  0.00000000000E+00 -0.86790824410E+03  0.86790824411E+03  0.50400001928E-02 0.  1.
    10030    2    1    2    0    0  0.00000000000E+00  0.00000000000E+00  0.52534336733E+03  0.22611598556E+04  0.21992858474E+04 0.  0.
        2    1    3    3  502    0  0.24074760692E+03 -0.62255002770E+03  0.11611491212E+04  0.13393264086E+04  0.25500000920E-02 0. -1.
       -2    1    3    3    0  502 -0.24074760692E+03  0.62255002770E+03 -0.63580575385E+03  0.92183344692E+03  0.25500000920E-02 0.  1.
</event>
<event>
 5   0  0.2606154E-06  0.2200325E+04  0.7818609E-02  0.8518293E-01
        2   -1    0    0  501    0  0.00000000000E+00  0.00000000000E+00  0.12455829492E+04  0.12455829492E+04  0.25500000920E-02 0. -1.
       -2   -1    0    0    0  501  0.00000000000E+00  0.00000000000E+00 -0.97171977377E+03  0.97171977378E+03  0.25500000920E-02 0.  1.
    10030    2    1    2    0    0  0.00000000000E+00  0.00000000000E+00  0.27386317544E+03  0.22173027230E+04  0.22003250502E+04 0.  0.
        2    1    3    3  502    0  0.66389903678E+03 -0.34893766558E+02 -0.74640380042E+03  0.99954896791E+03  0.25500000920E-02 0.  1.
       -2    1    3    3    0  502 -0.66389903678E+03  0.34893766558E+02  0.10202669759E+04  0.12177537551E+04  0.25500000920E-02 0. -1.
</event>
<event>
 5   0  0.1144271E-06  0.2200324E+04  0.7818609E-02  0.8518293E-01
        1   -1    0    0  501    0  0.00000000000E+00  0.00000000000E+00  0.20010149289E+04  0.20010149289E+04  0.50400001928E-02 0. -1.
       -1   -1    0    0    0  501  0.00000000000E+00  0.00000000000E+00 -0.60487139315E+03  0.60487139317E+03  0.50400001928E-02 0.  1.
    10030    2    1    2    0    0  0.00000000000E+00  0.00000000000E+00  0.13961435357E+04  0.26058863220E+04  0.22003242377E+04 0.  0.
        3    1    3    3  502    0 -0.12269694311E+03 -0.50309249266E+03 -0.45151128369E+03  0.68703642226E+03  0.10100000352E+00 0.  1.
       -3    1    3    3    0  502  0.12269694311E+03  0.50309249266E+03  0.18476548194E+04  0.19188498998E+04  0.10100000352E+00 0. -1.
</event>
<event>
 5   0  0.2556869E-06  0.2198362E+04  0.7818609E-02  0.8519110E-01
        2   -1    0    0  501    0  0.00000000000E+00  0.00000000000E+00  0.27622114035E+04  0.27622114035E+04  0.25500000920E-02 0.  1.
       -2   -1    0    0    0  501  0.00000000000E+00  0.00000000000E+00 -0.43740275782E+03  0.43740275783E+03  0.25500000920E-02 0. -1.
    10030    2    1    2    0    0  0.00000000000E+00  0.00000000000E+00  0.23248086457E+04  0.31996141614E+04  0.21983620135E+04 0.  0.
        5    1    3    3  502    0  0.83841100923E+03 -0.69475697446E+03  0.13809964238E+04  0.17586339831E+04  0.46999998093E+01 0. -1.
       -5    1    3    3    0  502 -0.83841100923E+03  0.69475697446E+03  0.94381222191E+03  0.14409801783E+04  0.46999998093E+01 0.  1.
</event>
<event>
 5   0  0.1144271E-06  0.2198853E+04  0.7818609E-02  0.8518905E-01
       -1   -1    0    0    0  501  0.00000000000E+00  0.00000000000E+00  0.73052702065E+03  0.73052702067E+03  0.50400001928E-02 0.  1.
        1   -1    0    0  501    0  0.00000000000E+00  0.00000000000E+00 -0.16546125339E+04  0.16546125339E+04  0.50400001928E-02 0. -1.
    10030    2    1    2    0    0  0.00000000000E+00  0.00000000000E+00 -0.92408551327E+03  0.23851395546E+04  0.21988534874E+04 0.  0.
        3    1    3    3  502    0  0.22869465488E+03 -0.91448774939E+03 -0.10757967058E+04  0.14303592735E+04  0.10100000352E+00 0. -1.
       -3    1    3    3    0  502 -0.22869465488E+03  0.91448774939E+03  0.15171119253E+03  0.95478028106E+03  0.10100000352E+00 0.  1.
</event>
<event>
 5   0  0.2606154E-06  0.2198166E+04  0.7818609E-02  0.8519192E-01
       -2   -1    0    0    0  501  0.00000000000E+00  0.00000000000E+00  0.53254274007E+03  0.53254274008E+03  0.25500000920E-02 0. -1.
        2   -1    0    0  501    0  0.00000000000E+00  0.00000000000E+00 -0.22683317522E+04  0.22683317522E+04  0.25500000920E-02 0.  1.
    10030    2    1    2    0    0  0.00000000000E+00  0.00000000000E+00 -0.17357890121E+04  0.28008744923E+04  0.21981661509E+04 0.  0.
        2    1    3    3  502    0 -0.45932180076E+03 -0.91670889704E+03 -0.13722084188E+04  0.17129762588E+04  0.25500000920E-02 0.  1.
       -2    1    3    3    0  502  0.45932180076E+03  0.91670889704E+03 -0.36358059332E+03  0.10878982335E+04  0.25500000920E-02 0. -1.
</event>
<event>
 5   0  0.2606154E-06  0.2200505E+04  0.7818609E-02  0.8518218E-01
       -2   -1    0    0    0  501  0.00000000000E+00  0.00000000000E+00  0.11960845528E+04  0.11960845528E+04  0.25500000920E-02 0.  1.
        2   -1    0    0  501    0  0.00000000000E+00  0.00000000000E+00 -0.10120985171E+04  0.10120985171E+04  0.25500000920E-02 0. -1.
    10030    2    1    2    0    0  0.00000000000E+00  0.00000000000E+00  0.18398603570E+03  0.22081830698E+04  0.22005048531E+04 0.  0.
        2    1    3    3  502    0  0.91848149778E+03 -0.37674846788E+03  0.56799796509E+03  0.11437523150E+04  0.25500000920E-02 0.  1.
       -2    1    3    3    0  502 -0.91848149778E+03  0.37674846788E+03 -0.38401192939E+03  0.10644307548E+04  0.25500000920E-02 0. -1.
</event>
<event>
 5   0  0.1107101E-06  0.2201420E+04  0.7818609E-02  0.8517837E-01
        1   -1    0    0  501    0  0.00000000000E+00  0.00000000000E+00  0.99930776713E+03  0.99930776714E+03  0.50400001928E-02 0.  1.
       -1   -1    0    0    0  501  0.00000000000E+00  0.00000000000E+00 -0.12124021336E+04  0.12124021336E+04  0.50400001928E-02 0. -1.
    10030    2    1    2    0    0  0.00000000000E+00  0.00000000000E+00 -0.21309436645E+03  0.22117099007E+04  0.22014203315E+04 0.  0.
        1    1    3    3  502    0 -0.42489536170E+03  0.34037575090E+03  0.85457001611E+03  0.10132529954E+04  0.50400001928E-02 0.  1.
       -1    1    3    3    0  502  0.42489536170E+03 -0.34037575090E+03 -0.10676643826E+04  0.11984569054E+04  0.50400001928E-02 0. -1.
</event>
<event>
 5   0  0.2532239E-06  0.2200066E+04  0.7818609E-02  0.8518401E-01
        2   -1    0    0  501    0  0.00000000000E+00  0.00000000000E+00  0.24411661296E+04  0.24411661296E+04  0.25500000920E-02 0. -1.
       -2   -1    0    0    0  501  0.00000000000E+00  0.00000000000E+00 -0.49569431817E+03  0.49569431817E+03  0.25500000920E-02 0.  1.
    10030    2    1    2    0    0  0.00000000000E+00  0.00000000000E+00  0.19454718114E+04  0.29368604478E+04  0.22000656173E+04 0.  0.
        3    1    3    3  502    0 -0.10297046428E+04 -0.28061521263E+03  0.61695243538E+03  0.12327476898E+04  0.10100000352E+00 0. -1.
       -3    1    3    3    0  502  0.10297046428E+04  0.28061521263E+03  0.13285193761E+04  0.17041127579E+04  0.10100000352E+00 0.  1.
</event>
<event>
 5   0  0.2606154E-06  0.2200204E+04  0.7818609E-02  0.8518343E-01
        2   -1    0    0  501    0  0.00000000000E+00  0.00000000000E+00  0.12060306818E+04  0.12060306819E+04  0.25500000920E-02 0. -1.
       -2   -1    0    0    0  501  0.00000000000E+00  0.00000000000E+00 -0.10034772311E+04  0.10034772311E+04  0.25500000920E-02 0.  1.
    10030    2    1    2    0    0  0.00000000000E+00  0.00000000000E+00  0.20255345073E+03  0.22095079130E+04  0.22002039263E+04 0.  0.
        2    1    3    3  502    0 -0.16630424505E+03 -0.38213120849E+03  0.11236895314E+04  0.11984821757E+04  0.25500000920E-02 0. -1.
       -2    1    3    3    0  502  0.16630424505E+03  0.38213120849E+03 -0.92113608066E+03  0.10110257373E+04  0.25500000920E-02 0.  1.
</event>
<event>
 5   0  0.1144271E-06  0.2200278E+04  0.7818609E-02  0.8518312E-01
        1   -1    0    0  501    0  0.00000000000E+00  0.00000000000E+00  0.61483031899E+03  0.61483031902E+03  0.50400001928E-02 0. -1.
       -1   -1    0    0    0  501  0.00000000000E+00  0.00000000000E+00 -0.19685203057E+04  0.19685203057E+04  0.50400001928E-02 0.  1.
    10030    2    1    2    0    0  0.00000000000E+00  0.00000000000E+00 -0.13536899867E+04  0.25833506247E+04  0.22002781347E+04 0.  0.
        3    1    3    3  502    0 -0.59930140552E+03 -0.86040744572E+03 -0.10677394713E+04  0.14965061764E+04  0.10100000352E+00 0. -1.
       -3    1    3    3    0  502  0.59930140552E+03  0.86040744572E+03 -0.28595051538E+03  0.10868444483E+04  0.10100000352E+00 0.  1.
</event>
<event>
 5   0  0.1144271E-06  0.2199595E+04  0.7818609E-02  0.8518597E-01
       -1   -1    0    0    0  501  0.00000000000E+00  0.00000000000E+00  0.53532923029E+03  0.53532923031E+03  0.50400001928E-02 0.  1.
        1   -1    0    0  501    0  0.00000000000E+00  0.00000000000E+00 -0.22594590243E+04  0.22594590243E+04  0.50400001928E-02 0. -1.
    10030    2    1    2    0    0  0.00000000000E+00  0.00000000000E+00 -0.17241297940E+04  0.27947882546E+04  0.21995949267E+04 0.  0.
        3    1    3    3  502    0 -0.73085591737E+02  0.84260620457E+03  0.31178377238E+02  0.84634438682E+03  0.10100000352E+00 0.  1.
       -3    1    3    3    0  502  0.73085591737E+02 -0.84260620457E+03 -0.17553081712E+04  0.19484438678E+04  0.10100000352E+00 0. -1.
</event>
<event>
 5   0  0.1146827E-06  0.2192284E+04  0.7818609E-02  0.8521647E-01
        1   -1    0    0  501    0  0.00000000000E+00  0.00000000000E+00  0.18463822933E+04  0.18463822933E+04  0.50400001928E-02 0. -1.
       -1   -1    0    0    0  501  0.00000000000E+00  0.00000000000E+00 -0.65074674563E+03  0.65074674565E+03  0.50400001928E-02 0.  1.
    10030    2    1    2    0    0  0.00000000000E+00  0.00000000000E+00  0.11956355477E+04  0.24971290390E+04  0.21922839858E+04 0.  0.
        4    1    3    3  502    0 -0.98600086947E+03 -0.34042740288E+03  0.21417963260E+03  0.10648770160E+04  0.12699999809E+01 0.  1.
       -4    1    3    3    0  502  0.98600086947E+03  0.34042740288E+03  0.98145591510E+03  0.14322520230E+04  0.12699999809E+01 0. -1.
</event>
<event>
 5   0  0.2532239E-06  0.2200318E+04  0.7818609E-02  0.8518296E-01
        2   -1    0    0  501    0  0.00000000000E+00  0.00000000000E+00  0.13590744985E+04  0.13590744986E+04  0.25500000920E-02 0. -1.
       -2   -1    0    0    0  501  0.00000000000E+00  0.00000000000E+00 -0.89056901121E+03  0.89056901122E+03  0.25500000920E-02 0.  1.
    10030    2    1    2    0    0  0.00000000000E+00  0.00000000000E+00  0.46850548734E+03  0.22496435098E+04  0.22003178246E+04 0.  0.
        3    1    3    3  502    0  0.71375971187E+03 -0.35257250693E+03  0.10106099421E+04  0.12865040863E+04  0.10100000352E+00 0. -1.
       -3    1    3    3    0  502 -0.71375971187E+03  0.35257250693E+03 -0.54210445474E+03  0.96313942344E+03  0.10100000352E+00 0.  1.
</event>
<event>
 5   0  0.2606154E-06  0.2201199E+04  0.7818609E-02  0.8517929E-01
        2   -1    0    0  501    0  0.00000000000E+00  0.00000000000E+00  0.81940368924E+03  0.81940368924E+03  0.25500000920E-02 0. -1.
       -2   -1    0    0    0  501  0.00000000000E+00  0.00000000000E+00 -0.14782931961E+04  0.14782931961E+04  0.25500000920E-02 0.  1.
    10030    2    1    2    0    0  0.00000000000E+00  0.00000000000E+00 -0.65888950690E+03  0.22976968854E+04  0.22011986723E+04 0.  0.
        2    1    3    3  502    0  0.54889140972E+02  0.89626615534E+03  0.33486098959E+03  0.95835156460E+03  0.25500000920E-02 0. -1.
       -2    1    3    3    0  502 -0.54889140972E+02 -0.89626615534E+03 -0.99375049649E+03  0.13393453208E+04  0.25500000920E-02 0.  1.
</event>
<event>
 5   0  0.2524749E-06  0.2199936E+04  0.7818609E-02  0.8518455E-01
       -2   -1    0    0    0  501  0.00000000000E+00  0.00000000000E+00  0.62552803953E+03  0.62552803954E+03  0.25500000920E-02 0.  1.
        2   -1    0    0  501    0  0.00000000000E+00  0.00000000000E+00 -0.19342535697E+04  0.19342535697E+04  0.25500000920E-02 0. -1.
    10030    2    1    2    0    0  0.00000000000E+00  0.00000000000E+00 -0.13087255302E+04  0.25597816092E+04  0.21999362204E+04 0.  0.
        4    1    3    3  502    0 -0.15483891838E+03 -0.37236901751E+03 -0.18451309605E+04  0.18886883412E+04  0.12699999809E+01 0. -1.
       -4    1    3    3    0  502  0.15483891838E+03  0.37236901751E+03  0.53640543033E+03  0.67109326805E+03  0.12699999809E+01 0.  1.
</event>
<event>
 5   0  0.1082209E-06  0.2203797E+04  0.7818609E-02  0.8516850E-01
       -1   -1    0    0    0  501  0.00000000000E+00  0.00000000000E+00  0.70280420127E+03  0.70280420129E+03  0.50400001928E-02 0.  1.
        1   -1    0    0  501    0  0.00000000000E+00  0.00000000000E+00 -0.17276217902E+04  0.17276217902E+04  0.50400001928E-02 0. -1.
    10030    2    1    2    0    0  0.00000000000E+00  0.00000000000E+00 -0.10248175889E+04  0.24304259915E+04  0.22037965899E+04 0.  0.
        2    1    3    3  502    0 -0.87761706849E+03  0.52792957731E+03 -0.64083966206E+02  0.10261715803E+04  0.25500000920E-02 0. -1.
       -2    1    3    3    0  502  0.87761706849E+03 -0.52792957731E+03 -0.96073362270E+03  0.14042544112E+04  0.25500000920E-02 0.  1.
</event>
<event>
 5   0  0.8905000E-07  0.2206155E+04  0.7818609E-02  0.8515871E-01
        3   -1    0    0  501    0  0.00000000000E+00  0.00000000000E+00  0.10437411069E+04  0.10437411118E+04  0.10100000352E+00 0.  1.
       -3   -1    0    0    0  501  0.00000000000E+00  0.00000000000E+00 -0.11657869793E+04  0.11657869836E+04  0.10100000352E+00 0. -1.
    10030    2    1    2    0    0  0.00000000000E+00  0.00000000000E+00 -0.12204587238E+03  0.22095280954E+04  0.22061548471E+04 0.  0.
        3    1    3    3  502    0 -0.56820482413E+03  0.84832569410E+03 -0.47911372454E+03  0.11278577821E+04  0.10100000352E+00 0. -1.
       -3    1    3    3    0  502  0.56820482413E+03 -0.84832569410E+03  0.35706785216E+03  0.10816703133E+04  0.10100000352E+00 0.  1.
</event>
<event>
 5   0  0.2532239E-06  0.2199736E+04  0.7818609E-02  0.8518538E-01
       -2   -1    0    0    0  501  0.00000000000E+00  0.00000000000E+00  0.14625888013E+04  0.14625888013E+04  0.25500000920E-02 0.  1.
        2   -1    0    0  501    0  0.00000000000E+00  0.00000000000E+00 -0.82710144576E+03  0.82710144576E+03  0.25500000920E-02 0. -1.
    10030    2    1    2    0    0  0.00000000000E+00  0.00000000000E+00  0.63548735556E+03  0.22896902471E+04  0.21997357224E+04 0.  0.
        3    1    3    3  502    0  0.48563359011E+03  0.19521460733E+02 -0.70925900806E+03  0.85980778200E+03  0.10100000352E+00 0. -1.
       -3    1    3    3    0  502 -0.48563359011E+03 -0.19521460733E+02  0.13447463636E+04  0.14298824651E+04  0.10100000352E+00 0.  1.
</event>
<event>
 5   0  0.2606154E-06  0.2200629E+04  0.7818609E-02  0.8518166E-01
       -2   -1    0    0    0  501  0.00000000000E+00  0.00000000000E+00  0.13758202472E+04  0.13758202473E+04  0.25500000920E-02 0.  1.
        2   -1    0    0  501    0  0.00000000000E+00  0.00000000000E+00 -0.87997816694E+03  0.87997816694E+03  0.25500000920E-02 0. -1.
    10030    2    1    2    0    0  0.00000000000E+00  0.00000000000E+00  0.49584208031E+03  0.22557984142E+04  0.22006288003E+04 0.  0.
        2    1    3    3  502    0 -0.36684005433E+03 -0.28109336125E+03 -0.77566488769E+03  0.90290703907E+03  0.25500000920E-02 0. -1.
       -2    1    3    3    0  502  0.36684005433E+03  0.28109336125E+03  0.12715069680E+04  0.13528913751E+04  0.25500000920E-02 0.  1.
</event>
<event>
 5   0  0.1107101E-06  0.2199414E+04  0.7818609E-02  0.8518672E-01
        1   -1    0    0  501    0  0.00000000000E+00  0.00000000000E+00  0.11023815239E+04  0.11023815239E+04  0.50400001928E-02 0.  1.
       -1   -1    0    0    0  501  0.00000000000E+00  0.00000000000E+00 -0.10970391558E+04  0.10970391558E+04  0.50400001928E-02 0. -1.
    10030    2    1    2    0    0  0.00000000000E+00  0.00000000000E+00  0.53423680641E+01  0.21994206797E+04  0.21994141915E+04 0.  0.
        1    1    3    3  502    0 -0.37446272816E+03  0.42635534419E+03 -0.93932654287E+03  0.10974222380E+04  0.50400001928E-02 0. -1.
       -1    1    3    3    0  502  0.37446272816E+03 -0.42635534419E+03  0.94466891094E+03  0.11019984417E+04  0.50400001928E-02 0.  1.
</event>
<event>
 5   0  0.1144271E-06  0.2199735E+04  0.7818609E-02  0.8518538E-01
        1   -1    0    0  501    0  0.00000000000E+00  0.00000000000E+00  0.10107485669E+04  0.10107485669E+04  0.50400001928E-02 0. -1.
       -1   -1    0    0    0  501  0.00000000000E+00  0.00000000000E+00 -0.11968439670E+04  0.11968439671E+04  0.50400001928E-02 0.  1.
    10030    2    1    2    0    0  0.00000000000E+00  0.00000000000E+00 -0.18609540012E+03  0.22075925340E+04  0.21997348245E+04 0.  0.
        3    1    3    3  502    0  0.27035102535E+03  0.58133341631E+03  0.80382808461E+03  0.10281915277E+04  0.10100000352E+00 0. -1.
       -3    1    3    3    0  502 -0.27035102535E+03 -0.58133341631E+03 -0.98992348473E+03  0.11794010063E+04  0.10100000352E+00 0.  1.
</event>
<event>
 5   0  0.1146827E-06  0.2196715E+04  0.7818609E-02  0.8519797E-01
        1   -1    0    0  501    0  0.00000000000E+00  0.00000000000E+00  0.14287732170E+04  0.14287732170E+04  0.50400001928E-02 0. -1.
       -1   -1    0    0    0  501  0.00000000000E+00  0.00000000000E+00 -0.84435311036E+03  0.84435311037E+03  0.50400001928E-02 0.  1.
    10030    2    1    2    0    0  0.00000000000E+00  0.00000000000E+00  0.58442010661E+03  0.22731263273E+04  0.21967149198E+04 0.  0.
        4    1    3    3  502    0  0.44313494814E+03  0.49785774805E+03 -0.61117307055E+03  0.90430362966E+03  0.12699999809E+01 0.  1.
       -4    1    3    3    0  502 -0.44313494814E+03 -0.49785774805E+03  0.11955931772E+04  0.13688226977E+04  0.12699999809E+01 0. -1.
</event>
<event>
 5   0  0.1107101E-06  0.2200029E+04  0.7818609E-02  0.8518416E-01
       -1   -1    0    0    0  501  0.00000000000E+00  0.00000000000E+00  0.13902885965E+04  0.13902885965E+04  0.50400001928E-02 0.  1.
        1   -1    0    0  501    0  0.00000000000E+00  0.00000000000E+00 -0.87034547706E+03  0.87034547707E+03  0.50400001928E-02 0. -1.
    10030    2    1    2    0    0  0.00000000000E+00  0.00000000000E+00  0.51994311942E+03  0.22606340736E+04  0.22000285378E+04 0.  0.
        1    1    3    3  502    0 -0.18113547059E+03  0.10615287090E+04  0.29337741485E+02  0.10772715358E+04  0.50400001928E-02 0.  1.
       -1    1    3    3    0  502  0.18113547059E+03 -0.10615287090E+04  0.49060537794E+03  0.11833625377E+04  0.50400001928E-02 0. -1.
</event>
<event>
 5   0  0.2532239E-06  0.2203659E+04  0.7818609E-02  0.8516907E-01
       -2   -1    0    0    0  501  0.00000000000E+00  0.00000000000E+00  0.11549265560E+04  0.11549265560E+04  0.25500000920E-02 0.  1.
        2   -1    0    0  501    0  0.00000000000E+00  0.00000000000E+00 -0.10511732665E+04  0.10511732665E+04  0.25500000920E-02 0. -1.
    10030    2    1    2    0    0  0.00000000000E+00  0.00000000000E+00  0.10375328955E+03  0.22060998225E+04  0.22036587035E+04 0.  0.
        3    1    3    3  502    0 -0.72868031416E+02 -0.62581232661E+03  0.95680113937E+03  0.11456086804E+04  0.10100000352E+00 0.  1.
       -3    1    3    3    0  502  0.72868031416E+02  0.62581232661E+03 -0.85304784982E+03  0.10604911421E+04  0.10100000352E+00 0. -1.
</event>
<event>
 5   0  0.1082209E-06  0.2200562E+04  0.7818609E-02  0.8518194E-01
       -1   -1    0    0    0  501  0.00000000000E+00  0.00000000000E+00  0.64453163160E+03  0.64453163162E+03  0.50400001928E-02 0.  1.
        1   -1    0    0  501    0  0.00000000000E+00  0.00000000000E+00 -0.18782914213E+04  0.18782914213E+04  0.50400001928E-02 0. -1.
    10030    2    1    2    0    0  0.00000000000E+00  0.00000000000E+00 -0.12337597897E+04  0.25228230529E+04  0.22005619595E+04 0.  0.
        2    1    3    3  502    0 -0.46715535622E+03 -0.68611011669E+03 -0.14448933428E+04  0.16663426992E+04  0.25500000920E-02 0. -1.
       -2    1    3    3    0  502  0.46715535622E+03  0.68611011669E+03  0.21113355310E+03  0.85648035373E+03  0.25500000920E-02 0.  1.
</event>
<event>
 5   0  0.2581058E-06  0.2199232E+04  0.7818609E-02  0.8518748E-01
       -2   -1    0    0    0  501  0.00000000000E+00  0.00000000000E+00  0.56972975618E+03  0.56972975619E+03  0.25500000920E-02 0.  1.
        2   -1    0    0  501    0  0.00000000000E+00  0.00000000000E+00 -0.21223316401E+04  0.21223316401E+04  0.25500000920E-02 0. -1.
    10030    2    1    2    0    0  0.00000000000E+00  0.00000000000E+00 -0.15526018840E+04  0.26920613963E+04  0.21992321277E+04 0.  0.
        1    1    3    3  502    0 -0.10572049785E+04  0.10309679177E+03 -0.42825365741E+03  0.11453001835E+04  0.50400001928E-02 0.  1.
       -1    1    3    3    0  502  0.10572049785E+04 -0.10309679177E+03 -0.11243482266E+04  0.15467612129E+04  0.50400001928E-02 0. -1.
</event>
<event>
 5   0  0.1082209E-06  0.2199171E+04  0.7818609E-02  0.8518773E-01
       -1   -1    0    0    0  501  0.00000000000E+00  0.00000000000E+00  0.12328158360E+04  0.12328158360E+04  0.50400001928E-02 0.  1.
        1   -1    0    0  501    0  0.00000000000E+00  0.00000000000E+00 -0.98075373963E+03  0.98075373964E+03  0.50400001928E-02 0. -1.
    10030    2    1    2    0    0  0.00000000000E+00  0.00000000000E+00  0.25206209634E+03  0.22135695756E+04  0.21991714271E+04 0.  0.
        2    1    3    3  502    0 -0.16658754627E+03  0.96345214590E+03  0.63241256250E+03  0.11644471208E+04  0.25500000920E-02 0.  1.
       -2    1    3    3    0  502  0.16658754627E+03 -0.96345214590E+03 -0.38035046616E+03  0.10491224548E+04  0.25500000920E-02 0. -1.
</event>
<event>
 5   0  0.1144271E-06  0.2200380E+04  0.7818609E-02  0.8518270E-01
       -1   -1    0    0    0  501  0.00000000000E+00  0.00000000000E+00  0.11756942534E+04  0.11756942534E+04  0.50400001928E-02 0. -1.
        1   -1    0    0  501    0  0.00000000000E+00  0.00000000000E+00 -0.10295344362E+04  0.10295344362E+04  0.50400001928E-02 0.  1.
    10030    2    1    2    0    0  0.00000000000E+00  0.00000000000E+00  0.14615981719E+03  0.22052286896E+04  0.22003797130E+04 0.  0.
        3    1    3    3  502    0  0.98953914728E+03 -0.16680060671E+03 -0.37892123069E+03  0.10726562710E+04  0.10100000352E+00 0.  1.
       -3    1    3    3    0  502 -0.98953914728E+03  0.16680060671E+03  0.52508104788E+03  0.11325724186E+04  0.10100000352E+00 0. -1.
</event>
<event>
 5   0  0.2581058E-06  0.2201378E+04  0.7818609E-02  0.8517855E-01
        2   -1    0    0  501    0  0.00000000000E+00  0.00000000000E+00  0.18486488967E+04  0.18486488967E+04  0.25500000920E-02 0. -1.
       -2   -1    0    0    0  501  0.00000000000E+00  0.00000000000E+00 -0.65535245672E+03  0.65535245672E+03  0.25500000920E-02 0.  1.
    10030    2    1    2    0    0  0.00000000000E+00  0.00000000000E+00  0.11932964400E+04  0.25040013534E+04  0.22013782919E+04 0.  0.
        1    1    3    3  502    0  0.76630132996E+02  0.61752421459E+03 -0.43607681799E+03  0.75984954044E+03  0.50400001928E-02 0.  1.
       -1    1    3    3    0  502 -0.76630132996E+02 -0.61752421459E+03  0.16293732580E+04  0.17441518130E+04  0.50400001928E-02 0. -1.
</event>
<event>
 5   0  0.1146827E-06  0.2198997E+04  0.7818609E-02  0.8518846E-01
        1   -1    0    0  501    0  0.00000000000E+00  0.00000000000E+00  0.19891214096E+04  0.19891214096E+04  0.50400001928E-02 0. -1.
       -1   -1    0    0    0  501  0.00000000000E+00  0.00000000000E+00 -0.60775434597E+03  0.60775434599E+03  0.50400001928E-02 0.  1.
    10030    2    1    2    0    0  0.00000000000E+00  0.00000000000E+00  0.13813670636E+04  0.25968757556E+04  0.21989972091E+04 0.  0.
        4    1    3    3  502    0  0.60882822114E+03  0.54359858485E+02 -0.38861010334E+03  0.72432466642E+03  0.12699999809E+01 0.  1.
       -4    1    3    3    0  502 -0.60882822114E+03 -0.54359858485E+02  0.17699771669E+04  0.18725510891E+04  0.12699999809E+01 0. -1.
</event>
<event>
 5   0  0.2606154E-06  0.2198484E+04  0.7818609E-02  0.8519059E-01
        2   -1    0    0  501    0  0.00000000000E+00  0.00000000000E+00  0.16742770319E+04  0.16742770319E+04  0.25500000920E-02 0.  1.
       -2   -1    0    0    0  501  0.00000000000E+00  0.00000000000E+00 -0.72170411893E+03  0.72170411894E+03  0.25500000920E-02 0. -1.
    10030    2    1    2    0    0  0.00000000000E+00  0.00000000000E+00  0.95257291292E+03  0.23959811508E+04  0.21984836867E+04 0.  0.
        2    1    3    3  502    0  0.92251173115E+03 -0.63393949499E+02 -0.17148726918E+03  0.94045444889E+03  0.25500000920E-02 0. -1.
       -2    1    3    3    0  502 -0.92251173115E+03  0.63393949499E+02  0.11240601821E+04  0.14555267019E+04  0.25500000920E-02 0.  1.
</event>
<event>
 5   0  0.1137869E-06  0.2201356E+04  0.7818609E-02  0.8517864E-01
        1   -1    0    0  501    0  0.00000000000E+00  0.00000000000E+00  0.18111938316E+04  0.18111938316E+04  0.50400001928E-02 0.  1.
       -1   -1    0    0    0  501  0.00000000000E+00  0.00000000000E+00 -0.66889123990E+03  0.66889123992E+03  0.50400001928E-02 0. -1.
    10030    2    1    2    0    0  0.00000000000E+00  0.00000000000E+00  0.11423025917E+04  0.24800850715E+04  0.22013556621E+04 0.  0.
        5    1    3    3  502    0 -0.12352168856E+03 -0.31970079172E+03  0.17495322047E+04  0.17827930977E+04  0.46999998093E+01 0.  1.
       -5    1    3    3    0  502  0.12352168856E+03  0.31970079172E+03 -0.60722961306E+03  0.69729197381E+03  0.46999998093E+01 0. -1.
</event>
<event>
 5   0  0.2532239E-06  0.2199742E+04  0.7818609E-02  0.8518536E-01
       -2   -1    0    0    0  501  0.00000000000E+00  0.00000000000E+00  0.10361620399E+04  0.10361620399E+04  0.25500000920E-02 0.  1.
        2   -1    0    0  501    0  0.00000000000E+00  0.00000000000E+00 -0.11674971428E+04  0.11674971428E+04  0.25500000920E-02 0. -1.
    10030    2    1    2    0    0  0.00000000000E+00  0.00000000000E+00 -0.13133510295E+03  0.22036591827E+04  0.21997420040E+04 0.  0.
        3    1    3    3  502    0 -0.66911232007E+03 -0.70918311561E+03  0.44422233708E+03  0.10714408445E+04  0.10100000352E+00 0.  1.
       -3    1    3    3    0  502  0.66911232007E+03  0.70918311561E+03 -0.57555744003E+03  0.11322183382E+04  0.10100000352E+00 0. -1.
</event>
<event>
 5   0  0.1082209E-06  0.2199261E+04  0.7818609E-02  0.8518736E-01
        1   -1    0    0  501    0  0.00000000000E+00  0.00000000000E+00  0.17919560347E+04  0.17919560347E+04  0.50400001928E-02 0.  1.
       -1   -1    0    0    0  501  0.00000000000E+00  0.00000000000E+00 -0.67478641399E+03  0.67478641401E+03  0.50400001928E-02 0. -1.
    10030    2    1    2    0    0  0.00000000000E+00  0.00000000000E+00  0.11171696207E+04  0.24667424487E+04  0.21992613185E+04 0.  0.
        2    1    3    3  502    0 -0.76434384082E+03  0.71641839945E+03  0.18370291382E+03  0.10635899542E+04  0.25500000920E-02 0.  1.
       -2    1    3    3    0  502  0.76434384082E+03 -0.71641839945E+03  0.93346670689E+03  0.14031524945E+04  0.25500000920E-02 0. -1.
</event>
<event>
 5   0  0.2606154E-06  0.2200564E+04  0.7818609E-02  0.8518193E-01
       -2   -1    0    0    0  501  0.00000000000E+00  0.00000000000E+00  0.65781475057E+03  0.65781475057E+03  0.25500000920E-02 0. -1.
        2   -1    0    0  501    0  0.00000000000E+00  0.00000000000E+00 -0.18403670512E+04  0.18403670512E+04  0.25500000920E-02 0.  1.
    10030    2    1    2    0    0  0.00000000000E+00  0.00000000000E+00 -0.11825523007E+04  0.24981818018E+04  0.22005641029E+04 0.  0.
        2    1    3    3  502    0  0.56112487030E+02  0.40729699312E+03  0.56733197570E+03  0.70064614640E+03  0.25500000920E-02 0. -1.
       -2    1    3    3    0  502 -0.56112487030E+02 -0.40729699312E+03 -0.17498842764E+04  0.17975356554E+04  0.25500000920E-02 0.  1.
</event>
<event>
 5   0  0.2581058E-06  0.2200166E+04  0.7818609E-02  0.8518359E-01
       -2   -1    0    0    0  501  0.00000000000E+00  0.00000000000E+00  0.14323170559E+04  0.14323170559E+04  0.25500000920E-02 0.  1.
        2   -1    0    0  501    0  0.00000000000E+00  0.00000000000E+00 -0.84491218576E+03  0.84491218577E+03  0.25500000920E-02 0. -1.
    10030    2    1    2    0    0  0.00000000000E+00  0.00000000000E+00  0.58740487009E+03  0.22772292416E+04  0.22001655705E+04 0.  0.
        1    1    3    3  502    0  0.41645798696E+03  0.27036187826E+03 -0.72233778634E+03  0.87652990692E+03  0.50400001928E-02 0. -1.
       -1    1    3    3    0  502 -0.41645798696E+03 -0.27036187826E+03  0.13097426564E+04  0.14006993347E+04  0.50400001928E-02 0.  1.
</event>
<event>
 5   0  0.1144271E-06  0.2201579E+04  0.7818609E-02  0.8517771E-01
        1   -1    0    0  501    0  0.00000000000E+00  0.00000000000E+00  0.11772658780E+04  0.11772658780E+04  0.50400001928E-02 0.  1.
       -1   -1    0    0    0  501  0.00000000000E+00  0.00000000000E+00 -0.10292813177E+04  0.10292813177E+04  0.50400001928E-02 0. -1.
    10030    2    1    2    0    0  0.00000000000E+00  0.00000000000E+00  0.14798456035E+03  0.22065471957E+04  0.22015792279E+04 0.  0.
        3    1    3    3  502    0 -0.18199918975E+03 -0.99608232582E+03 -0.35876215715E+03  0.10742504366E+04  0.10100000352E+00 0. -1.
       -3    1    3    3    0  502  0.18199918975E+03  0.99608232582E+03  0.50674671750E+03  0.11322967591E+04  0.10100000352E+00 0.  1.
</event>
<event>
 5   0  0.1146827E-06  0.2200996E+04  0.7818609E-02  0.8518014E-01
       -1   -1    0    0    0  501  0.00000000000E+00  0.00000000000E+00  0.66038131799E+03  0.66038131801E+03  0.50400001928E-02 0.  1.
        1   -1    0    0  501    0  0.00000000000E+00  0.00000000000E+00 -0.18339333498E+04  0.18339333498E+04  0.50400001928E-02 0. -1.
    10030    2    1    2    0    0  0.00000000000E+00  0.00000000000E+00 -0.11735520318E+04  0.24943146678E+04  0.22009955227E+04 0.  0.
        4    1    3    3  502    0 -0.43749582766E+03  0.76517751352E+02  0.55430365081E+03  0.71028988145E+03  0.12699999809E+01 0.  1.
       -4    1    3    3    0  502  0.43749582766E+03 -0.76517751352E+02 -0.17278556826E+04  0.17840247864E+04  0.12699999809E+01 0. -1.
</event>
<event>
 5   0  0.2606154E-06  0.2200839E+04  0.7818609E-02  0.8518079E-01
        2   -1    0    0  501    0  0.00000000000E+00  0.00000000000E+00  0.11612827127E+04  0.11612827127E+04  0.25500000920E-02 0. -1.
       -2   -1    0    0    0  501  0.00000000000E+00  0.00000000000E+00 -0.10427465746E+04  0.10427465746E+04  0.25500000920E-02 0.  1.
    10030    2    1    2    0    0  0.00000000000E+00  0.00000000000E+00  0.11853613816E+03  0.22040292873E+04  0.22008394497E+04 0.  0.
        2    1    3    3  502    0  0.10591288856E+04 -0.17013245702E+03  0.30503060424E+03  0.11152321367E+04  0.25500000920E-02 0.  1.
       -2    1    3    3    0  502 -0.10591288856E+04  0.17013245702E+03 -0.18649446608E+03  0.10887971506E+04  0.25500000920E-02 0. -1.
</event>
<event>
 5   0  0.2524749E-06  0.2199579E+04  0.7818609E-02  0.8518603E-01
       -2   -1    0    0    0  501  0.00000000000E+00  0.00000000000E+00  0.75988364909E+03  0.75988364910E+03  0.25500000920E-02 0. -1.
        2   -1    0    0  501    0  0.00000000000E+00  0.00000000000E+00 -0.15917392449E+04  0.15917392449E+04  0.25500000920E-02 0.  1.
    10030    2    1    2    0    0  0.00000000000E+00  0.00000000000E+00 -0.83185559583E+03  0.23516228940E+04  0.21995787104E+04 0.  0.
        4    1    3    3  502    0 -0.10057868964E+03  0.76599783882E+03 -0.12527634048E+04  0.14718310104E+04  0.12699999809E+01 0.  1.
       -4    1    3    3    0  502  0.10057868964E+03 -0.76599783882E+03  0.42090780899E+03  0.87979188360E+03  0.12699999809E+01 0. -1.
</event>
<event>
 5   0  0.2532239E-06  0.2190127E+04  0.7818609E-02  0.8522549E-01
       -2   -1    0    0    0  501  0.00000000000E+00  0.00000000000E+00  0.67783154803E+03  0.67783154804E+03  0.25500000920E-02 0.  1.
        2   -1    0    0  501    0  0.00000000000E+00  0.00000000000E+00 -0.17691181047E+04  0.17691181047E+04  0.25500000920E-02 0. -1.
    10030    2    1    2    0    0  0.00000000000E+00  0.00000000000E+00 -0.10912865566E+04  0.24469496527E+04  0.21901269950E+04 0.  0.
        3    1    3    3  502    0 -0.15277870818E+03  0.43504522154E+03 -0.16553727736E+04  0.17183901501E+04  0.10100000352E+00 0. -1.
       -3    1    3    3    0  502  0.15277870818E+03 -0.43504522154E+03  0.56408621693E+03  0.72855950257E+03  0.10100000352E+00 0.  1.
</event>
<event>
 5   0  0.2556869E-06  0.2199555E+04  0.7818609E-02  0.8518613E-01
        2   -1    0    0  501    0  0.00000000000E+00  0.00000000000E+00  0.12668704865E+04  0.12668704865E+04  0.25500000920E-02 0. -1.
       -2   -1    0    0    0  501  0.00000000000E+00  0.00000000000E+00 -0.95472294369E+03  0.95472294370E+03  0.25500000920E-02 0.  1.
    10030    2    1    2    0    0  0.00000000000E+00  0.00000000000E+00  0.31214754284E+03  0.22215934302E+04  0.21995547915E+04 0.  0.
        5    1    3    3  502    0 -0.88924380515E+03  0.46626670860E+03 -0.29711903822E+03  0.10471203376E+04  0.46999998093E+01 0.  1.
       -5    1    3    3    0  502  0.88924380515E+03 -0.46626670860E+03  0.60926658107E+03  0.11744730926E+04  0.46999998093E+01 0. -1.
</event>
<event>
 5   0  0.1146827E-06  0.2202717E+04  0.7818609E-02  0.8517298E-01
        1   -1    0    0  501    0  0.00000000000E+00  0.00000000000E+00  0.90497551176E+03  0.90497551178E+03  0.50400001928E-02 0. -1.
       -1   -1    0    0    0  501  0.00000000000E+00  0.00000000000E+00 -0.13403567975E+04  0.13403567975E+04  0.50400001928E-02 0.  1.
    10030    2    1    2    0    0  0.00000000000E+00  0.00000000000E+00 -0.43538128570E+03  0.22453323092E+04  0.22027165762E+04 0.  0.
        4    1    3    3  502    0 -0.48876787231E+03  0.69190659045E+03  0.49974399853E+03  0.98355195078E+03  0.12699999809E+01 0. -1.
       -4    1    3    3    0  502  0.48876787231E+03 -0.69190659045E+03 -0.93512528424E+03  0.12617803585E+04  0.12699999809E+01 0.  1.
</event>
<event>
 5   0  0.1137869E-06  0.2197796E+04  0.7818609E-02  0.8519346E-01
        1   -1    0    0  501    0  0.00000000000E+00  0.00000000000E+00  0.14405749501E+04  0.14405749501E+04  0.50400001928E-02 0. -1.
       -1   -1    0    0    0  501  0.00000000000E+00  0.00000000000E+00 -0.83826003445E+03  0.83826003446E+03  0.50400001928E-02 0.  1.
    10030    2    1    2    0    0  0.00000000000E+00  0.00000000000E+00  0.60231491563E+03  0.22788349845E+04  0.21977956295E+04 0.  0.
        5    1    3    3  502    0  0.88633449252E+03  0.25364804459E+03  0.92122846193E+03  0.13033073821E+04  0.46999998093E+01 0. -1.
       -5    1    3    3    0  502 -0.88633449252E+03 -0.25364804459E+03 -0.31891354629E+03  0.97552760246E+03  0.46999998093E+01 0.  1.
</event>
<event>
 5   0  0.1107101E-06  0.2200502E+04  0.7818609E-02  0.8518219E-01
        1   -1    0    0  501    0  0.00000000000E+00  0.00000000000E+00  0.30818204739E+04  0.30818204739E+04  0.50400001928E-02 0. -1.
       -1   -1    0    0    0  501  0.00000000000E+00  0.00000000000E+00 -0.39280444130E+03  0.39280444133E+03  0.50400001928E-02 0.  1.
    10030    2    1    2    0    0  0.00000000000E+00  0.00000000000E+00  0.26890160326E+04  0.34746249152E+04  0.22005024603E+04 0.  0.
        1    1    3    3  502    0 -0.49624902948E+02  0.22119101501E+03  0.30445460576E+04  0.30529737622E+04  0.50400001928E-02 0. -1.
       -1    1    3    3    0  502  0.49624902948E+02 -0.22119101501E+03 -0.35553002499E+03  0.42165115299E+03  0.50400001928E-02 0.  1.
</event>
<event>
 5   0  0.2524749E-06  0.2200924E+04  0.7818609E-02  0.8518044E-01
        2   -1    0    0  501    0  0.00000000000E+00  0.00000000000E+00  0.10141858284E+04  0.10141858284E+04  0.25500000920E-02 0.  1.
       -2   -1    0    0    0  501  0.00000000000E+00  0.00000000000E+00 -0.11940771690E+04  0.11940771690E+04  0.25500000920E-02 0. -1.
    10030    2    1    2    0    0  0.00000000000E+00  0.00000000000E+00 -0.17989134061E+03  0.22082629974E+04  0.22009235724E+04 0.  0.
        4    1    3    3  502    0 -0.63359572183E+03  0.88080964712E+03  0.94366004475E+02  0.10891169491E+04  0.12699999809E+01 0. -1.
       -4    1    3    3    0  502  0.63359572183E+03 -0.88080964712E+03 -0.27425734509E+03  0.11191460483E+04  0.12699999809E+01 0.  1.
</event>
<event>
 5   0  0.2524749E-06  0.2201422E+04  0.7818609E-02  0.8517837E-01
        2   -1    0    0  501    0  0.00000000000E+00  0.00000000000E+00  0.20785102885E+04  0.20785102885E+04  0.25500000920E-02 0.  1.
       -2   -1    0    0    0  501  0.00000000000E+00  0.00000000000E+00 -0.58290028470E+03  0.58290028470E+03  0.25500000920E-02 0. -1.
    10030    2    1    2    0    0  0.00000000000E+00  0.00000000000E+00  0.14956100038E+04  0.26614105732E+04  0.22014215761E+04 0.  0.
        4    1    3    3  502    0 -0.27712377400E+03  0.38332086189E+03 -0.45376699776E+03  0.65546820704E+03  0.12699999809E+01 0. -1.
       -4    1    3    3    0  502  0.27712377400E+03 -0.38332086189E+03  0.19493770016E+04  0.20059423662E+04  0.12699999809E+01 0.  1.
</event>
<event>
 5   0  0.8905000E-07  0.2200791E+04  0.7818609E-02  0.8518099E-01
        3   -1    0    0  501    0  0.00000000000E+00  0.00000000000E+00  0.81576295073E+03  0.81576295698E+03  0.10100000352E+00 0.  1.
       -3   -1    0    0    0  501  0.00000000000E+00  0.00000000000E+00 -0.14843414258E+04  0.14843414293E+04  0.10100000352E+00 0. -1.
    10030    2    1    2    0    0  0.00000000000E+00  0.00000000000E+00 -0.66857847510E+03  0.23001043862E+04  0.22007914509E+04 0.  0.
        2    1    3    3  502    0 -0.86831705596E+03 -0.16555415641E+03 -0.10192161094E+04  0.13491420111E+04  0.25500000920E-02 0. -1.
       -2    1    3    3    0  502  0.86831705596E+03  0.16555415641E+03  0.35063763431E+03  0.95096237517E+03  0.25500000920E-02 0.  1.
</event>
<event>
 5   0  0.2606154E-06  0.2197428E+04  0.7818609E-02  0.8519499E-01
        2   -1    0    0  501    0  0.00000000000E+00  0.00000000000E+00  0.65987679692E+03  0.65987679693E+03  0.25500000920E-02 0.  1.
       -2   -1    0    0    0  501  0.00000000000E+00  0.00000000000E+00 -0.18293914740E+04  0.18293914740E+04  0.25500000920E-02 0. -1.
    10030    2    1    2    0    0  0.00000000000E+00  0.00000000000E+00 -0.11695146771E+04  0.24892682710E+04  0.21974284846E+04 0.  0.
        2    1    3    3  502    0  0.43133784861E+03 -0.68610126564E+03 -0.14251660091E+04  0.16394771849E+04  0.25500000920E-02 0. -1.
       -2    1    3    3    0  502 -0.43133784861E+03  0.68610126564E+03  0.25565133199E+03  0.84979108604E+03  0.25500000920E-02 0.  1.
</event>
<event>
 5   0  0.1082209E-06  0.2199891E+04  0.7818609E-02  0.8518473E-01
       -1   -1    0    0    0  501  0.00000000000E+00  0.00000000000E+00  0.46331847794E+03  0.46331847796E+03  0.50400001928E-02 0.  1.
        1   -1    0    0  501    0  0.00000000000E+00  0.00000000000E+00 -0.26113364293E+04  0.26113364293E+04  0.50400001928E-02 0. -1.
    10030    2    1    2    0    0  0.00000000000E+00  0.00000000000E+00 -0.21480179513E+04  0.30746549072E+04  0.21998912881E+04 0.  0.
        2    1    3    3  502    0  0.72867979442E+03  0.48519633871E+03 -0.20047683357E+04  0.21875753267E+04  0.25500000920E-02 0. -1.
       -2    1    3    3    0  502 -0.72867979442E+03 -0.48519633871E+03 -0.14324961561E+03  0.88707958057E+03  0.25500000920E-02 0.  1.
</event>
<event>
 5   0  0.1144271E-06  0.2199958E+04  0.7818609E-02  0.8518445E-01
       -1   -1    0    0    0  501  0.00000000000E+00  0.00000000000E+00  0.13356416672E+04  0.13356416672E+04  0.50400001928E-02 0.  1.
        1   -1    0    0  501    0  0.00000000000E+00  0.00000000000E+00 -0.90589726286E+03  0.90589726288E+03  0.50400001928E-02 0. -1.
    10030    2    1    2    0    0  0.00000000000E+00  0.00000000000E+00  0.42974440430E+03  0.22415389301E+04  0.21999583000E+04 0.  0.
        3    1    3    3  502    0 -0.31002016062E+02 -0.50239976617E+02 -0.90428194879E+03  0.90620694841E+03  0.10100000352E+00 0. -1.
       -3    1    3    3    0  502  0.31002016062E+02  0.50239976617E+02  0.13340263531E+04  0.13353319816E+04  0.10100000352E+00 0.  1.
</event>
<event>
 5   0  0.2556869E-06  0.2199632E+04  0.7818609E-02  0.8518581E-01
        2   -1    0    0  501    0  0.00000000000E+00  0.00000000000E+00  0.18473189439E+04  0.18473189439E+04  0.25500000920E-02 0.  1.
       -2   -1    0    0    0  501  0.00000000000E+00  0.00000000000E+00 -0.65478401343E+03  0.65478401344E+03  0.25500000920E-02 0. -1.
    10030    2    1    2    0    0  0.00000000000E+00  0.00000000000E+00  0.11925349305E+04  0.25021029573E+04  0.21996317075E+04 0.  0.
        5    1    3    3  502    0  0.65768745242E+03 -0.14268221849E+02 -0.40630186076E+03  0.77321385094E+03  0.46999998093E+01 0. -1.
       -5    1    3    3    0  502 -0.65768745242E+03  0.14268221849E+02  0.15988367912E+04  0.17288891064E+04  0.46999998093E+01 0.  1.
</event>
<event>
 5   0  0.2581058E-06  0.2200257E+04  0.7818609E-02  0.8518321E-01
        2   -1    0    0  501    0  0.00000000000E+00  0.00000000000E+00  0.20887296716E+04  0.20887296716E+04  0.25500000920E-02 0. -1.
       -2   -1    0    0    0  501  0.00000000000E+00  0.00000000000E+00 -0.57943484989E+03  0.57943484990E+03  0.25500000920E-02 0.  1.
    10030    2    1    2    0    0  0.00000000000E+00  0.00000000000E+00  0.15092948217E+04  0.26681645215E+04  0.22002570429E+04 0.  0.
        1    1    3    3  502    0  0.53384770885E+01  0.50120113159E+03  0.19422200761E+04  0.20058539074E+04  0.50400001928E-02 0. -1.
       -1    1    3    3    0  502 -0.53384770885E+01 -0.50120113159E+03 -0.43292525441E+03  0.66231061412E+03  0.50400001928E-02 0.  1.
</event>
<event>
 5   0  0.1146827E-06  0.2214104E+04  0.7818609E-02  0.8512581E-01
       -1   -1    0    0    0  501  0.00000000000E+00  0.00000000000E+00  0.75129392690E+03  0.75129392692E+03  0.50400001928E-02 0.  1.
        1   -1    0    0  501    0  0.00000000000E+00  0.00000000000E+00 -0.16312712813E+04  0.16312712813E+04  0.50400001928E-02 0. -1.
    10030    2    1    2    0    0  0.00000000000E+00  0.00000000000E+00 -0.87997735436E+03  0.23825652082E+04  0.22141040687E+04 0.  0.
        4    1    3    3  502    0 -0.10723131172E+04 -0.12820695842E+03 -0.70196664708E+03  0.12880416267E+04  0.12699999809E+01 0. -1.
       -4    1    3    3    0  502  0.10723131172E+04  0.12820695842E+03 -0.17801070728E+03  0.10945235815E+04  0.12699999809E+01 0.  1.
</event>
<event>
 5   0  0.1146827E-06  0.2199464E+04  0.7818609E-02  0.8518651E-01
        1   -1    0    0  501    0  0.00000000000E+00  0.00000000000E+00  0.15233662829E+04  0.15233662829E+04  0.50400001928E-02 0.  1.
       -1   -1    0    0    0  501  0.00000000000E+00  0.00000000000E+00 -0.79390661057E+03  0.79390661058E+03  0.50400001928E-02 0. -1.
    10030    2    1    2    0    0  0.00000000000E+00  0.00000000000E+00  0.72945967230E+03  0.23172728935E+04  0.21994640823E+04 0.  0.
        4    1    3    3  502    0  0.69910293876E+02  0.98673727341E+03 -0.14149686624E+03  0.99928017692E+03  0.12699999809E+01 0. -1.
       -4    1    3    3    0  502 -0.69910293876E+02 -0.98673727341E+03  0.87095653855E+03  0.13179927165E+04  0.12699999809E+01 0.  1.
</event>
<event>
 5   0  0.1137869E-06  0.2200143E+04  0.7818609E-02  0.8518369E-01
        1   -1    0    0  501    0  0.00000000000E+00  0.00000000000E+00  0.11707744356E+04  0.11707744356E+04  0.50400001928E-02 0. -1.
       -1   -1    0    0    0  501  0.00000000000E+00  0.00000000000E+00 -0.10336382437E+04  0.10336382437E+04  0.50400001928E-02 0.  1.
    10030    2    1    2    0    0  0.00000000000E+00  0.00000000000E+00  0.13713619192E+03  0.22044126793E+04  0.22001429330E+04 0.  0.
        5    1    3    3  502    0 -0.56576447499E+03  0.65609495552E+01 -0.87666224893E+03  0.10434036975E+04  0.46999998093E+01 0.  1.
       -5    1    3    3    0  502  0.56576447499E+03 -0.65609495552E+01  0.10137984408E+04  0.11610089818E+04  0.46999998093E+01 0. -1.
</event>
<event>
 5   0  0.2524749E-06  0.2199781E+04  0.7818609E-02  0.8518519E-01
        2   -1    0    0  501    0  0.00000000000E+00  0.00000000000E+00  0.63387639124E+03  0.63387639124E+03  0.25500000920E-02 0. -1.
       -2   -1    0    0    0  501  0.00000000000E+00  0.00000000000E+00 -0.19085093782E+04  0.19085093782E+04  0.25500000920E-02 0.  1.
    10030    2    1    2    0    0  0.00000000000E+00  0.00000000000E+00 -0.12746329870E+04  0.25423857695E+04  0.21997809321E+04 0.  0.
        4    1    3    3  502    0  0.73659662265E+03  0.24098711798E+03  0.26468900504E+03  0.81896963181E+03  0.12699999809E+01 0. -1.
       -4    1    3    3    0  502 -0.73659662265E+03 -0.24098711798E+03 -0.15393219920E+04  0.17234161377E+04  0.12699999809E+01 0.  1.
</event>
<event>
 5   0  0.1137869E-06  0.2200219E+04  0.7818609E-02  0.8518337E-01
       -1   -1    0    0    0  501  0.00000000000E+00  0.00000000000E+00  0.92935635528E+03  0.92935635530E+03  0.50400001928E-02 0.  1.
        1   -1    0    0  501    0  0.00000000000E+00  0.00000000000E+00 -0.13022354548E+04  0.13022354548E+04  0.50400001928E-02 0. -1.
    10030    2    1    2    0    0  0.00000000000E+00  0.00000000000E+00 -0.37287909951E+03  0.22315918101E+04  0.22002188946E+04 0.  0.
        5    1    3    3  502    0 -0.59040443562E+03 -0.92760750406E+03 -0.22136346115E+03  0.11216313793E+04  0.46999998093E+01 0. -1.
       -5    1    3    3    0  502  0.59040443562E+03  0.92760750406E+03 -0.15151563836E+03  0.11099604308E+04  0.46999998093E+01 0.  1.
</event>
<event>
 5   0  0.2532239E-06  0.2191592E+04  0.7818609E-02  0.8521936E-01
       -2   -1    0    0    0  501  0.00000000000E+00  0.00000000000E+00  0.56784834131E+03  0.56784834132E+03  0.25500000920E-02 0. -1.
        2   -1    0    0  501    0  0.00000000000E+00  0.00000000000E+00 -0.21145946849E+04  0.21145946849E+04  0.25500000920E-02 0.  1.
    10030    2    1    2    0    0  0.00000000000E+00  0.00000000000E+00 -0.15467463436E+04  0.26824430262E+04  0.21915921923E+04 0.  0.
        3    1    3    3  502    0  0.46632664373E+03  0.99071031484E+03 -0.72142134025E+03  0.13112651246E+04  0.10100000352E+00 0. -1.
       -3    1    3    3    0  502 -0.46632664373E+03 -0.99071031484E+03 -0.82532500333E+03  0.13711779016E+04  0.10100000352E+00 0.  1.
</event>
<event>
 5   0  0.2532239E-06  0.2202168E+04  0.7818609E-02  0.8517526E-01
       -2   -1    0    0    0  501  0.00000000000E+00  0.00000000000E+00  0.12005260920E+04  0.12005260920E+04  0.25500000920E-02 0. -1.
        2   -1    0    0  501    0  0.00000000000E+00  0.00000000000E+00 -0.10098792838E+04  0.10098792838E+04  0.25500000920E-02 0.  1.
    10030    2    1    2    0    0  0.00000000000E+00  0.00000000000E+00  0.19064680816E+03  0.22104053758E+04  0.22021684131E+04 0.  0.
        3    1    3    3  502    0 -0.91868137893E+02 -0.10766629613E+04  0.30764126745E+03  0.11235150406E+04  0.10100000352E+00 0.  1.
       -3    1    3    3    0  502  0.91868137893E+02  0.10766629613E+04 -0.11699445929E+03  0.10868903351E+04  0.10100000352E+00 0. -1.
</event>
<event>
 5   0  0.8905000E-07  0.2200074E+04  0.7818609E-02  0.8518397E-01
       -3   -1    0    0    0  501  0.00000000000E+00  0.00000000000E+00  0.13469053239E+04  0.13469053277E+04  0.10100000352E+00 0. -1.
        3   -1    0    0  501    0  0.00000000000E+00  0.00000000000E+00 -0.89841641711E+03  0.89841642279E+03  0.10100000352E+00 0.  1.
    10030    2    1    2    0    0  0.00000000000E+00  0.00000000000E+00  0.44848890680E+03  0.22453217505E+04  0.22000744223E+04 0.  0.
        4    1    3    3  502    0 -0.16768226517E+03  0.58038260092E+03  0.11624546113E+04  0.13100624572E+04  0.12699999809E+01 0. -1.
       -4    1    3    3    0  502  0.16768226517E+03 -0.58038260092E+03 -0.71396570454E+03  0.93525929327E+03  0.12699999809E+01 0.  1.
</event>
<event>
 5   0  0.1137869E-06  0.2206607E+04  0.7818609E-02  0.8515683E-01
        1   -1    0    0  501    0  0.00000000000E+00  0.00000000000E+00  0.11011412758E+04  0.11011412759E+04  0.50400001928E-02 0. -1.
       -1   -1    0    0    0  501  0.00000000000E+00  0.00000000000E+00 -0.11054697360E+04  0.11054697360E+04  0.50400001928E-02 0.  1.
    10030    2    1    2    0    0  0.00000000000E+00  0.00000000000E+00 -0.43284601681E+01  0.22066110119E+04  0.22066067666E+04 0.  0.
        5    1    3    3  502    0  0.55102332978E+03  0.20783870969E+03 -0.93513581360E+03  0.11051356112E+04  0.46999998093E+01 0.  1.
       -5    1    3    3    0  502 -0.55102332978E+03 -0.20783870969E+03  0.93080735343E+03  0.11014754007E+04  0.46999998093E+01 0. -1.
</event>
<event>
 5   0  0.2532239E-06  0.2197138E+04  0.7818609E-02  0.8519620E-01
        2   -1    0    0  501    0  0.00000000000E+00  0.00000000000E+00  0.84117551835E+03  0.84117551835E+03  0.25500000920E-02 0.  1.
       -2   -1    0    0    0  501  0.00000000000E+00  0.00000000000E+00 -0.14347227290E+04  0.14347227290E+04  0.25500000920E-02 0. -1.
    10030    2    1    2    0    0  0.00000000000E+00  0.00000000000E+00 -0.59354721061E+03  0.22758982473E+04  0.21971378065E+04 0.  0.
        3    1    3    3  502    0 -0.78673112923E+02  0.61871335267E+03  0.63999965381E+03  0.89364156044E+03  0.10100000352E+00 0.  1.
       -3    1    3    3    0  502  0.78673112923E+02 -0.61871335267E+03 -0.12335468644E+04  0.13822566869E+04  0.10100000352E+00 0. -1.
</event>
<event>
 5   0  0.8905000E-07  0.2200523E+04  0.7818609E-02  0.8518211E-01
       -3   -1    0    0    0  501  0.00000000000E+00  0.00000000000E+00  0.21242816460E+04  0.21242816484E+04  0.10100000352E+00 0.  1.
        3   -1    0    0  501    0  0.00000000000E+00  0.00000000000E+00 -0.56987491614E+03  0.56987492509E+03  0.10100000352E+00 0. -1.
    10030    2    1    2    0    0  0.00000000000E+00  0.00000000000E+00  0.15544067299E+04  0.26941565735E+04  0.22005225199E+04 0.  0.
        3    1    3    3  502    0 -0.96591808808E+03 -0.44206166905E+03  0.42627100432E+03  0.11446061556E+04  0.10100000352E+00 0. -1.
       -3    1    3    3    0  502  0.96591808808E+03  0.44206166905E+03  0.11281357255E+04  0.15495504179E+04  0.10100000352E+00 0.  1.
</event>
<event>
 5   0  0.2606154E-06  0.2200726E+04  0.7818609E-02  0.8518126E-01
        2   -1    0    0  501    0  0.00000000000E+00  0.00000000000E+00  0.78731745270E+03  0.78731745270E+03  0.25500000920E-02 0.  1.
       -2   -1    0    0    0  501  0.00000000000E+00  0.00000000000E+00 -0.15378791086E+04  0.15378791086E+04  0.25500000920E-02 0. -1.
    10030    2    1    2    0    0  0.00000000000E+00  0.00000000000E+00 -0.75056165587E+03  0.23251965613E+04  0.22007263004E+04 0.  0.
        2    1    3    3  502    0  0.94140261194E+03 -0.55554675808E+03 -0.24193665387E+03  0.11195554576E+04  0.25500000920E-02 0.  1.
       -2    1    3    3    0  502 -0.94140261194E+03  0.55554675808E+03 -0.50862500200E+03  0.12056411037E+04  0.25500000920E-02 0. -1.
</event>
<event>
 5   0  0.2581058E-06  0.2194275E+04  0.7818609E-02  0.8520815E-01
        2   -1    0    0  501    0  0.00000000000E+00  0.00000000000E+00  0.11308864253E+04  0.11308864253E+04  0.25500000920E-02 0.  1.
       -2   -1    0    0    0  501  0.00000000000E+00  0.00000000000E+00 -0.10643952642E+04  0.10643952643E+04  0.25500000920E-02 0. -1.
    10030    2    1    2    0    0  0.00000000000E+00  0.00000000000E+00  0.66491161088E+02  0.21952816896E+04  0.21942745093E+04 0.  0.
        1    1    3    3  502    0  0.41016045515E+03 -0.23125680668E+03  0.10246589833E+04  0.11276689859E+04  0.50400001928E-02 0.  1.
       -1    1    3    3    0  502 -0.41016045515E+03  0.23125680668E+03 -0.95816782221E+03  0.10676127037E+04  0.50400001928E-02 0. -1.
</event>
<event>
 5   0  0.1107101E-06  0.2200354E+04  0.7818609E-02  0.8518281E-01
        1   -1    0    0  501    0  0.00000000000E+00  0.00000000000E+00  0.12023569700E+04  0.12023569700E+04  0.50400001928E-02 0.  1.
       -1   -1    0    0    0  501  0.00000000000E+00  0.00000000000E+00 -0.10066803280E+04  0.10066803280E+04  0.50400001928E-02 0. -1.
    10030    2    1    2    0    0  0.00000000000E+00  0.00000000000E+00  0.19567664205E+03  0.22090372980E+04  0.22003537069E+04 0.  0.
        1    1    3    3  502    0  0.26667736822E+03 -0.74085853739E+03 -0.67356954198E+03  0.10361872992E+04  0.50400001928E-02 0. -1.
       -1    1    3    3    0  502 -0.26667736822E+03  0.74085853739E+03  0.86924618402E+03  0.11728499988E+04  0.50400001928E-02 0.  1.
</event>
<event>
 5   0  0.2524749E-06  0.2198661E+04  0.7818609E-02  0.8518986E-01
       -2   -1    0    0    0  501  0.00000000000E+00  0.00000000000E+00  0.10942961488E+04  0.10942961488E+04  0.25500000920E-02 0. -1.
        2   -1    0    0  501    0  0.00000000000E+00  0.00000000000E+00 -0.11043876263E+04  0.11043876263E+04  0.25500000920E-02 0.  1.
    10030    2    1    2    0    0  0.00000000000E+00  0.00000000000E+00 -0.10091477530E+02  0.21986837751E+04  0.21986606161E+04 0.  0.
        4    1    3    3  502    0 -0.60263471991E+03 -0.42839277392E+03  0.80849619719E+03  0.10956079080E+04  0.12699999809E+01 0. -1.
       -4    1    3    3    0  502  0.60263471991E+03  0.42839277392E+03 -0.81858767472E+03  0.11030758671E+04  0.12699999809E+01 0.  1.
</event>
<event>
 5   0  0.2524749E-06  0.2200421E+04  0.7818609E-02  0.8518253E-01
        2   -1    0    0  501    0  0.00000000000E+00  0.00000000000E+00  0.12451854378E+04  0.12451854378E+04  0.25500000920E-02 0.  1.
       -2   -1    0    0    0  501  0.00000000000E+00  0.00000000000E+00 -0.97211466640E+03  0.97211466641E+03  0.25500000920E-02 0. -1.
    10030    2    1    2    0    0  0.00000000000E+00  0.00000000000E+00  0.27307077135E+03  0.22173001042E+04  0.22004208929E+04 0.  0.
        4    1    3    3  502    0  0.10009159201E+04 -0.45610537519E+03  0.16114858284E+03  0.11116812812E+04  0.12699999809E+01 0.  1.
       -4    1    3    3    0  502 -0.10009159201E+04  0.45610537519E+03  0.11192218851E+03  0.11056188229E+04  0.12699999809E+01 0. -1.
</event>
<event>
 5   0  0.2556869E-06  0.2200511E+04  0.7818609E-02  0.8518216E-01
        2   -1    0    0  501    0  0.00000000000E+00  0.00000000000E+00  0.15747555644E+04  0.15747555644E+04  0.25500000920E-02 0. -1.
       -2   -1    0    0    0  501  0.00000000000E+00  0.00000000000E+00 -0.76872991779E+03  0.76872991780E+03  0.25500000920E-02 0.  1.
    10030    2    1    2    0    0  0.00000000000E+00  0.00000000000E+00  0.80602564658E+03  0.23434854822E+04  0.22005105913E+04 0.  0.
        5    1    3    3  502    0 -0.15485438681E+03 -0.10073729102E+04  0.84437922380E+03  0.13235476663E+04  0.46999998093E+01 0. -1.
       -5    1    3    3    0  502  0.15485438681E+03  0.10073729102E+04 -0.38353577220E+02  0.10199378159E+04  0.46999998093E+01 0.  1.
</event>
<event>
 5   0  0.1146827E-06  0.2214231E+04  0.7818609E-02  0.8512528E-01
        1   -1    0    0  501    0  0.00000000000E+00  0.00000000000E+00  0.14915167865E+04  0.14915167865E+04  0.50400001928E-02 0. -1.
       -1   -1    0    0    0  501  0.00000000000E+00  0.00000000000E+00 -0.82178374928E+03  0.82178374929E+03  0.50400001928E-02 0.  1.
    10030    2    1    2    0    0  0.00000000000E+00  0.00000000000E+00  0.66973303721E+03  0.23133005358E+04  0.22142305724E+04 0.  0.
        4    1    3    3  502    0 -0.42452812988E+03 -0.77480549379E+03 -0.36218491194E+03  0.95484407607E+03  0.12699999809E+01 0. -1.
       -4    1    3    3    0  502  0.42452812988E+03  0.77480549379E+03  0.10319179491E+04  0.13584564597E+04  0.12699999809E+01 0.  1.
</event>
<event>
 5   0  0.1082209E-06  0.2199943E+04  0.7818609E-02  0.8518452E-01
        1   -1    0    0  501    0  0.00000000000E+00  0.00000000000E+00  0.16428270574E+04  0.16428270574E+04  0.50400001928E-02 0. -1.
       -1   -1    0    0    0  501  0.00000000000E+00  0.00000000000E+00 -0.73649688230E+03  0.73649688232E+03  0.50400001928E-02 0.  1.
    10030    2    1    2    0    0  0.00000000000E+00  0.00000000000E+00  0.90633017510E+03  0.23793239397E+04  0.21999427320E+04 0.  0.
        2    1    3    3  502    0  0.28216457164E+03  0.46382224147E+03 -0.58149480758E+03  0.79554014884E+03  0.25500000920E-02 0.  1.
       -2    1    3    3    0  502 -0.28216457164E+03 -0.46382224147E+03  0.14878249827E+04  0.15837837909E+04  0.25500000920E-02 0. -1.
</event>
<event>
 5   0  0.2532239E-06  0.2200944E+04  0.7818609E-02  0.8518035E-01
       -2   -1    0    0    0  501  0.00000000000E+00  0.00000000000E+00  0.75359555166E+03  0.75359555167E+03  0.25500000920E-02 0. -1.
        2   -1    0    0  501    0  0.00000000000E+00  0.00000000000E+00 -0.16070136199E+04  0.16070136199E+04  0.25500000920E-02 0.  1.
    10030    2    1    2    0    0  0.00000000000E+00  0.00000000000E+00 -0.85341806824E+03  0.23606091716E+04  0.22009437207E+04 0.  0.
        3    1    3    3  502    0 -0.57680572738E+02  0.78719097680E+03 -0.12491773685E+04  0.14776470453E+04  0.10100000352E+00 0.  1.
       -3    1    3    3    0  502  0.57680572738E+02 -0.78719097680E+03  0.39575930025E+03  0.88296212624E+03  0.10100000352E+00 0. -1.
</event>
<event>
 5   0  0.2581058E-06  0.2197468E+04  0.7818609E-02  0.8519483E-01
        2   -1    0    0  501    0  0.00000000000E+00  0.00000000000E+00  0.27886951626E+04  0.27886951626E+04  0.25500000920E-02 0. -1.
       -2   -1    0    0    0  501  0.00000000000E+00  0.00000000000E+00 -0.43289650368E+03  0.43289650368E+03  0.25500000920E-02 0.  1.
    10030    2    1    2    0    0  0.00000000000E+00  0.00000000000E+00  0.23557986589E+04  0.32215916663E+04  0.21974679845E+04 0.  0.
        1    1    3    3  502    0 -0.86948398444E+03 -0.25235303714E+03  0.26525474103E+03  0.94342171494E+03  0.50400001928E-02 0.  1.
       -1    1    3    3    0  502  0.86948398444E+03  0.25235303714E+03  0.20905439179E+04  0.22781699513E+04  0.50400001928E-02 0. -1.
</event>
<event>
 5   0  0.2524749E-06  0.2199476E+04  0.7818609E-02  0.8518646E-01
        2   -1    0    0  501    0  0.00000000000E+00  0.00000000000E+00  0.81546271106E+03  0.81546271106E+03  0.25500000920E-02 0.  1.
       -2   -1    0    0    0  501  0.00000000000E+00  0.00000000000E+00 -0.14831130079E+04  0.14831130079E+04  0.25500000920E-02 0. -1.
    10030    2    1    2    0    0  0.00000000000E+00  0.00000000000E+00 -0.66765029679E+03  0.22985757189E+04  0.21994757141E+04 0.  0.
        4    1    3    3  502    0  0.63063860644E+03  0.87175430093E+03 -0.96063660189E+02  0.10802270376E+04  0.12699999809E+01 0.  1.
       -4    1    3    3    0  502 -0.63063860644E+03 -0.87175430093E+03 -0.57158663660E+03  0.12183486813E+04  0.12699999809E+01 0. -1.
</event>
<event>
 5   0  0.1144271E-06  0.2198641E+04  0.7818609E-02  0.8518994E-01
       -1   -1    0    0    0  501  0.00000000000E+00  0.00000000000E+00  0.58662862532E+03  0.58662862534E+03  0.50400001928E-02 0.  1.
        1   -1    0    0  501    0  0.00000000000E+00  0.00000000000E+00 -0.20600860544E+04  0.20600860544E+04  0.50400001928E-02 0. -1.
    10030    2    1    2    0    0  0.00000000000E+00  0.00000000000E+00 -0.14734574291E+04  0.26467146797E+04  0.21986408985E+04 0.  0.
        3    1    3    3  502    0  0.87045931794E+03 -0.61866722522E+03 -0.42268591356E+03  0.11485259908E+04  0.10100000352E+00 0.  1.
       -3    1    3    3    0  502 -0.87045931794E+03  0.61866722522E+03 -0.10507715155E+04  0.14981886890E+04  0.10100000352E+00 0. -1.
</event>
<event>
 5   0  0.1107101E-06  0.2203640E+04  0.7818609E-02  0.8516915E-01
       -1   -1    0    0    0  501  0.00000000000E+00  0.00000000000E+00  0.91384738654E+03  0.91384738656E+03  0.50400001928E-02 0.  1.
        1   -1    0    0  501    0  0.00000000000E+00  0.00000000000E+00 -0.13284574285E+04  0.13284574285E+04  0.50400001928E-02 0. -1.
    10030    2    1    2    0    0  0.00000000000E+00  0.00000000000E+00 -0.41461004198E+03  0.22423048151E+04  0.22036400334E+04 0.  0.
        1    1    3    3  502    0  0.15531629350E+03 -0.65973626588E+02 -0.13152305705E+04  0.13260117360E+04  0.50400001928E-02 0. -1.
       -1    1    3    3    0  502 -0.15531629350E+03  0.65973626588E+02  0.90062052850E+03  0.91629307910E+03  0.50400001928E-02 0.  1.
</event>
<event>
 5   0  0.1082209E-06  0.2200008E+04  0.7818609E-02  0.8518425E-01
       -1   -1    0    0    0  501  0.00000000000E+00  0.00000000000E+00  0.40611115186E+03  0.40611115190E+03  0.50400001928E-02 0. -1.
        1   -1    0    0  501    0  0.00000000000E+00  0.00000000000E+00 -0.29795023132E+04  0.29795023132E+04  0.50400001928E-02 0.  1.
    10030    2    1    2    0    0  0.00000000000E+00  0.00000000000E+00 -0.25733911614E+04  0.33856134651E+04  0.22000082877E+04 0.  0.
        2    1    3    3  502    0  0.68677384557E+03 -0.50770365327E+03 -0.21985524297E+03  0.88190568791E+03  0.25500000920E-02 0. -1.
       -2    1    3    3    0  502 -0.68677384557E+03  0.50770365327E+03 -0.23535359184E+04  0.25037077772E+04  0.25500000920E-02 0.  1.
</event>
<event>
 5   0  0.2581058E-06  0.2200478E+04  0.7818609E-02  0.8518229E-01
       -2   -1    0    0    0  501  0.00000000000E+00  0.00000000000E+00  0.82917239946E+03  0.82917239947E+03  0.25500000920E-02 0.  1.
        2   -1    0    0  501    0  0.00000000000E+00  0.00000000000E+00 -0.14599202522E+04  0.14599202522E+04  0.25500000920E-02 0. -1.
    10030    2    1    2    0    0  0.00000000000E+00  0.00000000000E+00 -0.63074785278E+03  0.22890926517E+04  0.22004777468E+04 0.  0.
        1    1    3    3  502    0  0.59600073561E+03 -0.65789357814E+03  0.36078985569E+03  0.95823283026E+03  0.50400001928E-02 0.  1.
       -1    1    3    3    0  502 -0.59600073561E+03  0.65789357814E+03 -0.99153770847E+03  0.13308598215E+04  0.50400001928E-02 0. -1.
</event>
<event>
 5   0  0.2524749E-06  0.2200117E+04  0.7818609E-02  0.8518380E-01
        2   -1    0    0  501    0  0.00000000000E+00  0.00000000000E+00  0.21967382290E+04  0.21967382290E+04  0.25500000920E-02 0. -1.
       -2   -1    0    0    0  501  0.00000000000E+00  0.00000000000E+00 -0.55087499278E+03  0.55087499278E+03  0.25500000920E-02 0.  1.
    10030    2    1    2    0    0  0.00000000000E+00  0.00000000000E+00  0.16458632362E+04  0.27476132218E+04  0.22001165024E+04 0.  0.
        4    1    3    3  502    0 -0.43735605361E+03  0.43637697780E+03 -0.31374143086E+03  0.69292170028E+03  0.12699999809E+01 0.  1.
       -4    1    3    3    0  502  0.43735605361E+03 -0.43637697780E+03  0.19596046671E+04  0.20546915215E+04  0.12699999809E+01 0. -1.
</event>
<event>
 5   0  0.1137869E-06  0.2199773E+04  0.7818609E-02  0.8518522E-01
       -1   -1    0    0    0  501  0.00000000000E+00  0.00000000000E+00  0.96299756998E+03  0.96299757000E+03  0.50400001928E-02 0.  1.
        1   -1    0    0  501    0  0.00000000000E+00  0.00000000000E+00 -0.12562345126E+04  0.12562345126E+04  0.50400001928E-02 0. -1.
    10030    2    1    2    0    0  0.00000000000E+00  0.00000000000E+00 -0.29323694258E+03  0.22192320826E+04  0.21997734274E+04 0.  0.
        5    1    3    3  502    0 -0.25359830614E+03 -0.96126985609E+03 -0.62128748075E+03  0.11723361552E+04  0.46999998093E+01 0. -1.
       -5    1    3    3    0  502  0.25359830614E+03  0.96126985609E+03  0.32805053817E+03  0.10468959273E+04  0.46999998093E+01 0.  1.
</event>
<event>
 5   0  0.2581058E-06  0.2201006E+04  0.7818609E-02  0.8518010E-01
       -2   -1    0    0    0  501  0.00000000000E+00  0.00000000000E+00  0.69010201430E+03  0.69010201430E+03  0.25500000920E-02 0.  1.
        2   -1    0    0  501    0  0.00000000000E+00  0.00000000000E+00 -0.17549673750E+04  0.17549673750E+04  0.25500000920E-02 0. -1.
    10030    2    1    2    0    0  0.00000000000E+00  0.00000000000E+00 -0.10648653607E+04  0.24450693893E+04  0.22010056979E+04 0.  0.
        1    1    3    3  502    0 -0.43957924344E+03  0.85755424508E+03  0.57988350176E+02  0.96539724637E+03  0.50400001928E-02 0.  1.
       -1    1    3    3    0  502  0.43957924344E+03 -0.85755424508E+03 -0.11228537109E+04  0.14796721429E+04  0.50400001928E-02 0. -1.
</event>
<event>
 5   0  0.1144271E-06  0.2211841E+04  0.7818609E-02  0.8513516E-01
       -1   -1    0    0    0  501  0.00000000000E+00  0.00000000000E+00  0.68555906395E+03  0.68555906397E+03  0.50400001928E-02 0.  1.
        1   -1    0    0  501    0  0.00000000000E+00  0.00000000000E+00 -0.17840325363E+04  0.17840325363E+04  0.50400001928E-02 0. -1.
    10030    2    1    2    0    0  0.00000000000E+00  0.00000000000E+00 -0.10984734724E+04  0.24695916003E+04  0.22118405690E+04 0.  0.
        3    1    3    3  502    0  0.28464519754E+03 -0.13427502471E+03 -0.17329753831E+04  0.17613223326E+04  0.10100000352E+00 0. -1.
       -3    1    3    3    0  502 -0.28464519754E+03  0.13427502471E+03  0.63450191068E+03  0.70826926773E+03  0.10100000352E+00 0.  1.
</event>
<event>
 5   0  0.1137869E-06  0.2201221E+04  0.7818609E-02  0.8517920E-01
        1   -1    0    0  501    0  0.00000000000E+00  0.00000000000E+00  0.63862859848E+03  0.63862859850E+03  0.50400001928E-02 0. -1.
       -1   -1    0    0    0  501  0.00000000000E+00  0.00000000000E+00 -0.18967894609E+04  0.18967894609E+04  0.50400001928E-02 0.  1.
    10030    2    1    2    0    0  0.00000000000E+00  0.00000000000E+00 -0.12581608624E+04  0.25354180594E+04  0.22012214746E+04 0.  0.
        5    1    3    3  502    0  0.48566437356E+03  0.75729761459E+02  0.50516842111E+03  0.70485608759E+03  0.46999998093E+01 0. -1.
       -5    1    3    3    0  502 -0.48566437356E+03 -0.75729761459E+02 -0.17633292835E+04  0.18305619718E+04  0.46999998093E+01 0.  1.
</event>
<event>
 5   0  0.1137869E-06  0.2200204E+04  0.7818609E-02  0.8518343E-01
        1   -1    0    0  501    0  0.00000000000E+00  0.00000000000E+00  0.83402565508E+03  0.83402565510E+03  0.50400001928E-02 0. -1.
       -1   -1    0    0    0  501  0.00000000000E+00  0.00000000000E+00 -0.14510637479E+04  0.14510637479E+04  0.50400001928E-02 0.  1.
    10030    2    1    2    0    0  0.00000000000E+00  0.00000000000E+00 -0.61703809282E+03  0.22850894030E+04  0.22002039841E+04 0.  0.
        5    1    3    3  502    0  0.45417168710E+03  0.45607504438E+01  0.73208988501E+03  0.86155116595E+03  0.46999998093E+01 0. -1.
       -5    1    3    3    0  502 -0.45417168710E+03 -0.45607504438E+01 -0.13491279778E+04  0.14235382371E+04  0.46999998093E+01 0.  1.
</event>
<event>
 5   0  0.8905000E-07  0.2200987E+04  0.7818609E-02  0.8518017E-01
       -4   -1    0    0    0  501  0.00000000000E+00  0.00000000000E+00  0.98419182575E+03  0.98419264516E+03  0.12699999809E+01 0.  1.
        4   -1    0    0  501    0  0.00000000000E+00  0.00000000000E+00 -0.12305371089E+04  0.12305377642E+04  0.12699999809E+01 0. -1.
    10030    2    1    2    0    0  0.00000000000E+00  0.00000000000E+00 -0.24634528310E+03  0.22147304094E+04  0.22009872302E+04 0.  0.
        4    1    3    3  502    0 -0.10761035843E+04 -0.26984721702E+02  0.10707369743E+03  0.10817548192E+04  0.12699999809E+01 0.  1.
       -4    1    3    3    0  502  0.10761035843E+04  0.26984721702E+02 -0.35341898054E+03  0.11329755902E+04  0.12699999809E+01 0. -1.
</event>
<event>
 5   0  0.2556869E-06  0.2200258E+04  0.7818609E-02  0.8518321E-01
       -2   -1    0    0    0  501  0.00000000000E+00  0.00000000000E+00  0.54009727496E+03  0.54009727497E+03  0.25500000920E-02 0.  1.
        2   -1    0    0  501    0  0.00000000000E+00  0.00000000000E+00 -0.22408636291E+04  0.22408636291E+04  0.25500000920E-02 0. -1.
    10030    2    1    2    0    0  0.00000000000E+00  0.00000000000E+00 -0.17007663541E+04  0.27809609040E+04  0.22002584754E+04 0.  0.
        5    1    3    3  502    0 -0.26289849712E+03  0.41762945355E+03  0.39233968666E+03  0.63046213208E+03  0.46999998093E+01 0.  1.
       -5    1    3    3    0  502  0.26289849712E+03 -0.41762945355E+03 -0.20931060408E+04  0.21504987719E+04  0.46999998093E+01 0. -1.
</event>
<event>
 5   0  0.2524749E-06  0.2198207E+04  0.7818609E-02  0.8519175E-01
        2   -1    0    0  501    0  0.00000000000E+00  0.00000000000E+00  0.12773280452E+04  0.12773280452E+04  0.25500000920E-02 0. -1.
       -2   -1    0    0    0  501  0.00000000000E+00  0.00000000000E+00 -0.94574623336E+03  0.94574623336E+03  0.25500000920E-02 0.  1.
    10030    2    1    2    0    0  0.00000000000E+00  0.00000000000E+00  0.33158181187E+03  0.22230742786E+04  0.21982067123E+04 0.  0.
        4    1    3    3  502    0 -0.42597006804E+03  0.99608217472E+03  0.35335158404E+03  0.11395126820E+04  0.12699999809E+01 0.  1.
       -4    1    3    3    0  502  0.42597006804E+03 -0.99608217472E+03 -0.21769772169E+02  0.10835615966E+04  0.12699999809E+01 0. -1.
</event>
<event>
 5   0  0.1107101E-06  0.2199824E+04  0.7818609E-02  0.8518501E-01
        1   -1    0    0  501    0  0.00000000000E+00  0.00000000000E+00  0.10869231355E+04  0.10869231355E+04  0.50400001928E-02 0.  1.
       -1   -1    0    0    0  501  0.00000000000E+00  0.00000000000E+00 -0.11130560066E+04  0.11130560066E+04  0.50400001928E-02 0. -1.
    10030    2    1    2    0    0  0.00000000000E+00  0.00000000000E+00 -0.26132871055E+02  0.21999791421E+04  0.21998239245E+04 0.  0.
        1    1    3    3  502    0  0.72856708005E+03 -0.63566544800E+03  0.51130420739E+03  0.10937607345E+04  0.50400001928E-02 0.  1.
       -1    1    3    3    0  502 -0.72856708005E+03  0.63566544800E+03 -0.53743707845E+03  0.11062184076E+04  0.50400001928E-02 0. -1.
</event>
<event>
 5   0  0.2556869E-06  0.2200628E+04  0.7818609E-02  0.8518167E-01
        2   -1    0    0  501    0  0.00000000000E+00  0.00000000000E+00  0.24027220782E+04  0.24027220782E+04  0.25500000920E-02 0. -1.
       -2   -1    0    0    0  501  0.00000000000E+00  0.00000000000E+00 -0.50388303779E+03  0.50388303780E+03  0.25500000920E-02 0.  1.
    10030    2    1    2    0    0  0.00000000000E+00  0.00000000000E+00  0.18988390404E+04  0.29066051160E+04  0.22006280010E+04 0.  0.
        5    1    3    3  502    0  0.95148099469E+03 -0.52323317547E+03  0.11841361627E+04  0.16066392193E+04  0.46999998093E+01 0.  1.
       -5    1    3    3    0  502 -0.95148099469E+03  0.52323317547E+03  0.71470287772E+03  0.12999658967E+04  0.46999998093E+01 0. -1.
</event>
<event>
 5   0  0.1137869E-06  0.2199010E+04  0.7818609E-02  0.8518840E-01
       -1   -1    0    0    0  501  0.00000000000E+00  0.00000000000E+00  0.10379124534E+04  0.10379124534E+04  0.50400001928E-02 0. -1.
        1   -1    0    0  501    0  0.00000000000E+00  0.00000000000E+00 -0.11647521289E+04  0.11647521289E+04  0.50400001928E-02 0.  1.
    10030    2    1    2    0    0  0.00000000000E+00  0.00000000000E+00 -0.12683967552E+03  0.22026645823E+04  0.21990095404E+04 0.  0.
        5    1    3    3  502    0 -0.55611634259E+03 -0.60608349434E+03 -0.79421186694E+03  0.11434146965E+04  0.46999998093E+01 0.  1.
       -5    1    3    3    0  502  0.55611634259E+03  0.60608349434E+03  0.66737219142E+03  0.10592498858E+04  0.46999998093E+01 0. -1.
</event>
<event>
 5   0  0.2532239E-06  0.2198440E+04  0.7818609E-02  0.8519078E-01
        2   -1    0    0  501    0  0.00000000000E+00  0.00000000000E+00  0.15227476351E+04  0.15227476351E+04  0.25500000920E-02 0. -1.
       -2   -1    0    0    0  501  0.00000000000E+00  0.00000000000E+00 -0.79348945439E+03  0.79348945440E+03  0.25500000920E-02 0.  1.
    10030    2    1    2    0    0  0.00000000000E+00  0.00000000000E+00  0.72925818068E+03  0.23162370895E+04  0.21984396195E+04 0.  0.
        3    1    3    3  502    0 -0.49730659972E+03 -0.68167494609E+03 -0.37759672235E+03  0.92443165307E+03  0.10100000352E+00 0.  1.
       -3    1    3    3    0  502  0.49730659972E+03  0.68167494609E+03  0.11068549030E+04  0.13918054364E+04  0.10100000352E+00 0. -1.
</event>
<event>
 5   0  0.2556869E-06  0.2200683E+04  0.7818609E-02  0.8518144E-01
       -2   -1    0    0    0  501  0.00000000000E+00  0.00000000000E+00  0.55041192342E+03  0.55041192342E+03  0.25500000920E-02 0. -1.
        2   -1    0    0  501    0  0.00000000000E+00  0.00000000000E+00 -0.21997193557E+04  0.21997193557E+04  0.25500000920E-02 0.  1.
    10030    2    1    2    0    0  0.00000000000E+00  0.00000000000E+00 -0.16493074323E+04  0.27501312791E+04  0.22006833135E+04 0.  0.
        5    1    3    3  502    0  0.85897748117E+03 -0.37779399079E+03 -0.10659909062E+03  0.94443425856E+03  0.46999998093E+01 0. -1.
       -5    1    3    3    0  502 -0.85897748117E+03  0.37779399079E+03 -0.15427083417E+04  0.18056970206E+04  0.46999998093E+01 0.  1.
</event>
<event>
 5   0  0.1146827E-06  0.2199821E+04  0.7818609E-02  0.8518503E-01
        1   -1    0    0  501    0  0.00000000000E+00  0.00000000000E+00  0.25821755494E+04  0.25821755494E+04  0.50400001928E-02 0. -1.
       -1   -1    0    0    0  501  0.00000000000E+00  0.00000000000E+00 -0.46852081301E+03  0.46852081304E+03  0.50400001928E-02 0.  1.
    10030    2    1    2    0    0  0.00000000000E+00  0.00000000000E+00  0.21136547364E+04  0.30506963625E+04  0.21998208907E+04 0.  0.
        4    1    3    3  502    0  0.10079362592E+04 -0.36752529645E+03  0.13930811611E+04  0.17583193910E+04  0.12699999809E+01 0. -1.
       -4    1    3    3    0  502 -0.10079362592E+04  0.36752529645E+03  0.72057357525E+03  0.12923769715E+04  0.12699999809E+01 0.  1.
</event>
<event>
 5   0  0.2532239E-06  0.2200255E+04  0.7818609E-02  0.8518322E-01
        2   -1    0    0  501    0  0.00000000000E+00  0.00000000000E+00  0.10298810180E+04  0.10298810180E+04  0.25500000920E-02 0.  1.
       -2   -1    0    0    0  501  0.00000000000E+00  0.00000000000E+00 -0.11751649333E+04  0.11751649333E+04  0.25500000920E-02 0. -1.
    10030    2    1    2    0    0  0.00000000000E+00  0.00000000000E+00 -0.14528391523E+03  0.22050459513E+04  0.22002545833E+04 0.  0.
        3    1    3    3  502    0 -0.82067335172E+03  0.58028083468E+03 -0.52088482856E+03  0.11320563644E+04  0.10100000352E+00 0. -1.
       -3    1    3    3    0  502  0.82067335172E+03 -0.58028083468E+03  0.37560091334E+03  0.10729895869E+04  0.10100000352E+00 0.  1.
</event>
<event>
 5   0  0.2606154E-06  0.2197381E+04  0.7818609E-02  0.8519519E-01
        2   -1    0    0  501    0  0.00000000000E+00  0.00000000000E+00  0.13537452988E+04  0.13537452988E+04  0.25500000920E-02 0.  1.
       -2   -1    0    0    0  501  0.00000000000E+00  0.00000000000E+00 -0.89168966010E+03  0.89168966011E+03  0.25500000920E-02 0. -1.
    10030    2    1    2    0    0  0.00000000000E+00  0.00000000000E+00  0.46205563866E+03  0.22454349589E+04  0.21973808822E+04 0.  0.
        2    1    3    3  502    0  0.77342178391E+03  0.24254027359E+03 -0.52688865449E+03  0.96675679174E+03  0.25500000920E-02 0. -1.
       -2    1    3    3    0  502 -0.77342178391E+03 -0.24254027359E+03  0.98894429315E+03  0.12786781671E+04  0.25500000920E-02 0.  1.
</event>
<event>
 5   0  0.2524749E-06  0.2200386E+04  0.7818609E-02  0.8518268E-01
        2   -1    0    0  501    0  0.00000000000E+00  0.00000000000E+00  0.15555470599E+04  0.15555470599E+04  0.25500000920E-02 0. -1.
       -2   -1    0    0    0  501  0.00000000000E+00  0.00000000000E+00 -0.77813412920E+03  0.77813412920E+03  0.25500000920E-02 0.  1.
    10030    2    1    2    0    0  0.00000000000E+00  0.00000000000E+00  0.77741293075E+03  0.23336811891E+04  0.22003856543E+04 0.  0.
        4    1    3    3  502    0  0.37768615889E+03 -0.96684270569E+03  0.19355278037E+01  0.10379966336E+04  0.12699999809E+01 0.  1.
       -4    1    3    3    0  502 -0.37768615889E+03  0.96684270569E+03  0.77547740294E+03  0.12956845556E+04  0.12699999809E+01 0. -1.
</event>
<event>
 5   0  0.2556869E-06  0.2200049E+04  0.7818609E-02  0.8518408E-01
        2   -1    0    0  501    0  0.00000000000E+00  0.00000000000E+00  0.73819764497E+03  0.73819764498E+03  0.25500000920E-02 0.  1.
       -2   -1    0    0    0  501  0.00000000000E+00  0.00000000000E+00 -0.16392008281E+04  0.16392008281E+04  0.25500000920E-02 0. -1.
    10030    2    1    2    0    0  0.00000000000E+00  0.00000000000E+00 -0.90100318313E+03  0.23773984731E+04  0.22000492639E+04 0.  0.
        5    1    3    3  502    0  0.10421887917E+04 -0.20198446592E+03 -0.76196692212E+03  0.13067405567E+04  0.46999998093E+01 0.  1.
       -5    1    3    3    0  502 -0.10421887917E+04  0.20198446592E+03 -0.13903626101E+03  0.10706579164E+04  0.46999998093E+01 0. -1.
</event>
<event>
 5   0  0.2581058E-06  0.2198582E+04  0.7818609E-02  0.8519019E-01
        2   -1    0    0  501    0  0.00000000000E+00  0.00000000000E+00  0.10429227852E+04  0.10429227852E+04  0.25500000920E-02 0.  1.
       -2   -1    0    0    0  501  0.00000000000E+00  0.00000000000E+00 -0.11587054062E+04  0.11587054062E+04  0.25500000920E-02 0. -1.
    10030    2    1    2    0    0  0.00000000000E+00  0.00000000000E+00 -0.11578262106E+03  0.22016281914E+04  0.21985816059E+04 0.  0.
        1    1    3    3  502    0  0.40056927695E+03 -0.10026430991E+04  0.14901382917E+03  0.10899330489E+04  0.50400001928E-02 0. -1.
       -1    1    3    3    0  502 -0.40056927695E+03  0.10026430991E+04 -0.26479645023E+03  0.11116951425E+04  0.50400001928E-02 0.  1.
</event>
<event>
 5   0  0.2581058E-06  0.2199587E+04  0.7818609E-02  0.8518600E-01
       -2   -1    0    0    0  501  0.00000000000E+00  0.00000000000E+00  0.17303313017E+04  0.17303313017E+04  0.25500000920E-02 0.  1.
        2   -1    0    0  501    0  0.00000000000E+00  0.00000000000E+00 -0.69902535626E+03  0.69902535626E+03  0.25500000920E-02 0. -1.
    10030    2    1    2    0    0  0.00000000000E+00  0.00000000000E+00  0.10313059455E+04  0.24293566580E+04  0.21995867381E+04 0.  0.
        1    1    3    3  502    0 -0.72208027802E+03  0.13433275421E+03 -0.38845452843E+03  0.83086830331E+03  0.50400001928E-02 0. -1.
       -1    1    3    3    0  502  0.72208027802E+03 -0.13433275421E+03  0.14197604739E+04  0.15984883547E+04  0.50400001928E-02 0.  1.
</event>
<event>
 5   0  0.1107101E-06  0.2200211E+04  0.7818609E-02  0.8518340E-01
        1   -1    0    0  501    0  0.00000000000E+00  0.00000000000E+00  0.15402312098E+04  0.15402312098E+04  0.50400001928E-02 0.  1.
       -1   -1    0    0    0  501  0.00000000000E+00  0.00000000000E+00 -0.78574672729E+03  0.78574672731E+03  0.50400001928E-02 0. -1.
    10030    2    1    2    0    0  0.00000000000E+00  0.00000000000E+00  0.75448448246E+03  0.23259779371E+04  0.22002105648E+04 0.  0.
        1    1    3    3  502    0 -0.79148304008E+03  0.40174610694E+03  0.10643047558E+04  0.13858535097E+04  0.50400001928E-02 0.  1.
       -1    1    3    3    0  502  0.79148304008E+03 -0.40174610694E+03 -0.30982027330E+03  0.94012442738E+03  0.50400001928E-02 0. -1.
</event>
<event>
 5   0  0.1082209E-06  0.2201936E+04  0.7818609E-02  0.8517623E-01
        1   -1    0    0  501    0  0.00000000000E+00  0.00000000000E+00  0.14227149258E+04  0.14227149258E+04  0.50400001928E-02 0.  1.
       -1   -1    0    0    0  501  0.00000000000E+00  0.00000000000E+00 -0.85198451052E+03  0.85198451053E+03  0.50400001928E-02 0. -1.
    10030    2    1    2    0    0  0.00000000000E+00  0.00000000000E+00  0.57073041526E+03  0.22746994363E+04  0.22019364929E+04 0.  0.
        2    1    3    3  502    0  0.22245033320E+02  0.95801376697E+03  0.84535359287E+03  0.12778528539E+04  0.25500000920E-02 0.  1.
       -2    1    3    3    0  502 -0.22245033320E+02 -0.95801376697E+03 -0.27462317761E+03  0.99684658243E+03  0.25500000920E-02 0. -1.
</event>
<event>
 5   0  0.2581058E-06  0.2199926E+04  0.7818609E-02  0.8518459E-01
       -2   -1    0    0    0  501  0.00000000000E+00  0.00000000000E+00  0.12010372490E+04  0.12010372490E+04  0.25500000920E-02 0. -1.
        2   -1    0    0  501    0  0.00000000000E+00  0.00000000000E+00 -0.10073948169E+04  0.10073948169E+04  0.25500000920E-02 0.  1.
    10030    2    1    2    0    0  0.00000000000E+00  0.00000000000E+00  0.19364243211E+03  0.22084320659E+04  0.21999260892E+04 0.  0.
        1    1    3    3  502    0  0.32851694855E+03 -0.51194665576E+03 -0.82318609692E+03  0.10235468304E+04  0.50400001928E-02 0.  1.
       -1    1    3    3    0  502 -0.32851694855E+03  0.51194665576E+03  0.10168285290E+04  0.11848852355E+04  0.50400001928E-02 0. -1.
</event>
<event>
 5   0  0.1137869E-06  0.2200875E+04  0.7818609E-02  0.8518064E-01
       -1   -1    0    0    0  501  0.00000000000E+00  0.00000000000E+00  0.15833028023E+04  0.15833028023E+04  0.50400001928E-02 0. -1.
        1   -1    0    0  501    0  0.00000000000E+00  0.00000000000E+00 -0.76483304630E+03  0.76483304632E+03  0.50400001928E-02 0.  1.
    10030    2    1    2    0    0  0.00000000000E+00  0.00000000000E+00  0.81846975601E+03  0.23481358486E+04  0.22008746494E+04 0.  0.
        5    1    3    3  502    0  0.26077520033E+03 -0.98033476795E+03  0.86424461024E+03  0.13326667996E+04  0.46999998093E+01 0. -1.
       -5    1    3    3    0  502 -0.26077520033E+03  0.98033476795E+03 -0.45774854221E+02  0.10154690491E+04  0.46999998093E+01 0.  1.
</event>
<event>
 5   0  0.2556869E-06  0.2200322E+04  0.7818609E-02  0.8518294E-01
       -2   -1    0    0    0  501  0.00000000000E+00  0.00000000000E+00  0.46687648858E+03  0.46687648859E+03  0.25500000920E-02 0.  1.
        2   -1    0    0  501    0  0.00000000000E+00  0.00000000000E+00 -0.25924502108E+04  0.25924502108E+04  0.25500000920E-02 0. -1.
    10030    2    1    2    0    0  0.00000000000E+00  0.00000000000E+00 -0.21255737223E+04  0.30593266994E+04  0.22003218412E+04 0.  0.
        5    1    3    3  502    0 -0.96426653240E+03  0.93589471627E+02 -0.17876146453E+04  0.20332626847E+04  0.46999998093E+01 0. -1.
       -5    1    3    3    0  502  0.96426653240E+03 -0.93589471627E+02 -0.33795907694E+03  0.10260640148E+04  0.46999998093E+01 0.  1.
</event>
<event>
 5   0  0.1144271E-06  0.2199121E+04  0.7818609E-02  0.8518794E-01
       -1   -1    0    0    0  501  0.00000000000E+00  0.00000000000E+00  0.16255349943E+04  0.16255349943E+04  0.50400001928E-02 0. -1.
        1   -1    0    0  501    0  0.00000000000E+00  0.00000000000E+00 -0.74377535310E+03  0.74377535312E+03  0.50400001928E-02 0.  1.
    10030    2    1    2    0    0  0.00000000000E+00  0.00000000000E+00  0.88175964118E+03  0.23693103474E+04  0.21991206100E+04 0.  0.
        3    1    3    3  502    0  0.27780839373E+03 -0.81524309494E+03  0.11773245243E+04  0.14587295340E+04  0.10100000352E+00 0. -1.
       -3    1    3    3    0  502 -0.27780839373E+03  0.81524309494E+03 -0.29556488313E+03  0.91058081345E+03  0.10100000352E+00 0.  1.
</event>
<event>
 5   0  0.2606154E-06  0.2200245E+04  0.7818609E-02  0.8518326E-01
        2   -1    0    0  501    0  0.00000000000E+00  0.00000000000E+00  0.21439532843E+04  0.21439532843E+04  0.25500000920E-02 0.  1.
       -2   -1    0    0    0  501  0.00000000000E+00  0.00000000000E+00 -0.56450357399E+03  0.56450357400E+03  0.25500000920E-02 0. -1.
    10030    2    1    2    0    0  0.00000000000E+00  0.00000000000E+00  0.15794497103E+04  0.27084568583E+04  0.22002447968E+04 0.  0.
        2    1    3    3  502    0 -0.45555378524E+03  0.61774735684E+03 -0.18043111018E+03  0.78847728798E+03  0.25500000920E-02 0. -1.
       -2    1    3    3    0  502  0.45555378524E+03 -0.61774735684E+03  0.17598808205E+04  0.19199795703E+04  0.25500000920E-02 0.  1.
</event>
<event>
 5   0  0.1146827E-06  0.2200122E+04  0.7818609E-02  0.8518378E-01
        1   -1    0    0  501    0  0.00000000000E+00  0.00000000000E+00  0.11024622646E+04  0.11024622646E+04  0.50400001928E-02 0. -1.
       -1   -1    0    0    0  501  0.00000000000E+00  0.00000000000E+00 -0.10976644904E+04  0.10976644904E+04  0.50400001928E-02 0.  1.
    10030    2    1    2    0    0  0.00000000000E+00  0.00000000000E+00  0.47977742155E+01  0.22001267550E+04  0.22001215238E+04 0.  0.
        4    1    3    3  502    0 -0.69830962277E+03  0.74904350089E+03  0.40418283295E+03  0.11009395400E+04  0.12699999809E+01 0. -1.
       -4    1    3    3    0  502  0.69830962277E+03 -0.74904350089E+03 -0.39938505873E+03  0.10991872150E+04  0.12699999809E+01 0.  1.
</event>
<event>
 5   0  0.1137869E-06  0.2202113E+04  0.7818609E-02  0.8517549E-01
       -1   -1    0    0    0  501  0.00000000000E+00  0.00000000000E+00  0.97623986128E+03  0.97623986129E+03  0.50400001928E-02 0.  1.
        1   -1    0    0  501    0  0.00000000000E+00  0.00000000000E+00 -0.12418313967E+04  0.12418313967E+04  0.50400001928E-02 0. -1.
    10030    2    1    2    0    0  0.00000000000E+00  0.00000000000E+00 -0.26559153545E+03  0.22180712580E+04  0.22021129040E+04 0.  0.
        5    1    3    3  502    0 -0.93652120938E+03 -0.26989156517E+03 -0.64874785852E+03  0.11708156586E+04  0.46999998093E+01 0. -1.
       -5    1    3    3    0  502  0.93652120938E+03  0.26989156517E+03  0.38315632307E+03  0.10472555994E+04  0.46999998093E+01 0.  1.
</event>
<event>
 5   0  0.1107101E-06  0.2199683E+04  0.7818609E-02  0.8518560E-01
        1   -1    0    0  501    0  0.00000000000E+00  0.00000000000E+00  0.16380229062E+04  0.16380229062E+04  0.50400001928E-02 0.  1.
       -1   -1    0    0    0  501  0.00000000000E+00  0.00000000000E+00 -0.73848224679E+03  0.73848224680E+03  0.50400001928E-02 0. -1.
    10030    2    1    2    0    0  0.00000000000E+00  0.00000000000E+00  0.89954065939E+03  0.23765051530E+04  0.21996825553E+04 0.  0.
        1    1    3    3  502    0 -0.79011119530E+03  0.74096427474E+03  0.65574485240E+03  0.12662168333E+04  0.50400001928E-02 0. -1.
       -1    1    3    3    0  502  0.79011119530E+03 -0.74096427474E+03  0.24379580698E+03  0.11102883197E+04  0.50400001928E-02 0.  1.
</event>
<event>
 5   0  0.1082209E-06  0.2198949E+04  0.7818609E-02  0.8518866E-01
        1   -1    0    0  501    0  0.00000000000E+00  0.00000000000E+00  0.14455894662E+04  0.14455894662E+04  0.50400001928E-02 0.  1.
       -1   -1    0    0    0  501  0.00000000000E+00  0.00000000000E+00 -0.83622947137E+03  0.83622947139E+03  0.50400001928E-02 0. -1.
    10030    2    1    2    0    0  0.00000000000E+00  0.00000000000E+00  0.60935999485E+03  0.22818189376E+04  0.21989493084E+04 0.  0.
        2    1    3    3  502    0  0.57080467594E+03 -0.92207721454E+03  0.11674664502E+03  0.10907218467E+04  0.25500000920E-02 0. -1.
       -2    1    3    3    0  502 -0.57080467594E+03  0.92207721454E+03  0.49261334982E+03  0.11910970910E+04  0.25500000920E-02 0.  1.
</event>
<event>
 5   0  0.2532239E-06  0.2200068E+04  0.7818609E-02  0.8518400E-01
        2   -1    0    0  501    0  0.00000000000E+00  0.00000000000E+00  0.87468104597E+03  0.87468104597E+03  0.25500000920E-02 0. -1.
       -2   -1    0    0    0  501  0.00000000000E+00  0.00000000000E+00 -0.13834469578E+04  0.13834469578E+04  0.25500000920E-02 0.  1.
    10030    2    1    2    0    0  0.00000000000E+00  0.00000000000E+00 -0.50876591183E+03  0.22581280038E+04  0.22000680281E+04 0.  0.
        3    1    3    3  502    0 -0.38647245517E+02 -0.86917431671E+03  0.43652108081E+03  0.97340036296E+03  0.10100000352E+00 0. -1.
       -3    1    3    3    0  502  0.38647245517E+02  0.86917431671E+03 -0.94528699264E+03  0.12847276408E+04  0.10100000352E+00 0.  1.
</event>
<event>
 5   0  0.2581058E-06  0.2199453E+04  0.7818609E-02  0.8518656E-01
        2   -1    0    0  501    0  0.00000000000E+00  0.00000000000E+00  0.24666359096E+04  0.24666359096E+04  0.25500000920E-02 0. -1.
       -2   -1    0    0    0  501  0.00000000000E+00  0.00000000000E+00 -0.49030266507E+03  0.49030266508E+03  0.25500000920E-02 0.  1.
    10030    2    1    2    0    0  0.00000000000E+00  0.00000000000E+00  0.19763332445E+04  0.29569385747E+04  0.21994528049E+04 0.  0.
        1    1    3    3  502    0  0.88535354901E+03  0.64813836771E+03  0.10875421426E+04  0.15448890453E+04  0.50400001928E-02 0.  1.
       -1    1    3    3    0  502 -0.88535354901E+03 -0.64813836771E+03  0.88879110191E+03  0.14120495293E+04  0.50400001928E-02 0. -1.
</event>
<event>
 5   0  0.1082209E-06  0.2201502E+04  0.7818609E-02  0.8517803E-01
        1   -1    0    0  501    0  0.00000000000E+00  0.00000000000E+00  0.13485557023E+04  0.13485557023E+04  0.50400001928E-02 0.  1.
       -1   -1    0    0    0  501  0.00000000000E+00  0.00000000000E+00 -0.89848171687E+03  0.89848171689E+03  0.50400001928E-02 0. -1.
    10030    2    1    2    0    0  0.00000000000E+00  0.00000000000E+00  0.45007398542E+03  0.22470374192E+04  0.22015018898E+04 0.  0.
        2    1    3    3  502    0 -0.46754318959E+03  0.17245354763E+03 -0.77675044145E+03  0.92286407911E+03  0.25500000920E-02 0. -1.
       -2    1    3    3    0  502  0.46754318959E+03 -0.17245354763E+03  0.12268244269E+04  0.13241733401E+04  0.25500000920E-02 0.  1.
</event>
<event>
 5   0  0.1146827E-06  0.2199057E+04  0.7818609E-02  0.8518821E-01
       -1   -1    0    0    0  501  0.00000000000E+00  0.00000000000E+00  0.93100053618E+03  0.93100053620E+03  0.50400001928E-02 0. -1.
        1   -1    0    0  501    0  0.00000000000E+00  0.00000000000E+00 -0.12985630267E+04  0.12985630267E+04  0.50400001928E-02 0.  1.
    10030    2    1    2    0    0  0.00000000000E+00  0.00000000000E+00 -0.36756249049E+03  0.22295635629E+04  0.21990569562E+04 0.  0.
        4    1    3    3  502    0 -0.29686679958E+03  0.93243327789E+03  0.32457202953E+03  0.10309754263E+04  0.12699999809E+01 0. -1.
       -4    1    3    3    0  502  0.29686679958E+03 -0.93243327789E+03 -0.69213452002E+03  0.11985881366E+04  0.12699999809E+01 0.  1.
</event>
<event>
 5   0  0.1144271E-06  0.2200103E+04  0.7818609E-02  0.8518385E-01
       -1   -1    0    0    0  501  0.00000000000E+00  0.00000000000E+00  0.12602589448E+04  0.12602589448E+04  0.50400001928E-02 0.  1.
        1   -1    0    0  501    0  0.00000000000E+00  0.00000000000E+00 -0.96021021507E+03  0.96021021508E+03  0.50400001928E-02 0. -1.
    10030    2    1    2    0    0  0.00000000000E+00  0.00000000000E+00  0.30004872971E+03  0.22204691599E+04  0.22001031907E+04 0.  0.
        3    1    3    3  502    0 -0.20106039445E+03  0.65288960262E+03  0.10202258183E+04  0.12278236217E+04  0.10100000352E+00 0.  1.
       -3    1    3    3    0  502  0.20106039445E+03 -0.65288960262E+03 -0.72017708857E+03  0.99264553821E+03  0.10100000352E+00 0. -1.
</event>
<event>
 5   0  0.1146827E-06  0.2197463E+04  0.7818609E-02  0.8519485E-01
       -1   -1    0    0    0  501  0.00000000000E+00  0.00000000000E+00  0.10886213364E+04  0.10886213364E+04  0.50400001928E-02 0.  1.
        1   -1    0    0  501    0  0.00000000000E+00  0.00000000000E+00 -0.11089352094E+04  0.11089352095E+04  0.50400001928E-02 0. -1.
    10030    2    1    2    0    0  0.00000000000E+00  0.00000000000E+00 -0.20313873090E+02  0.21975565458E+04  0.21974626547E+04 0.  0.
        4    1    3    3  502    0  0.11518635418E+03 -0.45536236404E+03 -0.10034698015E+04  0.11079603035E+04  0.12699999809E+01 0. -1.
       -4    1    3    3    0  502 -0.11518635418E+03  0.45536236404E+03  0.98315592840E+03  0.10895962423E+04  0.12699999809E+01 0.  1.
</event>
<event>
 5   0  0.2606154E-06  0.2196904E+04  0.7818609E-02  0.8519718E-01
       -2   -1    0    0    0  501  0.00000000000E+00  0.00000000000E+00  0.94642678236E+03  0.94642678236E+03  0.25500000920E-02 0. -1.
        2   -1    0    0  501    0  0.00000000000E+00  0.00000000000E+00 -0.12748969414E+04  0.12748969414E+04  0.25500000920E-02 0.  1.
    10030    2    1    2    0    0  0.00000000000E+00  0.00000000000E+00 -0.32847015902E+03  0.22213237237E+04  0.21969038305E+04 0.  0.
        2    1    3    3  502    0 -0.32812996051E+03 -0.10481831162E+04 -0.14858746648E+03  0.11083480281E+04  0.25500000920E-02 0. -1.
       -2    1    3    3    0  502  0.32812996051E+03  0.10481831162E+04 -0.17988269254E+03  0.11129756957E+04  0.25500000920E-02 0.  1.
</event>
<event>
 5   0  0.2581058E-06  0.2200433E+04  0.7818609E-02  0.8518248E-01
        2   -1    0    0  501    0  0.00000000000E+00  0.00000000000E+00  0.68999945608E+03  0.68999945609E+03  0.25500000920E-02 0. -1.
       -2   -1    0    0    0  501  0.00000000000E+00  0.00000000000E+00 -0.17543146563E+04  0.17543146563E+04  0.25500000920E-02 0.  1.
    10030    2    1    2    0    0  0.00000000000E+00  0.00000000000E+00 -0.10643152002E+04  0.24443141124E+04  0.22004328289E+04 0.  0.
        1    1    3    3  502    0 -0.11511780346E+03  0.48985246458E+03  0.55468288894E+03  0.74891965726E+03  0.50400001928E-02 0. -1.
       -1    1    3    3    0  502  0.11511780346E+03 -0.48985246458E+03 -0.16189980892E+04  0.16953944551E+04  0.50400001928E-02 0.  1.
</event>
<event>
 5   0  0.1107101E-06  0.2199048E+04  0.7818609E-02  0.8518824E-01
        1   -1    0    0  501    0  0.00000000000E+00  0.00000000000E+00  0.29210774215E+04  0.29210774215E+04  0.50400001928E-02 0.  1.
       -1   -1    0    0    0  501  0.00000000000E+00  0.00000000000E+00 -0.41387227230E+03  0.41387227233E+03  0.50400001928E-02 0. -1.
    10030    2    1    2    0    0  0.00000000000E+00  0.00000000000E+00  0.25072051492E+04  0.33349496938E+04  0.21990479304E+04 0.  0.
        1    1    3    3  502    0  0.93939409350E+03  0.57041379321E+03  0.13043510739E+04  0.17056274160E+04  0.50400001928E-02 0. -1.
       -1    1    3    3    0  502 -0.93939409350E+03 -0.57041379321E+03  0.12028540753E+04  0.16293222778E+04  0.50400001928E-02 0.  1.
</event>
<event>
 5   0  0.2606154E-06  0.2199883E+04  0.7818609E-02  0.8518477E-01
        2   -1    0    0  501    0  0.00000000000E+00  0.00000000000E+00  0.19489680071E+04  0.19489680071E+04  0.25500000920E-02 0.  1.
       -2   -1    0    0    0  501  0.00000000000E+00  0.00000000000E+00 -0.62077534475E+03  0.62077534476E+03  0.25500000920E-02 0. -1.
    10030    2    1    2    0    0  0.00000000000E+00  0.00000000000E+00  0.13281926624E+04  0.25697433519E+04  0.21998829846E+04 0.  0.
        2    1    3    3  502    0 -0.38226212773E+03  0.80733959734E+03 -0.85646428006E+02  0.89736105909E+03  0.25500000920E-02 0. -1.
       -2    1    3    3    0  502  0.38226212773E+03 -0.80733959734E+03  0.14138390904E+04  0.16723822928E+04  0.25500000920E-02 0.  1.
</event>
<event>
 5   0  0.1144271E-06  0.2188168E+04  0.7818609E-02  0.8523369E-01
        1   -1    0    0  501    0  0.00000000000E+00  0.00000000000E+00  0.22137911278E+04  0.22137911278E+04  0.50400001928E-02 0.  1.
       -1   -1    0    0    0  501  0.00000000000E+00  0.00000000000E+00 -0.54071024718E+03  0.54071024720E+03  0.50400001928E-02 0. -1.
    10030    2    1    2    0    0  0.00000000000E+00  0.00000000000E+00  0.16730808807E+04  0.27545013750E+04  0.21881677705E+04 0.  0.
        3    1    3    3  502    0  0.57811101454E+03  0.91907854627E+03  0.10059053671E+04  0.14801227439E+04  0.10100000352E+00 0.  1.
       -3    1    3    3    0  502 -0.57811101454E+03 -0.91907854627E+03  0.66717551354E+03  0.12743786311E+04  0.10100000352E+00 0. -1.
</event>
<event>
 5   0  0.2581058E-06  0.2198960E+04  0.7818609E-02  0.8518861E-01
        2   -1    0    0  501    0  0.00000000000E+00  0.00000000000E+00  0.12931535871E+04  0.12931535871E+04  0.25500000920E-02 0. -1.
       -2   -1    0    0    0  501  0.00000000000E+00  0.00000000000E+00 -0.93481229493E+03  0.93481229493E+03  0.25500000920E-02 0.  1.
    10030    2    1    2    0    0  0.00000000000E+00  0.00000000000E+00  0.35834129215E+03  0.22279658820E+04  0.21989596380E+04 0.  0.
        1    1    3    3  502    0 -0.10215038702E+03 -0.54148252875E+03  0.11431502180E+04  0.12690273644E+04  0.50400001928E-02 0. -1.
       -1    1    3    3    0  502  0.10215038702E+03  0.54148252875E+03 -0.78480892586E+03  0.95893851766E+03  0.50400001928E-02 0.  1.
</event>
<event>
 5   0  0.1144271E-06  0.2200032E+04  0.7818609E-02  0.8518415E-01
        1   -1    0    0  501    0  0.00000000000E+00  0.00000000000E+00  0.27705392904E+04  0.27705392904E+04  0.50400001928E-02 0. -1.
       -1   -1    0    0    0  501  0.00000000000E+00  0.00000000000E+00 -0.43675066255E+03  0.43675066258E+03  0.50400001928E-02 0.  1.
    10030    2    1    2    0    0  0.00000000000E+00  0.00000000000E+00  0.23337886278E+04  0.32072899530E+04  0.22000317005E+04 0.  0.
        3    1    3    3  502    0 -0.78301718574E+03  0.71592392994E+03  0.74343846814E+03  0.12955167898E+04  0.10100000352E+00 0. -1.
       -3    1    3    3    0  502  0.78301718574E+03 -0.71592392994E+03  0.15903501597E+04  0.19117731631E+04  0.10100000352E+00 0.  1.
</event>
<event>
 5   0  0.2556869E-06  0.2199625E+04  0.7818609E-02  0.8518584E-01
       -2   -1    0    0    0  501  0.00000000000E+00  0.00000000000E+00  0.54392315798E+03  0.54392315798E+03  0.25500000920E-02 0. -1.
        2   -1    0    0  501    0  0.00000000000E+00  0.00000000000E+00 -0.22238215637E+04  0.22238215637E+04  0.25500000920E-02 0.  1.
    10030    2    1    2    0    0  0.00000000000E+00  0.00000000000E+00 -0.16798984057E+04  0.27677447216E+04  0.21996254660E+04 0.  0.
        5    1    3    3  502    0  0.10108831625E+03  0.42220200202E+03 -0.21114301366E+04  0.21556049476E+04  0.46999998093E+01 0.  1.
       -5    1    3    3    0  502 -0.10108831625E+03 -0.42220200202E+03  0.43153173094E+03  0.61213977407E+03  0.46999998093E+01 0. -1.
</event>
<event>
 5   0  0.2581058E-06  0.2200412E+04  0.7818609E-02  0.8518257E-01
        2   -1    0    0  501    0  0.00000000000E+00  0.00000000000E+00  0.89368662403E+03  0.89368662403E+03  0.25500000920E-02 0. -1.
       -2   -1    0    0    0  501  0.00000000000E+00  0.00000000000E+00 -0.13544495070E+04  0.13544495070E+04  0.25500000920E-02 0.  1.
    10030    2    1    2    0    0  0.00000000000E+00  0.00000000000E+00 -0.46076288293E+03  0.22481361310E+04  0.22004121498E+04 0.  0.
        1    1    3    3  502    0 -0.87224731512E+03 -0.24332067322E+03  0.40801708177E+03  0.99322619166E+03  0.50400001928E-02 0. -1.
       -1    1    3    3    0  502  0.87224731512E+03  0.24332067322E+03 -0.86877996469E+03  0.12549099393E+04  0.50400001928E-02 0.  1.
</event>
<event>
 5   0  0.1082209E-06  0.2199667E+04  0.7818609E-02  0.8518567E-01
       -1   -1    0    0    0  501  0.00000000000E+00  0.00000000000E+00  0.26409391803E+04  0.26409391804E+04  0.50400001928E-02 0. -1.
        1   -1    0    0  501    0  0.00000000000E+00  0.00000000000E+00 -0.45803159489E+03  0.45803159492E+03  0.50400001928E-02 0.  1.
    10030    2    1    2    0    0  0.00000000000E+00  0.00000000000E+00  0.21829075855E+04  0.30989707753E+04  0.21996668701E+04 0.  0.
        2    1    3    3  502    0 -0.62645805412E+03 -0.42501501792E+03 -0.32570005793E+02  0.75772571839E+03  0.25500000920E-02 0.  1.
       -2    1    3    3    0  502  0.62645805412E+03  0.42501501792E+03  0.22154775913E+04  0.23412450569E+04  0.25500000920E-02 0. -1.
</event>
<event>
 5   0  0.2606154E-06  0.2199991E+04  0.7818609E-02  0.8518432E-01
        2   -1    0    0  501    0  0.00000000000E+00  0.00000000000E+00  0.12829784306E+04  0.12829784306E+04  0.25500000920E-02 0. -1.
       -2   -1    0    0    0  501  0.00000000000E+00  0.00000000000E+00 -0.94310982513E+03  0.94310982514E+03  0.25500000920E-02 0.  1.
    10030    2    1    2    0    0  0.00000000000E+00  0.00000000000E+00  0.33986860543E+03  0.22260882557E+04  0.21999905121E+04 0.  0.
        2    1    3    3  502    0 -0.15053023433E+03 -0.56882629797E+03 -0.77048132590E+03  0.96946592631E+03  0.25500000920E-02 0.  1.
       -2    1    3    3    0  502  0.15053023433E+03  0.56882629797E+03  0.11103499313E+04  0.12566223294E+04  0.25500000920E-02 0. -1.
</event>
<event>
 5   0  0.2581058E-06  0.2200301E+04  0.7818609E-02  0.8518303E-01
       -2   -1    0    0    0  501  0.00000000000E+00  0.00000000000E+00  0.53755308604E+03  0.53755308605E+03  0.25500000920E-02 0. -1.
        2   -1    0    0  501    0  0.00000000000E+00  0.00000000000E+00 -0.22515564178E+04  0.22515564178E+04  0.25500000920E-02 0.  1.
    10030    2    1    2    0    0  0.00000000000E+00  0.00000000000E+00 -0.17140033317E+04  0.27891095038E+04  0.22003009801E+04 0.  0.
        1    1    3    3  502    0  0.36934848038E+03 -0.51850259802E+03  0.28036296042E+03  0.69560522835E+03  0.50400001928E-02 0. -1.
       -1    1    3    3    0  502 -0.36934848038E+03  0.51850259802E+03 -0.19943662921E+04  0.20935042755E+04  0.50400001928E-02 0.  1.
</event>
<event>
 5   0  0.1082209E-06  0.2200440E+04  0.7818609E-02  0.8518245E-01
       -1   -1    0    0    0  501  0.00000000000E+00  0.00000000000E+00  0.13940464442E+04  0.13940464442E+04  0.50400001928E-02 0. -1.
        1   -1    0    0  501    0  0.00000000000E+00  0.00000000000E+00 -0.86832411387E+03  0.86832411388E+03  0.50400001928E-02 0.  1.
    10030    2    1    2    0    0  0.00000000000E+00  0.00000000000E+00  0.52572233035E+03  0.22623705581E+04  0.22004400863E+04 0.  0.
        2    1    3    3  502    0 -0.80887544835E+03  0.65864338974E+03  0.62255536610E+03  0.12147698505E+04  0.25500000920E-02 0.  1.
       -2    1    3    3    0  502  0.80887544835E+03 -0.65864338974E+03 -0.96833035744E+02  0.10476007076E+04  0.25500000920E-02 0. -1.
</event>
<event>
 5   0  0.1146827E-06  0.2208829E+04  0.7818609E-02  0.8514762E-01
        1   -1    0    0  501    0  0.00000000000E+00  0.00000000000E+00  0.12677622752E+04  0.12677622752E+04  0.50400001928E-02 0.  1.
       -1   -1    0    0    0  501  0.00000000000E+00  0.00000000000E+00 -0.96211402488E+03  0.96211402490E+03  0.50400001928E-02 0. -1.
    10030    2    1    2    0    0  0.00000000000E+00  0.00000000000E+00  0.30564825034E+03  0.22298763001E+04  0.22088294323E+04 0.  0.
        4    1    3    3  502    0 -0.36877482710E+03  0.74724983513E+03 -0.57889469518E+03  0.10146417448E+04  0.12699999809E+01 0. -1.
       -4    1    3    3    0  502  0.36877482710E+03 -0.74724983513E+03  0.88454294551E+03  0.12152345554E+04  0.12699999809E+01 0.  1.
</event>
<event>
 5   0  0.2556869E-06  0.2200337E+04  0.7818609E-02  0.8518288E-01
       -2   -1    0    0    0  501  0.00000000000E+00  0.00000000000E+00  0.62625090722E+03  0.62625090722E+03  0.25500000920E-02 0.  1.
        2   -1    0    0  501    0  0.00000000000E+00  0.00000000000E+00 -0.19327249929E+04  0.19327249929E+04  0.25500000920E-02 0. -1.
    10030    2    1    2    0    0  0.00000000000E+00  0.00000000000E+00 -0.13064740857E+04  0.25589759001E+04  0.22003370471E+04 0.  0.
        5    1    3    3  502    0 -0.15962357832E+03  0.51554079921E+03  0.46171252277E+03  0.71025526826E+03  0.46999998093E+01 0.  1.
       -5    1    3    3    0  502  0.15962357832E+03 -0.51554079921E+03 -0.17681866084E+04  0.18487206319E+04  0.46999998093E+01 0. -1.
</event>
<event>
 5   0  0.1144271E-06  0.2199954E+04  0.7818609E-02  0.8518447E-01
       -1   -1    0    0    0  501  0.00000000000E+00  0.00000000000E+00  0.85606792549E+03  0.85606792551E+03  0.50400001928E-02 0. -1.
        1   -1    0    0  501    0  0.00000000000E+00  0.00000000000E+00 -0.14133805277E+04  0.14133805277E+04  0.50400001928E-02 0.  1.
    10030    2    1    2    0    0  0.00000000000E+00  0.00000000000E+00 -0.55731260218E+03  0.22694484532E+04  0.21999543052E+04 0.  0.
        3    1    3    3  502    0  0.17601346291E+03 -0.65383908759E+03 -0.11729096787E+04  0.13543276620E+04  0.10100000352E+00 0.  1.
       -3    1    3    3    0  502 -0.17601346291E+03  0.65383908759E+03  0.61559707651E+03  0.91512079115E+03  0.10100000352E+00 0. -1.
</event>
<event>
 5   0  0.1144271E-06  0.2199642E+04  0.7818609E-02  0.8518577E-01
        1   -1    0    0  501    0  0.00000000000E+00  0.00000000000E+00  0.18241455205E+04  0.18241455205E+04  0.50400001928E-02 0.  1.
       -1   -1    0    0    0  501  0.00000000000E+00  0.00000000000E+00 -0.66310840699E+03  0.66310840701E+03  0.50400001928E-02 0. -1.
    10030    2    1    2    0    0  0.00000000000E+00  0.00000000000E+00  0.11610371135E+04  0.24872539275E+04  0.21996419984E+04 0.  0.
        3    1    3    3  502    0 -0.57139431933E+03 -0.31556587533E+02  0.16425361078E+04  0.17393711973E+04  0.10100000352E+00 0.  1.
       -3    1    3    3    0  502  0.57139431933E+03  0.31556587533E+02 -0.48149899432E+03  0.74788273018E+03  0.10100000352E+00 0. -1.
</event>
<event>
 5   0  0.2532239E-06  0.2199941E+04  0.7818609E-02  0.8518453E-01
        2   -1    0    0  501    0  0.00000000000E+00  0.00000000000E+00  0.18274513832E+04  0.18274513832E+04  0.25500000920E-02 0.  1.
       -2   -1    0    0    0  501  0.00000000000E+00  0.00000000000E+00 -0.66208889540E+03  0.66208889540E+03  0.25500000920E-02 0. -1.
    10030    2    1    2    0    0  0.00000000000E+00  0.00000000000E+00  0.11653624878E+04  0.24895402786E+04  0.21999411517E+04 0.  0.
        3    1    3    3  502    0  0.33951562760E+02  0.10895065460E+04  0.41575757166E+03  0.11666325861E+04  0.10100000352E+00 0. -1.
       -3    1    3    3    0  502 -0.33951562760E+02 -0.10895065460E+04  0.74960491618E+03  0.13229076925E+04  0.10100000352E+00 0.  1.
</event>
<event>
 5   0  0.2556869E-06  0.2199295E+04  0.7818609E-02  0.8518722E-01
        2   -1    0    0  501    0  0.00000000000E+00  0.00000000000E+00  0.13257700982E+04  0.13257700982E+04  0.25500000920E-02 0.  1.
       -2   -1    0    0    0  501  0.00000000000E+00  0.00000000000E+00 -0.91209212227E+03  0.91209212227E+03  0.25500000920E-02 0. -1.
    10030    2    1    2    0    0  0.00000000000E+00  0.00000000000E+00  0.41367797595E+03  0.22378622205E+04  0.21992948529E+04 0.  0.
        5    1    3    3  502    0 -0.16154357002E+03  0.61227410190E+03  0.11216184848E+04  0.12880318383E+04  0.46999998093E+01 0.  1.
       -5    1    3    3    0  502  0.16154357002E+03 -0.61227410190E+03 -0.70794050889E+03  0.94983038222E+03  0.46999998093E+01 0. -1.
</event>
<event>
 5   0  0.1137869E-06  0.2199893E+04  0.7818609E-02  0.8518473E-01
       -1   -1    0    0    0  501  0.00000000000E+00  0.00000000000E+00  0.17084903514E+04  0.17084903514E+04  0.50400001928E-02 0.  1.
        1   -1    0    0  501    0  0.00000000000E+00  0.00000000000E+00 -0.70815862997E+03  0.70815862999E+03  0.50400001928E-02 0. -1.
    10030    2    1    2    0    0  0.00000000000E+00  0.00000000000E+00  0.10003317214E+04  0.24166489814E+04  0.21998928943E+04 0.  0.
        5    1    3    3  502    0  0.41323593576E+03 -0.72614167981E+03 -0.28573596026E+03  0.88301348050E+03  0.46999998093E+01 0. -1.
       -5    1    3    3    0  502 -0.41323593576E+03  0.72614167981E+03  0.12860676817E+04  0.15336355009E+04  0.46999998093E+01 0.  1.
</event>
<event>
 5   0  0.1082209E-06  0.2199789E+04  0.7818609E-02  0.8518516E-01
       -1   -1    0    0    0  501  0.00000000000E+00  0.00000000000E+00  0.11383806973E+04  0.11383806973E+04  0.50400001928E-02 0. -1.
        1   -1    0    0  501    0  0.00000000000E+00  0.00000000000E+00 -0.10627094602E+04  0.10627094602E+04  0.50400001928E-02 0.  1.
    10030    2    1    2    0    0  0.00000000000E+00  0.00000000000E+00  0.75671237132E+02  0.22010901576E+04  0.21997890230E+04 0.  0.
        2    1    3    3  502    0 -0.31662525048E+03  0.10533175214E+04  0.44051075708E+02  0.11007587599E+04  0.25500000920E-02 0.  1.
       -2    1    3    3    0  502  0.31662525048E+03 -0.10533175214E+04  0.31620161423E+02  0.11003313977E+04  0.25500000920E-02 0. -1.
</event>
<event>
 5   0  0.2524749E-06  0.2199979E+04  0.7818609E-02  0.8518437E-01
       -2   -1    0    0    0  501  0.00000000000E+00  0.00000000000E+00  0.14672101197E+04  0.14672101197E+04  0.25500000920E-02 0. -1.
        2   -1    0    0  501    0  0.00000000000E+00  0.00000000000E+00 -0.82467846225E+03  0.82467846225E+03  0.25500000920E-02 0.  1.
    10030    2    1    2    0    0  0.00000000000E+00  0.00000000000E+00  0.64253165748E+03  0.22918885820E+04  0.21999787138E+04 0.  0.
        4    1    3    3  502    0 -0.57956625960E+03  0.92358377575E+03  0.17004315981E+03  0.11035489700E+04  0.12699999809E+01 0.  1.
       -4    1    3    3    0  502  0.57956625960E+03 -0.92358377575E+03  0.47248849767E+03  0.11883396120E+04  0.12699999809E+01 0. -1.
</event>
<event>
 5   0  0.2556869E-06  0.2205130E+04  0.7818609E-02  0.8516296E-01
        2   -1    0    0  501    0  0.00000000000E+00  0.00000000000E+00  0.95401672414E+03  0.95401672414E+03  0.25500000920E-02 0.  1.
       -2   -1    0    0    0  501  0.00000000000E+00  0.00000000000E+00 -0.12742433101E+04  0.12742433101E+04  0.25500000920E-02 0. -1.
    10030    2    1    2    0    0  0.00000000000E+00  0.00000000000E+00 -0.32022658596E+03  0.22282600343E+04  0.22051298633E+04 0.  0.
        5    1    3    3  502    0  0.99579862378E+03  0.16084357514E+03 -0.60991358622E+03  0.11787714908E+04  0.46999998093E+01 0. -1.
       -5    1    3    3    0  502 -0.99579862378E+03 -0.16084357514E+03  0.28968700025E+03  0.10494885435E+04  0.46999998093E+01 0.  1.
</event>
<event>
 5   0  0.1107101E-06  0.2200027E+04  0.7818609E-02  0.8518417E-01
       -1   -1    0    0    0  501  0.00000000000E+00  0.00000000000E+00  0.11178371939E+04  0.11178371939E+04  0.50400001928E-02 0. -1.
        1   -1    0    0  501    0  0.00000000000E+00  0.00000000000E+00 -0.10824735951E+04  0.10824735951E+04  0.50400001928E-02 0.  1.
    10030    2    1    2    0    0  0.00000000000E+00  0.00000000000E+00  0.35363598775E+02  0.22003107890E+04  0.22000265872E+04 0.  0.
        1    1    3    3  502    0 -0.84474693885E+03 -0.13776290491E+03  0.70875097192E+03  0.11112623223E+04  0.50400001928E-02 0. -1.
       -1    1    3    3    0  502  0.84474693885E+03  0.13776290491E+03 -0.67338737314E+03  0.10890484668E+04  0.50400001928E-02 0.  1.
</event>
<event>
 5   0  0.2606154E-06  0.2203184E+04  0.7818609E-02  0.8517104E-01
       -2   -1    0    0    0  501  0.00000000000E+00  0.00000000000E+00  0.84021873720E+03  0.84021873720E+03  0.25500000920E-02 0.  1.
        2   -1    0    0  501    0  0.00000000000E+00  0.00000000000E+00 -0.14442724041E+04  0.14442724041E+04  0.25500000920E-02 0. -1.
    10030    2    1    2    0    0  0.00000000000E+00  0.00000000000E+00 -0.60405366693E+03  0.22844911413E+04  0.22031838194E+04 0.  0.
        2    1    3    3  502    0 -0.14055216916E+03  0.10452102151E+04 -0.63202553580E+03  0.12295021691E+04  0.25500000920E-02 0. -1.
       -2    1    3    3    0  502  0.14055216916E+03 -0.10452102151E+04  0.27971868865E+02  0.10549889722E+04  0.25500000920E-02 0.  1.
</event>
<event>
 5   0  0.1082209E-06  0.2204253E+04  0.7818609E-02  0.8516660E-01
        1   -1    0    0  501    0  0.00000000000E+00  0.00000000000E+00  0.20066527833E+04  0.20066527833E+04  0.50400001928E-02 0. -1.
       -1   -1    0    0    0  501  0.00000000000E+00  0.00000000000E+00 -0.60532804374E+03  0.60532804376E+03  0.50400001928E-02 0.  1.
    10030    2    1    2    0    0  0.00000000000E+00  0.00000000000E+00  0.14013247396E+04  0.26119808271E+04  0.22042533464E+04 0.  0.
        2    1    3    3  502    0  0.68470260159E+03  0.60751804418E+03 -0.26709746511E+02  0.91575610137E+03  0.25500000920E-02 0.  1.
       -2    1    3    3    0  502 -0.68470260159E+03 -0.60751804418E+03  0.14280344861E+04  0.16962247257E+04  0.25500000920E-02 0. -1.
</event>
<event>
 5   0  0.2581058E-06  0.2201561E+04  0.7818609E-02  0.8517779E-01
        2   -1    0    0  501    0  0.00000000000E+00  0.00000000000E+00  0.12921951900E+04  0.12921951900E+04  0.25500000920E-02 0. -1.
       -2   -1    0    0    0  501  0.00000000000E+00  0.00000000000E+00 -0.93772061800E+03  0.93772061801E+03  0.25500000920E-02 0.  1.
    10030    2    1    2    0    0  0.00000000000E+00  0.00000000000E+00  0.35447457202E+03  0.22299158080E+04  0.22015613298E+04 0.  0.
        1    1    3    3  502    0 -0.89295177516E+03  0.62885888583E+03  0.38019984697E+02  0.10928274751E+04  0.50400001928E-02 0. -1.
       -1    1    3    3    0  502  0.89295177516E+03 -0.62885888583E+03  0.31645458733E+03  0.11370883329E+04  0.50400001928E-02 0.  1.
</event>
<event>
 5   0  0.1144271E-06  0.2199633E+04  0.7818609E-02  0.8518581E-01
        1   -1    0    0  501    0  0.00000000000E+00  0.00000000000E+00  0.15866388806E+04  0.15866388806E+04  0.50400001928E-02 0. -1.
       -1   -1    0    0    0  501  0.00000000000E+00  0.00000000000E+00 -0.76236426161E+03  0.76236426163E+03  0.50400001928E-02 0.  1.
    10030    2    1    2    0    0  0.00000000000E+00  0.00000000000E+00  0.82427461900E+03  0.23490031423E+04  0.21996334046E+04 0.  0.
        3    1    3    3  502    0  0.45507568048E+03  0.96665547247E+03  0.69077724139E+03  0.12722774402E+04  0.10100000352E+00 0. -1.
       -3    1    3    3    0  502 -0.45507568048E+03 -0.96665547247E+03  0.13349737761E+03  0.10767257020E+04  0.10100000352E+00 0.  1.
</event>
<event>
 5   0  0.1144271E-06  0.2199316E+04  0.7818609E-02  0.8518713E-01
        1   -1    0    0  501    0  0.00000000000E+00  0.00000000000E+00  0.69974879658E+03  0.69974879660E+03  0.50400001928E-02 0.  1.
       -1   -1    0    0    0  501  0.00000000000E+00  0.00000000000E+00 -0.17281173916E+04  0.17281173916E+04  0.50400001928E-02 0. -1.
    10030    2    1    2    0    0  0.00000000000E+00  0.00000000000E+00 -0.10283685950E+04  0.24278661882E+04  0.21993163166E+04 0.  0.
        3    1    3    3  502    0 -0.72349402531E+03 -0.10333558760E+03  0.39286216502E+03  0.82973642757E+03  0.10100000352E+00 0.  1.
       -3    1    3    3    0  502  0.72349402531E+03  0.10333558760E+03 -0.14212307600E+04  0.15981297606E+04  0.10100000352E+00 0. -1.
</event>
<event>
 5   0  0.2524749E-06  0.2199518E+04  0.7818609E-02  0.8518629E-01
        2   -1    0    0  501    0  0.00000000000E+00  0.00000000000E+00  0.13542565144E+04  0.13542565144E+04  0.25500000920E-02 0.  1.
       -2   -1    0    0    0  501  0.00000000000E+00  0.00000000000E+00 -0.89308780592E+03  0.89308780593E+03  0.25500000920E-02 0. -1.
    10030    2    1    2    0    0  0.00000000000E+00  0.00000000000E+00  0.46116870852E+03  0.22473443204E+04  0.21995181101E+04 0.  0.
        4    1    3    3  502    0 -0.89763464479E+02  0.98549503476E+03  0.72081963862E+03  0.12242714190E+04  0.12699999809E+01 0.  1.
       -4    1    3    3    0  502  0.89763464479E+02 -0.98549503476E+03 -0.25965093011E+03  0.10230729014E+04  0.12699999809E+01 0. -1.
</event>
<event>
 5   0  0.2581058E-06  0.2200003E+04  0.7818609E-02  0.8518427E-01
        2   -1    0    0  501    0  0.00000000000E+00  0.00000000000E+00  0.15051989581E+04  0.15051989581E+04  0.25500000920E-02 0. -1.
       -2   -1    0    0    0  501  0.00000000000E+00  0.00000000000E+00 -0.80388239857E+03  0.80388239857E+03  0.25500000920E-02 0.  1.
    10030    2    1    2    0    0  0.00000000000E+00  0.00000000000E+00  0.70131655953E+03  0.23090813567E+04  0.22000026807E+04 0.  0.
        1    1    3    3  502    0  0.63759434137E+03 -0.56013848376E+03  0.10851561053E+04  0.13776231117E+04  0.50400001928E-02 0. -1.
       -1    1    3    3    0  502 -0.63759434137E+03  0.56013848376E+03 -0.38383954577E+03  0.93145824493E+03  0.50400001928E-02 0.  1.
</event>
<event>
 5   0  0.8905000E-07  0.2199474E+04  0.7818609E-02  0.8518647E-01
        4   -1    0    0  501    0  0.00000000000E+00  0.00000000000E+00  0.13020106619E+04  0.13020112813E+04  0.12699999809E+01 0.  1.
       -4   -1    0    0    0  501  0.00000000000E+00  0.00000000000E+00 -0.92888601242E+03  0.92888688061E+03  0.12699999809E+01 0. -1.
    10030    2    1    2    0    0  0.00000000000E+00  0.00000000000E+00  0.37312464952E+03  0.22308981619E+04  0.21994737109E+04 0.  0.
        5    1    3    3  502    0 -0.20738571787E+01 -0.74687892965E+03  0.10052917238E+04  0.12523841169E+04  0.46999998093E+01 0.  1.
       -5    1    3    3    0  502  0.20738571787E+01  0.74687892965E+03 -0.63216707428E+03  0.97851404499E+03  0.46999998093E+01 0. -1.
</event>
<event>
 5   0  0.1146827E-06  0.2211247E+04  0.7818609E-02  0.8513761E-01
       -1   -1    0    0    0  501  0.00000000000E+00  0.00000000000E+00  0.68451911978E+03  0.68451911980E+03  0.50400001928E-02 0. -1.
        1   -1    0    0  501    0  0.00000000000E+00  0.00000000000E+00 -0.17857838755E+04  0.17857838755E+04  0.50400001928E-02 0.  1.
    10030    2    1    2    0    0  0.00000000000E+00  0.00000000000E+00 -0.11012647557E+04  0.24703029953E+04  0.22112468940E+04 0.  0.
        4    1    3    3  502    0 -0.79604382040E+03 -0.74304932916E+03 -0.76433758639E+03  0.13304215980E+04  0.12699999809E+01 0.  1.
       -4    1    3    3    0  502  0.79604382040E+03  0.74304932916E+03 -0.33692716931E+03  0.11398813973E+04  0.12699999809E+01 0. -1.
</event>
<event>
 5   0  0.1137869E-06  0.2200598E+04  0.7818609E-02  0.8518179E-01
        1   -1    0    0  501    0  0.00000000000E+00  0.00000000000E+00  0.20662036077E+04  0.20662036077E+04  0.50400001928E-02 0.  1.
       -1   -1    0    0    0  501  0.00000000000E+00  0.00000000000E+00 -0.58593327695E+03  0.58593327697E+03  0.50400001928E-02 0. -1.
    10030    2    1    2    0    0  0.00000000000E+00  0.00000000000E+00  0.14802703307E+04  0.26521368847E+04  0.22005976013E+04 0.  0.
        5    1    3    3  502    0  0.77256815374E+03  0.77645407255E+03  0.61435079050E+03  0.12558628360E+04  0.46999998093E+01 0. -1.
       -5    1    3    3    0  502 -0.77256815374E+03 -0.77645407255E+03  0.86591954023E+03  0.13962740487E+04  0.46999998093E+01 0.  1.
</event>
<event>
 5   0  0.2606154E-06  0.2199163E+04  0.7818609E-02  0.8518776E-01
       -2   -1    0    0    0  501  0.00000000000E+00  0.00000000000E+00  0.10102420999E+04  0.10102420999E+04  0.25500000920E-02 0.  1.
        2   -1    0    0  501    0  0.00000000000E+00  0.00000000000E+00 -0.11968217296E+04  0.11968217296E+04  0.25500000920E-02 0. -1.
    10030    2    1    2    0    0  0.00000000000E+00  0.00000000000E+00 -0.18657962964E+03  0.22070638295E+04  0.21991632020E+04 0.  0.
        2    1    3    3  502    0  0.64434979456E+03  0.87844924135E+03 -0.24288897886E+03  0.11161786521E+04  0.25500000920E-02 0.  1.
       -2    1    3    3    0  502 -0.64434979456E+03 -0.87844924135E+03  0.56309349215E+02  0.10908851774E+04  0.25500000920E-02 0. -1.
</event>
<event>
 5   0  0.1146827E-06  0.2200239E+04  0.7818609E-02  0.8518329E-01
        1   -1    0    0  501    0  0.00000000000E+00  0.00000000000E+00  0.13030528654E+04  0.13030528654E+04  0.50400001928E-02 0.  1.
       -1   -1    0    0    0  501  0.00000000000E+00  0.00000000000E+00 -0.92879015583E+03  0.92879015584E+03  0.50400001928E-02 0. -1.
    10030    2    1    2    0    0  0.00000000000E+00  0.00000000000E+00  0.37426270955E+03  0.22318430212E+04  0.22002387815E+04 0.  0.
        4    1    3    3  502    0  0.33308350930E+03  0.84200052284E+03  0.82088692164E+03  0.12221973882E+04  0.12699999809E+01 0.  1.
       -4    1    3    3    0  502 -0.33308350930E+03 -0.84200052284E+03 -0.44662421209E+03  0.10096456331E+04  0.12699999809E+01 0. -1.
</event>
<event>
 5   0  0.2556869E-06  0.2200077E+04  0.7818609E-02  0.8518396E-01
       -2   -1    0    0    0  501  0.00000000000E+00  0.00000000000E+00  0.94673722001E+03  0.94673722001E+03  0.25500000920E-02 0.  1.
        2   -1    0    0  501    0  0.00000000000E+00  0.00000000000E+00 -0.12781627559E+04  0.12781627559E+04  0.25500000920E-02 0. -1.
    10030    2    1    2    0    0  0.00000000000E+00  0.00000000000E+00 -0.33142553590E+03  0.22248999759E+04  0.22000765935E+04 0.  0.
        5    1    3    3  502    0  0.67093502079E+03  0.30314687784E+03  0.66082800258E+03  0.98932682702E+03  0.46999998093E+01 0.  1.
       -5    1    3    3    0  502 -0.67093502079E+03 -0.30314687784E+03 -0.99225353849E+03  0.12355731489E+04  0.46999998093E+01 0. -1.
</event>
<event>
 5   0  0.1137869E-06  0.2200063E+04  0.7818609E-02  0.8518402E-01
        1   -1    0    0  501    0  0.00000000000E+00  0.00000000000E+00  0.18790197206E+04  0.18790197206E+04  0.50400001928E-02 0.  1.
       -1   -1    0    0    0  501  0.00000000000E+00  0.00000000000E+00 -0.64398981511E+03  0.64398981513E+03  0.50400001928E-02 0. -1.
    10030    2    1    2    0    0  0.00000000000E+00  0.00000000000E+00  0.12350299055E+04  0.25230095358E+04  0.22000632377E+04 0.  0.
        5    1    3    3  502    0 -0.82439709968E+03  0.66975122537E+03  0.28942451312E+03  0.11009023211E+04  0.46999998093E+01 0. -1.
       -5    1    3    3    0  502  0.82439709968E+03 -0.66975122537E+03  0.94560539241E+03  0.14221072147E+04  0.46999998093E+01 0.  1.
</event>
<event>
 5   0  0.1107101E-06  0.2199830E+04  0.7818609E-02  0.8518499E-01
        1   -1    0    0  501    0  0.00000000000E+00  0.00000000000E+00  0.74239574689E+03  0.74239574691E+03  0.50400001928E-02 0. -1.
       -1   -1    0    0    0  501  0.00000000000E+00  0.00000000000E+00 -0.16296070524E+04  0.16296070524E+04  0.50400001928E-02 0.  1.
    10030    2    1    2    0    0  0.00000000000E+00  0.00000000000E+00 -0.88721130546E+03  0.23720027993E+04  0.21998303069E+04 0.  0.
        1    1    3    3  502    0  0.45430529413E+03 -0.29467206104E+03 -0.14759229385E+04  0.15721238642E+04  0.50400001928E-02 0.  1.
       -1    1    3    3    0  502 -0.45430529413E+03  0.29467206104E+03  0.58871163308E+03  0.79987893508E+03  0.50400001928E-02 0. -1.
</event>
<event>
 5   0  0.2606154E-06  0.2199853E+04  0.7818609E-02  0.8518489E-01
       -2   -1    0    0    0  501  0.00000000000E+00  0.00000000000E+00  0.74601300731E+03  0.74601300732E+03  0.25500000920E-02 0. -1.
        2   -1    0    0  501    0  0.00000000000E+00  0.00000000000E+00 -0.16217384551E+04  0.16217384551E+04  0.25500000920E-02 0.  1.
    10030    2    1    2    0    0  0.00000000000E+00  0.00000000000E+00 -0.87572544776E+03  0.23677514624E+04  0.21998527059E+04 0.  0.
        2    1    3    3  502    0  0.28956333927E+03 -0.45681044502E+03  0.59300234197E+03  0.80260481416E+03  0.25500000920E-02 0. -1.
       -2    1    3    3    0  502 -0.28956333927E+03  0.45681044502E+03 -0.14687277897E+04  0.15651466482E+04  0.25500000920E-02 0.  1.
</event>
<event>
 5   0  0.1137869E-06  0.2199525E+04  0.7818609E-02  0.8518626E-01
       -1   -1    0    0    0  501  0.00000000000E+00  0.00000000000E+00  0.46275586053E+03  0.46275586056E+03  0.50400001928E-02 0.  1.
        1   -1    0    0  501    0  0.00000000000E+00  0.00000000000E+00 -0.26136417502E+04  0.26136417502E+04  0.50400001928E-02 0. -1.
    10030    2    1    2    0    0  0.00000000000E+00  0.00000000000E+00 -0.21508858897E+04  0.30763976107E+04  0.21995254372E+04 0.  0.
        5    1    3    3  502    0 -0.38189357040E+03  0.64128475602E+03 -0.22051335189E+04  0.23280302326E+04  0.46999998093E+01 0. -1.
       -5    1    3    3    0  502  0.38189357040E+03 -0.64128475602E+03  0.54247629289E+02  0.74836737817E+03  0.46999998093E+01 0.  1.
</event>
<event>
 5   0  0.2581058E-06  0.2199984E+04  0.7818609E-02  0.8518435E-01
        2   -1    0    0  501    0  0.00000000000E+00  0.00000000000E+00  0.18551501752E+04  0.18551501752E+04  0.25500000920E-02 0. -1.
       -2   -1    0    0    0  501  0.00000000000E+00  0.00000000000E+00 -0.65222886563E+03  0.65222886564E+03  0.25500000920E-02 0.  1.
    10030    2    1    2    0    0  0.00000000000E+00  0.00000000000E+00  0.12029213095E+04  0.25073790408E+04  0.21999840857E+04 0.  0.
        1    1    3    3  502    0 -0.11395330374E+03 -0.89138556820E+03  0.13244718749E+04  0.16005559453E+04  0.50400001928E-02 0. -1.
       -1    1    3    3    0  502  0.11395330374E+03  0.89138556820E+03 -0.12155056534E+03  0.90682309553E+03  0.50400001928E-02 0.  1.
</event>
<event>
 5   0  0.1107101E-06  0.2199199E+04  0.7818609E-02  0.8518762E-01
        1   -1    0    0  501    0  0.00000000000E+00  0.00000000000E+00  0.18876654905E+04  0.18876654905E+04  0.50400001928E-02 0. -1.
       -1   -1    0    0    0  501  0.00000000000E+00  0.00000000000E+00 -0.64053682021E+03  0.64053682023E+03  0.50400001928E-02 0.  1.
    10030    2    1    2    0    0  0.00000000000E+00  0.00000000000E+00  0.12471286703E+04  0.25282023108E+04  0.21991991733E+04 0.  0.
        1    1    3    3  502    0  0.78117904396E+03 -0.69806816658E+03  0.10075714279E+04  0.14535267614E+04  0.50400001928E-02 0. -1.
       -1    1    3    3    0  502 -0.78117904396E+03  0.69806816658E+03  0.23955724246E+03  0.10746755493E+04  0.50400001928E-02 0.  1.
</event>
<event>
 5   0  0.1082209E-06  0.2199959E+04  0.7818609E-02  0.8518445E-01
       -1   -1    0    0    0  501  0.00000000000E+00  0.00000000000E+00  0.88532957220E+03  0.88532957222E+03  0.50400001928E-02 0. -1.
        1   -1    0    0  501    0  0.00000000000E+00  0.00000000000E+00 -0.13666716194E+04  0.13666716195E+04  0.50400001928E-02 0.  1.
    10030    2    1    2    0    0  0.00000000000E+00  0.00000000000E+00 -0.48134204725E+03  0.22520011917E+04  0.21999589089E+04 0.  0.
        2    1    3    3  502    0  0.10074933374E+04  0.41549469053E+03 -0.87888390554E+02  0.10933448825E+04  0.25500000920E-02 0.  1.
       -2    1    3    3    0  502 -0.10074933374E+04 -0.41549469053E+03 -0.39345365669E+03  0.11586563092E+04  0.25500000920E-02 0. -1.
</event>
<event>
 5   0  0.2524749E-06  0.2200027E+04  0.7818609E-02  0.8518417E-01
       -2   -1    0    0    0  501  0.00000000000E+00  0.00000000000E+00  0.54927481466E+03  0.54927481466E+03  0.25500000920E-02 0.  1.
        2   -1    0    0  501    0  0.00000000000E+00  0.00000000000E+00 -0.22029577728E+04  0.22029577728E+04  0.25500000920E-02 0. -1.
    10030    2    1    2    0    0  0.00000000000E+00  0.00000000000E+00 -0.16536829581E+04  0.27522325875E+04  0.22000265656E+04 0.  0.
        4    1    3    3  502    0 -0.98278278753E+03 -0.38225163718E+03 -0.43511815640E+03  0.11407487649E+04  0.12699999809E+01 0. -1.
       -4    1    3    3    0  502  0.98278278753E+03  0.38225163718E+03 -0.12185648017E+04  0.16114838226E+04  0.12699999809E+01 0.  1.
</event>
<event>
 5   0  0.2606154E-06  0.2200252E+04  0.7818609E-02  0.8518323E-01
        2   -1    0    0  501    0  0.00000000000E+00  0.00000000000E+00  0.22559177875E+04  0.22559177875E+04  0.25500000920E-02 0. -1.
       -2   -1    0    0    0  501  0.00000000000E+00  0.00000000000E+00 -0.53649000571E+03  0.53649000572E+03  0.25500000920E-02 0.  1.
    10030    2    1    2    0    0  0.00000000000E+00  0.00000000000E+00  0.17194277818E+04  0.27924077932E+04  0.22002521189E+04 0.  0.
        2    1    3    3  502    0  0.61720262690E+03  0.57528796117E+03 -0.36243959288E+02  0.84451698947E+03  0.25500000920E-02 0.  1.
       -2    1    3    3    0  502 -0.61720262690E+03 -0.57528796117E+03  0.17556717411E+04  0.19478908037E+04  0.25500000920E-02 0. -1.
</event>
<event>
 5   0  0.2524749E-06  0.2200187E+04  0.7818609E-02  0.8518350E-01
        2   -1    0    0  501    0  0.00000000000E+00  0.00000000000E+00  0.23315611748E+04  0.23315611748E+04  0.25500000920E-02 0. -1.
       -2   -1    0    0    0  501  0.00000000000E+00  0.00000000000E+00 -0.51905397987E+03  0.51905397988E+03  0.25500000920E-02 0.  1.
    10030    2    1    2    0    0  0.00000000000E+00  0.00000000000E+00  0.18125071949E+04  0.28506151547E+04  0.22001873621E+04 0.  0.
        4    1    3    3  502    0 -0.65578371538E+03  0.61610475986E+03  0.86248442734E+02  0.90392353839E+03  0.12699999809E+01 0.  1.
       -4    1    3    3    0  502  0.65578371538E+03 -0.61610475986E+03  0.17262587522E+04  0.19466916163E+04  0.12699999809E+01 0. -1.
</event>
<event>
 5   0  0.1082209E-06  0.2199766E+04  0.7818609E-02  0.8518525E-01
        1   -1    0    0  501    0  0.00000000000E+00  0.00000000000E+00  0.13107371437E+04  0.13107371437E+04  0.50400001928E-02 0. -1.
       -1   -1    0    0    0  501  0.00000000000E+00  0.00000000000E+00 -0.92294845221E+03  0.92294845222E+03  0.50400001928E-02 0.  1.
    10030    2    1    2    0    0  0.00000000000E+00  0.00000000000E+00  0.38778869153E+03  0.22336855960E+04  0.21997661858E+04 0.  0.
        2    1    3    3  502    0 -0.50989313212E+03 -0.17853691201E+03  0.11667258346E+04  0.12857354348E+04  0.25500000920E-02 0. -1.
       -2    1    3    3    0  502  0.50989313212E+03  0.17853691201E+03 -0.77893714310E+03  0.94795016116E+03  0.25500000920E-02 0.  1.
</event>
<event>
 5   0  0.2581058E-06  0.2199533E+04  0.7818609E-02  0.8518623E-01
       -2   -1    0    0    0  501  0.00000000000E+00  0.00000000000E+00  0.16448360741E+04  0.16448360741E+04  0.25500000920E-02 0. -1.
        2   -1    0    0  501    0  0.00000000000E+00  0.00000000000E+00 -0.73532329099E+03  0.73532329100E+03  0.25500000920E-02 0.  1.
    10030    2    1    2    0    0  0.00000000000E+00  0.00000000000E+00  0.90951278315E+03  0.23801593651E+04  0.21995329279E+04 0.  0.
        1    1    3    3  502    0 -0.31995989273E+03  0.65268063774E+03 -0.43831743542E+03  0.84881595299E+03  0.50400001928E-02 0.  1.
       -1    1    3    3    0  502  0.31995989273E+03 -0.65268063774E+03  0.13478302186E+04  0.15313434122E+04  0.50400001928E-02 0. -1.
</event>
<event>
 5   0  0.1146827E-06  0.2200834E+04  0.7818609E-02  0.8518081E-01
        1   -1    0    0  501    0  0.00000000000E+00  0.00000000000E+00  0.10269413865E+04  0.10269413865E+04  0.50400001928E-02 0.  1.
       -1   -1    0    0    0  501  0.00000000000E+00  0.00000000000E+00 -0.11791492835E+04  0.11791492835E+04  0.50400001928E-02 0. -1.
    10030    2    1    2    0    0  0.00000000000E+00  0.00000000000E+00 -0.15220789703E+03  0.22060906700E+04  0.22008336603E+04 0.  0.
        4    1    3    3  502    0 -0.10436327579E+04  0.32862720799E+03  0.41438300151E+02  0.10949355784E+04  0.12699999809E+01 0. -1.
       -4    1    3    3    0  502  0.10436327579E+04 -0.32862720799E+03 -0.19364619718E+03  0.11111550917E+04  0.12699999809E+01 0.  1.
</event>
<event>
 5   0  0.1082209E-06  0.2200067E+04  0.7818609E-02  0.8518400E-01
       -1   -1    0    0    0  501  0.00000000000E+00  0.00000000000E+00  0.73554163324E+03  0.73554163326E+03  0.50400001928E-02 0. -1.
        1   -1    0    0  501    0  0.00000000000E+00  0.00000000000E+00 -0.16451461964E+04  0.16451461964E+04  0.50400001928E-02 0.  1.
    10030    2    1    2    0    0  0.00000000000E+00  0.00000000000E+00 -0.90960456312E+03  0.23806878296E+04  0.22000668355E+04 0.  0.
        2    1    3    3  502    0  0.40671632069E+03  0.43075152645E+03  0.54817380755E+03  0.80713045188E+03  0.25500000920E-02 0. -1.
       -2    1    3    3    0  502 -0.40671632069E+03 -0.43075152645E+03 -0.14577783707E+04  0.15735573777E+04  0.25500000920E-02 0.  1.
</event>
<event>
 5   0  0.1107101E-06  0.2199661E+04  0.7818609E-02  0.8518569E-01
        1   -1    0    0  501    0  0.00000000000E+00  0.00000000000E+00  0.16706049883E+04  0.16706049883E+04  0.50400001928E-02 0.  1.
       -1   -1    0    0    0  501  0.00000000000E+00  0.00000000000E+00 -0.72406499286E+03  0.72406499288E+03  0.50400001928E-02 0. -1.
    10030    2    1    2    0    0  0.00000000000E+00  0.00000000000E+00  0.94653999541E+03  0.23946699812E+04  0.21996605092E+04 0.  0.
        1    1    3    3  502    0 -0.62185441968E+00  0.98957386785E+03 -0.49249798994E+02  0.99079885414E+03  0.50400001928E-02 0. -1.
       -1    1    3    3    0  502  0.62185441968E+00 -0.98957386785E+03  0.99578979440E+03  0.14038711270E+04  0.50400001928E-02 0.  1.
</event>
<event>
 5   0  0.2581058E-06  0.2199603E+04  0.7818609E-02  0.8518593E-01
        2   -1    0    0  501    0  0.00000000000E+00  0.00000000000E+00  0.17636822930E+04  0.17636822930E+04  0.25500000920E-02 0.  1.
       -2   -1    0    0    0  501  0.00000000000E+00  0.00000000000E+00 -0.68581699494E+03  0.68581699494E+03  0.25500000920E-02 0. -1.
    10030    2    1    2    0    0  0.00000000000E+00  0.00000000000E+00  0.10778652981E+04  0.24494992880E+04  0.21996029553E+04 0.  0.
        1    1    3    3  502    0 -0.77071326497E+03 -0.39727377747E+03  0.12923601338E+04  0.15562840700E+04  0.50400001928E-02 0.  1.
       -1    1    3    3    0  502  0.77071326497E+03  0.39727377747E+03 -0.21449483569E+03  0.89321521798E+03  0.50400001928E-02 0. -1.
</event>
<event>
 5   0  0.1144271E-06  0.2199994E+04  0.7818609E-02  0.8518431E-01
        1   -1    0    0  501    0  0.00000000000E+00  0.00000000000E+00  0.17676322278E+04  0.17676322278E+04  0.50400001928E-02 0. -1.
       -1   -1    0    0    0  501  0.00000000000E+00  0.00000000000E+00 -0.68452769509E+03  0.68452769511E+03  0.50400001928E-02 0.  1.
    10030    2    1    2    0    0  0.00000000000E+00  0.00000000000E+00  0.10831045327E+04  0.24521599229E+04  0.21999938315E+04 0.  0.
        3    1    3    3  502    0 -0.14587588040E+03 -0.10163990859E+04  0.10181145873E+03  0.10318490479E+04  0.10100000352E+00 0.  1.
       -3    1    3    3    0  502  0.14587588040E+03  0.10163990859E+04  0.98129307396E+03  0.14203108750E+04  0.10100000352E+00 0. -1.
</event>
<event>
 5   0  0.1137869E-06  0.2199920E+04  0.7818609E-02  0.8518461E-01
        1   -1    0    0  501    0  0.00000000000E+00  0.00000000000E+00  0.11504723556E+04  0.11504723556E+04  0.50400001928E-02 0. -1.
       -1   -1    0    0    0  501  0.00000000000E+00  0.00000000000E+00 -0.10516657488E+04  0.10516657488E+04  0.50400001928E-02 0.  1.
    10030    2    1    2    0    0  0.00000000000E+00  0.00000000000E+00  0.98806606738E+02  0.22021381044E+04  0.21999203361E+04 0.  0.
        5    1    3    3  502    0 -0.39251350390E+03  0.86343793240E+03 -0.50820257400E+03  0.10760501197E+04  0.46999998093E+01 0.  1.
       -5    1    3    3    0  502  0.39251350390E+03 -0.86343793240E+03  0.60700918074E+03  0.11260879847E+04  0.46999998093E+01 0. -1.
</event>
<event>
 5   0  0.1144271E-06  0.2196931E+04  0.7818609E-02  0.8519707E-01
       -1   -1    0    0    0  501  0.00000000000E+00  0.00000000000E+00  0.12582769249E+04  0.12582769249E+04  0.50400001928E-02 0. -1.
        1   -1    0    0  501    0  0.00000000000E+00  0.00000000000E+00 -0.95895138116E+03  0.95895138117E+03  0.50400001928E-02 0.  1.
    10030    2    1    2    0    0  0.00000000000E+00  0.00000000000E+00  0.29932554377E+03  0.22172283061E+04  0.21969309457E+04 0.  0.
        3    1    3    3  502    0  0.88804816178E+03 -0.58163931363E+03  0.43456961879E+03  0.11470765417E+04  0.10100000352E+00 0. -1.
       -3    1    3    3    0  502 -0.88804816178E+03  0.58163931363E+03 -0.13524407502E+03  0.10701517644E+04  0.10100000352E+00 0.  1.
</event>
<event>
 5   0  0.2606154E-06  0.2200031E+04  0.7818609E-02  0.8518415E-01
        2   -1    0    0  501    0  0.00000000000E+00  0.00000000000E+00  0.12305113483E+04  0.12305113483E+04  0.25500000920E-02 0. -1.
       -2   -1    0    0    0  501  0.00000000000E+00  0.00000000000E+00 -0.98335879874E+03  0.98335879875E+03  0.25500000920E-02 0.  1.
    10030    2    1    2    0    0  0.00000000000E+00  0.00000000000E+00  0.24715254957E+03  0.22138701471E+04  0.22000310555E+04 0.  0.
        2    1    3    3  502    0  0.51998501578E+03  0.88799402273E+03 -0.26760591648E+03  0.10632641852E+04  0.25500000920E-02 0.  1.
       -2    1    3    3    0  502 -0.51998501578E+03 -0.88799402273E+03  0.51475846605E+03  0.11506059618E+04  0.25500000920E-02 0. -1.
</event>
<event>
 5   0  0.2606154E-06  0.2198514E+04  0.7818609E-02  0.8519047E-01
        2   -1    0    0  501    0  0.00000000000E+00  0.00000000000E+00  0.16877706482E+04  0.16877706482E+04  0.25500000920E-02 0. -1.
       -2   -1    0    0    0  501  0.00000000000E+00  0.00000000000E+00 -0.71595417327E+03  0.71595417327E+03  0.25500000920E-02 0.  1.
    10030    2    1    2    0    0  0.00000000000E+00  0.00000000000E+00  0.97181647489E+03  0.24037248214E+04  0.21985144430E+04 0.  0.
        2    1    3    3  502    0 -0.83720668104E+03 -0.20738203477E+03 -0.25920478217E+03  0.90061615255E+03  0.25500000920E-02 0.  1.
       -2    1    3    3    0  502  0.83720668104E+03  0.20738203477E+03  0.12310212571E+04  0.15031086689E+04  0.25500000920E-02 0. -1.
</event>
<event>
 5   0  0.2524749E-06  0.2199613E+04  0.7818609E-02  0.8518589E-01
        2   -1    0    0  501    0  0.00000000000E+00  0.00000000000E+00  0.21841872141E+04  0.21841872141E+04  0.25500000920E-02 0. -1.
       -2   -1    0    0    0  501  0.00000000000E+00  0.00000000000E+00 -0.55378684231E+03  0.55378684232E+03  0.25500000920E-02 0.  1.
    10030    2    1    2    0    0  0.00000000000E+00  0.00000000000E+00  0.16304003718E+04  0.27379740565E+04  0.21996128208E+04 0.  0.
        4    1    3    3  502    0 -0.10569628527E+04 -0.20716521242E+03  0.53830318569E+03  0.12041012540E+04  0.12699999809E+01 0. -1.
       -4    1    3    3    0  502  0.10569628527E+04  0.20716521242E+03  0.10920971861E+04  0.15338728025E+04  0.12699999809E+01 0.  1.
</event>
<event>
 5   0  0.8905000E-07  0.2200497E+04  0.7818609E-02  0.8518221E-01
        3   -1    0    0  501    0  0.00000000000E+00  0.00000000000E+00  0.68859648425E+03  0.68859649166E+03  0.10100000352E+00 0. -1.
       -3   -1    0    0    0  501  0.00000000000E+00  0.00000000000E+00 -0.17579921190E+04  0.17579921219E+04  0.10100000352E+00 0.  1.
    10030    2    1    2    0    0  0.00000000000E+00  0.00000000000E+00 -0.10693956348E+04  0.24465886136E+04  0.22004974030E+04 0.  0.
        4    1    3    3  502    0  0.10413935035E+04  0.36313819306E+02 -0.92736029694E+03  0.13949257528E+04  0.12699999809E+01 0.  1.
       -4    1    3    3    0  502 -0.10413935035E+04 -0.36313819306E+02 -0.14203533783E+03  0.10516628608E+04  0.12699999809E+01 0. -1.
</event>
<event>
 5   0  0.1144271E-06  0.2214065E+04  0.7818609E-02  0.8512597E-01
        1   -1    0    0  501    0  0.00000000000E+00  0.00000000000E+00  0.15821542401E+04  0.15821542401E+04  0.50400001928E-02 0. -1.
       -1   -1    0    0    0  501  0.00000000000E+00  0.00000000000E+00 -0.77458988583E+03  0.77458988585E+03  0.50400001928E-02 0.  1.
    10030    2    1    2    0    0  0.00000000000E+00  0.00000000000E+00  0.80756435426E+03  0.23567441259E+04  0.22140647436E+04 0.  0.
        3    1    3    3  502    0  0.50871980872E+03 -0.48919111194E+03 -0.50406720562E+03  0.86728746432E+03  0.10100000352E+00 0.  1.
       -3    1    3    3    0  502 -0.50871980872E+03  0.48919111194E+03  0.13116315599E+04  0.14894566616E+04  0.10100000352E+00 0. -1.
</event>
<event>
 5   0  0.1146827E-06  0.2198151E+04  0.7818609E-02  0.8519198E-01
        1   -1    0    0  501    0  0.00000000000E+00  0.00000000000E+00  0.24102166520E+04  0.24102166520E+04  0.50400001928E-02 0. -1.
       -1   -1    0    0    0  501  0.00000000000E+00  0.00000000000E+00 -0.50118614302E+03  0.50118614305E+03  0.50400001928E-02 0.  1.
    10030    2    1    2    0    0  0.00000000000E+00  0.00000000000E+00  0.19090305090E+04  0.29114027951E+04  0.21981512120E+04 0.  0.
        4    1    3    3  502    0  0.90623224786E+03  0.60853626715E+03  0.78493914470E+03  0.13445089621E+04  0.12699999809E+01 0. -1.
       -4    1    3    3    0  502 -0.90623224786E+03 -0.60853626715E+03  0.11240913643E+04  0.15668938329E+04  0.12699999809E+01 0.  1.
</event>
<event>
 5   0  0.2556869E-06  0.2199204E+04  0.7818609E-02  0.8518759E-01
       -2   -1    0    0    0  501  0.00000000000E+00  0.00000000000E+00  0.13512337108E+04  0.13512337108E+04  0.25500000920E-02 0. -1.
        2   -1    0    0  501    0  0.00000000000E+00  0.00000000000E+00 -0.89483034015E+03  0.89483034015E+03  0.25500000920E-02 0.  1.
    10030    2    1    2    0    0  0.00000000000E+00  0.00000000000E+00  0.45640337069E+03  0.22460640510E+04  0.21992043298E+04 0.  0.
        5    1    3    3  502    0  0.55764808144E+03  0.73692188373E+02  0.11931622020E+04  0.13191133582E+04  0.46999998093E+01 0. -1.
       -5    1    3    3    0  502 -0.55764808144E+03 -0.73692188373E+02 -0.73675883134E+03  0.92695069282E+03  0.46999998093E+01 0.  1.
</event>
<event>
 5   0  0.1144271E-06  0.2202426E+04  0.7818609E-02  0.8517419E-01
        1   -1    0    0  501    0  0.00000000000E+00  0.00000000000E+00  0.85666064638E+03  0.85666064639E+03  0.50400001928E-02 0. -1.
       -1   -1    0    0    0  501  0.00000000000E+00  0.00000000000E+00 -0.14155786144E+04  0.14155786144E+04  0.50400001928E-02 0.  1.
    10030    2    1    2    0    0  0.00000000000E+00  0.00000000000E+00 -0.55891796802E+03  0.22722392608E+04  0.22024263809E+04 0.  0.
        3    1    3    3  502    0  0.63192664327E+03  0.19421713744E+02  0.65076553124E+03  0.90730605216E+03  0.10100000352E+00 0. -1.
       -3    1    3    3    0  502 -0.63192664327E+03 -0.19421713744E+02 -0.12096834993E+04  0.13649332086E+04  0.10100000352E+00 0.  1.
</event>
<event>
 5   0  0.1082209E-06  0.2209836E+04  0.7818609E-02  0.8514345E-01
        1   -1    0    0  501    0  0.00000000000E+00  0.00000000000E+00  0.95120820916E+03  0.95120820917E+03  0.50400001928E-02 0. -1.
       -1   -1    0    0    0  501  0.00000000000E+00  0.00000000000E+00 -0.12834666312E+04  0.12834666312E+04  0.50400001928E-02 0.  1.
    10030    2    1    2    0    0  0.00000000000E+00  0.00000000000E+00 -0.33225842201E+03  0.22346748403E+04  0.22098361892E+04 0.  0.
        2    1    3    3  502    0  0.50725491406E+03 -0.22012044521E+03  0.80122294825E+03  0.97350848535E+03  0.25500000920E-02 0. -1.
       -2    1    3    3    0  502 -0.50725491406E+03  0.22012044521E+03 -0.11334813703E+04  0.12611663550E+04  0.25500000920E-02 0.  1.
</event>
<event>
 5   0  0.2532239E-06  0.2196980E+04  0.7818609E-02  0.8519686E-01
       -2   -1    0    0    0  501  0.00000000000E+00  0.00000000000E+00  0.99090888689E+03  0.99090888690E+03  0.25500000920E-02 0. -1.
        2   -1    0    0  501    0  0.00000000000E+00  0.00000000000E+00 -0.12177511682E+04  0.12177511682E+04  0.25500000920E-02 0.  1.
    10030    2    1    2    0    0  0.00000000000E+00  0.00000000000E+00 -0.22684228127E+03  0.22086600551E+04  0.21969801588E+04 0.  0.
        3    1    3    3  502    0 -0.40334433759E+03  0.82518320792E+03  0.49233218790E+03  0.10421156245E+04  0.10100000352E+00 0. -1.
       -3    1    3    3    0  502  0.40334433759E+03 -0.82518320792E+03 -0.71917446917E+03  0.11665444306E+04  0.10100000352E+00 0.  1.
</event>
<event>
 5   0  0.1144271E-06  0.2201243E+04  0.7818609E-02  0.8517911E-01
        1   -1    0    0  501    0  0.00000000000E+00  0.00000000000E+00  0.13611426610E+04  0.13611426610E+04  0.50400001928E-02 0. -1.
       -1   -1    0    0    0  501  0.00000000000E+00  0.00000000000E+00 -0.88996386583E+03  0.88996386584E+03  0.50400001928E-02 0.  1.
    10030    2    1    2    0    0  0.00000000000E+00  0.00000000000E+00  0.47117879515E+03  0.22511065268E+04  0.22012430893E+04 0.  0.
        3    1    3    3  502    0  0.30717683220E+03 -0.50488146153E+03  0.11851180905E+04  0.13242989825E+04  0.10100000352E+00 0. -1.
       -3    1    3    3    0  502 -0.30717683220E+03  0.50488146153E+03 -0.71393929539E+03  0.92680754429E+03  0.10100000352E+00 0.  1.
</event>
<event>
 5   0  0.1144271E-06  0.2200602E+04  0.7818609E-02  0.8518178E-01
       -1   -1    0    0    0  501  0.00000000000E+00  0.00000000000E+00  0.24367179578E+04  0.24367179578E+04  0.50400001928E-02 0.  1.
        1   -1    0    0  501    0  0.00000000000E+00  0.00000000000E+00 -0.49684120233E+03  0.49684120235E+03  0.50400001928E-02 0. -1.
    10030    2    1    2    0    0  0.00000000000E+00  0.00000000000E+00  0.19398767555E+04  0.29335591602E+04  0.22006016268E+04 0.  0.
        3    1    3    3  502    0 -0.97852368340E+02 -0.78083002995E+03  0.19950965258E+04  0.21446866389E+04  0.10100000352E+00 0.  1.
       -3    1    3    3    0  502  0.97852368340E+02  0.78083002995E+03 -0.55219770253E+02  0.78887252132E+03  0.10100000352E+00 0. -1.
</event>
<event>
 5   0  0.1144271E-06  0.2197131E+04  0.7818609E-02  0.8519623E-01
        1   -1    0    0  501    0  0.00000000000E+00  0.00000000000E+00  0.87600882919E+03  0.87600882920E+03  0.50400001928E-02 0.  1.
       -1   -1    0    0    0  501  0.00000000000E+00  0.00000000000E+00 -0.13776638604E+04  0.13776638604E+04  0.50400001928E-02 0. -1.
    10030    2    1    2    0    0  0.00000000000E+00  0.00000000000E+00 -0.50165503117E+03  0.22536726896E+04  0.21971305882E+04 0.  0.
        3    1    3    3  502    0  0.49251967529E+02 -0.54795078396E+03  0.72452136231E+03  0.90972909847E+03  0.10100000352E+00 0.  1.
       -3    1    3    3    0  502 -0.49251967529E+02  0.54795078396E+03 -0.12261763935E+04  0.13439435911E+04  0.10100000352E+00 0. -1.
</event>
<event>
 5   0  0.1082209E-06  0.2202108E+04  0.7818609E-02  0.8517551E-01
        1   -1    0    0  501    0  0.00000000000E+00  0.00000000000E+00  0.16614136419E+04  0.16614136419E+04  0.50400001928E-02 0.  1.
       -1   -1    0    0    0  501  0.00000000000E+00  0.00000000000E+00 -0.72969153905E+03  0.72969153907E+03  0.50400001928E-02 0. -1.
    10030    2    1    2    0    0  0.00000000000E+00  0.00000000000E+00  0.93172210286E+03  0.23911051810E+04  0.22021076063E+04 0.  0.
        2    1    3    3  502    0 -0.28902625428E+03 -0.44740830251E+03  0.15122101730E+04  0.16032747650E+04  0.25500000920E-02 0.  1.
       -2    1    3    3    0  502  0.28902625428E+03  0.44740830251E+03 -0.58048807011E+03  0.78783041599E+03  0.25500000920E-02 0. -1.
</event>
<event>
 5   0  0.1146827E-06  0.2208798E+04  0.7818609E-02  0.8514775E-01
        1   -1    0    0  501    0  0.00000000000E+00  0.00000000000E+00  0.13509707409E+04  0.13509707409E+04  0.50400001928E-02 0.  1.
       -1   -1    0    0    0  501  0.00000000000E+00  0.00000000000E+00 -0.90282988800E+03  0.90282988802E+03  0.50400001928E-02 0. -1.
    10030    2    1    2    0    0  0.00000000000E+00  0.00000000000E+00  0.44814085292E+03  0.22538006289E+04  0.22087976483E+04 0.  0.
        4    1    3    3  502    0 -0.71205837274E+03  0.15962477511E+03 -0.62178732541E+03  0.95871178462E+03  0.12699999809E+01 0. -1.
       -4    1    3    3    0  502  0.71205837274E+03 -0.15962477511E+03  0.10699281783E+04  0.12950888443E+04  0.12699999809E+01 0.  1.
</event>
<event>
 5   0  0.1146827E-06  0.2200957E+04  0.7818609E-02  0.8518030E-01
       -1   -1    0    0    0  501  0.00000000000E+00  0.00000000000E+00  0.91346634769E+03  0.91346634770E+03  0.50400001928E-02 0.  1.
        1   -1    0    0  501    0  0.00000000000E+00  0.00000000000E+00 -0.13257772729E+04  0.13257772729E+04  0.50400001928E-02 0. -1.
    10030    2    1    2    0    0  0.00000000000E+00  0.00000000000E+00 -0.41231092525E+03  0.22392436206E+04  0.22009569949E+04 0.  0.
        4    1    3    3  502    0  0.58071533960E+03 -0.93429943430E+03 -0.17553926439E+03  0.11139844635E+04  0.12699999809E+01 0.  1.
       -4    1    3    3    0  502 -0.58071533960E+03  0.93429943430E+03 -0.23677166086E+03  0.11252591572E+04  0.12699999809E+01 0. -1.
</event>
<event>
 5   0  0.2532239E-06  0.2200133E+04  0.7818609E-02  0.8518373E-01
       -2   -1    0    0    0  501  0.00000000000E+00  0.00000000000E+00  0.82599649975E+03  0.82599649975E+03  0.25500000920E-02 0. -1.
        2   -1    0    0  501    0  0.00000000000E+00  0.00000000000E+00 -0.14650746239E+04  0.14650746239E+04  0.25500000920E-02 0.  1.
    10030    2    1    2    0    0  0.00000000000E+00  0.00000000000E+00 -0.63907812410E+03  0.22910711236E+04  0.22001331880E+04 0.  0.
        3    1    3    3  502    0  0.17694727087E+03 -0.95184952462E+03 -0.86344853732E+03  0.12972552721E+04  0.10100000352E+00 0.  1.
       -3    1    3    3    0  502 -0.17694727087E+03  0.95184952462E+03  0.22437041322E+03  0.99381585151E+03  0.10100000352E+00 0. -1.
</event>
<event>
 5   0  0.2524749E-06  0.2200132E+04  0.7818609E-02  0.8518373E-01
        2   -1    0    0  501    0  0.00000000000E+00  0.00000000000E+00  0.69782019961E+03  0.69782019961E+03  0.25500000920E-02 0.  1.
       -2   -1    0    0    0  501  0.00000000000E+00  0.00000000000E+00 -0.17341794479E+04  0.17341794479E+04  0.25500000920E-02 0. -1.
    10030    2    1    2    0    0  0.00000000000E+00  0.00000000000E+00 -0.10363592483E+04  0.24319996475E+04  0.22001322219E+04 0.  0.
        4    1    3    3  502    0  0.17167921796E+03 -0.10863564394E+04 -0.54289112436E+03  0.12265302495E+04  0.12699999809E+01 0. -1.
       -4    1    3    3    0  502 -0.17167921796E+03  0.10863564394E+04 -0.49346812393E+03  0.12054693980E+04  0.12699999809E+01 0.  1.
</event>
<event>
 5   0  0.2524749E-06  0.2199872E+04  0.7818609E-02  0.8518481E-01
        2   -1    0    0  501    0  0.00000000000E+00  0.00000000000E+00  0.15297338981E+04  0.15297338981E+04  0.25500000920E-02 0. -1.
       -2   -1    0    0    0  501  0.00000000000E+00  0.00000000000E+00 -0.79089520224E+03  0.79089520224E+03  0.25500000920E-02 0.  1.
    10030    2    1    2    0    0  0.00000000000E+00  0.00000000000E+00  0.73883869590E+03  0.23206291004E+04  0.21998719970E+04 0.  0.
        4    1    3    3  502    0 -0.19273054533E+03  0.36944184615E+03  0.14432490373E+04  0.15021989673E+04  0.12699999809E+01 0. -1.
       -4    1    3    3    0  502  0.19273054533E+03 -0.36944184615E+03 -0.70441034139E+03  0.81843013309E+03  0.12699999809E+01 0.  1.
</event>
<event>
 5   0  0.1137869E-06  0.2199740E+04  0.7818609E-02  0.8518536E-01
       -1   -1    0    0    0  501  0.00000000000E+00  0.00000000000E+00  0.75070106945E+03  0.75070106946E+03  0.50400001928E-02 0.  1.
        1   -1    0    0  501    0  0.00000000000E+00  0.00000000000E+00 -0.16114452364E+04  0.16114452364E+04  0.50400001928E-02 0. -1.
    10030    2    1    2    0    0  0.00000000000E+00  0.00000000000E+00 -0.86074416696E+03  0.23621463059E+04  0.21997396776E+04 0.  0.
        5    1    3    3  502    0 -0.76224485375E+03 -0.51562114415E+03  0.21643481782E+03  0.94538272764E+03  0.46999998093E+01 0.  1.
       -5    1    3    3    0  502  0.76224485375E+03  0.51562114415E+03 -0.10771789848E+04  0.14167635782E+04  0.46999998093E+01 0. -1.
</event>
<event>
 5   0  0.1144271E-06  0.2203053E+04  0.7818609E-02  0.8517158E-01
       -1   -1    0    0    0  501  0.00000000000E+00  0.00000000000E+00  0.53836957647E+03  0.53836957650E+03  0.50400001928E-02 0.  1.
        1   -1    0    0  501    0  0.00000000000E+00  0.00000000000E+00 -0.22537695048E+04  0.22537695048E+04  0.50400001928E-02 0. -1.
    10030    2    1    2    0    0  0.00000000000E+00  0.00000000000E+00 -0.17153999284E+04  0.27921390813E+04  0.22030532756E+04 0.  0.
        3    1    3    3  502    0  0.19950071661E+03 -0.28171293051E+03  0.46804518970E+03  0.58157460480E+03  0.10100000352E+00 0.  1.
       -3    1    3    3    0  502 -0.19950071661E+03  0.28171293051E+03 -0.21834451181E+04  0.22105644765E+04  0.10100000352E+00 0. -1.
</event>
<event>
 5   0  0.2524749E-06  0.2201146E+04  0.7818609E-02  0.8517951E-01
       -2   -1    0    0    0  501  0.00000000000E+00  0.00000000000E+00  0.46501644012E+03  0.46501644012E+03  0.25500000920E-02 0. -1.
        2   -1    0    0  501    0  0.00000000000E+00  0.00000000000E+00 -0.26047697325E+04  0.26047697325E+04  0.25500000920E-02 0.  1.
    10030    2    1    2    0    0  0.00000000000E+00  0.00000000000E+00 -0.21397532924E+04  0.30697861726E+04  0.22011458365E+04 0.  0.
        4    1    3    3  502    0  0.40790349195E+03  0.98539582955E+03 -0.69083212017E+03  0.12706851816E+04  0.12699999809E+01 0. -1.
       -4    1    3    3    0  502 -0.40790349195E+03 -0.98539582955E+03 -0.14489211722E+04  0.17991009910E+04  0.12699999809E+01 0.  1.
</event>
<event>
 5   0  0.2556869E-06  0.2200472E+04  0.7818609E-02  0.8518232E-01
       -2   -1    0    0    0  501  0.00000000000E+00  0.00000000000E+00  0.64775152948E+03  0.64775152949E+03  0.25500000920E-02 0. -1.
        2   -1    0    0  501    0  0.00000000000E+00  0.00000000000E+00 -0.18688016825E+04  0.18688016825E+04  0.25500000920E-02 0.  1.
    10030    2    1    2    0    0  0.00000000000E+00  0.00000000000E+00 -0.12210501530E+04  0.25165532120E+04  0.22004719023E+04 0.  0.
        5    1    3    3  502    0  0.26070795110E+03  0.73955448093E+03  0.27207327349E+03  0.83003338619E+03  0.46999998093E+01 0. -1.
       -5    1    3    3    0  502 -0.26070795110E+03 -0.73955448093E+03 -0.14931234265E+04  0.16865198258E+04  0.46999998093E+01 0.  1.
</event>
<event>
 5   0  0.1137869E-06  0.2200412E+04  0.7818609E-02  0.8518257E-01
       -1   -1    0    0    0  501  0.00000000000E+00  0.00000000000E+00  0.10312200751E+04  0.10312200751E+04  0.50400001928E-02 0. -1.
        1   -1    0    0  501    0  0.00000000000E+00  0.00000000000E+00 -0.11738063777E+04  0.11738063777E+04  0.50400001928E-02 0.  1.
    10030    2    1    2    0    0  0.00000000000E+00  0.00000000000E+00 -0.14258630265E+03  0.22050264528E+04  0.22004115078E+04 0.  0.
        5    1    3    3  502    0  0.79106950145E+03 -0.75316052702E+03 -0.20343660205E+03  0.11110581788E+04  0.46999998093E+01 0.  1.
       -5    1    3    3    0  502 -0.79106950145E+03  0.75316052702E+03  0.60850299399E+02  0.10939682740E+04  0.46999998093E+01 0. -1.
</event>
<event>
 5   0  0.1144271E-06  0.2202447E+04  0.7818609E-02  0.8517410E-01
        1   -1    0    0  501    0  0.00000000000E+00  0.00000000000E+00  0.10710012153E+04  0.10710012153E+04  0.50400001928E-02 0.  1.
       -1   -1    0    0    0  501  0.00000000000E+00  0.00000000000E+00 -0.11322983682E+04  0.11322983683E+04  0.50400001928E-02 0. -1.
    10030    2    1    2    0    0  0.00000000000E+00  0.00000000000E+00 -0.61297152933E+02  0.22032995836E+04  0.22024467562E+04 0.  0.
        3    1    3    3  502    0  0.10299940106E+04  0.59720965528E+02  0.35451825281E+03  0.10909342131E+04  0.10100000352E+00 0.  1.
       -3    1    3    3    0  502 -0.10299940106E+04 -0.59720965528E+02 -0.41581540574E+03  0.11123653705E+04  0.10100000352E+00 0. -1.
</event>
<event>
 5   0  0.2606154E-06  0.2199741E+04  0.7818609E-02  0.8518536E-01
       -2   -1    0    0    0  501  0.00000000000E+00  0.00000000000E+00  0.10830949146E+04  0.10830949146E+04  0.25500000920E-02 0. -1.
        2   -1    0    0  501    0  0.00000000000E+00  0.00000000000E+00 -0.11169063547E+04  0.11169063547E+04  0.25500000920E-02 0.  1.
    10030    2    1    2    0    0  0.00000000000E+00  0.00000000000E+00 -0.33811440169E+02  0.22000012693E+04  0.21997414329E+04 0.  0.
        2    1    3    3  502    0 -0.81218492531E+03  0.29263891198E+03  0.66466851116E+03  0.10895256378E+04  0.25500000920E-02 0. -1.
       -2    1    3    3    0  502  0.81218492531E+03 -0.29263891198E+03 -0.69847995133E+03  0.11104756315E+04  0.25500000920E-02 0.  1.
</event>
<event>
 5   0  0.2556869E-06  0.2198882E+04  0.7818609E-02  0.8518894E-01
        2   -1    0    0  501    0  0.00000000000E+00  0.00000000000E+00  0.17912445139E+04  0.17912445139E+04  0.25500000920E-02 0. -1.
       -2   -1    0    0    0  501  0.00000000000E+00  0.00000000000E+00 -0.67482131290E+03  0.67482131290E+03  0.25500000920E-02 0.  1.
    10030    2    1    2    0    0  0.00000000000E+00  0.00000000000E+00  0.11164232010E+04  0.24660658268E+04  0.21988815108E+04 0.  0.
        5    1    3    3  502    0  0.54777478656E+03 -0.19356926269E+03 -0.48859669776E+03  0.75912785439E+03  0.46999998093E+01 0.  1.
       -5    1    3    3    0  502 -0.54777478656E+03  0.19356926269E+03  0.16050198988E+04  0.17069379724E+04  0.46999998093E+01 0. -1.
</event>
<event>
 5   0  0.2581058E-06  0.2200392E+04  0.7818609E-02  0.8518265E-01
       -2   -1    0    0    0  501  0.00000000000E+00  0.00000000000E+00  0.99131768071E+03  0.99131768072E+03  0.25500000920E-02 0.  1.
        2   -1    0    0  501    0  0.00000000000E+00  0.00000000000E+00 -0.12210326106E+04  0.12210326106E+04  0.25500000920E-02 0. -1.
    10030    2    1    2    0    0  0.00000000000E+00  0.00000000000E+00 -0.22971492992E+03  0.22123502914E+04  0.22003919793E+04 0.  0.
        1    1    3    3  502    0  0.24488173541E+02 -0.62324041040E+03 -0.10260957626E+04  0.12007917362E+04  0.50400001928E-02 0. -1.
       -1    1    3    3    0  502 -0.24488173541E+02  0.62324041040E+03  0.79638083265E+03  0.10115585551E+04  0.50400001928E-02 0.  1.
</event>
<event>
 5   0  0.2524749E-06  0.2196411E+04  0.7818609E-02  0.8519923E-01
       -2   -1    0    0    0  501  0.00000000000E+00  0.00000000000E+00  0.12124708093E+04  0.12124708094E+04  0.25500000920E-02 0. -1.
        2   -1    0    0  501    0  0.00000000000E+00  0.00000000000E+00 -0.99470873689E+03  0.99470873690E+03  0.25500000920E-02 0.  1.
    10030    2    1    2    0    0  0.00000000000E+00  0.00000000000E+00  0.21776207246E+03  0.22071795463E+04  0.21964109882E+04 0.  0.
        4    1    3    3  502    0 -0.43139074763E+02 -0.36958958303E+03 -0.92943025295E+03  0.10011491635E+04  0.12699999809E+01 0.  1.
       -4    1    3    3    0  502  0.43139074763E+02  0.36958958303E+03  0.11471923254E+04  0.12060303827E+04  0.12699999809E+01 0. -1.
</event>
<event>
 5   0  0.2556869E-06  0.2200266E+04  0.7818609E-02  0.8518317E-01
       -2   -1    0    0    0  501  0.00000000000E+00  0.00000000000E+00  0.47841543254E+03  0.47841543255E+03  0.25500000920E-02 0.  1.
        2   -1    0    0  501    0  0.00000000000E+00  0.00000000000E+00 -0.25297947464E+04  0.25297947464E+04  0.25500000920E-02 0. -1.
    10030    2    1    2    0    0  0.00000000000E+00  0.00000000000E+00 -0.20513793139E+04  0.30082101790E+04  0.22002662092E+04 0.  0.
        5    1    3    3  502    0 -0.55579633388E+03 -0.31493239719E+03  0.19883781154E+03  0.66906692106E+03  0.46999998093E+01 0.  1.
       -5    1    3    3    0  502  0.55579633388E+03  0.31493239719E+03 -0.22502171254E+04  0.23391432579E+04  0.46999998093E+01 0. -1.
</event>
<event>
 5   0  0.2532239E-06  0.2201413E+04  0.7818609E-02  0.8517840E-01
       -2   -1    0    0    0  501  0.00000000000E+00  0.00000000000E+00  0.58921085766E+03  0.58921085767E+03  0.25500000920E-02 0.  1.
        2   -1    0    0  501    0  0.00000000000E+00  0.00000000000E+00 -0.20562334710E+04  0.20562334710E+04  0.25500000920E-02 0. -1.
    10030    2    1    2    0    0  0.00000000000E+00  0.00000000000E+00 -0.14670226133E+04  0.26454443287E+04  0.22014132615E+04 0.  0.
        3    1    3    3  502    0  0.70793311307E+03  0.64653549139E+03 -0.83727134619E+02  0.96238644914E+03  0.10100000352E+00 0.  1.
       -3    1    3    3    0  502 -0.70793311307E+03 -0.64653549139E+03 -0.13832954787E+04  0.16830578795E+04  0.10100000352E+00 0. -1.
</event>
<event>
 5   0  0.1146827E-06  0.2201499E+04  0.7818609E-02  0.8517804E-01
       -1   -1    0    0    0  501  0.00000000000E+00  0.00000000000E+00  0.55622867508E+03  0.55622867511E+03  0.50400001928E-02 0.  1.
        1   -1    0    0  501    0  0.00000000000E+00  0.00000000000E+00 -0.21783298979E+04  0.21783298979E+04  0.50400001928E-02 0. -1.
    10030    2    1    2    0    0  0.00000000000E+00  0.00000000000E+00 -0.16221012228E+04  0.27345585730E+04  0.22014990829E+04 0.  0.
        4    1    3    3  502    0 -0.93041397732E+03 -0.10094153617E+03 -0.15308337693E+04  0.17942444106E+04  0.12699999809E+01 0. -1.
       -4    1    3    3    0  502  0.93041397732E+03  0.10094153617E+03 -0.91267453457E+02  0.94031416233E+03  0.12699999809E+01 0.  1.
</event>
<event>
 5   0  0.2556869E-06  0.2201277E+04  0.7818609E-02  0.8517897E-01
       -2   -1    0    0    0  501  0.00000000000E+00  0.00000000000E+00  0.11748658877E+04  0.11748658877E+04  0.25500000920E-02 0. -1.
        2   -1    0    0  501    0  0.00000000000E+00  0.00000000000E+00 -0.10311002960E+04  0.10311002960E+04  0.25500000920E-02 0.  1.
    10030    2    1    2    0    0  0.00000000000E+00  0.00000000000E+00  0.14376559172E+03  0.22059661837E+04  0.22012765066E+04 0.  0.
        5    1    3    3  502    0  0.38097778042E+03  0.85027131354E+03  0.65902955448E+03  0.11412481849E+04  0.46999998093E+01 0. -1.
       -5    1    3    3    0  502 -0.38097778042E+03 -0.85027131354E+03 -0.51526396276E+03  0.10647179989E+04  0.46999998093E+01 0.  1.
</event>
<event>
 5   0  0.1137869E-06  0.2200679E+04  0.7818609E-02  0.8518146E-01
        1   -1    0    0  501    0  0.00000000000E+00  0.00000000000E+00  0.25635856749E+04  0.25635856749E+04  0.50400001928E-02 0. -1.
       -1   -1    0    0    0  501  0.00000000000E+00  0.00000000000E+00 -0.47228634185E+03  0.47228634188E+03  0.50400001928E-02 0.  1.
    10030    2    1    2    0    0  0.00000000000E+00  0.00000000000E+00  0.20912993330E+04  0.30358720167E+04  0.22006785321E+04 0.  0.
        5    1    3    3  502    0 -0.31987169039E+03  0.11331699949E+01 -0.40671653906E+03  0.51745494058E+03  0.46999998093E+01 0.  1.
       -5    1    3    3    0  502  0.31987169039E+03 -0.11331699949E+01  0.24980158721E+04  0.25184170762E+04  0.46999998093E+01 0. -1.
</event>
<event>
 5   0  0.1137869E-06  0.2199864E+04  0.7818609E-02  0.8518485E-01
       -1   -1    0    0    0  501  0.00000000000E+00  0.00000000000E+00  0.69843153343E+03  0.69843153344E+03  0.50400001928E-02 0. -1.
        1   -1    0    0  501    0  0.00000000000E+00  0.00000000000E+00 -0.17322383327E+04  0.17322383327E+04  0.50400001928E-02 0.  1.
    10030    2    1    2    0    0  0.00000000000E+00  0.00000000000E+00 -0.10338067993E+04  0.24306698661E+04  0.21998635185E+04 0.  0.
        5    1    3    3  502    0  0.98727256153E+03  0.45766286517E+03 -0.33989085078E+03  0.11400483715E+04  0.46999998093E+01 0. -1.
       -5    1    3    3    0  502 -0.98727256153E+03 -0.45766286517E+03 -0.69391594849E+03  0.12906214947E+04  0.46999998093E+01 0.  1.
</event>
<event>
 5   0  0.1137869E-06  0.2198628E+04  0.7818609E-02  0.8518999E-01
       -1   -1    0    0    0  501  0.00000000000E+00  0.00000000000E+00  0.62862545241E+03  0.62862545243E+03  0.50400001928E-02 0.  1.
        1   -1    0    0  501    0  0.00000000000E+00  0.00000000000E+00 -0.19224345617E+04  0.19224345617E+04  0.50400001928E-02 0. -1.
    10030    2    1    2    0    0  0.00000000000E+00  0.00000000000E+00 -0.12938091093E+04  0.25510600142E+04  0.21986280232E+04 0.  0.
        5    1    3    3  502    0 -0.31142636053E+03  0.10532189408E+04 -0.70148402138E+03  0.13032108185E+04  0.46999998093E+01 0. -1.
       -5    1    3    3    0  502  0.31142636053E+03 -0.10532189408E+04 -0.59232508795E+03  0.12478491956E+04  0.46999998093E+01 0.  1.
</event>
<event>
 5   0  0.1107101E-06  0.2199722E+04  0.7818609E-02  0.8518544E-01
        1   -1    0    0  501    0  0.00000000000E+00  0.00000000000E+00  0.13045656230E+04  0.13045656230E+04  0.50400001928E-02 0.  1.
       -1   -1    0    0    0  501  0.00000000000E+00  0.00000000000E+00 -0.92727698012E+03  0.92727698013E+03  0.50400001928E-02 0. -1.
    10030    2    1    2    0    0  0.00000000000E+00  0.00000000000E+00  0.37728864292E+03  0.22318426032E+04  0.21997215017E+04 0.  0.
        1    1    3    3  502    0  0.15576933820E+03 -0.10790811949E+04  0.33572092992E+03  0.11407843156E+04  0.50400001928E-02 0.  1.
       -1    1    3    3    0  502 -0.15576933820E+03  0.10790811949E+04  0.41567712996E+02  0.10910582875E+04  0.50400001928E-02 0. -1.
</event>
<event>
 5   0  0.2532239E-06  0.2200141E+04  0.7818609E-02  0.8518369E-01
        2   -1    0    0  501    0  0.00000000000E+00  0.00000000000E+00  0.13608336231E+04  0.13608336231E+04  0.25500000920E-02 0. -1.
       -2   -1    0    0    0  501  0.00000000000E+00  0.00000000000E+00 -0.88927524594E+03  0.88927524594E+03  0.25500000920E-02 0.  1.
    10030    2    1    2    0    0  0.00000000000E+00  0.00000000000E+00  0.47155837720E+03  0.22501088691E+04  0.22001414999E+04 0.  0.
        3    1    3    3  502    0  0.36438390398E+03 -0.29849077581E+03 -0.78092272450E+03  0.91198283129E+03  0.10100000352E+00 0.  1.
       -3    1    3    3    0  502 -0.36438390398E+03  0.29849077581E+03  0.12524811017E+04  0.13381260378E+04  0.10100000352E+00 0. -1.
</event>
<event>
 5   0  0.8905000E-07  0.2199400E+04  0.7818609E-02  0.8518678E-01
        4   -1    0    0  501    0  0.00000000000E+00  0.00000000000E+00  0.12465521745E+04  0.12465528214E+04  0.12699999809E+01 0. -1.
       -4   -1    0    0    0  501  0.00000000000E+00  0.00000000000E+00 -0.97014693475E+03  0.97014776602E+03  0.12699999809E+01 0.  1.
    10030    2    1    2    0    0  0.00000000000E+00  0.00000000000E+00  0.27640523973E+03  0.22167005874E+04  0.21994002905E+04 0.  0.
        3    1    3    3  502    0 -0.31743293886E+03 -0.56972551910E+02 -0.92141435102E+03  0.97622433836E+03  0.10100000352E+00 0.  1.
       -3    1    3    3    0  502  0.31743293886E+03  0.56972551910E+02  0.11978195908E+04  0.12404762491E+04  0.10100000352E+00 0. -1.
</event>
<event>
 5   0  0.1146827E-06  0.2199666E+04  0.7818609E-02  0.8518567E-01
        1   -1    0    0  501    0  0.00000000000E+00  0.00000000000E+00  0.16693114536E+04  0.16693114536E+04  0.50400001928E-02 0. -1.
       -1   -1    0    0    0  501  0.00000000000E+00  0.00000000000E+00 -0.72462970954E+03  0.72462970956E+03  0.50400001928E-02 0.  1.
    10030    2    1    2    0    0  0.00000000000E+00  0.00000000000E+00  0.94468174409E+03  0.23939411632E+04  0.21996660418E+04 0.  0.
        4    1    3    3  502    0  0.51709332344E+03 -0.56846985542E+03  0.13286543261E+04  0.15348835177E+04  0.12699999809E+01 0. -1.
       -4    1    3    3    0  502 -0.51709332344E+03  0.56846985542E+03 -0.38397258203E+03  0.85905764551E+03  0.12699999809E+01 0.  1.
</event>
<event>
 5   0  0.2524749E-06  0.2199465E+04  0.7818609E-02  0.8518651E-01
        2   -1    0    0  501    0  0.00000000000E+00  0.00000000000E+00  0.78538754647E+03  0.78538754647E+03  0.25500000920E-02 0.  1.
       -2   -1    0    0    0  501  0.00000000000E+00  0.00000000000E+00 -0.15398918915E+04  0.15398918915E+04  0.25500000920E-02 0. -1.
    10030    2    1    2    0    0  0.00000000000E+00  0.00000000000E+00 -0.75450434504E+03  0.23252794380E+04  0.21994653118E+04 0.  0.
        4    1    3    3  502    0  0.98476163750E+03  0.39408330401E+03 -0.70202432411E+02  0.10630085266E+04  0.12699999809E+01 0.  1.
       -4    1    3    3    0  502 -0.98476163750E+03 -0.39408330401E+03 -0.68430191263E+03  0.12622709114E+04  0.12699999809E+01 0. -1.
</event>
<event>
 5   0  0.2606154E-06  0.2199023E+04  0.7818609E-02  0.8518835E-01
        2   -1    0    0  501    0  0.00000000000E+00  0.00000000000E+00  0.11442268015E+04  0.11442268015E+04  0.25500000920E-02 0. -1.
       -2   -1    0    0    0  501  0.00000000000E+00  0.00000000000E+00 -0.10565432611E+04  0.10565432611E+04  0.25500000920E-02 0.  1.
    10030    2    1    2    0    0  0.00000000000E+00  0.00000000000E+00  0.87683540383E+02  0.22007700626E+04  0.21990226159E+04 0.  0.
        2    1    3    3  502    0 -0.42247752254E+03 -0.32944146290E+03 -0.91708067405E+03  0.10620997586E+04  0.25500000920E-02 0.  1.
       -2    1    3    3    0  502  0.42247752254E+03  0.32944146290E+03  0.10047642144E+04  0.11386703040E+04  0.25500000920E-02 0. -1.
</event>
<event>
 5   0  0.1107101E-06  0.2199782E+04  0.7818609E-02  0.8518519E-01
        1   -1    0    0  501    0  0.00000000000E+00  0.00000000000E+00  0.19128689175E+04  0.19128689176E+04  0.50400001928E-02 0. -1.
       -1   -1    0    0    0  501  0.00000000000E+00  0.00000000000E+00 -0.63243229706E+03  0.63243229708E+03  0.50400001928E-02 0.  1.
    10030    2    1    2    0    0  0.00000000000E+00  0.00000000000E+00  0.12804366205E+04  0.25453012146E+04  0.21997818833E+04 0.  0.
        1    1    3    3  502    0 -0.27763857506E+03  0.53777573272E+03 -0.42244443800E+03  0.73806857425E+03  0.50400001928E-02 0.  1.
       -1    1    3    3    0  502  0.27763857506E+03 -0.53777573272E+03  0.17028810585E+04  0.18072326404E+04  0.50400001928E-02 0. -1.
</event>
<event>
 5   0  0.2556869E-06  0.2200223E+04  0.7818609E-02  0.8518335E-01
       -2   -1    0    0    0  501  0.00000000000E+00  0.00000000000E+00  0.97084544371E+03  0.97084544371E+03  0.25500000920E-02 0.  1.
        2   -1    0    0  501    0  0.00000000000E+00  0.00000000000E+00 -0.12465885878E+04  0.12465885878E+04  0.25500000920E-02 0. -1.
    10030    2    1    2    0    0  0.00000000000E+00  0.00000000000E+00 -0.27574314408E+03  0.22174340315E+04  0.22002225802E+04 0.  0.
        5    1    3    3  502    0 -0.27669072693E+03 -0.28558422437E+03 -0.11716178872E+04  0.12372658046E+04  0.46999998093E+01 0. -1.
       -5    1    3    3    0  502  0.27669072693E+03  0.28558422437E+03  0.89587474316E+03  0.98016822689E+03  0.46999998093E+01 0.  1.
</event>
<event>
 5   0  0.1144271E-06  0.2198756E+04  0.7818609E-02  0.8518946E-01
        1   -1    0    0  501    0  0.00000000000E+00  0.00000000000E+00  0.15652528799E+04  0.15652528799E+04  0.50400001928E-02 0.  1.
       -1   -1    0    0    0  501  0.00000000000E+00  0.00000000000E+00 -0.77216414288E+03  0.77216414290E+03  0.50400001928E-02 0. -1.
    10030    2    1    2    0    0  0.00000000000E+00  0.00000000000E+00  0.79308873699E+03  0.23374170228E+04  0.21987561469E+04 0.  0.
        3    1    3    3  502    0  0.23676822318E+03  0.10678142490E+04  0.51466250347E+03  0.12087861533E+04  0.10100000352E+00 0. -1.
       -3    1    3    3    0  502 -0.23676822318E+03 -0.10678142490E+04  0.27842623351E+03  0.11286308695E+04  0.10100000352E+00 0.  1.
</event>
<event>
 5   0  0.2524749E-06  0.2200647E+04  0.7818609E-02  0.8518159E-01
        2   -1    0    0  501    0  0.00000000000E+00  0.00000000000E+00  0.13633327926E+04  0.13633327926E+04  0.25500000920E-02 0.  1.
       -2   -1    0    0    0  501  0.00000000000E+00  0.00000000000E+00 -0.88805321507E+03  0.88805321507E+03  0.25500000920E-02 0. -1.
    10030    2    1    2    0    0  0.00000000000E+00  0.00000000000E+00  0.47527957753E+03  0.22513860077E+04  0.22006472409E+04 0.  0.
        4    1    3    3  502    0  0.66367884288E+03  0.11798142246E+03  0.11273584052E+04  0.13135173426E+04  0.12699999809E+01 0.  1.
       -4    1    3    3    0  502 -0.66367884288E+03 -0.11798142246E+03 -0.65207882769E+03  0.93786866509E+03  0.12699999809E+01 0. -1.
</event>
<event>
 5   0  0.8905000E-07  0.2200460E+04  0.7818609E-02  0.8518237E-01
        4   -1    0    0  501    0  0.00000000000E+00  0.00000000000E+00  0.13133201921E+04  0.13133208061E+04  0.12699999809E+01 0.  1.
       -4   -1    0    0    0  501  0.00000000000E+00  0.00000000000E+00 -0.92171319529E+03  0.92171407024E+03  0.12699999809E+01 0. -1.
    10030    2    1    2    0    0  0.00000000000E+00  0.00000000000E+00  0.39160699680E+03  0.22350348764E+04  0.22004601470E+04 0.  0.
        3    1    3    3  502    0  0.78894307759E+03 -0.29387532979E+03  0.91524945785E+03  0.12435736687E+04  0.10100000352E+00 0.  1.
       -3    1    3    3    0  502 -0.78894307759E+03  0.29387532979E+03 -0.52364246106E+03  0.99146120769E+03  0.10100000352E+00 0. -1.
</event>
<event>
 5   0  0.1107101E-06  0.2199498E+04  0.7818609E-02  0.8518637E-01
        1   -1    0    0  501    0  0.00000000000E+00  0.00000000000E+00  0.12396989711E+04  0.12396989711E+04  0.50400001928E-02 0.  1.
       -1   -1    0    0    0  501  0.00000000000E+00  0.00000000000E+00 -0.97559771275E+03  0.97559771276E+03  0.50400001928E-02 0. -1.
    10030    2    1    2    0    0  0.00000000000E+00  0.00000000000E+00  0.26410125835E+03  0.22152966839E+04  0.21994976524E+04 0.  0.
        1    1    3    3  502    0 -0.17178503089E+03 -0.44785367406E+03  0.11287875990E+04  0.12264764384E+04  0.50400001928E-02 0.  1.
       -1    1    3    3    0  502  0.17178503089E+03  0.44785367406E+03 -0.86468634064E+03  0.98882024550E+03  0.50400001928E-02 0. -1.
</event>
<event>
 5   0  0.1107101E-06  0.2199991E+04  0.7818609E-02  0.8518432E-01
        1   -1    0    0  501    0  0.00000000000E+00  0.00000000000E+00  0.15970978605E+04  0.15970978605E+04  0.50400001928E-02 0.  1.
       -1   -1    0    0    0  501  0.00000000000E+00  0.00000000000E+00 -0.75761790991E+03  0.75761790992E+03  0.50400001928E-02 0. -1.
    10030    2    1    2    0    0  0.00000000000E+00  0.00000000000E+00  0.83947995057E+03  0.23547157704E+04  0.21999908573E+04 0.  0.
        1    1    3    3  502    0  0.81561896777E+02  0.10832211683E+04  0.60503227362E+03  0.12434164607E+04  0.50400001928E-02 0. -1.
       -1    1    3    3    0  502 -0.81561896777E+02 -0.10832211683E+04  0.23444767695E+03  0.11112993097E+04  0.50400001928E-02 0.  1.
</event>
<event>
 5   0  0.1144271E-06  0.2198412E+04  0.7818609E-02  0.8519089E-01
        1   -1    0    0  501    0  0.00000000000E+00  0.00000000000E+00  0.16184316319E+04  0.16184316319E+04  0.50400001928E-02 0. -1.
       -1   -1    0    0    0  501  0.00000000000E+00  0.00000000000E+00 -0.74655873005E+03  0.74655873007E+03  0.50400001928E-02 0.  1.
    10030    2    1    2    0    0  0.00000000000E+00  0.00000000000E+00  0.87187290188E+03  0.23649903620E+04  0.21984123943E+04 0.  0.
        3    1    3    3  502    0  0.16387776574E+03  0.27304844908E+03 -0.69584663273E+03  0.76525415655E+03  0.10100000352E+00 0.  1.
       -3    1    3    3    0  502 -0.16387776574E+03 -0.27304844908E+03  0.15677195346E+04  0.15997362054E+04  0.10100000352E+00 0. -1.
</event>
<event>
 5   0  0.2524749E-06  0.2196274E+04  0.7818609E-02  0.8519981E-01
       -2   -1    0    0    0  501  0.00000000000E+00  0.00000000000E+00  0.88046659220E+03  0.88046659220E+03  0.25500000920E-02 0.  1.
        2   -1    0    0  501    0  0.00000000000E+00  0.00000000000E+00 -0.13696200594E+04  0.13696200594E+04  0.25500000920E-02 0. -1.
    10030    2    1    2    0    0  0.00000000000E+00  0.00000000000E+00 -0.48915346725E+03  0.22500866517E+04  0.21962738503E+04 0.  0.
        4    1    3    3  502    0 -0.87702211746E+03 -0.65037478146E+03 -0.12445222969E+03  0.10989290793E+04  0.12699999809E+01 0. -1.
       -4    1    3    3    0  502  0.87702211746E+03  0.65037478146E+03 -0.36470123756E+03  0.11511575724E+04  0.12699999809E+01 0.  1.
</event>
<event>
 5   0  0.2581058E-06  0.2199596E+04  0.7818609E-02  0.8518596E-01
        2   -1    0    0  501    0  0.00000000000E+00  0.00000000000E+00  0.25326974154E+04  0.25326974154E+04  0.25500000920E-02 0. -1.
       -2   -1    0    0    0  501  0.00000000000E+00  0.00000000000E+00 -0.47757584406E+03  0.47757584407E+03  0.25500000920E-02 0.  1.
    10030    2    1    2    0    0  0.00000000000E+00  0.00000000000E+00  0.20551215714E+04  0.30102732595E+04  0.21995955137E+04 0.  0.
        1    1    3    3  502    0  0.29149156213E+03  0.95980545260E+03  0.16447199984E+04  0.19264728679E+04  0.50400001928E-02 0. -1.
       -1    1    3    3    0  502 -0.29149156213E+03 -0.95980545260E+03  0.41040157291E+03  0.10838003915E+04  0.50400001928E-02 0.  1.
</event>
<event>
 5   0  0.8905000E-07  0.2199550E+04  0.7818609E-02  0.8518615E-01
       -4   -1    0    0    0  501  0.00000000000E+00  0.00000000000E+00  0.14323906484E+04  0.14323912114E+04  0.12699999809E+01 0.  1.
        4   -1    0    0  501    0  0.00000000000E+00  0.00000000000E+00 -0.84439510431E+03  0.84439605937E+03  0.12699999809E+01 0. -1.
    10030    2    1    2    0    0  0.00000000000E+00  0.00000000000E+00  0.58799554404E+03  0.22767872707E+04  0.21995502987E+04 0.  0.
        5    1    3    3  502    0  0.80734014325E+03  0.44720473428E+03  0.91307359397E+03  0.12982741079E+04  0.46999998093E+01 0.  1.
       -5    1    3    3    0  502 -0.80734014325E+03 -0.44720473428E+03 -0.32507804993E+03  0.97851316282E+03  0.46999998093E+01 0. -1.
</event>
<event>
 5   0  0.1082209E-06  0.2200537E+04  0.7818609E-02  0.8518205E-01
        1   -1    0    0  501    0  0.00000000000E+00  0.00000000000E+00  0.11237815669E+04  0.11237815669E+04  0.50400001928E-02 0. -1.
       -1   -1    0    0    0  501  0.00000000000E+00  0.00000000000E+00 -0.10772475652E+04  0.10772475652E+04  0.50400001928E-02 0.  1.
    10030    2    1    2    0    0  0.00000000000E+00  0.00000000000E+00  0.46534001788E+02  0.22010291321E+04  0.22005371678E+04 0.  0.
        2    1    3    3  502    0  0.69024416342E+03  0.32223041224E+03 -0.77083839570E+03  0.10837256461E+04  0.25500000920E-02 0.  1.
       -2    1    3    3    0  502 -0.69024416342E+03 -0.32223041224E+03  0.81737239748E+03  0.11173034860E+04  0.25500000920E-02 0. -1.
</event>
<event>
 5   0  0.1137869E-06  0.2200338E+04  0.7818609E-02  0.8518288E-01
        1   -1    0    0  501    0  0.00000000000E+00  0.00000000000E+00  0.20192962134E+04  0.20192962134E+04  0.50400001928E-02 0. -1.
       -1   -1    0    0    0  501  0.00000000000E+00  0.00000000000E+00 -0.59940265336E+03  0.59940265338E+03  0.50400001928E-02 0.  1.
    10030    2    1    2    0    0  0.00000000000E+00  0.00000000000E+00  0.14198935601E+04  0.26186988668E+04  0.22003377089E+04 0.  0.
        5    1    3    3  502    0  0.23165456990E+03  0.28305501246E+03 -0.52490955838E+03  0.63979380609E+03  0.46999998093E+01 0.  1.
       -5    1    3    3    0  502 -0.23165456990E+03 -0.28305501246E+03  0.19448031185E+04  0.19789050607E+04  0.46999998093E+01 0. -1.
</event>
<event>
 5   0  0.2524749E-06  0.2200108E+04  0.7818609E-02  0.8518383E-01
       -2   -1    0    0    0  501  0.00000000000E+00  0.00000000000E+00  0.13010797106E+04  0.13010797106E+04  0.25500000920E-02 0. -1.
        2   -1    0    0  501    0  0.00000000000E+00  0.00000000000E+00 -0.93008825161E+03  0.93008825162E+03  0.25500000920E-02 0.  1.
    10030    2    1    2    0    0  0.00000000000E+00  0.00000000000E+00  0.37099145896E+03  0.22311679622E+04  0.22001081366E+04 0.  0.
        4    1    3    3  502    0 -0.38230699595E+03  0.30548933997E+03 -0.81362093732E+03  0.94945406342E+03  0.12699999809E+01 0.  1.
       -4    1    3    3    0  502  0.38230699595E+03 -0.30548933997E+03  0.11846123963E+04  0.12817138988E+04  0.12699999809E+01 0. -1.
</event>
<event>
 5   0  0.1144271E-06  0.2200598E+04  0.7818609E-02  0.8518179E-01
       -1   -1    0    0    0  501  0.00000000000E+00  0.00000000000E+00  0.64054741236E+03  0.64054741238E+03  0.50400001928E-02 0.  1.
        1   -1    0    0  501    0  0.00000000000E+00  0.00000000000E+00 -0.18900367614E+04  0.18900367614E+04  0.50400001928E-02 0. -1.
    10030    2    1    2    0    0  0.00000000000E+00  0.00000000000E+00 -0.12494893491E+04  0.25305841738E+04  0.22005982431E+04 0.  0.
        3    1    3    3  502    0 -0.75024820669E+03  0.71588057121E+03 -0.10477347525E+04  0.14741456799E+04  0.10100000352E+00 0. -1.
       -3    1    3    3    0  502  0.75024820669E+03 -0.71588057121E+03 -0.20175459654E+03  0.10564384939E+04  0.10100000352E+00 0.  1.
</event>
<event>
 5   0  0.2524749E-06  0.2202163E+04  0.7818609E-02  0.8517528E-01
       -2   -1    0    0    0  501  0.00000000000E+00  0.00000000000E+00  0.15318549660E+04  0.15318549660E+04  0.25500000920E-02 0. -1.
        2   -1    0    0  501    0  0.00000000000E+00  0.00000000000E+00 -0.79144588275E+03  0.79144588276E+03  0.25500000920E-02 0.  1.
    10030    2    1    2    0    0  0.00000000000E+00  0.00000000000E+00  0.74040908328E+03  0.23233008488E+04  0.22021628512E+04 0.  0.
        4    1    3    3  502    0 -0.26077011504E+03  0.94494545087E+03 -0.15883336523E+03  0.99305216823E+03  0.12699999809E+01 0.  1.
       -4    1    3    3    0  502  0.26077011504E+03 -0.94494545087E+03  0.89924244852E+03  0.13302486806E+04  0.12699999809E+01 0. -1.
</event>
<event>
 5   0  0.1144271E-06  0.2200617E+04  0.7818609E-02  0.8518172E-01
        1   -1    0    0  501    0  0.00000000000E+00  0.00000000000E+00  0.20530407586E+04  0.20530407586E+04  0.50400001928E-02 0. -1.
       -1   -1    0    0    0  501  0.00000000000E+00  0.00000000000E+00 -0.58970012002E+03  0.58970012004E+03  0.50400001928E-02 0.  1.
    10030    2    1    2    0    0  0.00000000000E+00  0.00000000000E+00  0.14633406386E+04  0.26427408786E+04  0.22006166243E+04 0.  0.
        3    1    3    3  502    0 -0.34241152403E+03  0.46146624481E+01  0.19874168783E+04  0.20167034500E+04  0.10100000352E+00 0. -1.
       -3    1    3    3    0  502  0.34241152403E+03 -0.46146624481E+01 -0.52407623969E+03  0.62603742868E+03  0.10100000352E+00 0.  1.
</event>
<event>
 5   0  0.1107101E-06  0.2200561E+04  0.7818609E-02  0.8518194E-01
        1   -1    0    0  501    0  0.00000000000E+00  0.00000000000E+00  0.58912367270E+03  0.58912367272E+03  0.50400001928E-02 0.  1.
       -1   -1    0    0    0  501  0.00000000000E+00  0.00000000000E+00 -0.20549465917E+04  0.20549465917E+04  0.50400001928E-02 0. -1.
    10030    2    1    2    0    0  0.00000000000E+00  0.00000000000E+00 -0.14658229190E+04  0.26440702644E+04  0.22005614587E+04 0.  0.
        1    1    3    3  502    0  0.62556685634E+03 -0.88093602616E+03 -0.48307272019E+03  0.11835292252E+04  0.50400001928E-02 0.  1.
       -1    1    3    3    0  502 -0.62556685634E+03  0.88093602616E+03 -0.98275019882E+03  0.14605410392E+04  0.50400001928E-02 0. -1.
</event>
<event>
 5   0  0.2524749E-06  0.2199133E+04  0.7818609E-02  0.8518789E-01
       -2   -1    0    0    0  501  0.00000000000E+00  0.00000000000E+00  0.98606475808E+03  0.98606475809E+03  0.25500000920E-02 0. -1.
        2   -1    0    0  501    0  0.00000000000E+00  0.00000000000E+00 -0.12261328280E+04  0.12261328280E+04  0.25500000920E-02 0.  1.
    10030    2    1    2    0    0  0.00000000000E+00  0.00000000000E+00 -0.24006806990E+03  0.22121975861E+04  0.21991328931E+04 0.  0.
        4    1    3    3  502    0 -0.18794965918E+03 -0.35437588850E+02  0.96920243033E+03  0.98789466085E+03  0.12699999809E+01 0. -1.
       -4    1    3    3    0  502  0.18794965918E+03  0.35437588850E+02 -0.12092705002E+04  0.12243029252E+04  0.12699999809E+01 0.  1.
</event>
<event>
 5   0  0.2581058E-06  0.2200272E+04  0.7818609E-02  0.8518315E-01
       -2   -1    0    0    0  501  0.00000000000E+00  0.00000000000E+00  0.93592123037E+03  0.93592123038E+03  0.25500000920E-02 0. -1.
        2   -1    0    0  501    0  0.00000000000E+00  0.00000000000E+00 -0.12931634928E+04  0.12931634928E+04  0.25500000920E-02 0.  1.
    10030    2    1    2    0    0  0.00000000000E+00  0.00000000000E+00 -0.35724226240E+03  0.22290847232E+04  0.22002719534E+04 0.  0.
        1    1    3    3  502    0  0.41314205655E+02  0.67063651952E+02 -0.12903030643E+04  0.12927050688E+04  0.50400001928E-02 0.  1.
       -1    1    3    3    0  502 -0.41314205655E+02 -0.67063651952E+02  0.93306080193E+03  0.93637965437E+03  0.50400001928E-02 0. -1.
</event>
<event>
 5   0  0.2524749E-06  0.2199956E+04  0.7818609E-02  0.8518446E-01
        2   -1    0    0  501    0  0.00000000000E+00  0.00000000000E+00  0.13731828090E+04  0.13731828090E+04  0.25500000920E-02 0. -1.
       -2   -1    0    0    0  501  0.00000000000E+00  0.00000000000E+00 -0.88112917028E+03  0.88112917029E+03  0.25500000920E-02 0.  1.
    10030    2    1    2    0    0  0.00000000000E+00  0.00000000000E+00  0.49205363869E+03  0.22543119793E+04  0.21999558442E+04 0.  0.
        4    1    3    3  502    0 -0.50985924853E+02  0.10534028783E+04  0.56630765307E+03  0.11970643923E+04  0.12699999809E+01 0. -1.
       -4    1    3    3    0  502  0.50985924853E+02 -0.10534028783E+04 -0.74254014383E+02  0.10572475869E+04  0.12699999809E+01 0.  1.
</event>
<event>
 5   0  0.2524749E-06  0.2198581E+04  0.7818609E-02  0.8519019E-01
       -2   -1    0    0    0  501  0.00000000000E+00  0.00000000000E+00  0.89455753114E+03  0.89455753114E+03  0.25500000920E-02 0. -1.
        2   -1    0    0  501    0  0.00000000000E+00  0.00000000000E+00 -0.13508795381E+04  0.13508795381E+04  0.25500000920E-02 0.  1.
    10030    2    1    2    0    0  0.00000000000E+00  0.00000000000E+00 -0.45632200693E+03  0.22454370692E+04  0.21985808736E+04 0.  0.
        4    1    3    3  502    0 -0.72603677272E+03  0.34245715870E+03 -0.99518710233E+03  0.12785950424E+04  0.12699999809E+01 0.  1.
       -4    1    3    3    0  502  0.72603677272E+03 -0.34245715870E+03  0.53886509540E+03  0.96684202682E+03  0.12699999809E+01 0. -1.
</event>
<event>
 5   0  0.1107101E-06  0.2200175E+04  0.7818609E-02  0.8518355E-01
        1   -1    0    0  501    0  0.00000000000E+00  0.00000000000E+00  0.79714830494E+03  0.79714830495E+03  0.50400001928E-02 0. -1.
       -1   -1    0    0    0  501  0.00000000000E+00  0.00000000000E+00 -0.15181523964E+04  0.15181523964E+04  0.50400001928E-02 0.  1.
    10030    2    1    2    0    0  0.00000000000E+00  0.00000000000E+00 -0.72100409150E+03  0.23153007014E+04  0.22001750926E+04 0.  0.
        1    1    3    3  502    0 -0.15411131258E+02  0.65156848431E+03  0.57210646126E+03  0.86722822587E+03  0.50400001928E-02 0. -1.
       -1    1    3    3    0  502  0.15411131258E+02 -0.65156848431E+03 -0.12931105528E+04  0.14480724755E+04  0.50400001928E-02 0.  1.
</event>
<event>
 5   0  0.1144271E-06  0.2200046E+04  0.7818609E-02  0.8518409E-01
       -1   -1    0    0    0  501  0.00000000000E+00  0.00000000000E+00  0.80250009396E+03  0.80250009397E+03  0.50400001928E-02 0.  1.
        1   -1    0    0  501    0  0.00000000000E+00  0.00000000000E+00 -0.15078503973E+04  0.15078503973E+04  0.50400001928E-02 0. -1.
    10030    2    1    2    0    0  0.00000000000E+00  0.00000000000E+00 -0.70535030338E+03  0.23103504913E+04  0.22000455319E+04 0.  0.
        3    1    3    3  502    0  0.94539791957E+03  0.50571855337E+03 -0.94329367657E+02  0.10763022444E+04  0.10100000352E+00 0. -1.
       -3    1    3    3    0  502 -0.94539791957E+03 -0.50571855337E+03 -0.61102093572E+03  0.12340482469E+04  0.10100000352E+00 0.  1.
</event>
<event>
 5   0  0.2606154E-06  0.2199810E+04  0.7818609E-02  0.8518507E-01
        2   -1    0    0  501    0  0.00000000000E+00  0.00000000000E+00  0.30101329119E+04  0.30101329119E+04  0.25500000920E-02 0. -1.
       -2   -1    0    0    0  501  0.00000000000E+00  0.00000000000E+00 -0.40190617325E+03  0.40190617326E+03  0.25500000920E-02 0.  1.
    10030    2    1    2    0    0  0.00000000000E+00  0.00000000000E+00  0.26082267386E+04  0.34120390852E+04  0.21998099914E+04 0.  0.
        2    1    3    3  502    0 -0.15004779741E+03 -0.90265880914E+03  0.35747853345E+03  0.98239410071E+03  0.25500000920E-02 0. -1.
       -2    1    3    3    0  502  0.15004779741E+03  0.90265880914E+03  0.22507482052E+04  0.24296449844E+04  0.25500000920E-02 0.  1.
</event>
<event>
 5   0  0.1082209E-06  0.2200472E+04  0.7818609E-02  0.8518232E-01
        1   -1    0    0  501    0  0.00000000000E+00  0.00000000000E+00  0.26954064864E+04  0.26954064864E+04  0.50400001928E-02 0. -1.
       -1   -1    0    0    0  501  0.00000000000E+00  0.00000000000E+00 -0.44910465184E+03  0.44910465186E+03  0.50400001928E-02 0.  1.
    10030    2    1    2    0    0  0.00000000000E+00  0.00000000000E+00  0.22463018346E+04  0.31445111383E+04  0.22004723054E+04 0.  0.
        2    1    3    3  502    0 -0.56193474508E+03 -0.76388659807E+02  0.24704593618E+04  0.25347140556E+04  0.25500000920E-02 0. -1.
       -2    1    3    3    0  502  0.56193474508E+03  0.76388659807E+02 -0.22415752724E+03  0.60979708272E+03  0.25500000920E-02 0.  1.
</event>
<event>
 5   0  0.1146827E-06  0.2198659E+04  0.7818609E-02  0.8518987E-01
       -1   -1    0    0    0  501  0.00000000000E+00  0.00000000000E+00  0.63963704760E+03  0.63963704762E+03  0.50400001928E-02 0. -1.
        1   -1    0    0  501    0  0.00000000000E+00  0.00000000000E+00 -0.18893919710E+04  0.18893919710E+04  0.50400001928E-02 0.  1.
    10030    2    1    2    0    0  0.00000000000E+00  0.00000000000E+00 -0.12497549234E+04  0.25290290186E+04  0.21986587749E+04 0.  0.
        4    1    3    3  502    0  0.54046988792E+03 -0.27500008118E+03  0.42984923885E+03  0.74330661603E+03  0.12699999809E+01 0. -1.
       -4    1    3    3    0  502 -0.54046988792E+03  0.27500008118E+03 -0.16796041622E+04  0.17857224026E+04  0.12699999809E+01 0.  1.
</event>
<event>
 5   0  0.1146827E-06  0.2200166E+04  0.7818609E-02  0.8518359E-01
       -1   -1    0    0    0  501  0.00000000000E+00  0.00000000000E+00  0.60635930225E+03  0.60635930227E+03  0.50400001928E-02 0. -1.
        1   -1    0    0  501    0  0.00000000000E+00  0.00000000000E+00 -0.19958179853E+04  0.19958179853E+04  0.50400001928E-02 0.  1.
    10030    2    1    2    0    0  0.00000000000E+00  0.00000000000E+00 -0.13894586830E+04  0.26021772876E+04  0.22001661765E+04 0.  0.
        4    1    3    3  502    0 -0.10929781328E+03 -0.27007041077E+03  0.55989875017E+03  0.63116738042E+03  0.12699999809E+01 0. -1.
       -4    1    3    3    0  502  0.10929781328E+03  0.27007041077E+03 -0.19493574332E+04  0.19710099071E+04  0.12699999809E+01 0.  1.
</event>
<event>
 5   0  0.2606154E-06  0.2200964E+04  0.7818609E-02  0.8518027E-01
        2   -1    0    0  501    0  0.00000000000E+00  0.00000000000E+00  0.16031162198E+04  0.16031162198E+04  0.25500000920E-02 0. -1.
       -2   -1    0    0    0  501  0.00000000000E+00  0.00000000000E+00 -0.75544147163E+03  0.75544147164E+03  0.25500000920E-02 0.  1.
    10030    2    1    2    0    0  0.00000000000E+00  0.00000000000E+00  0.84767474815E+03  0.23585576914E+04  0.22009638582E+04 0.  0.
        2    1    3    3  502    0 -0.21239425975E+03 -0.58432556232E+03  0.13968809541E+04  0.15289944684E+04  0.25500000920E-02 0. -1.
       -2    1    3    3    0  502  0.21239425975E+03  0.58432556232E+03 -0.54920620596E+03  0.82956322305E+03  0.25500000920E-02 0.  1.
</event>
<event>
 5   0  0.1107101E-06  0.2199687E+04  0.7818609E-02  0.8518558E-01
        1   -1    0    0  501    0  0.00000000000E+00  0.00000000000E+00  0.20460659423E+04  0.20460659423E+04  0.50400001928E-02 0.  1.
       -1   -1    0    0    0  501  0.00000000000E+00  0.00000000000E+00 -0.59121065843E+03  0.59121065845E+03  0.50400001928E-02 0. -1.
    10030    2    1    2    0    0  0.00000000000E+00  0.00000000000E+00  0.14548552839E+04  0.26372766008E+04  0.21996872441E+04 0.  0.
        1    1    3    3  502    0  0.41431221684E+03 -0.80453817491E+03 -0.21996022026E+02  0.90521826811E+03  0.50400001928E-02 0.  1.
       -1    1    3    3    0  502 -0.41431221684E+03  0.80453817491E+03  0.14768513059E+04  0.17320583327E+04  0.50400001928E-02 0. -1.
</event>
<event>
 5   0  0.2606154E-06  0.2198810E+04  0.7818609E-02  0.8518924E-01
       -2   -1    0    0    0  501  0.00000000000E+00  0.00000000000E+00  0.45861081768E+03  0.45861081769E+03  0.25500000920E-02 0.  1.
        2   -1    0    0  501    0  0.00000000000E+00  0.00000000000E+00 -0.26355488686E+04  0.26355488686E+04  0.25500000920E-02 0. -1.
    10030    2    1    2    0    0  0.00000000000E+00  0.00000000000E+00 -0.21769380509E+04  0.30941596863E+04  0.21988098796E+04 0.  0.
        2    1    3    3  502    0 -0.53172813356E+03  0.95785203637E+03 -0.12180220931E+04  0.16382286626E+04  0.25500000920E-02 0.  1.
       -2    1    3    3    0  502  0.53172813356E+03 -0.95785203637E+03 -0.95891595777E+03  0.14559310237E+04  0.25500000920E-02 0. -1.
</event>
<event>
 5   0  0.2606154E-06  0.2199359E+04  0.7818609E-02  0.8518695E-01
        2   -1    0    0  501    0  0.00000000000E+00  0.00000000000E+00  0.14959865245E+04  0.14959865245E+04  0.25500000920E-02 0.  1.
       -2   -1    0    0    0  501  0.00000000000E+00  0.00000000000E+00 -0.80835987718E+03  0.80835987719E+03  0.25500000920E-02 0. -1.
    10030    2    1    2    0    0  0.00000000000E+00  0.00000000000E+00  0.68762664729E+03  0.23043464017E+04  0.21993594369E+04 0.  0.
        2    1    3    3  502    0  0.43382826116E+00 -0.59617482265E+03 -0.62434783302E+03  0.86326984424E+03  0.25500000920E-02 0. -1.
       -2    1    3    3    0  502 -0.43382826116E+00  0.59617482265E+03  0.13119744803E+04  0.14410765574E+04  0.25500000920E-02 0.  1.
</event>
<event>
 5   0  0.2606154E-06  0.2200039E+04  0.7818609E-02  0.8518412E-01
        2   -1    0    0  501    0  0.00000000000E+00  0.00000000000E+00  0.28995964654E+04  0.28995964654E+04  0.25500000920E-02 0.  1.
       -2   -1    0    0    0  501  0.00000000000E+00  0.00000000000E+00 -0.41731411691E+03  0.41731411692E+03  0.25500000920E-02 0. -1.
    10030    2    1    2    0    0  0.00000000000E+00  0.00000000000E+00  0.24822823485E+04  0.33169105823E+04  0.22000386709E+04 0.  0.
        2    1    3    3  502    0 -0.17888627877E+03 -0.10712468547E+04  0.97795875295E+03  0.14614969884E+04  0.25500000920E-02 0.  1.
       -2    1    3    3    0  502  0.17888627877E+03  0.10712468547E+04  0.15043235955E+04  0.18554135940E+04  0.25500000920E-02 0. -1.
</event>
<event>
 5   0  0.2581058E-06  0.2200253E+04  0.7818609E-02  0.8518323E-01
        2   -1    0    0  501    0  0.00000000000E+00  0.00000000000E+00  0.15625559513E+04  0.15625559513E+04  0.25500000920E-02 0.  1.
       -2   -1    0    0    0  501  0.00000000000E+00  0.00000000000E+00 -0.77455024484E+03  0.77455024484E+03  0.25500000920E-02 0. -1.
    10030    2    1    2    0    0  0.00000000000E+00  0.00000000000E+00  0.78800570647E+03  0.23371061962E+04  0.22002527988E+04 0.  0.
        1    1    3    3  502    0  0.29738490814E+03  0.93317226962E+03 -0.13818937419E+03  0.98911302264E+03  0.50400001928E-02 0. -1.
       -1    1    3    3    0  502 -0.29738490814E+03 -0.93317226962E+03  0.92619508066E+03  0.13479931735E+04  0.50400001928E-02 0.  1.
</event>
<event>
 5   0  0.1082209E-06  0.2200984E+04  0.7818609E-02  0.8518019E-01
       -1   -1    0    0    0  501  0.00000000000E+00  0.00000000000E+00  0.44608466427E+03  0.44608466430E+03  0.50400001928E-02 0.  1.
        1   -1    0    0  501    0  0.00000000000E+00  0.00000000000E+00 -0.27149156392E+04  0.27149156392E+04  0.50400001928E-02 0. -1.
    10030    2    1    2    0    0  0.00000000000E+00  0.00000000000E+00 -0.22688309750E+04  0.31610003035E+04  0.22009836269E+04 0.  0.
        2    1    3    3  502    0 -0.10966910274E+04 -0.59598232759E+02 -0.12339070807E+04  0.16519109669E+04  0.25500000920E-02 0. -1.
       -2    1    3    3    0  502  0.10966910274E+04  0.59598232759E+02 -0.10349238942E+04  0.15090893366E+04  0.25500000920E-02 0.  1.
</event>
<event>
 5   0  0.2524749E-06  0.2200598E+04  0.7818609E-02  0.8518179E-01
       -2   -1    0    0    0  501  0.00000000000E+00  0.00000000000E+00  0.82548654883E+03  0.82548654883E+03  0.25500000920E-02 0. -1.
        2   -1    0    0  501    0  0.00000000000E+00  0.00000000000E+00 -0.14665992111E+04  0.14665992111E+04  0.25500000920E-02 0.  1.
    10030    2    1    2    0    0  0.00000000000E+00  0.00000000000E+00 -0.64111266223E+03  0.22920857599E+04  0.22005980289E+04 0.  0.
        4    1    3    3  502    0 -0.89721914951E+03  0.28081327078E+03 -0.91598514491E+03  0.13125885471E+04  0.12699999809E+01 0.  1.
       -4    1    3    3    0  502  0.89721914951E+03 -0.28081327078E+03  0.27487248268E+03  0.97949721282E+03  0.12699999809E+01 0. -1.
</event>
<event>
 5   0  0.2556869E-06  0.2202869E+04  0.7818609E-02  0.8517235E-01
       -2   -1    0    0    0  501  0.00000000000E+00  0.00000000000E+00  0.78706264878E+03  0.78706264879E+03  0.25500000920E-02 0. -1.
        2   -1    0    0  501    0  0.00000000000E+00  0.00000000000E+00 -0.15413746079E+04  0.15413746079E+04  0.25500000920E-02 0.  1.
    10030    2    1    2    0    0  0.00000000000E+00  0.00000000000E+00 -0.75431195915E+03  0.23284372567E+04  0.22028693849E+04 0.  0.
        5    1    3    3  502    0  0.28417351272E+03 -0.99589906505E+03  0.19137665119E+02  0.10358367986E+04  0.46999998093E+01 0. -1.
       -5    1    3    3    0  502 -0.28417351272E+03  0.99589906505E+03 -0.77344962427E+03  0.12926004581E+04  0.46999998093E+01 0.  1.
</event>
<event>
 5   0  0.1144271E-06  0.2200289E+04  0.7818609E-02  0.8518308E-01
       -1   -1    0    0    0  501  0.00000000000E+00  0.00000000000E+00  0.12239479828E+04  0.12239479828E+04  0.50400001928E-02 0.  1.
        1   -1    0    0  501    0  0.00000000000E+00  0.00000000000E+00 -0.98886393590E+03  0.98886393591E+03  0.50400001928E-02 0. -1.
    10030    2    1    2    0    0  0.00000000000E+00  0.00000000000E+00  0.23508404693E+03  0.22128119187E+04  0.22002890898E+04 0.  0.
        3    1    3    3  502    0  0.11650129046E+03 -0.10936075478E+04  0.89671663419E+02  0.11034450764E+04  0.10100000352E+00 0. -1.
       -3    1    3    3    0  502 -0.11650129046E+03  0.10936075478E+04  0.14541238351E+03  0.11093668423E+04  0.10100000352E+00 0.  1.
</event>
<event>
 5   0  0.2556869E-06  0.2198666E+04  0.7818609E-02  0.8518984E-01
        2   -1    0    0  501    0  0.00000000000E+00  0.00000000000E+00  0.32800446828E+04  0.32800446828E+04  0.25500000920E-02 0.  1.
       -2   -1    0    0    0  501  0.00000000000E+00  0.00000000000E+00 -0.36845012883E+03  0.36845012884E+03  0.25500000920E-02 0. -1.
    10030    2    1    2    0    0  0.00000000000E+00  0.00000000000E+00  0.29115945540E+04  0.36484948117E+04  0.21986658554E+04 0.  0.
        5    1    3    3  502    0  0.50996873721E+03 -0.64094423169E+03  0.23905799143E+03  0.85325754280E+03  0.46999998093E+01 0. -1.
       -5    1    3    3    0  502 -0.50996873721E+03  0.64094423169E+03  0.26725365625E+04  0.27952372689E+04  0.46999998093E+01 0.  1.
</event>
<event>
 5   0  0.1137869E-06  0.2198608E+04  0.7818609E-02  0.8519008E-01
        1   -1    0    0  501    0  0.00000000000E+00  0.00000000000E+00  0.92947906409E+03  0.92947906411E+03  0.50400001928E-02 0.  1.
       -1   -1    0    0    0  501  0.00000000000E+00  0.00000000000E+00 -0.13001572759E+04  0.13001572759E+04  0.50400001928E-02 0. -1.
    10030    2    1    2    0    0  0.00000000000E+00  0.00000000000E+00 -0.37067821182E+03  0.22296363400E+04  0.21986077122E+04 0.  0.
        5    1    3    3  502    0  0.35678108269E+02  0.10529738649E+04  0.13280797766E+03  0.10619260504E+04  0.46999998093E+01 0.  1.
       -5    1    3    3    0  502 -0.35678108269E+02 -0.10529738649E+04 -0.50348618948E+03  0.11677102896E+04  0.46999998093E+01 0. -1.
</event>
<event>
 5   0  0.2556869E-06  0.2200042E+04  0.7818609E-02  0.8518411E-01
        2   -1    0    0  501    0  0.00000000000E+00  0.00000000000E+00  0.95258200157E+03  0.95258200157E+03  0.25500000920E-02 0.  1.
       -2   -1    0    0    0  501  0.00000000000E+00  0.00000000000E+00 -0.12702804900E+04  0.12702804900E+04  0.25500000920E-02 0. -1.
    10030    2    1    2    0    0  0.00000000000E+00  0.00000000000E+00 -0.31769848839E+03  0.22228624915E+04  0.22000421193E+04 0.  0.
        5    1    3    3  502    0 -0.25005604548E+03 -0.98489880306E+03 -0.58449152966E+03  0.11722653780E+04  0.46999998093E+01 0. -1.
       -5    1    3    3    0  502  0.25005604548E+03  0.98489880306E+03  0.26679304127E+03  0.10505971136E+04  0.46999998093E+01 0.  1.
</event>
<event>
 5   0  0.2606154E-06  0.2200379E+04  0.7818609E-02  0.8518271E-01
       -2   -1    0    0    0  501  0.00000000000E+00  0.00000000000E+00  0.63710205341E+03  0.63710205342E+03  0.25500000920E-02 0. -1.
        2   -1    0    0  501    0  0.00000000000E+00  0.00000000000E+00 -0.18998786644E+04  0.18998786644E+04  0.25500000920E-02 0.  1.
    10030    2    1    2    0    0  0.00000000000E+00  0.00000000000E+00 -0.12627766110E+04  0.25369807179E+04  0.22003786932E+04 0.  0.
        2    1    3    3  502    0  0.64031420125E+03  0.48367720929E+02  0.39862197084E+03  0.75580499363E+03  0.25500000920E-02 0. -1.
       -2    1    3    3    0  502 -0.64031420125E+03 -0.48367720929E+02 -0.16613985819E+04  0.17811757242E+04  0.25500000920E-02 0.  1.
</event>
<event>
 5   0  0.1107101E-06  0.2199612E+04  0.7818609E-02  0.8518590E-01
        1   -1    0    0  501    0  0.00000000000E+00  0.00000000000E+00  0.17865146010E+04  0.17865146010E+04  0.50400001928E-02 0. -1.
       -1   -1    0    0    0  501  0.00000000000E+00  0.00000000000E+00 -0.67705739827E+03  0.67705739829E+03  0.50400001928E-02 0.  1.
    10030    2    1    2    0    0  0.00000000000E+00  0.00000000000E+00  0.11094572027E+04  0.24635719993E+04  0.21996117182E+04 0.  0.
        1    1    3    3  502    0  0.62818943816E+03  0.21180610626E+03 -0.42812703261E+03  0.78916193075E+03  0.50400001928E-02 0.  1.
       -1    1    3    3    0  502 -0.62818943816E+03 -0.21180610626E+03  0.15375842353E+04  0.16744100685E+04  0.50400001928E-02 0. -1.
</event>
<event>
 5   0  0.1144271E-06  0.2199713E+04  0.7818609E-02  0.8518548E-01
        1   -1    0    0  501    0  0.00000000000E+00  0.00000000000E+00  0.14029819451E+04  0.14029819451E+04  0.50400001928E-02 0. -1.
       -1   -1    0    0    0  501  0.00000000000E+00  0.00000000000E+00 -0.86222360086E+03  0.86222360087E+03  0.50400001928E-02 0.  1.
    10030    2    1    2    0    0  0.00000000000E+00  0.00000000000E+00  0.54075834425E+03  0.22652055460E+04  0.21997128401E+04 0.  0.
        3    1    3    3  502    0 -0.10815089315E+04  0.84484567604E+02  0.45712032826E+03  0.11771823206E+04  0.10100000352E+00 0.  1.
       -3    1    3    3    0  502  0.10815089315E+04 -0.84484567604E+02  0.83638015996E+02  0.10880232254E+04  0.10100000352E+00 0. -1.
</event>
<event>
 5   0  0.2524749E-06  0.2200603E+04  0.7818609E-02  0.8518177E-01
       -2   -1    0    0    0  501  0.00000000000E+00  0.00000000000E+00  0.11362206216E+04  0.11362206216E+04  0.25500000920E-02 0. -1.
        2   -1    0    0  501    0  0.00000000000E+00  0.00000000000E+00 -0.10655182489E+04  0.10655182489E+04  0.25500000920E-02 0.  1.
    10030    2    1    2    0    0  0.00000000000E+00  0.00000000000E+00  0.70702372667E+02  0.22017388704E+04  0.22006033782E+04 0.  0.
        4    1    3    3  502    0  0.28323507277E+03  0.68053085881E+03  0.85266794010E+03  0.11271151606E+04  0.12699999809E+01 0. -1.
       -4    1    3    3    0  502 -0.28323507277E+03 -0.68053085881E+03 -0.78196556743E+03  0.10746237099E+04  0.12699999809E+01 0.  1.
</event>
<event>
 5   0  0.2524749E-06  0.2209898E+04  0.7818609E-02  0.8514320E-01
        2   -1    0    0  501    0  0.00000000000E+00  0.00000000000E+00  0.16325278082E+04  0.16325278082E+04  0.25500000920E-02 0.  1.
       -2   -1    0    0    0  501  0.00000000000E+00  0.00000000000E+00 -0.74786598089E+03  0.74786598090E+03  0.25500000920E-02 0. -1.
    10030    2    1    2    0    0  0.00000000000E+00  0.00000000000E+00  0.88466182727E+03  0.23803937891E+04  0.22098977448E+04 0.  0.
        4    1    3    3  502    0 -0.78087149995E+03 -0.56528315514E+02 -0.39753938147E+03  0.87806316550E+03  0.12699999809E+01 0. -1.
       -4    1    3    3    0  502  0.78087149995E+03  0.56528315514E+02  0.12822012087E+04  0.15023306236E+04  0.12699999809E+01 0.  1.
</event>
<event>
 5   0  0.2581058E-06  0.2200007E+04  0.7818609E-02  0.8518425E-01
       -2   -1    0    0    0  501  0.00000000000E+00  0.00000000000E+00  0.13378235083E+04  0.13378235083E+04  0.25500000920E-02 0.  1.
        2   -1    0    0  501    0  0.00000000000E+00  0.00000000000E+00 -0.90445977237E+03  0.90445977237E+03  0.25500000920E-02 0. -1.
    10030    2    1    2    0    0  0.00000000000E+00  0.00000000000E+00  0.43336373589E+03  0.22422832806E+04  0.22000068598E+04 0.  0.
        1    1    3    3  502    0 -0.51063219724E+03 -0.35743089176E+03 -0.70710476007E+03  0.94260236843E+03  0.50400001928E-02 0. -1.
       -1    1    3    3    0  502  0.51063219724E+03  0.35743089176E+03  0.11404684960E+04  0.12996809122E+04  0.50400001928E-02 0.  1.
</event>
<event>
 5   0  0.2556869E-06  0.2200715E+04  0.7818609E-02  0.8518131E-01
        2   -1    0    0  501    0  0.00000000000E+00  0.00000000000E+00  0.18376592258E+04  0.18376592258E+04  0.25500000920E-02 0. -1.
       -2   -1    0    0    0  501  0.00000000000E+00  0.00000000000E+00 -0.65887429064E+03  0.65887429064E+03  0.25500000920E-02 0.  1.
    10030    2    1    2    0    0  0.00000000000E+00  0.00000000000E+00  0.11787849352E+04  0.24965335165E+04  0.22007148101E+04 0.  0.
        5    1    3    3  502    0  0.73037252665E+03  0.81977983692E+03  0.67183377729E+03  0.12871929626E+04  0.46999998093E+01 0. -1.
       -5    1    3    3    0  502 -0.73037252665E+03 -0.81977983692E+03  0.50695115790E+03  0.12093405539E+04  0.46999998093E+01 0.  1.
</event>
<event>
 5   0  0.1144271E-06  0.2200197E+04  0.7818609E-02  0.8518346E-01
       -1   -1    0    0    0  501  0.00000000000E+00  0.00000000000E+00  0.11902801335E+04  0.11902801335E+04  0.50400001928E-02 0.  1.
        1   -1    0    0  501    0  0.00000000000E+00  0.00000000000E+00 -0.10167497320E+04  0.10167497320E+04  0.50400001928E-02 0. -1.
    10030    2    1    2    0    0  0.00000000000E+00  0.00000000000E+00  0.17353040156E+03  0.22070298655E+04  0.22001972700E+04 0.  0.
        3    1    3    3  502    0 -0.48150833973E+03 -0.29727495443E+03 -0.85955956358E+03  0.10291089997E+04  0.10100000352E+00 0. -1.
       -3    1    3    3    0  502  0.48150833973E+03  0.29727495443E+03  0.10330899651E+04  0.11779208658E+04  0.10100000352E+00 0.  1.
</event>
<event>
 5   0  0.1107101E-06  0.2203400E+04  0.7818609E-02  0.8517014E-01
        1   -1    0    0  501    0  0.00000000000E+00  0.00000000000E+00  0.29426729593E+04  0.29426729593E+04  0.50400001928E-02 0.  1.
       -1   -1    0    0    0  501  0.00000000000E+00  0.00000000000E+00 -0.41246278190E+03  0.41246278193E+03  0.50400001928E-02 0. -1.
    10030    2    1    2    0    0  0.00000000000E+00  0.00000000000E+00  0.25302101774E+04  0.33551357412E+04  0.22034001680E+04 0.  0.
        1    1    3    3  502    0  0.72397450630E+03  0.27067957710E+03  0.69670876436E+02  0.77605447636E+03  0.50400001928E-02 0. -1.
       -1    1    3    3    0  502 -0.72397450630E+03 -0.27067957710E+03  0.24605393010E+04  0.25790812649E+04  0.50400001928E-02 0.  1.
</event>
<event>
 5   0  0.2606154E-06  0.2202014E+04  0.7818609E-02  0.8517591E-01
        2   -1    0    0  501    0  0.00000000000E+00  0.00000000000E+00  0.11836119992E+04  0.11836119992E+04  0.25500000920E-02 0. -1.
       -2   -1    0    0    0  501  0.00000000000E+00  0.00000000000E+00 -0.10241666286E+04  0.10241666286E+04  0.25500000920E-02 0.  1.
    10030    2    1    2    0    0  0.00000000000E+00  0.00000000000E+00  0.15944537061E+03  0.22077786278E+04  0.22020135430E+04 0.  0.
        2    1    3    3  502    0 -0.75870668762E+03 -0.40154243510E+03 -0.61153413819E+03  0.10539668720E+04  0.25500000920E-02 0.  1.
       -2    1    3    3    0  502  0.75870668762E+03  0.40154243510E+03  0.77097950880E+03  0.11538117559E+04  0.25500000920E-02 0. -1.
</event>
<event>
 5   0  0.1137869E-06  0.2190527E+04  0.7818609E-02  0.8522381E-01
       -1   -1    0    0    0  501  0.00000000000E+00  0.00000000000E+00  0.48542013970E+03  0.48542013973E+03  0.50400001928E-02 0. -1.
        1   -1    0    0  501    0  0.00000000000E+00  0.00000000000E+00 -0.24712660102E+04  0.24712660102E+04  0.50400001928E-02 0.  1.
    10030    2    1    2    0    0  0.00000000000E+00  0.00000000000E+00 -0.19858458705E+04  0.29566861499E+04  0.21905271438E+04 0.  0.
        5    1    3    3  502    0 -0.10311387643E+04  0.13226699636E+03 -0.52762068306E+03  0.11658247659E+04  0.46999998093E+01 0. -1.
       -5    1    3    3    0  502  0.10311387643E+04 -0.13226699636E+03 -0.14582251875E+04  0.17908613841E+04  0.46999998093E+01 0.  1.
</event>
<event>
 5   0  0.1144271E-06  0.2200832E+04  0.7818609E-02  0.8518082E-01
       -1   -1    0    0    0  501  0.00000000000E+00  0.00000000000E+00  0.74421604492E+03  0.74421604494E+03  0.50400001928E-02 0. -1.
        1   -1    0    0  501    0  0.00000000000E+00  0.00000000000E+00 -0.16271026106E+04  0.16271026106E+04  0.50400001928E-02 0.  1.
    10030    2    1    2    0    0  0.00000000000E+00  0.00000000000E+00 -0.88288656571E+03  0.23713186556E+04  0.22008324512E+04 0.  0.
        3    1    3    3  502    0 -0.51679936032E+03 -0.82991371180E+02 -0.14843858248E+04  0.15739664652E+04  0.10100000352E+00 0.  1.
       -3    1    3    3    0  502  0.51679936032E+03  0.82991371180E+02  0.60149925913E+03  0.79735219035E+03  0.10100000352E+00 0. -1.
</event>
<event>
 5   0  0.1082209E-06  0.2198642E+04  0.7818609E-02  0.8518994E-01
       -1   -1    0    0    0  501  0.00000000000E+00  0.00000000000E+00  0.19264199785E+04  0.19264199785E+04  0.50400001928E-02 0.  1.
        1   -1    0    0  501    0  0.00000000000E+00  0.00000000000E+00 -0.62733267509E+03  0.62733267511E+03  0.50400001928E-02 0. -1.
    10030    2    1    2    0    0  0.00000000000E+00  0.00000000000E+00  0.12990873034E+04  0.25537526536E+04  0.21986415793E+04 0.  0.
        2    1    3    3  502    0 -0.39412375325E+03  0.82259783774E+03 -0.63161724954E+02  0.91432496359E+03  0.25500000920E-02 0. -1.
       -2    1    3    3    0  502  0.39412375325E+03 -0.82259783774E+03  0.13622490284E+04  0.16394276900E+04  0.25500000920E-02 0.  1.
</event>
<event>
 5   0  0.2606154E-06  0.2200721E+04  0.7818609E-02  0.8518128E-01
       -2   -1    0    0    0  501  0.00000000000E+00  0.00000000000E+00  0.98223354674E+03  0.98223354674E+03  0.25500000920E-02 0.  1.
        2   -1    0    0  501    0  0.00000000000E+00  0.00000000000E+00 -0.12326936636E+04  0.12326936636E+04  0.25500000920E-02 0. -1.
    10030    2    1    2    0    0  0.00000000000E+00  0.00000000000E+00 -0.25046011683E+03  0.22149272103E+04  0.22007208539E+04 0.  0.
        2    1    3    3  502    0  0.71565329229E+03 -0.13579843681E+03  0.70483155357E+03  0.10136016817E+04  0.25500000920E-02 0.  1.
       -2    1    3    3    0  502 -0.71565329229E+03  0.13579843681E+03 -0.95529167040E+03  0.12013255286E+04  0.25500000920E-02 0. -1.
</event>
<event>
 5   0  0.2532239E-06  0.2202352E+04  0.7818609E-02  0.8517450E-01
        2   -1    0    0  501    0  0.00000000000E+00  0.00000000000E+00  0.19035622362E+04  0.19035622362E+04  0.25500000920E-02 0. -1.
       -2   -1    0    0    0  501  0.00000000000E+00  0.00000000000E+00 -0.63701008443E+03  0.63701008443E+03  0.25500000920E-02 0.  1.
    10030    2    1    2    0    0  0.00000000000E+00  0.00000000000E+00  0.12665521518E+04  0.25405723206E+04  0.22023517801E+04 0.  0.
        3    1    3    3  502    0 -0.35583419368E+03  0.65828197229E+03  0.15651992685E+04  0.17348780616E+04  0.10100000352E+00 0. -1.
       -3    1    3    3    0  502  0.35583419368E+03 -0.65828197229E+03 -0.29864711673E+03  0.80569425899E+03  0.10100000352E+00 0.  1.
</event>
<event>
 5   0  0.1137869E-06  0.2199397E+04  0.7818609E-02  0.8518679E-01
        1   -1    0    0  501    0  0.00000000000E+00  0.00000000000E+00  0.17383831938E+04  0.17383831938E+04  0.50400001928E-02 0.  1.
       -1   -1    0    0    0  501  0.00000000000E+00  0.00000000000E+00 -0.69566758923E+03  0.69566758925E+03  0.50400001928E-02 0. -1.
    10030    2    1    2    0    0  0.00000000000E+00  0.00000000000E+00  0.10427156046E+04  0.24340507830E+04  0.21993970497E+04 0.  0.
        5    1    3    3  502    0  0.55610985033E+03 -0.12316180759E+03 -0.51968860686E+03  0.77105468974E+03  0.46999998093E+01 0. -1.
       -5    1    3    3    0  502 -0.55610985033E+03  0.12316180759E+03  0.15624042114E+04  0.16629960933E+04  0.46999998093E+01 0.  1.
</event>
<event>
 5   0  0.1107101E-06  0.2198368E+04  0.7818609E-02  0.8519108E-01
       -1   -1    0    0    0  501  0.00000000000E+00  0.00000000000E+00  0.50167125249E+03  0.50167125251E+03  0.50400001928E-02 0.  1.
        1   -1    0    0  501    0  0.00000000000E+00  0.00000000000E+00 -0.24083610680E+04  0.24083610681E+04  0.50400001928E-02 0. -1.
    10030    2    1    2    0    0  0.00000000000E+00  0.00000000000E+00 -0.19066898156E+04  0.29100323206E+04  0.21983680433E+04 0.  0.
        1    1    3    3  502    0 -0.52803485579E+03 -0.80958002299E+03 -0.26048590304E+03  0.10010462168E+04  0.50400001928E-02 0.  1.
       -1    1    3    3    0  502  0.52803485579E+03  0.80958002299E+03 -0.16462039125E+04  0.19089861037E+04  0.50400001928E-02 0. -1.
</event>
<event>
 5   0  0.1144271E-06  0.2200936E+04  0.7818609E-02  0.8518039E-01
       -1   -1    0    0    0  501  0.00000000000E+00  0.00000000000E+00  0.57548464009E+03  0.57548464011E+03  0.50400001928E-02 0.  1.
        1   -1    0    0  501    0  0.00000000000E+00  0.00000000000E+00 -0.21043652023E+04  0.21043652023E+04  0.50400001928E-02 0. -1.
    10030    2    1    2    0    0  0.00000000000E+00  0.00000000000E+00 -0.15288805622E+04  0.26798498424E+04  0.22009360291E+04 0.  0.
        3    1    3    3  502    0 -0.95522807607E+03  0.44442266695E+03 -0.37737193905E+03  0.11190986439E+04  0.10100000352E+00 0.  1.
       -3    1    3    3    0  502  0.95522807607E+03 -0.44442266695E+03 -0.11515086231E+04  0.15607511985E+04  0.10100000352E+00 0. -1.
</event>
<event>
 5   0  0.2556869E-06  0.2200344E+04  0.7818609E-02  0.8518285E-01
       -2   -1    0    0    0  501  0.00000000000E+00  0.00000000000E+00  0.63436763708E+03  0.63436763708E+03  0.25500000920E-02 0. -1.
        2   -1    0    0  501    0  0.00000000000E+00  0.00000000000E+00 -0.19080076071E+04  0.19080076071E+04  0.25500000920E-02 0.  1.
    10030    2    1    2    0    0  0.00000000000E+00  0.00000000000E+00 -0.12736399700E+04  0.25423752442E+04  0.22003438615E+04 0.  0.
        5    1    3    3  502    0  0.85113271340E+03 -0.64618807180E+03 -0.93894225132E+03  0.14225401791E+04  0.46999998093E+01 0. -1.
       -5    1    3    3    0  502 -0.85113271340E+03  0.64618807180E+03 -0.33469771868E+03  0.11198350650E+04  0.46999998093E+01 0.  1.
</event>
<event>
 5   0  0.8905000E-07  0.2199996E+04  0.7818609E-02  0.8518430E-01
        3   -1    0    0  501    0  0.00000000000E+00  0.00000000000E+00  0.12893216182E+04  0.12893216221E+04  0.10100000352E+00 0.  1.
       -3   -1    0    0    0  501  0.00000000000E+00  0.00000000000E+00 -0.93847431977E+03  0.93847432520E+03  0.10100000352E+00 0. -1.
    10030    2    1    2    0    0  0.00000000000E+00  0.00000000000E+00  0.35084729839E+03  0.22277959473E+04  0.21999956718E+04 0.  0.
        1    1    3    3  502    0  0.79588604706E+02  0.84350454757E+03 -0.53498324686E+03  0.10020186337E+04  0.50400001928E-02 0. -1.
       -1    1    3    3    0  502 -0.79588604706E+02 -0.84350454757E+03  0.88583054525E+03  0.12257773137E+04  0.50400001928E-02 0.  1.
</event>
<event>
 5   0  0.2606154E-06  0.2199815E+04  0.7818609E-02  0.8518505E-01
       -2   -1    0    0    0  501  0.00000000000E+00  0.00000000000E+00  0.16882395456E+04  0.16882395456E+04  0.25500000920E-02 0. -1.
        2   -1    0    0  501    0  0.00000000000E+00  0.00000000000E+00 -0.71660214657E+03  0.71660214658E+03  0.25500000920E-02 0.  1.
    10030    2    1    2    0    0  0.00000000000E+00  0.00000000000E+00  0.97163739907E+03  0.24048416922E+04  0.21998146125E+04 0.  0.
        2    1    3    3  502    0  0.21133274950E+03  0.77999583489E+03 -0.32987485699E+03  0.87285305449E+03  0.25500000920E-02 0.  1.
       -2    1    3    3    0  502 -0.21133274950E+03 -0.77999583489E+03  0.13015122561E+04  0.15319886377E+04  0.25500000920E-02 0. -1.
</event>
<event>
 5   0  0.2606154E-06  0.2200237E+04  0.7818609E-02  0.8518329E-01
        2   -1    0    0  501    0  0.00000000000E+00  0.00000000000E+00  0.14938596541E+04  0.14938596541E+04  0.25500000920E-02 0. -1.
       -2   -1    0    0    0  501  0.00000000000E+00  0.00000000000E+00 -0.81015689522E+03  0.81015689523E+03  0.25500000920E-02 0.  1.
    10030    2    1    2    0    0  0.00000000000E+00  0.00000000000E+00  0.68370275892E+03  0.23040165494E+04  0.22002369866E+04 0.  0.
        2    1    3    3  502    0 -0.33670571762E+03  0.10133280021E+04  0.61901727541E+03  0.12342555519E+04  0.25500000920E-02 0. -1.
       -2    1    3    3    0  502  0.33670571762E+03 -0.10133280021E+04  0.64685483518E+02  0.10697609975E+04  0.25500000920E-02 0.  1.
</event>
<event>
 5   0  0.2556869E-06  0.2200078E+04  0.7818609E-02  0.8518396E-01
       -2   -1    0    0    0  501  0.00000000000E+00  0.00000000000E+00  0.15885413856E+04  0.15885413856E+04  0.25500000920E-02 0. -1.
        2   -1    0    0  501    0  0.00000000000E+00  0.00000000000E+00 -0.76175880675E+03  0.76175880675E+03  0.25500000920E-02 0.  1.
    10030    2    1    2    0    0  0.00000000000E+00  0.00000000000E+00  0.82678257884E+03  0.23503001923E+04  0.22000776262E+04 0.  0.
        5    1    3    3  502    0 -0.81796139139E+03 -0.61262371941E+03  0.84824137793E+03  0.13281205460E+04  0.46999998093E+01 0. -1.
       -5    1    3    3    0  502  0.81796139139E+03  0.61262371941E+03 -0.21458799096E+02  0.10221796464E+04  0.46999998093E+01 0.  1.
</event>
<event>
 5   0  0.2581058E-06  0.2191012E+04  0.7818609E-02  0.8522178E-01
       -2   -1    0    0    0  501  0.00000000000E+00  0.00000000000E+00  0.11866418088E+04  0.11866418088E+04  0.25500000920E-02 0.  1.
        2   -1    0    0  501    0  0.00000000000E+00  0.00000000000E+00 -0.10113699062E+04  0.10113699062E+04  0.25500000920E-02 0. -1.
    10030    2    1    2    0    0  0.00000000000E+00  0.00000000000E+00  0.17527190264E+03  0.21980117150E+04  0.21910123824E+04 0.  0.
        1    1    3    3  502    0 -0.30815257737E+02 -0.85820396214E+03 -0.59473563098E+03  0.10445927874E+04  0.50400001928E-02 0. -1.
       -1    1    3    3    0  502  0.30815257737E+02  0.85820396214E+03  0.77000753362E+03  0.11534189276E+04  0.50400001928E-02 0.  1.
</event>
<event>
 5   0  0.2606154E-06  0.2200399E+04  0.7818609E-02  0.8518262E-01
        2   -1    0    0  501    0  0.00000000000E+00  0.00000000000E+00  0.24985411126E+04  0.24985411126E+04  0.25500000920E-02 0. -1.
       -2   -1    0    0    0  501  0.00000000000E+00  0.00000000000E+00 -0.48445821874E+03  0.48445821875E+03  0.25500000920E-02 0.  1.
    10030    2    1    2    0    0  0.00000000000E+00  0.00000000000E+00  0.20140828938E+04  0.29829993313E+04  0.22003988519E+04 0.  0.
        2    1    3    3  502    0 -0.32630711114E+03 -0.10453380575E+04  0.86337447753E+03  0.13944975703E+04  0.25500000920E-02 0.  1.
       -2    1    3    3    0  502  0.32630711114E+03  0.10453380575E+04  0.11507084163E+04  0.15885017610E+04  0.25500000920E-02 0. -1.
</event>
<event>
 5   0  0.2581058E-06  0.2199646E+04  0.7818609E-02  0.8518576E-01
        2   -1    0    0  501    0  0.00000000000E+00  0.00000000000E+00  0.18007620862E+04  0.18007620862E+04  0.25500000920E-02 0. -1.
       -2   -1    0    0    0  501  0.00000000000E+00  0.00000000000E+00 -0.67172136269E+03  0.67172136269E+03  0.25500000920E-02 0.  1.
    10030    2    1    2    0    0  0.00000000000E+00  0.00000000000E+00  0.11290407235E+04  0.24724834489E+04  0.21996457555E+04 0.  0.
        1    1    3    3  502    0  0.22647018911E+03  0.67360465086E+03 -0.37898703138E+03  0.80539626408E+03  0.50400001928E-02 0.  1.
       -1    1    3    3    0  502 -0.22647018911E+03 -0.67360465086E+03  0.15080277549E+04  0.16670871848E+04  0.50400001928E-02 0. -1.
</event>
<event>
 5   0  0.1146827E-06  0.2199885E+04  0.7818609E-02  0.8518476E-01
       -1   -1    0    0    0  501  0.00000000000E+00  0.00000000000E+00  0.10964543395E+04  0.10964543395E+04  0.50400001928E-02 0. -1.
        1   -1    0    0  501    0  0.00000000000E+00  0.00000000000E+00 -0.11034417215E+04  0.11034417215E+04  0.50400001928E-02 0.  1.
    10030    2    1    2    0    0  0.00000000000E+00  0.00000000000E+00 -0.69873820119E+01  0.21998960610E+04  0.21998849642E+04 0.  0.
        4    1    3    3  502    0 -0.39508901710E+03  0.59770950988E+03  0.83108817331E+03  0.10972972042E+04  0.12699999809E+01 0. -1.
       -4    1    3    3    0  502  0.39508901710E+03 -0.59770950988E+03 -0.83807555532E+03  0.11025988568E+04  0.12699999809E+01 0.  1.
</event>
<event>
 5   0  0.1146827E-06  0.2199992E+04  0.7818609E-02  0.8518431E-01
        1   -1    0    0  501    0  0.00000000000E+00  0.00000000000E+00  0.19179509194E+04  0.19179509194E+04  0.50400001928E-02 0. -1.
       -1   -1    0    0    0  501  0.00000000000E+00  0.00000000000E+00 -0.63087730929E+03  0.63087730932E+03  0.50400001928E-02 0.  1.
    10030    2    1    2    0    0  0.00000000000E+00  0.00000000000E+00  0.12870736101E+04  0.25488282288E+04  0.21999924686E+04 0.  0.
        4    1    3    3  502    0  0.43157864323E+03  0.65432512356E+03  0.15376501279E+04  0.17259116493E+04  0.12699999809E+01 0. -1.
       -4    1    3    3    0  502 -0.43157864323E+03 -0.65432512356E+03 -0.25057651771E+03  0.82291657945E+03  0.12699999809E+01 0.  1.
</event>
<event>
 5   0  0.1146827E-06  0.2198865E+04  0.7818609E-02  0.8518901E-01
        1   -1    0    0  501    0  0.00000000000E+00  0.00000000000E+00  0.18386549622E+04  0.18386549622E+04  0.50400001928E-02 0. -1.
       -1   -1    0    0    0  501  0.00000000000E+00  0.00000000000E+00 -0.65741085963E+03  0.65741085965E+03  0.50400001928E-02 0.  1.
    10030    2    1    2    0    0  0.00000000000E+00  0.00000000000E+00  0.11812441026E+04  0.24960658219E+04  0.21988649247E+04 0.  0.
        4    1    3    3  502    0 -0.37126619059E+03  0.48103963715E+03  0.16307123416E+04  0.17402477038E+04  0.12699999809E+01 0. -1.
       -4    1    3    3    0  502  0.37126619059E+03 -0.48103963715E+03 -0.44946823900E+03  0.75581811804E+03  0.12699999809E+01 0.  1.
</event>
<event>
 5   0  0.2524749E-06  0.2201050E+04  0.7818609E-02  0.8517991E-01
       -2   -1    0    0    0  501  0.00000000000E+00  0.00000000000E+00  0.79611768199E+03  0.79611768200E+03  0.25500000920E-02 0.  1.
        2   -1    0    0  501    0  0.00000000000E+00  0.00000000000E+00 -0.15213269698E+04  0.15213269698E+04  0.25500000920E-02 0. -1.
    10030    2    1    2    0    0  0.00000000000E+00  0.00000000000E+00 -0.72520928780E+03  0.23174446518E+04  0.22010500228E+04 0.  0.
        4    1    3    3  502    0 -0.48078078675E+03  0.64345583832E+03 -0.11546962978E+04  0.14065954407E+04  0.12699999809E+01 0. -1.
       -4    1    3    3    0  502  0.48078078675E+03 -0.64345583832E+03  0.42948700996E+03  0.91084921112E+03  0.12699999809E+01 0.  1.
</event>
<event>
 5   0  0.1137869E-06  0.2199658E+04  0.7818609E-02  0.8518570E-01
        1   -1    0    0  501    0  0.00000000000E+00  0.00000000000E+00  0.18495827553E+04  0.18495827553E+04  0.50400001928E-02 0. -1.
       -1   -1    0    0    0  501  0.00000000000E+00  0.00000000000E+00 -0.65399850196E+03  0.65399850198E+03  0.50400001928E-02 0.  1.
    10030    2    1    2    0    0  0.00000000000E+00  0.00000000000E+00  0.11955842533E+04  0.25035812573E+04  0.21996584746E+04 0.  0.
        5    1    3    3  502    0  0.36506885889E+03  0.10315901148E+04  0.72324296462E+03  0.13116996274E+04  0.46999998093E+01 0. -1.
       -5    1    3    3    0  502 -0.36506885889E+03 -0.10315901148E+04  0.47234128871E+03  0.11918816299E+04  0.46999998093E+01 0.  1.
</event>
<event>
 5   0  0.1082209E-06  0.2197899E+04  0.7818609E-02  0.8519303E-01
        1   -1    0    0  501    0  0.00000000000E+00  0.00000000000E+00  0.10382692914E+04  0.10382692915E+04  0.50400001928E-02 0. -1.
       -1   -1    0    0    0  501  0.00000000000E+00  0.00000000000E+00 -0.11631761849E+04  0.11631761849E+04  0.50400001928E-02 0.  1.
    10030    2    1    2    0    0  0.00000000000E+00  0.00000000000E+00 -0.12490689344E+03  0.22014454764E+04  0.21978990999E+04 0.  0.
        2    1    3    3  502    0 -0.72359449906E+03  0.49746218447E+03  0.59939447041E+03  0.10631704262E+04  0.25500000920E-02 0. -1.
       -2    1    3    3    0  502  0.72359449906E+03 -0.49746218447E+03 -0.72430136385E+03  0.11382750501E+04  0.25500000920E-02 0.  1.
</event>
<event>
 5   0  0.1146827E-06  0.2199487E+04  0.7818609E-02  0.8518642E-01
       -1   -1    0    0    0  501  0.00000000000E+00  0.00000000000E+00  0.10002494172E+04  0.10002494172E+04  0.50400001928E-02 0. -1.
        1   -1    0    0  501    0  0.00000000000E+00  0.00000000000E+00 -0.12091345591E+04  0.12091345591E+04  0.50400001928E-02 0.  1.
    10030    2    1    2    0    0  0.00000000000E+00  0.00000000000E+00 -0.20888514191E+03  0.22093839763E+04  0.21994873385E+04 0.  0.
        4    1    3    3  502    0 -0.23732926583E+03  0.35515267269E+03 -0.11224005826E+04  0.12009343371E+04  0.12699999809E+01 0.  1.
       -4    1    3    3    0  502  0.23732926583E+03 -0.35515267269E+03  0.91351544072E+03  0.10084496391E+04  0.12699999809E+01 0. -1.
</event>
<event>
 5   0  0.1146827E-06  0.2199009E+04  0.7818609E-02  0.8518841E-01
        1   -1    0    0  501    0  0.00000000000E+00  0.00000000000E+00  0.20212021204E+04  0.20212021205E+04  0.50400001928E-02 0.  1.
       -1   -1    0    0    0  501  0.00000000000E+00  0.00000000000E+00 -0.59811415738E+03  0.59811415740E+03  0.50400001928E-02 0. -1.
    10030    2    1    2    0    0  0.00000000000E+00  0.00000000000E+00  0.14230879631E+04  0.26193162779E+04  0.21990085068E+04 0.  0.
        4    1    3    3  502    0  0.88048186373E+03  0.48233221952E+03  0.12455862085E+04  0.15998060189E+04  0.12699999809E+01 0.  1.
       -4    1    3    3    0  502 -0.88048186373E+03 -0.48233221952E+03  0.17750175456E+03  0.10195102590E+04  0.12699999809E+01 0. -1.
</event>
<event>
 5   0  0.2532239E-06  0.2200497E+04  0.7818609E-02  0.8518221E-01
       -2   -1    0    0    0  501  0.00000000000E+00  0.00000000000E+00  0.71699457752E+03  0.71699457752E+03  0.25500000920E-02 0. -1.
        2   -1    0    0  501    0  0.00000000000E+00  0.00000000000E+00 -0.16883622538E+04  0.16883622538E+04  0.25500000920E-02 0.  1.
    10030    2    1    2    0    0  0.00000000000E+00  0.00000000000E+00 -0.97136767628E+03  0.24053568313E+04  0.22004968356E+04 0.  0.
        3    1    3    3  502    0 -0.24638689230E+03  0.47791166377E+03  0.56359862689E+03  0.77894125677E+03  0.10100000352E+00 0. -1.
       -3    1    3    3    0  502  0.24638689230E+03 -0.47791166377E+03 -0.15349663032E+04  0.16264155746E+04  0.10100000352E+00 0.  1.
</event>
<event>
 5   0  0.1082209E-06  0.2199552E+04  0.7818609E-02  0.8518614E-01
        1   -1    0    0  501    0  0.00000000000E+00  0.00000000000E+00  0.13494915007E+04  0.13494915007E+04  0.50400001928E-02 0. -1.
       -1   -1    0    0    0  501  0.00000000000E+00  0.00000000000E+00 -0.89626920980E+03  0.89626920981E+03  0.50400001928E-02 0.  1.
    10030    2    1    2    0    0  0.00000000000E+00  0.00000000000E+00  0.45322229090E+03  0.22457607105E+04  0.21995523917E+04 0.  0.
        2    1    3    3  502    0 -0.70340484457E+03 -0.28604060457E+03  0.10388806979E+04  0.12868063985E+04  0.25500000920E-02 0. -1.
       -2    1    3    3    0  502  0.70340484457E+03  0.28604060457E+03 -0.58565840698E+03  0.95895431200E+03  0.25500000920E-02 0.  1.
</event>
<event>
 5   0  0.2532239E-06  0.2200827E+04  0.7818609E-02  0.8518084E-01
       -2   -1    0    0    0  501  0.00000000000E+00  0.00000000000E+00  0.63727935460E+03  0.63727935461E+03  0.25500000920E-02 0.  1.
        2   -1    0    0  501    0  0.00000000000E+00  0.00000000000E+00 -0.19001241611E+04  0.19001241611E+04  0.25500000920E-02 0. -1.
    10030    2    1    2    0    0  0.00000000000E+00  0.00000000000E+00 -0.12628448065E+04  0.25374035158E+04  0.22008270255E+04 0.  0.
        3    1    3    3  502    0  0.96823646747E+03 -0.50611714730E+03 -0.78295056723E+03  0.13441160756E+04  0.10100000352E+00 0. -1.
       -3    1    3    3    0  502 -0.96823646747E+03  0.50611714730E+03 -0.47989423932E+03  0.11932874402E+04  0.10100000352E+00 0.  1.
</event>
<event>
 5   0  0.1137869E-06  0.2200399E+04  0.7818609E-02  0.8518262E-01
       -1   -1    0    0    0  501  0.00000000000E+00  0.00000000000E+00  0.88406004919E+03  0.88406004921E+03  0.50400001928E-02 0. -1.
        1   -1    0    0  501    0  0.00000000000E+00  0.00000000000E+00 -0.13691816408E+04  0.13691816408E+04  0.50400001928E-02 0.  1.
    10030    2    1    2    0    0  0.00000000000E+00  0.00000000000E+00 -0.48512159159E+03  0.22532416900E+04  0.22003988627E+04 0.  0.
        5    1    3    3  502    0  0.35460965276E+03  0.43566747402E+03 -0.12112501606E+04  0.13351790873E+04  0.46999998093E+01 0.  1.
       -5    1    3    3    0  502 -0.35460965276E+03 -0.43566747402E+03  0.72612856898E+03  0.91806260268E+03  0.46999998093E+01 0. -1.
</event>
<event>
 5   0  0.2532239E-06  0.2199797E+04  0.7818609E-02  0.8518512E-01
        2   -1    0    0  501    0  0.00000000000E+00  0.00000000000E+00  0.14063759434E+04  0.14063759434E+04  0.25500000920E-02 0.  1.
       -2   -1    0    0    0  501  0.00000000000E+00  0.00000000000E+00 -0.86020889727E+03  0.86020889728E+03  0.25500000920E-02 0. -1.
    10030    2    1    2    0    0  0.00000000000E+00  0.00000000000E+00  0.54616704612E+03  0.22665848407E+04  0.21997973538E+04 0.  0.
        3    1    3    3  502    0  0.70266877392E+03  0.26956729491E+03 -0.55337059495E+03  0.93414611163E+03  0.10100000352E+00 0. -1.
       -3    1    3    3    0  502 -0.70266877392E+03 -0.26956729491E+03  0.10995376411E+04  0.13324387290E+04  0.10100000352E+00 0.  1.
</event>
<event>
 5   0  0.1144271E-06  0.2198125E+04  0.7818609E-02  0.8519209E-01
       -1   -1    0    0    0  501  0.00000000000E+00  0.00000000000E+00  0.22261769307E+04  0.22261769307E+04  0.50400001928E-02 0.  1.
        1   -1    0    0  501    0  0.00000000000E+00  0.00000000000E+00 -0.54260659087E+03  0.54260659089E+03  0.50400001928E-02 0. -1.
    10030    2    1    2    0    0  0.00000000000E+00  0.00000000000E+00  0.16835703399E+04  0.27687835216E+04  0.21981249055E+04 0.  0.
        3    1    3    3  502    0 -0.29946028397E+03 -0.23802597890E+03 -0.45604600355E+03  0.59524011614E+03  0.10100000352E+00 0. -1.
       -3    1    3    3    0  502  0.29946028397E+03  0.23802597890E+03  0.21396163434E+04  0.21735434055E+04  0.10100000352E+00 0.  1.
</event>
<event>
 5   0  0.1137869E-06  0.2200362E+04  0.7818609E-02  0.8518277E-01
        1   -1    0    0  501    0  0.00000000000E+00  0.00000000000E+00  0.12017235949E+04  0.12017235949E+04  0.50400001928E-02 0. -1.
       -1   -1    0    0    0  501  0.00000000000E+00  0.00000000000E+00 -0.10072188393E+04  0.10072188393E+04  0.50400001928E-02 0.  1.
    10030    2    1    2    0    0  0.00000000000E+00  0.00000000000E+00  0.19450475566E+03  0.22089424342E+04  0.22003623742E+04 0.  0.
        5    1    3    3  502    0 -0.36517657515E+02  0.10933589995E+04 -0.19860621318E+02  0.10941590266E+04  0.46999998093E+01 0.  1.
       -5    1    3    3    0  502  0.36517657515E+02 -0.10933589995E+04  0.21436537698E+03  0.11147834077E+04  0.46999998093E+01 0. -1.
</event>
<event>
 5   0  0.2556869E-06  0.2200128E+04  0.7818609E-02  0.8518375E-01
        2   -1    0    0  501    0  0.00000000000E+00  0.00000000000E+00  0.91360270275E+03  0.91360270275E+03  0.25500000920E-02 0. -1.
       -2   -1    0    0    0  501  0.00000000000E+00  0.00000000000E+00 -0.13245811944E+04  0.13245811944E+04  0.25500000920E-02 0.  1.
    10030    2    1    2    0    0  0.00000000000E+00  0.00000000000E+00 -0.41097849167E+03  0.22381838972E+04  0.22001281410E+04 0.  0.
        5    1    3    3  502    0  0.18127306707E+03  0.10824211592E+04 -0.12920296349E+03  0.11050841536E+04  0.46999998093E+01 0. -1.
       -5    1    3    3    0  502 -0.18127306707E+03 -0.10824211592E+04 -0.28177552818E+03  0.11330997436E+04  0.46999998093E+01 0.  1.
</event>
<event>
 5   0  0.1144271E-06  0.2203091E+04  0.7818609E-02  0.8517143E-01
       -1   -1    0    0    0  501  0.00000000000E+00  0.00000000000E+00  0.10278958535E+04  0.10278958535E+04  0.50400001928E-02 0.  1.
        1   -1    0    0  501    0  0.00000000000E+00  0.00000000000E+00 -0.11804720477E+04  0.11804720477E+04  0.50400001928E-02 0. -1.
    10030    2    1    2    0    0  0.00000000000E+00  0.00000000000E+00 -0.15257619424E+03  0.22083679012E+04  0.22030908497E+04 0.  0.
        3    1    3    3  502    0  0.82991855718E+03  0.23289028785E+03 -0.76378777367E+03  0.11516833207E+04  0.10100000352E+00 0. -1.
       -3    1    3    3    0  502 -0.82991855718E+03 -0.23289028785E+03  0.61121157943E+03  0.10566845805E+04  0.10100000352E+00 0.  1.
</event>
<event>
 5   0  0.1082209E-06  0.2200651E+04  0.7818609E-02  0.8518157E-01
       -1   -1    0    0    0  501  0.00000000000E+00  0.00000000000E+00  0.44988735729E+03  0.44988735731E+03  0.50400001928E-02 0. -1.
        1   -1    0    0  501    0  0.00000000000E+00  0.00000000000E+00 -0.26911551491E+04  0.26911551491E+04  0.50400001928E-02 0.  1.
    10030    2    1    2    0    0  0.00000000000E+00  0.00000000000E+00 -0.22412677918E+04  0.31410425065E+04  0.22006514291E+04 0.  0.
        2    1    3    3  502    0  0.67226865847E+03  0.50145442076E+03 -0.21372603444E+04  0.22959275827E+04  0.25500000920E-02 0.  1.
       -2    1    3    3    0  502 -0.67226865847E+03 -0.50145442076E+03 -0.10400744748E+03  0.84511492378E+03  0.25500000920E-02 0. -1.
</event>
<event>
 5   0  0.2606154E-06  0.2201215E+04  0.7818609E-02  0.8517923E-01
       -2   -1    0    0    0  501  0.00000000000E+00  0.00000000000E+00  0.78824901069E+03  0.78824901069E+03  0.25500000920E-02 0. -1.
        2   -1    0    0  501    0  0.00000000000E+00  0.00000000000E+00 -0.15367439107E+04  0.15367439107E+04  0.25500000920E-02 0.  1.
    10030    2    1    2    0    0  0.00000000000E+00  0.00000000000E+00 -0.74849489999E+03  0.23249929214E+04  0.22012149984E+04 0.  0.
        2    1    3    3  502    0  0.49293128492E+03 -0.95372750111E+03 -0.11821317728E+03  0.10800702539E+04  0.25500000920E-02 0. -1.
       -2    1    3    3    0  502 -0.49293128492E+03  0.95372750111E+03 -0.63028172271E+03  0.12449226675E+04  0.25500000920E-02 0.  1.
</event>
<event>
 5   0  0.2606154E-06  0.2203211E+04  0.7818609E-02  0.8517093E-01
       -2   -1    0    0    0  501  0.00000000000E+00  0.00000000000E+00  0.48063648692E+03  0.48063648692E+03  0.25500000920E-02 0. -1.
        2   -1    0    0  501    0  0.00000000000E+00  0.00000000000E+00 -0.25248487230E+04  0.25248487230E+04  0.25500000920E-02 0.  1.
    10030    2    1    2    0    0  0.00000000000E+00  0.00000000000E+00 -0.20442122360E+04  0.30054852099E+04  0.22032107663E+04 0.  0.
        2    1    3    3  502    0  0.10711426153E+04  0.24647208129E+03 -0.92149747503E+03  0.14343125829E+04  0.25500000920E-02 0. -1.
       -2    1    3    3    0  502 -0.10711426153E+04 -0.24647208129E+03 -0.11227147610E+04  0.15711726270E+04  0.25500000920E-02 0.  1.
</event>
<event>
 5   0  0.2524749E-06  0.2199869E+04  0.7818609E-02  0.8518483E-01
       -2   -1    0    0    0  501  0.00000000000E+00  0.00000000000E+00  0.47309386068E+03  0.47309386068E+03  0.25500000920E-02 0. -1.
        2   -1    0    0  501    0  0.00000000000E+00  0.00000000000E+00 -0.25573265659E+04  0.25573265659E+04  0.25500000920E-02 0.  1.
    10030    2    1    2    0    0  0.00000000000E+00  0.00000000000E+00 -0.20842327052E+04  0.30304204266E+04  0.21998686307E+04 0.  0.
        4    1    3    3  502    0 -0.16299093158E+03  0.45175514247E+03 -0.24052642513E+04  0.24527426453E+04  0.12699999809E+01 0.  1.
       -4    1    3    3    0  502  0.16299093158E+03 -0.45175514247E+03  0.32103154608E+03  0.57767778130E+03  0.12699999809E+01 0. -1.
</event>
<event>
 5   0  0.2581058E-06  0.2201272E+04  0.7818609E-02  0.8517899E-01
       -2   -1    0    0    0  501  0.00000000000E+00  0.00000000000E+00  0.77849446481E+03  0.77849446481E+03  0.25500000920E-02 0.  1.
        2   -1    0    0  501    0  0.00000000000E+00  0.00000000000E+00 -0.15560794083E+04  0.15560794083E+04  0.25500000920E-02 0. -1.
    10030    2    1    2    0    0  0.00000000000E+00  0.00000000000E+00 -0.77758494348E+03  0.23345738731E+04  0.22012716381E+04 0.  0.
        1    1    3    3  502    0 -0.26088385368E+02  0.77311870589E+02  0.77528239914E+03  0.77956431911E+03  0.50400001928E-02 0.  1.
       -1    1    3    3    0  502  0.26088385368E+02 -0.77311870589E+02 -0.15528673426E+04  0.15550095540E+04  0.50400001928E-02 0. -1.
</event>
<event>
 5   0  0.8905000E-07  0.2199595E+04  0.7818609E-02  0.8518597E-01
        4   -1    0    0  501    0  0.00000000000E+00  0.00000000000E+00  0.17384948454E+04  0.17384953092E+04  0.12699999809E+01 0. -1.
       -4   -1    0    0    0  501  0.00000000000E+00  0.00000000000E+00 -0.69574697110E+03  0.69574813021E+03  0.12699999809E+01 0.  1.
    10030    2    1    2    0    0  0.00000000000E+00  0.00000000000E+00  0.10427478743E+04  0.24342434394E+04  0.21995949612E+04 0.  0.
        5    1    3    3  502    0  0.55584751775E+03  0.50230706614E+03 -0.36965897558E+03  0.83543324085E+03  0.46999998093E+01 0.  1.
       -5    1    3    3    0  502 -0.55584751775E+03 -0.50230706614E+03  0.14124068498E+04  0.15988101986E+04  0.46999998093E+01 0. -1.
</event>
<event>
 5   0  0.2524749E-06  0.2199599E+04  0.7818609E-02  0.8518595E-01
       -2   -1    0    0    0  501  0.00000000000E+00  0.00000000000E+00  0.70623680829E+03  0.70623680830E+03  0.25500000920E-02 0.  1.
        2   -1    0    0  501    0  0.00000000000E+00  0.00000000000E+00 -0.17126817766E+04  0.17126817766E+04  0.25500000920E-02 0. -1.
    10030    2    1    2    0    0  0.00000000000E+00  0.00000000000E+00 -0.10064449683E+04  0.24189185849E+04  0.21995989739E+04 0.  0.
        4    1    3    3  502    0  0.13530938366E+03  0.10738459911E+04 -0.28855813119E+03  0.11201434059E+04  0.12699999809E+01 0.  1.
       -4    1    3    3    0  502 -0.13530938366E+03 -0.10738459911E+04 -0.71788683712E+03  0.12987751790E+04  0.12699999809E+01 0. -1.
</event>
<event>
 5   0  0.2532239E-06  0.2199821E+04  0.7818609E-02  0.8518503E-01
        2   -1    0    0  501    0  0.00000000000E+00  0.00000000000E+00  0.14901122221E+04  0.14901122221E+04  0.25500000920E-02 0.  1.
       -2   -1    0    0    0  501  0.00000000000E+00  0.00000000000E+00 -0.81188703907E+03  0.81188703908E+03  0.25500000920E-02 0. -1.
    10030    2    1    2    0    0  0.00000000000E+00  0.00000000000E+00  0.67822518306E+03  0.23019992612E+04  0.21998207199E+04 0.  0.
        3    1    3    3  502    0  0.42045914992E+03  0.85953678197E+03 -0.22849621624E+03  0.98376821831E+03  0.10100000352E+00 0. -1.
       -3    1    3    3    0  502 -0.42045914992E+03 -0.85953678197E+03  0.90672139930E+03  0.13182310429E+04  0.10100000352E+00 0.  1.
</event>
<event>
 5   0  0.8905000E-07  0.2204605E+04  0.7818609E-02  0.8516514E-01
        3   -1    0    0  501    0  0.00000000000E+00  0.00000000000E+00  0.10790425802E+04  0.10790425849E+04  0.10100000352E+00 0.  1.
       -3   -1    0    0    0  501  0.00000000000E+00  0.00000000000E+00 -0.11260639998E+04  0.11260640043E+04  0.10100000352E+00 0. -1.
    10030    2    1    2    0    0  0.00000000000E+00  0.00000000000E+00 -0.47021419612E+02  0.22051065893E+04  0.22046051928E+04 0.  0.
        3    1    3    3  502    0 -0.82830065481E+03  0.65153238041E+02 -0.74806767675E+03  0.11180036576E+04  0.10100000352E+00 0. -1.
       -3    1    3    3    0  502  0.82830065481E+03 -0.65153238041E+02  0.70104625714E+03  0.10871029317E+04  0.10100000352E+00 0.  1.
</event>
<event>
 5   0  0.8905000E-07  0.2200101E+04  0.7818609E-02  0.8518386E-01
       -3   -1    0    0    0  501  0.00000000000E+00  0.00000000000E+00  0.71552264187E+03  0.71552264900E+03  0.10100000352E+00 0.  1.
        3   -1    0    0  501    0  0.00000000000E+00  0.00000000000E+00 -0.16912268077E+04  0.16912268107E+04  0.10100000352E+00 0. -1.
    10030    2    1    2    0    0  0.00000000000E+00  0.00000000000E+00 -0.97570416583E+03  0.24067494597E+04  0.22001009846E+04 0.  0.
        3    1    3    3  502    0 -0.18646544621E+03  0.84045247237E+03 -0.12369973773E+04  0.15070807021E+04  0.10100000352E+00 0. -1.
       -3    1    3    3    0  502  0.18646544621E+03 -0.84045247237E+03  0.26129321145E+03  0.89966875765E+03  0.10100000352E+00 0.  1.
</event>
<event>
 5   0  0.1144271E-06  0.2200420E+04  0.7818609E-02  0.8518253E-01
       -1   -1    0    0    0  501  0.00000000000E+00  0.00000000000E+00  0.82608234975E+03  0.82608234977E+03  0.50400001928E-02 0.  1.
        1   -1    0    0  501    0  0.00000000000E+00  0.00000000000E+00 -0.14653040663E+04  0.14653040663E+04  0.50400001928E-02 0. -1.
    10030    2    1    2    0    0  0.00000000000E+00  0.00000000000E+00 -0.63922171652E+03  0.22913864161E+04  0.22004198019E+04 0.  0.
        3    1    3    3  502    0 -0.30838360882E+03  0.42908663031E+03 -0.13245158571E+04  0.14260287699E+04  0.10100000352E+00 0. -1.
       -3    1    3    3    0  502  0.30838360882E+03 -0.42908663031E+03  0.68529414059E+03  0.86535764620E+03  0.10100000352E+00 0.  1.
</event>
<event>
 5   0  0.2556869E-06  0.2199020E+04  0.7818609E-02  0.8518836E-01
        2   -1    0    0  501    0  0.00000000000E+00  0.00000000000E+00  0.11094360890E+04  0.11094360890E+04  0.25500000920E-02 0.  1.
       -2   -1    0    0    0  501  0.00000000000E+00  0.00000000000E+00 -0.10896724877E+04  0.10896724877E+04  0.25500000920E-02 0. -1.
    10030    2    1    2    0    0  0.00000000000E+00  0.00000000000E+00  0.19763601347E+02  0.21991085767E+04  0.21990197662E+04 0.  0.
        5    1    3    3  502    0 -0.90147973705E+03 -0.61611702951E+03 -0.11909620622E+03  0.10983951505E+04  0.46999998093E+01 0. -1.
       -5    1    3    3    0  502  0.90147973705E+03  0.61611702951E+03  0.13885980757E+03  0.11007134262E+04  0.46999998093E+01 0.  1.
</event>
<event>
 5   0  0.1146827E-06  0.2189170E+04  0.7818609E-02  0.8522949E-01
        1   -1    0    0  501    0  0.00000000000E+00  0.00000000000E+00  0.15038263051E+04  0.15038263051E+04  0.50400001928E-02 0. -1.
       -1   -1    0    0    0  501  0.00000000000E+00  0.00000000000E+00 -0.79671167618E+03  0.79671167620E+03  0.50400001928E-02 0.  1.
    10030    2    1    2    0    0  0.00000000000E+00  0.00000000000E+00  0.70711462887E+03  0.23005379813E+04  0.21891696839E+04 0.  0.
        4    1    3    3  502    0 -0.40376919956E+01  0.99554844653E+03  0.83165384384E+03  0.12972211613E+04  0.12699999809E+01 0. -1.
       -4    1    3    3    0  502  0.40376919956E+01 -0.99554844653E+03 -0.12453921497E+03  0.10033168200E+04  0.12699999809E+01 0.  1.
</event>
<event>
 5   0  0.2581058E-06  0.2200749E+04  0.7818609E-02  0.8518116E-01
        2   -1    0    0  501    0  0.00000000000E+00  0.00000000000E+00  0.17770356683E+04  0.17770356683E+04  0.25500000920E-02 0. -1.
       -2   -1    0    0    0  501  0.00000000000E+00  0.00000000000E+00 -0.68137313779E+03  0.68137313780E+03  0.25500000920E-02 0.  1.
    10030    2    1    2    0    0  0.00000000000E+00  0.00000000000E+00  0.10956625305E+04  0.24584088061E+04  0.22007492990E+04 0.  0.
        1    1    3    3  502    0  0.51093252986E+03  0.22494139880E+03 -0.51143544840E+03  0.75711089074E+03  0.50400001928E-02 0.  1.
       -1    1    3    3    0  502 -0.51093252986E+03 -0.22494139880E+03  0.16070979789E+04  0.17012979153E+04  0.50400001928E-02 0. -1.
</event>
<event>
 5   0  0.2606154E-06  0.2205404E+04  0.7818609E-02  0.8516182E-01
        2   -1    0    0  501    0  0.00000000000E+00  0.00000000000E+00  0.78298831468E+03  0.78298831468E+03  0.25500000920E-02 0. -1.
       -2   -1    0    0    0  501  0.00000000000E+00  0.00000000000E+00 -0.15529622083E+04  0.15529622083E+04  0.25500000920E-02 0.  1.
    10030    2    1    2    0    0  0.00000000000E+00  0.00000000000E+00 -0.76997389359E+03  0.23359505229E+04  0.22054036023E+04 0.  0.
        2    1    3    3  502    0  0.79957860613E+03  0.33362578940E+03  0.33753496457E+03  0.92981824409E+03  0.25500000920E-02 0. -1.
       -2    1    3    3    0  502 -0.79957860613E+03 -0.33362578940E+03 -0.11075088582E+04  0.14061322789E+04  0.25500000920E-02 0.  1.
</event>
<event>
 5   0  0.1137869E-06  0.2198101E+04  0.7818609E-02  0.8519219E-01
       -1   -1    0    0    0  501  0.00000000000E+00  0.00000000000E+00  0.10702351222E+04  0.10702351222E+04  0.50400001928E-02 0. -1.
        1   -1    0    0  501    0  0.00000000000E+00  0.00000000000E+00 -0.11286416681E+04  0.11286416681E+04  0.50400001928E-02 0.  1.
    10030    2    1    2    0    0  0.00000000000E+00  0.00000000000E+00 -0.58406545924E+02  0.21988767903E+04  0.21981009563E+04 0.  0.
        5    1    3    3  502    0  0.86112566814E+02 -0.97405544455E+03 -0.53106797907E+03  0.11127689210E+04  0.46999998093E+01 0.  1.
       -5    1    3    3    0  502 -0.86112566814E+02  0.97405544455E+03  0.47266143314E+03  0.10861078692E+04  0.46999998093E+01 0. -1.
</event>
<event>
 5   0  0.2524749E-06  0.2200772E+04  0.7818609E-02  0.8518107E-01
        2   -1    0    0  501    0  0.00000000000E+00  0.00000000000E+00  0.10442475176E+04  0.10442475176E+04  0.25500000920E-02 0. -1.
       -2   -1    0    0    0  501  0.00000000000E+00  0.00000000000E+00 -0.11595429343E+04  0.11595429343E+04  0.25500000920E-02 0.  1.
    10030    2    1    2    0    0  0.00000000000E+00  0.00000000000E+00 -0.11529541667E+03  0.22037904519E+04  0.22007724378E+04 0.  0.
        4    1    3    3  502    0  0.92250703373E+03  0.39897750425E+03  0.39090176253E+03  0.10784285220E+04  0.12699999809E+01 0. -1.
       -4    1    3    3    0  502 -0.92250703373E+03 -0.39897750425E+03 -0.50619717920E+03  0.11253619299E+04  0.12699999809E+01 0.  1.
</event>
<event>
 5   0  0.2556869E-06  0.2200346E+04  0.7818609E-02  0.8518284E-01
       -2   -1    0    0    0  501  0.00000000000E+00  0.00000000000E+00  0.60090615160E+03  0.60090615161E+03  0.25500000920E-02 0. -1.
        2   -1    0    0  501    0  0.00000000000E+00  0.00000000000E+00 -0.20142586144E+04  0.20142586144E+04  0.25500000920E-02 0.  1.
    10030    2    1    2    0    0  0.00000000000E+00  0.00000000000E+00 -0.14133524628E+04  0.26151647660E+04  0.22003457840E+04 0.  0.
        5    1    3    3  502    0 -0.88937712759E+03 -0.46851980872E+03 -0.12380088970E+04  0.15947384128E+04  0.46999998093E+01 0.  1.
       -5    1    3    3    0  502  0.88937712759E+03  0.46851980872E+03 -0.17534356580E+03  0.10204263532E+04  0.46999998093E+01 0. -1.
</event>
<event>
 5   0  0.1146827E-06  0.2202279E+04  0.7818609E-02  0.8517480E-01
       -1   -1    0    0    0  501  0.00000000000E+00  0.00000000000E+00  0.92206036061E+03  0.92206036063E+03  0.50400001928E-02 0. -1.
        1   -1    0    0  501    0  0.00000000000E+00  0.00000000000E+00 -0.13149990249E+04  0.13149990249E+04  0.50400001928E-02 0.  1.
    10030    2    1    2    0    0  0.00000000000E+00  0.00000000000E+00 -0.39293866431E+03  0.22370593856E+04  0.22022792513E+04 0.  0.
        4    1    3    3  502    0 -0.43179269055E+03 -0.39685669693E+03 -0.11431569846E+04  0.12848150333E+04  0.12699999809E+01 0.  1.
       -4    1    3    3    0  502  0.43179269055E+03  0.39685669693E+03  0.75021832025E+03  0.95224435228E+03  0.12699999809E+01 0. -1.
</event>
<event>
 5   0  0.2532239E-06  0.2198600E+04  0.7818609E-02  0.8519011E-01
       -2   -1    0    0    0  501  0.00000000000E+00  0.00000000000E+00  0.46638559818E+03  0.46638559819E+03  0.25500000920E-02 0.  1.
        2   -1    0    0  501    0  0.00000000000E+00  0.00000000000E+00 -0.25911197612E+04  0.25911197612E+04  0.25500000920E-02 0. -1.
    10030    2    1    2    0    0  0.00000000000E+00  0.00000000000E+00 -0.21247341630E+04  0.30575053594E+04  0.21986004092E+04 0.  0.
        3    1    3    3  502    0  0.31026182276E+03  0.10544502854E+04 -0.10369850981E+04  0.15111141277E+04  0.10100000352E+00 0. -1.
       -3    1    3    3    0  502 -0.31026182276E+03 -0.10544502854E+04 -0.10877490649E+04  0.15463912317E+04  0.10100000352E+00 0.  1.
</event>
<event>
 5   0  0.1137869E-06  0.2199438E+04  0.7818609E-02  0.8518662E-01
       -1   -1    0    0    0  501  0.00000000000E+00  0.00000000000E+00  0.10275899320E+04  0.10275899320E+04  0.50400001928E-02 0.  1.
        1   -1    0    0  501    0  0.00000000000E+00  0.00000000000E+00 -0.11769105166E+04  0.11769105166E+04  0.50400001928E-02 0. -1.
    10030    2    1    2    0    0  0.00000000000E+00  0.00000000000E+00 -0.14932058456E+03  0.22045004486E+04  0.21994375624E+04 0.  0.
        5    1    3    3  502    0  0.83423965608E+03  0.28197550897E+03  0.58556177171E+03  0.10575304582E+04  0.46999998093E+01 0.  1.
       -5    1    3    3    0  502 -0.83423965608E+03 -0.28197550897E+03 -0.73488235627E+03  0.11469699905E+04  0.46999998093E+01 0. -1.
</event>
<event>
 5   0  0.1144271E-06  0.2199827E+04  0.7818609E-02  0.8518500E-01
       -1   -1    0    0    0  501  0.00000000000E+00  0.00000000000E+00  0.13981840996E+04  0.13981840997E+04  0.50400001928E-02 0. -1.
        1   -1    0    0  501    0  0.00000000000E+00  0.00000000000E+00 -0.86527225831E+03  0.86527225832E+03  0.50400001928E-02 0.  1.
    10030    2    1    2    0    0  0.00000000000E+00  0.00000000000E+00  0.53291184133E+03  0.22634563580E+04  0.21998271873E+04 0.  0.
        3    1    3    3  502    0  0.78317744423E+03  0.31113672187E+03  0.99375129867E+03  0.13029637841E+04  0.10100000352E+00 0. -1.
       -3    1    3    3    0  502 -0.78317744423E+03 -0.31113672187E+03 -0.46083945733E+03  0.96049257388E+03  0.10100000352E+00 0.  1.
</event>
<event>
 5   0  0.1144271E-06  0.2200253E+04  0.7818609E-02  0.8518323E-01
        1   -1    0    0  501    0  0.00000000000E+00  0.00000000000E+00  0.44027628543E+03  0.44027628546E+03  0.50400001928E-02 0. -1.
       -1   -1    0    0    0  501  0.00000000000E+00  0.00000000000E+00 -0.27489071126E+04  0.27489071127E+04  0.50400001928E-02 0.  1.
    10030    2    1    2    0    0  0.00000000000E+00  0.00000000000E+00 -0.23086308272E+04  0.31891833981E+04  0.22002532696E+04 0.  0.
        3    1    3    3  502    0 -0.66853126236E+03 -0.73548865387E+03 -0.47075771133E+03  0.10997683582E+04  0.10100000352E+00 0. -1.
       -3    1    3    3    0  502  0.66853126236E+03  0.73548865387E+03 -0.18378731159E+04  0.20894150399E+04  0.10100000352E+00 0.  1.
</event>
<event>
 5   0  0.1107101E-06  0.2199564E+04  0.7818609E-02  0.8518610E-01
        1   -1    0    0  501    0  0.00000000000E+00  0.00000000000E+00  0.14011076425E+04  0.14011076425E+04  0.50400001928E-02 0. -1.
       -1   -1    0    0    0  501  0.00000000000E+00  0.00000000000E+00 -0.86325992162E+03  0.86325992163E+03  0.50400001928E-02 0.  1.
    10030    2    1    2    0    0  0.00000000000E+00  0.00000000000E+00  0.53784772088E+03  0.22643675641E+04  0.21995636601E+04 0.  0.
        1    1    3    3  502    0 -0.28583965102E+03  0.29730382392E+03  0.13184837373E+04  0.13814822602E+04  0.50400001928E-02 0. -1.
       -1    1    3    3    0  502  0.28583965102E+03 -0.29730382392E+03 -0.78063601638E+03  0.88288530394E+03  0.50400001928E-02 0.  1.
</event>
<event>
 5   0  0.2532239E-06  0.2200348E+04  0.7818609E-02  0.8518283E-01
        2   -1    0    0  501    0  0.00000000000E+00  0.00000000000E+00  0.99851003434E+03  0.99851003434E+03  0.25500000920E-02 0.  1.
       -2   -1    0    0    0  501  0.00000000000E+00  0.00000000000E+00 -0.12121894777E+04  0.12121894777E+04  0.25500000920E-02 0. -1.
    10030    2    1    2    0    0  0.00000000000E+00  0.00000000000E+00 -0.21367944338E+03  0.22106995121E+04  0.22003484788E+04 0.  0.
        3    1    3    3  502    0  0.15043458113E+02  0.92788083807E+03  0.48686670977E+03  0.10479639109E+04  0.10100000352E+00 0.  1.
       -3    1    3    3    0  502 -0.15043458113E+02 -0.92788083807E+03 -0.70054615315E+03  0.11627356012E+04  0.10100000352E+00 0. -1.
</event>
<event>
 5   0  0.8905000E-07  0.2202674E+04  0.7818609E-02  0.8517316E-01
        3   -1    0    0  501    0  0.00000000000E+00  0.00000000000E+00  0.82783300922E+03  0.82783301538E+03  0.10100000352E+00 0.  1.
       -3   -1    0    0    0  501  0.00000000000E+00  0.00000000000E+00 -0.14652022729E+04  0.14652022763E+04  0.10100000352E+00 0. -1.
    10030    2    1    2    0    0  0.00000000000E+00  0.00000000000E+00 -0.63736926364E+03  0.22930352917E+04  0.22026736642E+04 0.  0.
        4    1    3    3  502    0 -0.43978370964E+03  0.56720033071E+03  0.55093796584E+03  0.90479842038E+03  0.12699999809E+01 0.  1.
       -4    1    3    3    0  502  0.43978370964E+03 -0.56720033071E+03 -0.11883072295E+04  0.13882368713E+04  0.12699999809E+01 0. -1.
</event>
<event>
 5   0  0.2532239E-06  0.2199907E+04  0.7818609E-02  0.8518467E-01
       -2   -1    0    0    0  501  0.00000000000E+00  0.00000000000E+00  0.10339875511E+04  0.10339875511E+04  0.25500000920E-02 0.  1.
        2   -1    0    0  501    0  0.00000000000E+00  0.00000000000E+00 -0.11701275569E+04  0.11701275569E+04  0.25500000920E-02 0. -1.
    10030    2    1    2    0    0  0.00000000000E+00  0.00000000000E+00 -0.13614000583E+03  0.22041151081E+04  0.21999066590E+04 0.  0.
        3    1    3    3  502    0 -0.38201272025E+03 -0.15304368881E+03 -0.10900906351E+04  0.11651839735E+04  0.10100000352E+00 0. -1.
       -3    1    3    3    0  502  0.38201272025E+03  0.15304368881E+03  0.95395062927E+03  0.10389311346E+04  0.10100000352E+00 0.  1.
</event>
<event>
 5   0  0.2556869E-06  0.2198923E+04  0.7818609E-02  0.8518877E-01
        2   -1    0    0  501    0  0.00000000000E+00  0.00000000000E+00  0.18704933103E+04  0.18704933103E+04  0.25500000920E-02 0. -1.
       -2   -1    0    0    0  501  0.00000000000E+00  0.00000000000E+00 -0.64625471897E+03  0.64625471897E+03  0.25500000920E-02 0.  1.
    10030    2    1    2    0    0  0.00000000000E+00  0.00000000000E+00  0.12242385913E+04  0.25167480292E+04  0.21989225803E+04 0.  0.
        5    1    3    3  502    0 -0.79236752011E+03 -0.23735412159E+03 -0.21686821283E+03  0.85512407152E+03  0.46999998093E+01 0.  1.
       -5    1    3    3    0  502  0.79236752011E+03  0.23735412159E+03  0.14411068041E+04  0.16616239577E+04  0.46999998093E+01 0. -1.
</event>
<event>
 5   0  0.1082209E-06  0.2197868E+04  0.7818609E-02  0.8519316E-01
       -1   -1    0    0    0  501  0.00000000000E+00  0.00000000000E+00  0.53563081101E+03  0.53563081103E+03  0.50400001928E-02 0. -1.
        1   -1    0    0  501    0  0.00000000000E+00  0.00000000000E+00 -0.22546418391E+04  0.22546418391E+04  0.50400001928E-02 0.  1.
    10030    2    1    2    0    0  0.00000000000E+00  0.00000000000E+00 -0.17190110281E+04  0.27902726501E+04  0.21978677275E+04 0.  0.
        2    1    3    3  502    0  0.10986279903E+04  0.15516546231E+02 -0.83313664877E+03  0.13788911849E+04  0.25500000920E-02 0.  1.
       -2    1    3    3    0  502 -0.10986279903E+04 -0.15516546231E+02 -0.88587437930E+03  0.14113814652E+04  0.25500000920E-02 0. -1.
</event>
<event>
 5   0  0.1146827E-06  0.2213480E+04  0.7818609E-02  0.8512838E-01
        1   -1    0    0  501    0  0.00000000000E+00  0.00000000000E+00  0.10748687697E+04  0.10748687697E+04  0.50400001928E-02 0. -1.
       -1   -1    0    0    0  501  0.00000000000E+00  0.00000000000E+00 -0.11395567133E+04  0.11395567133E+04  0.50400001928E-02 0.  1.
    10030    2    1    2    0    0  0.00000000000E+00  0.00000000000E+00 -0.64687943588E+02  0.22144254831E+04  0.22134804472E+04 0.  0.
        4    1    3    3  502    0  0.75255276644E+03 -0.29337260988E+03 -0.78928392048E+03  0.11293245213E+04  0.12699999809E+01 0.  1.
       -4    1    3    3    0  502 -0.75255276644E+03  0.29337260988E+03  0.72459597689E+03  0.10851009617E+04  0.12699999809E+01 0. -1.
</event>
<event>
 5   0  0.2606154E-06  0.2201954E+04  0.7818609E-02  0.8517615E-01
        2   -1    0    0  501    0  0.00000000000E+00  0.00000000000E+00  0.12000914945E+04  0.12000914945E+04  0.25500000920E-02 0.  1.
       -2   -1    0    0    0  501  0.00000000000E+00  0.00000000000E+00 -0.10100483243E+04  0.10100483243E+04  0.25500000920E-02 0. -1.
    10030    2    1    2    0    0  0.00000000000E+00  0.00000000000E+00  0.19004317022E+03  0.22101398189E+04  0.22019540441E+04 0.  0.
        2    1    3    3  502    0  0.82898164833E+03  0.47442106689E+03  0.64465611867E+03  0.11523313036E+04  0.25500000920E-02 0.  1.
       -2    1    3    3    0  502 -0.82898164833E+03 -0.47442106689E+03 -0.45461294846E+03  0.10578085152E+04  0.25500000920E-02 0. -1.
</event>
<event>
 5   0  0.2532239E-06  0.2200363E+04  0.7818609E-02  0.8518277E-01
        2   -1    0    0  501    0  0.00000000000E+00  0.00000000000E+00  0.61509712049E+03  0.61509712049E+03  0.25500000920E-02 0. -1.
       -2   -1    0    0    0  501  0.00000000000E+00  0.00000000000E+00 -0.19678174623E+04  0.19678174623E+04  0.25500000920E-02 0.  1.
    10030    2    1    2    0    0  0.00000000000E+00  0.00000000000E+00 -0.13527203418E+04  0.25829145828E+04  0.22003625653E+04 0.  0.
        3    1    3    3  502    0 -0.10610801726E+04 -0.10980486401E+03 -0.36039675451E+03  0.11259813816E+04  0.10100000352E+00 0. -1.
       -3    1    3    3    0  502  0.10610801726E+04  0.10980486401E+03 -0.99232358730E+03  0.14569332012E+04  0.10100000352E+00 0.  1.
</event>
<event>
 5   0  0.1107101E-06  0.2199963E+04  0.7818609E-02  0.8518444E-01
        1   -1    0    0  501    0  0.00000000000E+00  0.00000000000E+00  0.13985983682E+04  0.13985983682E+04  0.50400001928E-02 0. -1.
       -1   -1    0    0    0  501  0.00000000000E+00  0.00000000000E+00 -0.86512266391E+03  0.86512266392E+03  0.50400001928E-02 0.  1.
    10030    2    1    2    0    0  0.00000000000E+00  0.00000000000E+00  0.53347570432E+03  0.22637210322E+04  0.21999628598E+04 0.  0.
        1    1    3    3  502    0  0.74615800086E+03 -0.92115193588E+02 -0.55947864201E+03  0.93715170705E+03  0.50400001928E-02 0.  1.
       -1    1    3    3    0  502 -0.74615800086E+03  0.92115193588E+02  0.10929543463E+04  0.13265693251E+04  0.50400001928E-02 0. -1.
</event>
<event>
 5   0  0.2556869E-06  0.2198752E+04  0.7818609E-02  0.8518948E-01
       -2   -1    0    0    0  501  0.00000000000E+00  0.00000000000E+00  0.60683242002E+03  0.60683242002E+03  0.25500000920E-02 0. -1.
        2   -1    0    0  501    0  0.00000000000E+00  0.00000000000E+00 -0.19916998130E+04  0.19916998130E+04  0.25500000920E-02 0.  1.
    10030    2    1    2    0    0  0.00000000000E+00  0.00000000000E+00 -0.13848673930E+04  0.25985322330E+04  0.21987523894E+04 0.  0.
        5    1    3    3  502    0  0.56493892143E+03 -0.31845466213E+03 -0.17415532225E+04  0.18583861476E+04  0.46999998093E+01 0.  1.
       -5    1    3    3    0  502 -0.56493892143E+03  0.31845466213E+03  0.35668582952E+03  0.74014608542E+03  0.46999998093E+01 0. -1.
</event>
<event>
 5   0  0.1146827E-06  0.2201300E+04  0.7818609E-02  0.8517887E-01
        1   -1    0    0  501    0  0.00000000000E+00  0.00000000000E+00  0.20225176966E+04  0.20225176966E+04  0.50400001928E-02 0. -1.
       -1   -1    0    0    0  501  0.00000000000E+00  0.00000000000E+00 -0.59897163984E+03  0.59897163987E+03  0.50400001928E-02 0.  1.
    10030    2    1    2    0    0  0.00000000000E+00  0.00000000000E+00  0.14235460567E+04  0.26214893364E+04  0.22013002897E+04 0.  0.
        4    1    3    3  502    0  0.11666920702E+03 -0.80740190125E+03  0.15916726804E+04  0.17885561407E+04  0.12699999809E+01 0. -1.
       -4    1    3    3    0  502 -0.11666920702E+03  0.80740190125E+03 -0.16812662371E+03  0.83293319571E+03  0.12699999809E+01 0.  1.
</event>
<event>
 5   0  0.1137869E-06  0.2199816E+04  0.7818609E-02  0.8518505E-01
       -1   -1    0    0    0  501  0.00000000000E+00  0.00000000000E+00  0.19530474266E+04  0.19530474266E+04  0.50400001928E-02 0. -1.
        1   -1    0    0  501    0  0.00000000000E+00  0.00000000000E+00 -0.61944093932E+03  0.61944093934E+03  0.50400001928E-02 0.  1.
    10030    2    1    2    0    0  0.00000000000E+00  0.00000000000E+00  0.13336064873E+04  0.25724883660E+04  0.21998159310E+04 0.  0.
        5    1    3    3  502    0  0.18742925489E+03 -0.10683587165E+04  0.45354885968E+03  0.11756907462E+04  0.46999998093E+01 0.  1.
       -5    1    3    3    0  502 -0.18742925489E+03  0.10683587165E+04  0.88005762763E+03  0.13967976198E+04  0.46999998093E+01 0. -1.
</event>
<event>
 5   0  0.2606154E-06  0.2200122E+04  0.7818609E-02  0.8518377E-01
        2   -1    0    0  501    0  0.00000000000E+00  0.00000000000E+00  0.17877597026E+04  0.17877597026E+04  0.25500000920E-02 0. -1.
       -2   -1    0    0    0  501  0.00000000000E+00  0.00000000000E+00 -0.67690011757E+03  0.67690011758E+03  0.25500000920E-02 0.  1.
    10030    2    1    2    0    0  0.00000000000E+00  0.00000000000E+00  0.11108595850E+04  0.24646598202E+04  0.22001224992E+04 0.  0.
        2    1    3    3  502    0 -0.10705703177E+04 -0.22982744583E+03  0.43691049862E+03  0.11789114657E+04  0.25500000920E-02 0. -1.
       -2    1    3    3    0  502  0.10705703177E+04  0.22982744583E+03  0.67394908641E+03  0.12857483545E+04  0.25500000920E-02 0.  1.
</event>
<event>
 5   0  0.1107101E-06  0.2195756E+04  0.7818609E-02  0.8520197E-01
        1   -1    0    0  501    0  0.00000000000E+00  0.00000000000E+00  0.11395534753E+04  0.11395534753E+04  0.50400001928E-02 0.  1.
       -1   -1    0    0    0  501  0.00000000000E+00  0.00000000000E+00 -0.10577263310E+04  0.10577263310E+04  0.50400001928E-02 0. -1.
    10030    2    1    2    0    0  0.00000000000E+00  0.00000000000E+00  0.81827144339E+02  0.21972798063E+04  0.21957556480E+04 0.  0.
        1    1    3    3  502    0 -0.52072721125E+03  0.60538946116E+03 -0.71305649495E+03  0.10705619054E+04  0.50400001928E-02 0. -1.
       -1    1    3    3    0  502  0.52072721125E+03 -0.60538946116E+03  0.79488363929E+03  0.11267179009E+04  0.50400001928E-02 0.  1.
</event>
<event>
 5   0  0.1082209E-06  0.2200591E+04  0.7818609E-02  0.8518182E-01
        1   -1    0    0  501    0  0.00000000000E+00  0.00000000000E+00  0.91171009411E+03  0.91171009412E+03  0.50400001928E-02 0. -1.
       -1   -1    0    0    0  501  0.00000000000E+00  0.00000000000E+00 -0.13278895189E+04  0.13278895189E+04  0.50400001928E-02 0.  1.
    10030    2    1    2    0    0  0.00000000000E+00  0.00000000000E+00 -0.41617942483E+03  0.22395996131E+04  0.22005910827E+04 0.  0.
        2    1    3    3  502    0  0.10672371523E+04  0.26510793368E+03 -0.17037992721E+03  0.11127922876E+04  0.25500000920E-02 0.  1.
       -2    1    3    3    0  502 -0.10672371523E+04 -0.26510793368E+03 -0.24579949762E+03  0.11268073255E+04  0.25500000920E-02 0. -1.
</event>
<event>
 5   0  0.2556869E-06  0.2199820E+04  0.7818609E-02  0.8518503E-01
        2   -1    0    0  501    0  0.00000000000E+00  0.00000000000E+00  0.12851157009E+04  0.12851157009E+04  0.25500000920E-02 0. -1.
       -2   -1    0    0    0  501  0.00000000000E+00  0.00000000000E+00 -0.94139506257E+03  0.94139506258E+03  0.25500000920E-02 0.  1.
    10030    2    1    2    0    0  0.00000000000E+00  0.00000000000E+00  0.34372063831E+03  0.22265107635E+04  0.21998196068E+04 0.  0.
        5    1    3    3  502    0 -0.86508046868E+02 -0.71522120562E+03 -0.66934029783E+03  0.98339388824E+03  0.46999998093E+01 0.  1.
       -5    1    3    3    0  502  0.86508046868E+02  0.71522120562E+03  0.10130609361E+04  0.12431168752E+04  0.46999998093E+01 0. -1.
</event>
<event>
 5   0  0.2524749E-06  0.2198382E+04  0.7818609E-02  0.8519102E-01
       -2   -1    0    0    0  501  0.00000000000E+00  0.00000000000E+00  0.11741998340E+04  0.11741998340E+04  0.25500000920E-02 0.  1.
        2   -1    0    0  501    0  0.00000000000E+00  0.00000000000E+00 -0.10289741725E+04  0.10289741725E+04  0.25500000920E-02 0. -1.
    10030    2    1    2    0    0  0.00000000000E+00  0.00000000000E+00  0.14522566150E+03  0.22031740065E+04  0.21983824076E+04 0.  0.
        4    1    3    3  502    0  0.66168998050E+03  0.82106410850E+03  0.38351438289E+03  0.11220805654E+04  0.12699999809E+01 0.  1.
       -4    1    3    3    0  502 -0.66168998050E+03 -0.82106410850E+03 -0.23828872140E+03  0.10810934410E+04  0.12699999809E+01 0. -1.
</event>
<event>
 5   0  0.1082209E-06  0.2199787E+04  0.7818609E-02  0.8518517E-01
       -1   -1    0    0    0  501  0.00000000000E+00  0.00000000000E+00  0.48005843617E+03  0.48005843619E+03  0.50400001928E-02 0. -1.
        1   -1    0    0  501    0  0.00000000000E+00  0.00000000000E+00 -0.25200387870E+04  0.25200387870E+04  0.50400001928E-02 0.  1.
    10030    2    1    2    0    0  0.00000000000E+00  0.00000000000E+00 -0.20399803508E+04  0.30000972232E+04  0.21997871526E+04 0.  0.
        2    1    3    3  502    0 -0.37196272253E+03  0.22017852271E+02  0.39135798324E+03  0.54037220859E+03  0.25500000920E-02 0. -1.
       -2    1    3    3    0  502  0.37196272253E+03 -0.22017852271E+02 -0.24313383341E+04  0.24597250146E+04  0.25500000920E-02 0.  1.
</event>
<event>
 5   0  0.1144271E-06  0.2200595E+04  0.7818609E-02  0.8518180E-01
       -1   -1    0    0    0  501  0.00000000000E+00  0.00000000000E+00  0.12109202791E+04  0.12109202791E+04  0.50400001928E-02 0. -1.
        1   -1    0    0  501    0  0.00000000000E+00  0.00000000000E+00 -0.99978076876E+03  0.99978076877E+03  0.50400001928E-02 0.  1.
    10030    2    1    2    0    0  0.00000000000E+00  0.00000000000E+00  0.21113951030E+03  0.22107010478E+04  0.22005951991E+04 0.  0.
        3    1    3    3  502    0 -0.39591490024E+00  0.53357714989E+03  0.10722517717E+04  0.11976763351E+04  0.10100000352E+00 0. -1.
       -3    1    3    3    0  502  0.39591490024E+00 -0.53357714989E+03 -0.86111226139E+03  0.10130247127E+04  0.10100000352E+00 0.  1.
</event>
<event>
 5   0  0.1082209E-06  0.2199378E+04  0.7818609E-02  0.8518687E-01
       -1   -1    0    0    0  501  0.00000000000E+00  0.00000000000E+00  0.10135599863E+04  0.10135599863E+04  0.50400001928E-02 0. -1.
        1   -1    0    0  501    0  0.00000000000E+00  0.00000000000E+00 -0.11931371335E+04  0.11931371336E+04  0.50400001928E-02 0.  1.
    10030    2    1    2    0    0  0.00000000000E+00  0.00000000000E+00 -0.17957714728E+03  0.22066971198E+04  0.21993781455E+04 0.  0.
        2    1    3    3  502    0 -0.29861123263E+03 -0.15904996090E+02  0.97198365809E+03  0.10169433951E+04  0.25500000920E-02 0. -1.
       -2    1    3    3    0  502  0.29861123263E+03  0.15904996090E+02 -0.11515608054E+04  0.11897537248E+04  0.25500000920E-02 0.  1.
</event>
<event>
 5   0  0.2532239E-06  0.2197088E+04  0.7818609E-02  0.8519641E-01
        2   -1    0    0  501    0  0.00000000000E+00  0.00000000000E+00  0.22908256787E+04  0.22908256787E+04  0.25500000920E-02 0. -1.
       -2   -1    0    0    0  501  0.00000000000E+00  0.00000000000E+00 -0.52679637702E+03  0.52679637702E+03  0.25500000920E-02 0.  1.
    10030    2    1    2    0    0  0.00000000000E+00  0.00000000000E+00  0.17640293017E+04  0.28176220557E+04  0.21970877706E+04 0.  0.
        3    1    3    3  502    0 -0.80906390242E+03  0.50227231920E+03  0.17967014156E+03  0.96909403610E+03  0.10100000352E+00 0.  1.
       -3    1    3    3    0  502  0.80906390242E+03 -0.50227231920E+03  0.15843591601E+04  0.18485280196E+04  0.10100000352E+00 0. -1.
</event>
<event>
 5   0  0.1137869E-06  0.2195625E+04  0.7818609E-02  0.8520251E-01
        1   -1    0    0  501    0  0.00000000000E+00  0.00000000000E+00  0.13690993316E+04  0.13690993316E+04  0.50400001928E-02 0. -1.
       -1   -1    0    0    0  501  0.00000000000E+00  0.00000000000E+00 -0.88028136866E+03  0.88028136868E+03  0.50400001928E-02 0.  1.
    10030    2    1    2    0    0  0.00000000000E+00  0.00000000000E+00  0.48881796294E+03  0.22493807003E+04  0.21956253173E+04 0.  0.
        5    1    3    3  502    0  0.97110891297E+03 -0.22010951911E+03  0.71797041769E+03  0.12276010475E+04  0.46999998093E+01 0. -1.
       -5    1    3    3    0  502 -0.97110891297E+03  0.22010951911E+03 -0.22915245475E+03  0.10217796527E+04  0.46999998093E+01 0.  1.
</event>
<event>
 5   0  0.1146827E-06  0.2199671E+04  0.7818609E-02  0.8518565E-01
        1   -1    0    0  501    0  0.00000000000E+00  0.00000000000E+00  0.12556726954E+04  0.12556726954E+04  0.50400001928E-02 0.  1.
       -1   -1    0    0    0  501  0.00000000000E+00  0.00000000000E+00 -0.96333890561E+03  0.96333890562E+03  0.50400001928E-02 0. -1.
    10030    2    1    2    0    0  0.00000000000E+00  0.00000000000E+00  0.29233378975E+03  0.22190116010E+04  0.21996712119E+04 0.  0.
        4    1    3    3  502    0  0.77834063641E+03  0.77051191721E+03  0.44614081201E+02  0.10961271778E+04  0.12699999809E+01 0. -1.
       -4    1    3    3    0  502 -0.77834063641E+03 -0.77051191721E+03  0.24771970855E+03  0.11228844231E+04  0.12699999809E+01 0.  1.
</event>
<event>
 5   0  0.1144271E-06  0.2200054E+04  0.7818609E-02  0.8518405E-01
        1   -1    0    0  501    0  0.00000000000E+00  0.00000000000E+00  0.23771325116E+04  0.23771325117E+04  0.50400001928E-02 0.  1.
       -1   -1    0    0    0  501  0.00000000000E+00  0.00000000000E+00 -0.50904185696E+03  0.50904185698E+03  0.50400001928E-02 0. -1.
    10030    2    1    2    0    0  0.00000000000E+00  0.00000000000E+00  0.18680906547E+04  0.28861743686E+04  0.22000544975E+04 0.  0.
        3    1    3    3  502    0  0.10840948590E+04 -0.89188479236E+02  0.11489818565E+04  0.15822059174E+04  0.10100000352E+00 0.  1.
       -3    1    3    3    0  502 -0.10840948590E+04  0.89188479236E+02  0.71910879818E+03  0.13039684513E+04  0.10100000352E+00 0. -1.
</event>
<event>
 5   0  0.2581058E-06  0.2200049E+04  0.7818609E-02  0.8518408E-01
        2   -1    0    0  501    0  0.00000000000E+00  0.00000000000E+00  0.11540704129E+04  0.11540704129E+04  0.25500000920E-02 0. -1.
       -2   -1    0    0    0  501  0.00000000000E+00  0.00000000000E+00 -0.10485099446E+04  0.10485099446E+04  0.25500000920E-02 0.  1.
    10030    2    1    2    0    0  0.00000000000E+00  0.00000000000E+00  0.10556046829E+03  0.22025803576E+04  0.22000493674E+04 0.  0.
        1    1    3    3  502    0 -0.33429644003E+03  0.47489358685E+03 -0.88251948102E+03  0.10564651736E+04  0.50400001928E-02 0.  1.
       -1    1    3    3    0  502  0.33429644003E+03 -0.47489358685E+03  0.98807994931E+03  0.11461151840E+04  0.50400001928E-02 0. -1.
</event>
<event>
 5   0  0.1107101E-06  0.2200107E+04  0.7818609E-02  0.8518384E-01
        1   -1    0    0  501    0  0.00000000000E+00  0.00000000000E+00  0.18820777321E+04  0.18820777321E+04  0.50400001928E-02 0. -1.
       -1   -1    0    0    0  501  0.00000000000E+00  0.00000000000E+00 -0.64296891401E+03  0.64296891403E+03  0.50400001928E-02 0.  1.
    10030    2    1    2    0    0  0.00000000000E+00  0.00000000000E+00  0.12391088181E+04  0.25250466462E+04  0.22001067934E+04 0.  0.
        1    1    3    3  502    0  0.41262589123E+03 -0.98957414711E+03  0.33702527789E+03  0.11238786219E+04  0.50400001928E-02 0.  1.
       -1    1    3    3    0  502 -0.41262589123E+03  0.98957414711E+03  0.90208354022E+03  0.14011680243E+04  0.50400001928E-02 0. -1.
</event>
<event>
 5   0  0.2532239E-06  0.2200216E+04  0.7818609E-02  0.8518338E-01
       -2   -1    0    0    0  501  0.00000000000E+00  0.00000000000E+00  0.95445899406E+03  0.95445899407E+03  0.25500000920E-02 0. -1.
        2   -1    0    0  501    0  0.00000000000E+00  0.00000000000E+00 -0.12679822587E+04  0.12679822587E+04  0.25500000920E-02 0.  1.
    10030    2    1    2    0    0  0.00000000000E+00  0.00000000000E+00 -0.31352326462E+03  0.22224412527E+04  0.22002155086E+04 0.  0.
        3    1    3    3  502    0  0.46704025623E+02  0.26451034468E+03 -0.12343512186E+04  0.12632378752E+04  0.10100000352E+00 0.  1.
       -3    1    3    3    0  502 -0.46704025623E+02 -0.26451034468E+03  0.92082795395E+03  0.95920337751E+03  0.10100000352E+00 0. -1.
</event>
<event>
 5   0  0.2532239E-06  0.2200168E+04  0.7818609E-02  0.8518358E-01
       -2   -1    0    0    0  501  0.00000000000E+00  0.00000000000E+00  0.16053561428E+04  0.16053561428E+04  0.25500000920E-02 0.  1.
        2   -1    0    0  501    0  0.00000000000E+00  0.00000000000E+00 -0.75384190744E+03  0.75384190744E+03  0.25500000920E-02 0. -1.
    10030    2    1    2    0    0  0.00000000000E+00  0.00000000000E+00  0.85151423534E+03  0.23591980502E+04  0.22001679361E+04 0.  0.
        3    1    3    3  502    0 -0.81020072036E+03  0.55063067117E+03 -0.11098923864E+03  0.98586914172E+03  0.10100000352E+00 0. -1.
       -3    1    3    3    0  502  0.81020072036E+03 -0.55063067117E+03  0.96250347398E+03  0.13733289085E+04  0.10100000352E+00 0.  1.
</event>
<event>
 5   0  0.2524749E-06  0.2199354E+04  0.7818609E-02  0.8518697E-01
        2   -1    0    0  501    0  0.00000000000E+00  0.00000000000E+00  0.47007003381E+03  0.47007003382E+03  0.25500000920E-02 0. -1.
       -2   -1    0    0    0  501  0.00000000000E+00  0.00000000000E+00 -0.25725721629E+04  0.25725721629E+04  0.25500000920E-02 0.  1.
    10030    2    1    2    0    0  0.00000000000E+00  0.00000000000E+00 -0.21025021291E+04  0.30426421968E+04  0.21993536174E+04 0.  0.
        4    1    3    3  502    0  0.18937824009E+03 -0.82584775412E+03 -0.20210303102E+04  0.21914501497E+04  0.12699999809E+01 0.  1.
       -4    1    3    3    0  502 -0.18937824009E+03  0.82584775412E+03 -0.81471818885E+02  0.85119204706E+03  0.12699999809E+01 0. -1.
</event>
<event>
 5   0  0.1144271E-06  0.2199077E+04  0.7818609E-02  0.8518812E-01
        1   -1    0    0  501    0  0.00000000000E+00  0.00000000000E+00  0.11325750895E+04  0.11325750896E+04  0.50400001928E-02 0. -1.
       -1   -1    0    0    0  501  0.00000000000E+00  0.00000000000E+00 -0.10674658009E+04  0.10674658010E+04  0.50400001928E-02 0.  1.
    10030    2    1    2    0    0  0.00000000000E+00  0.00000000000E+00  0.65109288603E+02  0.22000408905E+04  0.21990772384E+04 0.  0.
        3    1    3    3  502    0 -0.77441406143E+03  0.67124360293E+03  0.43110096467E+03  0.11118152567E+04  0.10100000352E+00 0. -1.
       -3    1    3    3    0  502  0.77441406143E+03 -0.67124360293E+03 -0.36599167607E+03  0.10882256338E+04  0.10100000352E+00 0.  1.
</event>
<event>
 5   0  0.2524749E-06  0.2199592E+04  0.7818609E-02  0.8518598E-01
       -2   -1    0    0    0  501  0.00000000000E+00  0.00000000000E+00  0.12530622024E+04  0.12530622024E+04  0.25500000920E-02 0.  1.
        2   -1    0    0  501    0  0.00000000000E+00  0.00000000000E+00 -0.96527617256E+03  0.96527617256E+03  0.25500000920E-02 0. -1.
    10030    2    1    2    0    0  0.00000000000E+00  0.00000000000E+00  0.28778602983E+03  0.22183383749E+04  0.21995918591E+04 0.  0.
        4    1    3    3  502    0  0.22615795759E+03  0.72590360995E+03 -0.65752790477E+03  0.10052004930E+04  0.12699999809E+01 0. -1.
       -4    1    3    3    0  502 -0.22615795759E+03 -0.72590360995E+03  0.94531393460E+03  0.12131378819E+04  0.12699999809E+01 0.  1.
</event>
<event>
 5   0  0.1137869E-06  0.2200222E+04  0.7818609E-02  0.8518336E-01
       -1   -1    0    0    0  501  0.00000000000E+00  0.00000000000E+00  0.12276487359E+04  0.12276487359E+04  0.50400001928E-02 0.  1.
        1   -1    0    0  501    0  0.00000000000E+00  0.00000000000E+00 -0.98582315593E+03  0.98582315594E+03  0.50400001928E-02 0. -1.
    10030    2    1    2    0    0  0.00000000000E+00  0.00000000000E+00  0.24182557997E+03  0.22134718919E+04  0.22002223081E+04 0.  0.
        5    1    3    3  502    0 -0.75549458863E+03  0.79103797272E+03  0.23870465589E+03  0.11196049082E+04  0.46999998093E+01 0. -1.
       -5    1    3    3    0  502  0.75549458863E+03 -0.79103797272E+03  0.31209240764E+01  0.10938669836E+04  0.46999998093E+01 0.  1.
</event>
<event>
 5   0  0.2581058E-06  0.2199696E+04  0.7818609E-02  0.8518555E-01
        2   -1    0    0  501    0  0.00000000000E+00  0.00000000000E+00  0.10472926645E+04  0.10472926645E+04  0.25500000920E-02 0. -1.
       -2   -1    0    0    0  501  0.00000000000E+00  0.00000000000E+00 -0.11550403628E+04  0.11550403628E+04  0.25500000920E-02 0.  1.
    10030    2    1    2    0    0  0.00000000000E+00  0.00000000000E+00 -0.10774769833E+03  0.22023330273E+04  0.21996957055E+04 0.  0.
        1    1    3    3  502    0 -0.75346327388E+03  0.75981921958E+03  0.20066146114E+03  0.10887135406E+04  0.50400001928E-02 0. -1.
       -1    1    3    3    0  502  0.75346327388E+03 -0.75981921958E+03 -0.30840915947E+03  0.11136194867E+04  0.50400001928E-02 0.  1.
</event>
<event>
 5   0  0.1082209E-06  0.2198665E+04  0.7818609E-02  0.8518984E-01
       -1   -1    0    0    0  501  0.00000000000E+00  0.00000000000E+00  0.97849873754E+03  0.97849873756E+03  0.50400001928E-02 0. -1.
        1   -1    0    0  501    0  0.00000000000E+00  0.00000000000E+00 -0.12350883262E+04  0.12350883262E+04  0.50400001928E-02 0.  1.
    10030    2    1    2    0    0  0.00000000000E+00  0.00000000000E+00 -0.25658958864E+03  0.22135870637E+04  0.21986653842E+04 0.  0.
        2    1    3    3  502    0 -0.40486749522E+03  0.91865142381E+03  0.32273468067E+03  0.10545121153E+04  0.25500000920E-02 0. -1.
       -2    1    3    3    0  502  0.40486749522E+03 -0.91865142381E+03 -0.57932426931E+03  0.11590749485E+04  0.25500000920E-02 0.  1.
</event>
<event>
 5   0  0.2556869E-06  0.2200302E+04  0.7818609E-02  0.8518302E-01
        2   -1    0    0  501    0  0.00000000000E+00  0.00000000000E+00  0.16926770356E+04  0.16926770356E+04  0.25500000920E-02 0. -1.
       -2   -1    0    0    0  501  0.00000000000E+00  0.00000000000E+00 -0.71504050798E+03  0.71504050798E+03  0.25500000920E-02 0.  1.
    10030    2    1    2    0    0  0.00000000000E+00  0.00000000000E+00  0.97763652758E+03  0.24077175435E+04  0.22003023859E+04 0.  0.
        5    1    3    3  502    0 -0.64845750281E+03  0.67917420413E+03  0.11160305173E+04  0.14585338317E+04  0.46999998093E+01 0. -1.
       -5    1    3    3    0  502  0.64845750281E+03 -0.67917420413E+03 -0.13839398973E+03  0.94918371188E+03  0.46999998093E+01 0.  1.
</event>
<event>
 5   0  0.1144271E-06  0.2197512E+04  0.7818609E-02  0.8519464E-01
        1   -1    0    0  501    0  0.00000000000E+00  0.00000000000E+00  0.11573826304E+04  0.11573826304E+04  0.50400001928E-02 0.  1.
       -1   -1    0    0    0  501  0.00000000000E+00  0.00000000000E+00 -0.10430992853E+04  0.10430992853E+04  0.50400001928E-02 0. -1.
    10030    2    1    2    0    0  0.00000000000E+00  0.00000000000E+00  0.11428334517E+03  0.22004819157E+04  0.21975122249E+04 0.  0.
        3    1    3    3  502    0  0.93875684552E+03 -0.56195561268E+03 -0.44021874123E+02  0.10949869685E+04  0.10100000352E+00 0. -1.
       -3    1    3    3    0  502 -0.93875684552E+03  0.56195561268E+03  0.15830521930E+03  0.11054949472E+04  0.10100000352E+00 0.  1.
</event>
<event>
 5   0  0.1144271E-06  0.2203248E+04  0.7818609E-02  0.8517077E-01
        1   -1    0    0  501    0  0.00000000000E+00  0.00000000000E+00  0.13417022733E+04  0.13417022733E+04  0.50400001928E-02 0. -1.
       -1   -1    0    0    0  501  0.00000000000E+00  0.00000000000E+00 -0.90450420907E+03  0.90450420909E+03  0.50400001928E-02 0.  1.
    10030    2    1    2    0    0  0.00000000000E+00  0.00000000000E+00  0.43719806418E+03  0.22462064824E+04  0.22032479239E+04 0.  0.
        3    1    3    3  502    0 -0.87888155014E+03 -0.56432023668E+03 -0.13849488770E+03  0.10535990475E+04  0.10100000352E+00 0.  1.
       -3    1    3    3    0  502  0.87888155014E+03  0.56432023668E+03  0.57569295188E+03  0.11926074349E+04  0.10100000352E+00 0. -1.
</event>
<event>
 5   0  0.8905000E-07  0.2198073E+04  0.7818609E-02  0.8519230E-01
       -3   -1    0    0    0  501  0.00000000000E+00  0.00000000000E+00  0.15174802772E+04  0.15174802806E+04  0.10100000352E+00 0.  1.
        3   -1    0    0  501    0  0.00000000000E+00  0.00000000000E+00 -0.79597837546E+03  0.79597838187E+03  0.10100000352E+00 0. -1.
    10030    2    1    2    0    0  0.00000000000E+00  0.00000000000E+00  0.72150190175E+03  0.23134586624E+04  0.21980732446E+04 0.  0.
        1    1    3    3  502    0 -0.99583112577E+03  0.23546445887E+03 -0.61243130792E+02  0.10251213897E+04  0.50400001928E-02 0. -1.
       -1    1    3    3    0  502  0.99583112577E+03 -0.23546445887E+03  0.78274503254E+03  0.12883372728E+04  0.50400001928E-02 0.  1.
</event>
<event>
 5   0  0.1107101E-06  0.2200117E+04  0.7818609E-02  0.8518379E-01
       -1   -1    0    0    0  501  0.00000000000E+00  0.00000000000E+00  0.10778463180E+04  0.10778463180E+04  0.50400001928E-02 0. -1.
        1   -1    0    0  501    0  0.00000000000E+00  0.00000000000E+00 -0.11227283919E+04  0.11227283919E+04  0.50400001928E-02 0.  1.
    10030    2    1    2    0    0  0.00000000000E+00  0.00000000000E+00 -0.44882073867E+02  0.22005747099E+04  0.22001169635E+04 0.  0.
        1    1    3    3  502    0 -0.89386296597E+02  0.61305715082E+03 -0.93164043815E+03  0.11188310356E+04  0.50400001928E-02 0.  1.
       -1    1    3    3    0  502  0.89386296597E+02 -0.61305715082E+03  0.88675836428E+03  0.10817436743E+04  0.50400001928E-02 0. -1.
</event>
<event>
 5   0  0.1082209E-06  0.2192007E+04  0.7818609E-02  0.8521762E-01
        1   -1    0    0  501    0  0.00000000000E+00  0.00000000000E+00  0.24868045559E+04  0.24868045559E+04  0.50400001928E-02 0.  1.
       -1   -1    0    0    0  501  0.00000000000E+00  0.00000000000E+00 -0.48303899527E+03  0.48303899530E+03  0.50400001928E-02 0. -1.
    10030    2    1    2    0    0  0.00000000000E+00  0.00000000000E+00  0.20037655607E+04  0.29698435512E+04  0.21920069107E+04 0.  0.
        2    1    3    3  502    0 -0.47746320158E+03 -0.29471523532E+03  0.22774560163E+04  0.23455562421E+04  0.25500000920E-02 0.  1.
       -2    1    3    3    0  502  0.47746320158E+03  0.29471523532E+03 -0.27369045564E+03  0.62428730911E+03  0.25500000920E-02 0. -1.
</event>
<event>
 5   0  0.1137869E-06  0.2199506E+04  0.7818609E-02  0.8518634E-01
        1   -1    0    0  501    0  0.00000000000E+00  0.00000000000E+00  0.19381337033E+04  0.19381337033E+04  0.50400001928E-02 0. -1.
       -1   -1    0    0    0  501  0.00000000000E+00  0.00000000000E+00 -0.62403157248E+03  0.62403157250E+03  0.50400001928E-02 0.  1.
    10030    2    1    2    0    0  0.00000000000E+00  0.00000000000E+00  0.13141021308E+04  0.25621652758E+04  0.21995059651E+04 0.  0.
        5    1    3    3  502    0  0.43265162866E+03 -0.15716517806E+03  0.18205031655E+04  0.18778024898E+04  0.46999998093E+01 0. -1.
       -5    1    3    3    0  502 -0.43265162866E+03  0.15716517806E+03 -0.50640103469E+03  0.68436278603E+03  0.46999998093E+01 0.  1.
</event>
<event>
 5   0  0.2556869E-06  0.2201193E+04  0.7818609E-02  0.8517932E-01
       -2   -1    0    0    0  501  0.00000000000E+00  0.00000000000E+00  0.86534891552E+03  0.86534891552E+03  0.25500000920E-02 0.  1.
        2   -1    0    0  501    0  0.00000000000E+00  0.00000000000E+00 -0.13997964851E+04  0.13997964851E+04  0.25500000920E-02 0. -1.
    10030    2    1    2    0    0  0.00000000000E+00  0.00000000000E+00 -0.53444756956E+03  0.22651454006E+04  0.22011927406E+04 0.  0.
        5    1    3    3  502    0  0.86330723374E+01  0.30337677957E+02  0.86487337252E+03  0.86546111706E+03  0.46999998093E+01 0.  1.
       -5    1    3    3    0  502 -0.86330723374E+01 -0.30337677957E+02 -0.13993209421E+04  0.13996842835E+04  0.46999998093E+01 0. -1.
</event>
<event>
 5   0  0.1137869E-06  0.2200054E+04  0.7818609E-02  0.8518405E-01
        1   -1    0    0  501    0  0.00000000000E+00  0.00000000000E+00  0.16463536902E+04  0.16463536902E+04  0.50400001928E-02 0.  1.
       -1   -1    0    0    0  501  0.00000000000E+00  0.00000000000E+00 -0.73499390450E+03  0.73499390452E+03  0.50400001928E-02 0. -1.
    10030    2    1    2    0    0  0.00000000000E+00  0.00000000000E+00  0.91135978565E+03  0.23813475947E+04  0.22000544784E+04 0.  0.
        5    1    3    3  502    0  0.62953623311E+03 -0.62890977744E+03 -0.24428860439E+03  0.92279054459E+03  0.46999998093E+01 0. -1.
       -5    1    3    3    0  502 -0.62953623311E+03  0.62890977744E+03  0.11556483900E+04  0.14585570501E+04  0.46999998093E+01 0.  1.
</event>
<event>
 5   0  0.2581058E-06  0.2199864E+04  0.7818609E-02  0.8518485E-01
       -2   -1    0    0    0  501  0.00000000000E+00  0.00000000000E+00  0.11063086342E+04  0.11063086342E+04  0.25500000920E-02 0. -1.
        2   -1    0    0  501    0  0.00000000000E+00  0.00000000000E+00 -0.10935919855E+04  0.10935919855E+04  0.25500000920E-02 0.  1.
    10030    2    1    2    0    0  0.00000000000E+00  0.00000000000E+00  0.12716648645E+02  0.21999006197E+04  0.21998638647E+04 0.  0.
        1    1    3    3  502    0 -0.60103050979E+03 -0.56133954091E+03 -0.72407191168E+03  0.10957280170E+04  0.50400001928E-02 0.  1.
       -1    1    3    3    0  502  0.60103050979E+03  0.56133954091E+03  0.73678856032E+03  0.11041726027E+04  0.50400001928E-02 0. -1.
</event>
<event>
 5   0  0.1107101E-06  0.2201463E+04  0.7818609E-02  0.8517819E-01
        1   -1    0    0  501    0  0.00000000000E+00  0.00000000000E+00  0.12304230912E+04  0.12304230912E+04  0.50400001928E-02 0.  1.
       -1   -1    0    0    0  501  0.00000000000E+00  0.00000000000E+00 -0.98471000718E+03  0.98471000719E+03  0.50400001928E-02 0. -1.
    10030    2    1    2    0    0  0.00000000000E+00  0.00000000000E+00  0.24571308403E+03  0.22151330984E+04  0.22014630871E+04 0.  0.
        1    1    3    3  502    0 -0.22082213045E+03 -0.10783087943E+04  0.11291277354E+03  0.11064635392E+04  0.50400001928E-02 0.  1.
       -1    1    3    3    0  502  0.22082213045E+03  0.10783087943E+04  0.13280031049E+03  0.11086695592E+04  0.50400001928E-02 0. -1.
</event>
<event>
 5   0  0.2524749E-06  0.2200764E+04  0.7818609E-02  0.8518110E-01
        2   -1    0    0  501    0  0.00000000000E+00  0.00000000000E+00  0.82789382614E+03  0.82789382615E+03  0.25500000920E-02 0. -1.
       -2   -1    0    0    0  501  0.00000000000E+00  0.00000000000E+00 -0.14625557723E+04  0.14625557723E+04  0.25500000920E-02 0.  1.
    10030    2    1    2    0    0  0.00000000000E+00  0.00000000000E+00 -0.63466194611E+03  0.22904495984E+04  0.22007643165E+04 0.  0.
        4    1    3    3  502    0 -0.37679007236E+03 -0.60821943369E+03 -0.11874254650E+04  0.13863197632E+04  0.12699999809E+01 0.  1.
       -4    1    3    3    0  502  0.37679007236E+03  0.60821943369E+03  0.55276351886E+03  0.90412983517E+03  0.12699999809E+01 0. -1.
</event>
<event>
 5   0  0.2532239E-06  0.2200241E+04  0.7818609E-02  0.8518328E-01
       -2   -1    0    0    0  501  0.00000000000E+00  0.00000000000E+00  0.42612552273E+03  0.42612552273E+03  0.25500000920E-02 0.  1.
        2   -1    0    0  501    0  0.00000000000E+00  0.00000000000E+00 -0.28401616806E+04  0.28401616806E+04  0.25500000920E-02 0. -1.
    10030    2    1    2    0    0  0.00000000000E+00  0.00000000000E+00 -0.24140361579E+04  0.32662872034E+04  0.22002412421E+04 0.  0.
        3    1    3    3  502    0 -0.10960124912E+04  0.52252650177E+02 -0.13247695534E+04  0.17201709508E+04  0.10100000352E+00 0. -1.
       -3    1    3    3    0  502  0.10960124912E+04 -0.52252650177E+02 -0.10892666045E+04  0.15461162525E+04  0.10100000352E+00 0.  1.
</event>
<event>
 5   0  0.1144271E-06  0.2198946E+04  0.7818609E-02  0.8518867E-01
        1   -1    0    0  501    0  0.00000000000E+00  0.00000000000E+00  0.14446250619E+04  0.14446250619E+04  0.50400001928E-02 0.  1.
       -1   -1    0    0    0  501  0.00000000000E+00  0.00000000000E+00 -0.83678548924E+03  0.83678548926E+03  0.50400001928E-02 0. -1.
    10030    2    1    2    0    0  0.00000000000E+00  0.00000000000E+00  0.60783957263E+03  0.22814105511E+04  0.21989463742E+04 0.  0.
        3    1    3    3  502    0  0.61448303689E+03 -0.89813206760E+03  0.14115873500E+03  0.10973406090E+04  0.10100000352E+00 0.  1.
       -3    1    3    3    0  502 -0.61448303689E+03  0.89813206760E+03  0.46668083764E+03  0.11840699421E+04  0.10100000352E+00 0. -1.
</event>
<event>
 5   0  0.1137869E-06  0.2199851E+04  0.7818609E-02  0.8518490E-01
        1   -1    0    0  501    0  0.00000000000E+00  0.00000000000E+00  0.10172723186E+04  0.10172723186E+04  0.50400001928E-02 0. -1.
       -1   -1    0    0    0  501  0.00000000000E+00  0.00000000000E+00 -0.11892946778E+04  0.11892946779E+04  0.50400001928E-02 0.  1.
    10030    2    1    2    0    0  0.00000000000E+00  0.00000000000E+00 -0.17202235923E+03  0.22065669965E+04  0.21998514081E+04 0.  0.
        5    1    3    3  502    0  0.38500978865E+03 -0.95420509289E+03 -0.47588085066E+03  0.11336774544E+04  0.46999998093E+01 0.  1.
       -5    1    3    3    0  502 -0.38500978865E+03  0.95420509289E+03  0.30385849143E+03  0.10728895421E+04  0.46999998093E+01 0. -1.
</event>
<event>
 5   0  0.8905000E-07  0.2199269E+04  0.7818609E-02  0.8518732E-01
       -3   -1    0    0    0  501  0.00000000000E+00  0.00000000000E+00  0.69429679398E+03  0.69429680132E+03  0.10100000352E+00 0.  1.
        3   -1    0    0  501    0  0.00000000000E+00  0.00000000000E+00 -0.17416130585E+04  0.17416130614E+04  0.10100000352E+00 0. -1.
    10030    2    1    2    0    0  0.00000000000E+00  0.00000000000E+00 -0.10473162645E+04  0.24359098627E+04  0.21992693108E+04 0.  0.
        5    1    3    3  502    0  0.30046435601E+03 -0.97509986177E+03 -0.69575088967E+02  0.10227225199E+04  0.46999998093E+01 0.  1.
       -5    1    3    3    0  502 -0.30046435601E+03  0.97509986177E+03 -0.97774117553E+03  0.14131873428E+04  0.46999998093E+01 0. -1.
</event>
<event>
 5   0  0.1146827E-06  0.2200744E+04  0.7818609E-02  0.8518119E-01
        1   -1    0    0  501    0  0.00000000000E+00  0.00000000000E+00  0.18043451706E+04  0.18043451706E+04  0.50400001928E-02 0.  1.
       -1   -1    0    0    0  501  0.00000000000E+00  0.00000000000E+00 -0.67105677660E+03  0.67105677662E+03  0.50400001928E-02 0. -1.
    10030    2    1    2    0    0  0.00000000000E+00  0.00000000000E+00  0.11332883940E+04  0.24754019472E+04  0.22007435599E+04 0.  0.
        4    1    3    3  502    0  0.10025756541E+03 -0.80835902737E+03  0.13987856633E+04  0.16186719375E+04  0.12699999809E+01 0.  1.
       -4    1    3    3    0  502 -0.10025756541E+03  0.80835902737E+03 -0.26549726933E+03  0.85673000968E+03  0.12699999809E+01 0. -1.
</event>
<event>
 5   0  0.2556869E-06  0.2199636E+04  0.7818609E-02  0.8518580E-01
       -2   -1    0    0    0  501  0.00000000000E+00  0.00000000000E+00  0.12694212053E+04  0.12694212053E+04  0.25500000920E-02 0. -1.
        2   -1    0    0  501    0  0.00000000000E+00  0.00000000000E+00 -0.95287507533E+03  0.95287507533E+03  0.25500000920E-02 0.  1.
    10030    2    1    2    0    0  0.00000000000E+00  0.00000000000E+00  0.31654612994E+03  0.22222962806E+04  0.21996361759E+04 0.  0.
        5    1    3    3  502    0  0.18826006545E+03  0.74159417628E+03 -0.63991261078E+03  0.99745376533E+03  0.46999998093E+01 0.  1.
       -5    1    3    3    0  502 -0.18826006545E+03 -0.74159417628E+03  0.95645874072E+03  0.12248425153E+04  0.46999998093E+01 0. -1.
</event>
<event>
 5   0  0.2606154E-06  0.2198359E+04  0.7818609E-02  0.8519111E-01
        2   -1    0    0  501    0  0.00000000000E+00  0.00000000000E+00  0.10827824782E+04  0.10827824782E+04  0.25500000920E-02 0.  1.
       -2   -1    0    0    0  501  0.00000000000E+00  0.00000000000E+00 -0.11158250218E+04  0.11158250218E+04  0.25500000920E-02 0. -1.
    10030    2    1    2    0    0  0.00000000000E+00  0.00000000000E+00 -0.33042543570E+02  0.21986075000E+04  0.21983591903E+04 0.  0.
        2    1    3    3  502    0 -0.10929278388E+04  0.84651971150E+02 -0.97391801383E+02  0.11005191411E+04  0.25500000920E-02 0. -1.
       -2    1    3    3    0  502  0.10929278388E+04 -0.84651971150E+02  0.64349257813E+02  0.10980883589E+04  0.25500000920E-02 0.  1.
</event>
<event>
 5   0  0.2532239E-06  0.2199736E+04  0.7818609E-02  0.8518538E-01
        2   -1    0    0  501    0  0.00000000000E+00  0.00000000000E+00  0.22094408484E+04  0.22094408484E+04  0.25500000920E-02 0.  1.
       -2   -1    0    0    0  501  0.00000000000E+00  0.00000000000E+00 -0.54751841262E+03  0.54751841263E+03  0.25500000920E-02 0. -1.
    10030    2    1    2    0    0  0.00000000000E+00  0.00000000000E+00  0.16619224358E+04  0.27569592610E+04  0.21997359352E+04 0.  0.
        3    1    3    3  502    0  0.29846328136E+03  0.35080412961E+03  0.20827485327E+04  0.21330694617E+04  0.10100000352E+00 0.  1.
       -3    1    3    3    0  502 -0.29846328136E+03 -0.35080412961E+03 -0.42082609693E+03  0.62388979935E+03  0.10100000352E+00 0. -1.
</event>
<event>
 5   0  0.2606154E-06  0.2198926E+04  0.7818609E-02  0.8518875E-01
        2   -1    0    0  501    0  0.00000000000E+00  0.00000000000E+00  0.16620374175E+04  0.16620374175E+04  0.25500000920E-02 0.  1.
       -2   -1    0    0    0  501  0.00000000000E+00  0.00000000000E+00 -0.72731156065E+03  0.72731156066E+03  0.25500000920E-02 0. -1.
    10030    2    1    2    0    0  0.00000000000E+00  0.00000000000E+00  0.93472585687E+03  0.23893489782E+04  0.21989261270E+04 0.  0.
        2    1    3    3  502    0  0.12608758289E+02  0.64333278153E+03 -0.50134582719E+03  0.81571054120E+03  0.25500000920E-02 0. -1.
       -2    1    3    3    0  502 -0.12608758289E+02 -0.64333278153E+03  0.14360716841E+04  0.15736384370E+04  0.25500000920E-02 0.  1.
</event>
<event>
 5   0  0.2532239E-06  0.2199363E+04  0.7818609E-02  0.8518693E-01
        2   -1    0    0  501    0  0.00000000000E+00  0.00000000000E+00  0.21842354140E+04  0.21842354140E+04  0.25500000920E-02 0. -1.
       -2   -1    0    0    0  501  0.00000000000E+00  0.00000000000E+00 -0.55364885145E+03  0.55364885146E+03  0.25500000920E-02 0.  1.
    10030    2    1    2    0    0  0.00000000000E+00  0.00000000000E+00  0.16305865626E+04  0.27378842655E+04  0.21993630244E+04 0.  0.
        3    1    3    3  502    0  0.25716621344E+03  0.84749070855E+03  0.38203641780E+01  0.88565770352E+03  0.10100000352E+00 0.  1.
       -3    1    3    3    0  502 -0.25716621344E+03 -0.84749070855E+03  0.16267661984E+04  0.18522265620E+04  0.10100000352E+00 0. -1.
</event>
<event>
 5   0  0.2556869E-06  0.2200715E+04  0.7818609E-02  0.8518130E-01
       -2   -1    0    0    0  501  0.00000000000E+00  0.00000000000E+00  0.89952114219E+03  0.89952114219E+03  0.25500000920E-02 0. -1.
        2   -1    0    0  501    0  0.00000000000E+00  0.00000000000E+00 -0.13460349272E+04  0.13460349272E+04  0.25500000920E-02 0.  1.
    10030    2    1    2    0    0  0.00000000000E+00  0.00000000000E+00 -0.44651378498E+03  0.22455560694E+04  0.22007152248E+04 0.  0.
        5    1    3    3  502    0 -0.90603719029E+02  0.10434255458E+04 -0.56750155281E+03  0.11912287798E+04  0.46999998093E+01 0.  1.
       -5    1    3    3    0  502  0.90603719029E+02 -0.10434255458E+04  0.12098776783E+03  0.10543272895E+04  0.46999998093E+01 0. -1.
</event>
<event>
 5   0  0.2524749E-06  0.2199371E+04  0.7818609E-02  0.8518690E-01
        2   -1    0    0  501    0  0.00000000000E+00  0.00000000000E+00  0.91966379706E+03  0.91966379706E+03  0.25500000920E-02 0. -1.
       -2   -1    0    0    0  501  0.00000000000E+00  0.00000000000E+00 -0.13149454968E+04  0.13149454968E+04  0.25500000920E-02 0.  1.
    10030    2    1    2    0    0  0.00000000000E+00  0.00000000000E+00 -0.39528169970E+03  0.22346092938E+04  0.21993706086E+04 0.  0.
        4    1    3    3  502    0  0.23809262993E+03 -0.16504379629E+03  0.88019471557E+03  0.92664551223E+03  0.12699999809E+01 0. -1.
       -4    1    3    3    0  502 -0.23809262993E+03  0.16504379629E+03 -0.12754764153E+04  0.13079637816E+04  0.12699999809E+01 0.  1.
</event>
<event>
 5   0  0.2524749E-06  0.2198891E+04  0.7818609E-02  0.8518890E-01
        2   -1    0    0  501    0  0.00000000000E+00  0.00000000000E+00  0.28613917403E+04  0.28613917403E+04  0.25500000920E-02 0.  1.
       -2   -1    0    0    0  501  0.00000000000E+00  0.00000000000E+00 -0.42244501733E+03  0.42244501734E+03  0.25500000920E-02 0. -1.
    10030    2    1    2    0    0  0.00000000000E+00  0.00000000000E+00  0.24389467230E+04  0.32838367576E+04  0.21988912509E+04 0.  0.
        4    1    3    3  502    0  0.54169245199E+03  0.79438532148E+03  0.42319212534E+03  0.10505103233E+04  0.12699999809E+01 0. -1.
       -4    1    3    3    0  502 -0.54169245199E+03 -0.79438532148E+03  0.20157545976E+04  0.22333264343E+04  0.12699999809E+01 0.  1.
</event>
<event>
 5   0  0.1107101E-06  0.2200292E+04  0.7818609E-02  0.8518306E-01
        1   -1    0    0  501    0  0.00000000000E+00  0.00000000000E+00  0.13850498070E+04  0.13850498070E+04  0.50400001928E-02 0.  1.
       -1   -1    0    0    0  501  0.00000000000E+00  0.00000000000E+00 -0.87384708278E+03  0.87384708279E+03  0.50400001928E-02 0. -1.
    10030    2    1    2    0    0  0.00000000000E+00  0.00000000000E+00  0.51120272417E+03  0.22588968898E+04  0.22002924654E+04 0.  0.
        1    1    3    3  502    0 -0.28845661382E+02  0.30705603224E+03 -0.82855917226E+03  0.88409602480E+03  0.50400001928E-02 0. -1.
       -1    1    3    3    0  502  0.28845661382E+02 -0.30705603224E+03  0.13397618964E+04  0.13748008650E+04  0.50400001928E-02 0.  1.
</event>
<event>
 5   0  0.2606154E-06  0.2201036E+04  0.7818609E-02  0.8517997E-01
       -2   -1    0    0    0  501  0.00000000000E+00  0.00000000000E+00  0.69323538198E+03  0.69323538198E+03  0.25500000920E-02 0. -1.
        2   -1    0    0  501    0  0.00000000000E+00  0.00000000000E+00 -0.17470838856E+04  0.17470838856E+04  0.25500000920E-02 0.  1.
    10030    2    1    2    0    0  0.00000000000E+00  0.00000000000E+00 -0.10538485037E+04  0.24403192676E+04  0.22010364511E+04 0.  0.
        2    1    3    3  502    0 -0.25541821804E+03  0.71403398815E+03 -0.14111589561E+04  0.16020151690E+04  0.25500000920E-02 0.  1.
       -2    1    3    3    0  502  0.25541821804E+03 -0.71403398815E+03  0.35731045244E+03  0.83830409862E+03  0.25500000920E-02 0. -1.
</event>
<event>
 5   0  0.1137869E-06  0.2199015E+04  0.7818609E-02  0.8518838E-01
       -1   -1    0    0    0  501  0.00000000000E+00  0.00000000000E+00  0.65674889832E+03  0.65674889834E+03  0.50400001928E-02 0.  1.
        1   -1    0    0  501    0  0.00000000000E+00  0.00000000000E+00 -0.18407602539E+04  0.18407602539E+04  0.50400001928E-02 0. -1.
    10030    2    1    2    0    0  0.00000000000E+00  0.00000000000E+00 -0.11840113556E+04  0.24975091523E+04  0.21990154787E+04 0.  0.
        5    1    3    3  502    0 -0.62758866991E+03  0.90276706042E+03 -0.58488803273E+03  0.12453802651E+04  0.46999998093E+01 0.  1.
       -5    1    3    3    0  502  0.62758866991E+03 -0.90276706042E+03 -0.59912332289E+03  0.12521288871E+04  0.46999998093E+01 0. -1.
</event>
<event>
 5   0  0.1146827E-06  0.2199812E+04  0.7818609E-02  0.8518506E-01
        1   -1    0    0  501    0  0.00000000000E+00  0.00000000000E+00  0.91622492573E+03  0.91622492575E+03  0.50400001928E-02 0.  1.
       -1   -1    0    0    0  501  0.00000000000E+00  0.00000000000E+00 -0.13204106813E+04  0.13204106813E+04  0.50400001928E-02 0. -1.
    10030    2    1    2    0    0  0.00000000000E+00  0.00000000000E+00 -0.40418575554E+03  0.22366356070E+04  0.21998119723E+04 0.  0.
        4    1    3    3  502    0  0.10285452505E+04 -0.38956695592E+03 -0.21340658905E+03  0.11203623212E+04  0.12699999809E+01 0.  1.
       -4    1    3    3    0  502 -0.10285452505E+04  0.38956695592E+03 -0.19077916649E+03  0.11162732859E+04  0.12699999809E+01 0. -1.
</event>
<event>
 5   0  0.1137869E-06  0.2199656E+04  0.7818609E-02  0.8518571E-01
       -1   -1    0    0    0  501  0.00000000000E+00  0.00000000000E+00  0.13413853426E+04  0.13413853426E+04  0.50400001928E-02 0. -1.
        1   -1    0    0  501    0  0.00000000000E+00  0.00000000000E+00 -0.90177042906E+03  0.90177042907E+03  0.50400001928E-02 0.  1.
    10030    2    1    2    0    0  0.00000000000E+00  0.00000000000E+00  0.43961491353E+03  0.22431557717E+04  0.21996560058E+04 0.  0.
        5    1    3    3  502    0 -0.46521728676E+03 -0.51622085603E+03  0.10891256993E+04  0.12919473576E+04  0.46999998093E+01 0. -1.
       -5    1    3    3    0  502  0.46521728676E+03  0.51622085603E+03 -0.64951078575E+03  0.95120841402E+03  0.46999998093E+01 0.  1.
</event>
<event>
 5   0  0.2581058E-06  0.2202536E+04  0.7818609E-02  0.8517373E-01
        2   -1    0    0  501    0  0.00000000000E+00  0.00000000000E+00  0.17591069394E+04  0.17591069394E+04  0.25500000920E-02 0. -1.
       -2   -1    0    0    0  501  0.00000000000E+00  0.00000000000E+00 -0.68943558944E+03  0.68943558945E+03  0.25500000920E-02 0.  1.
    10030    2    1    2    0    0  0.00000000000E+00  0.00000000000E+00  0.10696713499E+04  0.24485425288E+04  0.22025357474E+04 0.  0.
        1    1    3    3  502    0  0.28497714978E+03  0.25019230960E+02 -0.64740790091E+03  0.70779582367E+03  0.50400001928E-02 0.  1.
       -1    1    3    3    0  502 -0.28497714978E+03 -0.25019230960E+02  0.17170792508E+04  0.17407467051E+04  0.50400001928E-02 0. -1.
</event>
<event>
 5   0  0.2532239E-06  0.2196957E+04  0.7818609E-02  0.8519696E-01
       -2   -1    0    0    0  501  0.00000000000E+00  0.00000000000E+00  0.54452509730E+03  0.54452509731E+03  0.25500000920E-02 0.  1.
        2   -1    0    0  501    0  0.00000000000E+00  0.00000000000E+00 -0.22159768084E+04  0.22159768084E+04  0.25500000920E-02 0. -1.
    10030    2    1    2    0    0  0.00000000000E+00  0.00000000000E+00 -0.16714517110E+04  0.27605019057E+04  0.21969569747E+04 0.  0.
        3    1    3    3  502    0  0.68957821458E+03 -0.11593172897E+03 -0.19002045497E+04  0.20247803882E+04  0.10100000352E+00 0. -1.
       -3    1    3    3    0  502 -0.68957821458E+03  0.11593172897E+03  0.22875283863E+03  0.73572151742E+03  0.10100000352E+00 0.  1.
</event>
<event>
 5   0  0.2556869E-06  0.2200897E+04  0.7818609E-02  0.8518055E-01
       -2   -1    0    0    0  501  0.00000000000E+00  0.00000000000E+00  0.77709900677E+03  0.77709900677E+03  0.25500000920E-02 0.  1.
        2   -1    0    0  501    0  0.00000000000E+00  0.00000000000E+00 -0.15583428917E+04  0.15583428917E+04  0.25500000920E-02 0. -1.
    10030    2    1    2    0    0  0.00000000000E+00  0.00000000000E+00 -0.78124388493E+03  0.23354418985E+04  0.22008968293E+04 0.  0.
        5    1    3    3  502    0 -0.31657727843E+03  0.55291147459E+03 -0.13427076579E+04  0.14862093448E+04  0.46999998093E+01 0. -1.
       -5    1    3    3    0  502  0.31657727843E+03 -0.55291147459E+03  0.56146377294E+03  0.84923255371E+03  0.46999998093E+01 0.  1.
</event>
<event>
 5   0  0.1137869E-06  0.2200169E+04  0.7818609E-02  0.8518358E-01
        1   -1    0    0  501    0  0.00000000000E+00  0.00000000000E+00  0.99969984369E+03  0.99969984371E+03  0.50400001928E-02 0. -1.
       -1   -1    0    0    0  501  0.00000000000E+00  0.00000000000E+00 -0.12105492454E+04  0.12105492454E+04  0.50400001928E-02 0.  1.
    10030    2    1    2    0    0  0.00000000000E+00  0.00000000000E+00 -0.21084940168E+03  0.22102490891E+04  0.22001689857E+04 0.  0.
        5    1    3    3  502    0  0.22785922565E+03 -0.88270164936E+03 -0.72394169033E+03  0.11641287255E+04  0.46999998093E+01 0.  1.
       -5    1    3    3    0  502 -0.22785922565E+03  0.88270164936E+03  0.51309228864E+03  0.10461203636E+04  0.46999998093E+01 0. -1.
</event>
<event>
 5   0  0.2532239E-06  0.2196873E+04  0.7818609E-02  0.8519731E-01
       -2   -1    0    0    0  501  0.00000000000E+00  0.00000000000E+00  0.16983538224E+04  0.16983538224E+04  0.25500000920E-02 0. -1.
        2   -1    0    0  501    0  0.00000000000E+00  0.00000000000E+00 -0.71043081891E+03  0.71043081891E+03  0.25500000920E-02 0.  1.
    10030    2    1    2    0    0  0.00000000000E+00  0.00000000000E+00  0.98792300346E+03  0.24087846413E+04  0.21968731386E+04 0.  0.
        3    1    3    3  502    0 -0.46574808948E+02  0.74690699556E+03  0.13755891280E+04  0.15659772451E+04  0.10100000352E+00 0. -1.
       -3    1    3    3    0  502  0.46574808948E+02 -0.74690699556E+03 -0.38766612451E+03  0.84280739623E+03  0.10100000352E+00 0.  1.
</event>
<event>
 5   0  0.2524749E-06  0.2199745E+04  0.7818609E-02  0.8518534E-01
        2   -1    0    0  501    0  0.00000000000E+00  0.00000000000E+00  0.20243587808E+04  0.20243587808E+04  0.25500000920E-02 0. -1.
       -2   -1    0    0    0  501  0.00000000000E+00  0.00000000000E+00 -0.59758153286E+03  0.59758153286E+03  0.25500000920E-02 0.  1.
    10030    2    1    2    0    0  0.00000000000E+00  0.00000000000E+00  0.14267772479E+04  0.26219403136E+04  0.21997449155E+04 0.  0.
        4    1    3    3  502    0  0.88861258849E+03 -0.23746565725E+03 -0.54302403448E+01  0.91981159550E+03  0.12699999809E+01 0.  1.
       -4    1    3    3    0  502 -0.88861258849E+03  0.23746565725E+03  0.14322074883E+04  0.17021287181E+04  0.12699999809E+01 0. -1.
</event>
<event>
 5   0  0.2556869E-06  0.2198114E+04  0.7818609E-02  0.8519214E-01
       -2   -1    0    0    0  501  0.00000000000E+00  0.00000000000E+00  0.97841847857E+03  0.97841847858E+03  0.25500000920E-02 0.  1.
        2   -1    0    0  501    0  0.00000000000E+00  0.00000000000E+00 -0.12345701884E+04  0.12345701884E+04  0.25500000920E-02 0. -1.
    10030    2    1    2    0    0  0.00000000000E+00  0.00000000000E+00 -0.25615170986E+03  0.22129886670E+04  0.21981139966E+04 0.  0.
        5    1    3    3  502    0 -0.75518651260E+03 -0.79373454117E+03 -0.40406130006E+02  0.10963466313E+04  0.46999998093E+01 0. -1.
       -5    1    3    3    0  502  0.75518651260E+03  0.79373454117E+03 -0.21574557986E+03  0.11166420357E+04  0.46999998093E+01 0.  1.
</event>
<event>
 5   0  0.1137869E-06  0.2199642E+04  0.7818609E-02  0.8518577E-01
       -1   -1    0    0    0  501  0.00000000000E+00  0.00000000000E+00  0.14751872306E+04  0.14751872306E+04  0.50400001928E-02 0. -1.
        1   -1    0    0  501    0  0.00000000000E+00  0.00000000000E+00 -0.81996785093E+03  0.81996785095E+03  0.50400001928E-02 0.  1.
    10030    2    1    2    0    0  0.00000000000E+00  0.00000000000E+00  0.65521937962E+03  0.22951550815E+04  0.21996418828E+04 0.  0.
        5    1    3    3  502    0  0.28447432117E+03 -0.10615779135E+04  0.28445302104E+03  0.11352572030E+04  0.46999998093E+01 0. -1.
       -5    1    3    3    0  502 -0.28447432117E+03  0.10615779135E+04  0.37076635858E+03  0.11598978785E+04  0.46999998093E+01 0.  1.
</event>
<event>
 5   0  0.2532239E-06  0.2198557E+04  0.7818609E-02  0.8519029E-01
        2   -1    0    0  501    0  0.00000000000E+00  0.00000000000E+00  0.91232917455E+03  0.91232917456E+03  0.25500000920E-02 0.  1.
       -2   -1    0    0    0  501  0.00000000000E+00  0.00000000000E+00 -0.13245362801E+04  0.13245362801E+04  0.25500000920E-02 0. -1.
    10030    2    1    2    0    0  0.00000000000E+00  0.00000000000E+00 -0.41220710556E+03  0.22368654547E+04  0.21985568822E+04 0.  0.
        3    1    3    3  502    0  0.34633711793E+03  0.94590726457E+03  0.24170552492E+03  0.10359109631E+04  0.10100000352E+00 0.  1.
       -3    1    3    3    0  502 -0.34633711793E+03 -0.94590726457E+03 -0.65391263048E+03  0.12009544916E+04  0.10100000352E+00 0. -1.
</event>
<event>
 5   0  0.2581058E-06  0.2200223E+04  0.7818609E-02  0.8518335E-01
       -2   -1    0    0    0  501  0.00000000000E+00  0.00000000000E+00  0.14321843271E+04  0.14321843271E+04  0.25500000920E-02 0. -1.
        2   -1    0    0  501    0  0.00000000000E+00  0.00000000000E+00 -0.84503449344E+03  0.84503449345E+03  0.25500000920E-02 0.  1.
    10030    2    1    2    0    0  0.00000000000E+00  0.00000000000E+00  0.58714983369E+03  0.22772188206E+04  0.22002228591E+04 0.  0.
        1    1    3    3  502    0  0.49615567582E+03  0.41486544791E+02  0.13089007186E+04  0.14003973291E+04  0.50400001928E-02 0. -1.
       -1    1    3    3    0  502 -0.49615567582E+03 -0.41486544791E+02 -0.72175088493E+03  0.87682149151E+03  0.50400001928E-02 0.  1.
</event>
<event>
 5   0  0.2524749E-06  0.2200685E+04  0.7818609E-02  0.8518143E-01
        2   -1    0    0  501    0  0.00000000000E+00  0.00000000000E+00  0.18199652780E+04  0.18199652780E+04  0.25500000920E-02 0.  1.
       -2   -1    0    0    0  501  0.00000000000E+00  0.00000000000E+00 -0.66526197973E+03  0.66526197974E+03  0.25500000920E-02 0. -1.
    10030    2    1    2    0    0  0.00000000000E+00  0.00000000000E+00  0.11547032983E+04  0.24852272578E+04  0.22006850787E+04 0.  0.
        4    1    3    3  502    0  0.29458796527E+03 -0.29570796591E+03 -0.57238528149E+03  0.70841498696E+03  0.12699999809E+01 0. -1.
       -4    1    3    3    0  502 -0.29458796527E+03  0.29570796591E+03  0.17270885798E+04  0.17768122708E+04  0.12699999809E+01 0.  1.
</event>
<event>
 5   0  0.2581058E-06  0.2199896E+04  0.7818609E-02  0.8518471E-01
       -2   -1    0    0    0  501  0.00000000000E+00  0.00000000000E+00  0.16727328585E+04  0.16727328585E+04  0.25500000920E-02 0. -1.
        2   -1    0    0  501    0  0.00000000000E+00  0.00000000000E+00 -0.72329887464E+03  0.72329887464E+03  0.25500000920E-02 0.  1.
    10030    2    1    2    0    0  0.00000000000E+00  0.00000000000E+00  0.94943398384E+03  0.23960317331E+04  0.21998961740E+04 0.  0.
        1    1    3    3  502    0  0.31041969774E+03  0.10498603691E+04  0.35884274022E+03  0.11521003844E+04  0.50400001928E-02 0. -1.
       -1    1    3    3    0  502 -0.31041969774E+03 -0.10498603691E+04  0.59059124362E+03  0.12439313488E+04  0.50400001928E-02 0.  1.
</event>
<event>
 5   0  0.2532239E-06  0.2198396E+04  0.7818609E-02  0.8519096E-01
       -2   -1    0    0    0  501  0.00000000000E+00  0.00000000000E+00  0.73017230516E+03  0.73017230517E+03  0.25500000920E-02 0. -1.
        2   -1    0    0  501    0  0.00000000000E+00  0.00000000000E+00 -0.16547271026E+04  0.16547271026E+04  0.25500000920E-02 0.  1.
    10030    2    1    2    0    0  0.00000000000E+00  0.00000000000E+00 -0.92455479745E+03  0.23848994078E+04  0.21983956904E+04 0.  0.
        3    1    3    3  502    0  0.53859222811E+03  0.68603379909E+02  0.57454909962E+03  0.79050280834E+03  0.10100000352E+00 0. -1.
       -3    1    3    3    0  502 -0.53859222811E+03 -0.68603379909E+02 -0.14991038971E+04  0.15943965994E+04  0.10100000352E+00 0.  1.
</event>
<event>
 5   0  0.2606154E-06  0.2199743E+04  0.7818609E-02  0.8518535E-01
       -2   -1    0    0    0  501  0.00000000000E+00  0.00000000000E+00  0.86783906799E+03  0.86783906799E+03  0.25500000920E-02 0. -1.
        2   -1    0    0  501    0  0.00000000000E+00  0.00000000000E+00 -0.13939418313E+04  0.13939418313E+04  0.25500000920E-02 0.  1.
    10030    2    1    2    0    0  0.00000000000E+00  0.00000000000E+00 -0.52610276332E+03  0.22617808993E+04  0.21997428756E+04 0.  0.
        2    1    3    3  502    0  0.46382833484E+03  0.77105489829E+03  0.38728545585E+03  0.97961849957E+03  0.25500000920E-02 0. -1.
       -2    1    3    3    0  502 -0.46382833484E+03 -0.77105489829E+03 -0.91338821917E+03  0.12821623997E+04  0.25500000920E-02 0.  1.
</event>
<event>
 5   0  0.2581058E-06  0.2199672E+04  0.7818609E-02  0.8518565E-01
        2   -1    0    0  501    0  0.00000000000E+00  0.00000000000E+00  0.10537665374E+04  0.10537665374E+04  0.25500000920E-02 0.  1.
       -2   -1    0    0    0  501  0.00000000000E+00  0.00000000000E+00 -0.11479194756E+04  0.11479194756E+04  0.25500000920E-02 0. -1.
    10030    2    1    2    0    0  0.00000000000E+00  0.00000000000E+00 -0.94152938174E+02  0.22016860130E+04  0.21996719128E+04 0.  0.
        1    1    3    3  502    0  0.29958873881E+03 -0.65291774250E+03 -0.88065601756E+03  0.11364902165E+04  0.50400001928E-02 0. -1.
       -1    1    3    3    0  502 -0.29958873881E+03  0.65291774250E+03  0.78650307939E+03  0.10651957965E+04  0.50400001928E-02 0.  1.
</event>
<event>
 5   0  0.2606154E-06  0.2199613E+04  0.7818609E-02  0.8518589E-01
       -2   -1    0    0    0  501  0.00000000000E+00  0.00000000000E+00  0.10281111849E+04  0.10281111849E+04  0.25500000920E-02 0.  1.
        2   -1    0    0  501    0  0.00000000000E+00  0.00000000000E+00 -0.11765015706E+04  0.11765015706E+04  0.25500000920E-02 0. -1.
    10030    2    1    2    0    0  0.00000000000E+00  0.00000000000E+00 -0.14839038574E+03  0.22046127555E+04  0.21996130785E+04 0.  0.
        2    1    3    3  502    0 -0.71935116036E+02  0.93728227542E+03  0.49798040871E+03  0.10637937827E+04  0.25500000920E-02 0.  1.
       -2    1    3    3    0  502  0.71935116036E+02 -0.93728227542E+03 -0.64637079445E+03  0.11408189728E+04  0.25500000920E-02 0. -1.
</event>
<event>
 5   0  0.1107101E-06  0.2199353E+04  0.7818609E-02  0.8518697E-01
       -1   -1    0    0    0  501  0.00000000000E+00  0.00000000000E+00  0.63763422914E+03  0.63763422916E+03  0.50400001928E-02 0.  1.
        1   -1    0    0  501    0  0.00000000000E+00  0.00000000000E+00 -0.18965235237E+04  0.18965235237E+04  0.50400001928E-02 0. -1.
    10030    2    1    2    0    0  0.00000000000E+00  0.00000000000E+00 -0.12588892946E+04  0.25341577529E+04  0.21993529186E+04 0.  0.
        1    1    3    3  502    0  0.34665835838E+03  0.33516438591E+03  0.50932885615E+03  0.70137227401E+03  0.50400001928E-02 0.  1.
       -1    1    3    3    0  502 -0.34665835838E+03 -0.33516438591E+03 -0.17682181507E+04  0.18327854789E+04  0.50400001928E-02 0. -1.
</event>
<event>
 5   0  0.1082209E-06  0.2199733E+04  0.7818609E-02  0.8518539E-01
        1   -1    0    0  501    0  0.00000000000E+00  0.00000000000E+00  0.23124558974E+04  0.23124558974E+04  0.50400001928E-02 0. -1.
       -1   -1    0    0    0  501  0.00000000000E+00  0.00000000000E+00 -0.52312633358E+03  0.52312633360E+03  0.50400001928E-02 0.  1.
    10030    2    1    2    0    0  0.00000000000E+00  0.00000000000E+00  0.17893295638E+04  0.28355822310E+04  0.21997332340E+04 0.  0.
        2    1    3    3  502    0 -0.37544580313E+03  0.56552087575E+03  0.20102269068E+04  0.21217411785E+04  0.25500000920E-02 0. -1.
       -2    1    3    3    0  502  0.37544580313E+03 -0.56552087575E+03 -0.22089734298E+03  0.71384105244E+03  0.25500000920E-02 0.  1.
</event>
<event>
 5   0  0.1146827E-06  0.2200172E+04  0.7818609E-02  0.8518356E-01
       -1   -1    0    0    0  501  0.00000000000E+00  0.00000000000E+00  0.75701471402E+03  0.75701471404E+03  0.50400001928E-02 0. -1.
        1   -1    0    0  501    0  0.00000000000E+00  0.00000000000E+00 -0.15986343319E+04  0.15986343319E+04  0.50400001928E-02 0.  1.
    10030    2    1    2    0    0  0.00000000000E+00  0.00000000000E+00 -0.84161961791E+03  0.23556490460E+04  0.22001724584E+04 0.  0.
        4    1    3    3  502    0 -0.56908708555E+03 -0.16562967776E+03  0.57144645726E+03  0.82331401513E+03  0.12699999809E+01 0. -1.
       -4    1    3    3    0  502  0.56908708555E+03  0.16562967776E+03 -0.14130660752E+04  0.15323350309E+04  0.12699999809E+01 0.  1.
</event>
<event>
 5   0  0.1137869E-06  0.2199571E+04  0.7818609E-02  0.8518607E-01
        1   -1    0    0  501    0  0.00000000000E+00  0.00000000000E+00  0.20391846534E+04  0.20391846534E+04  0.50400001928E-02 0. -1.
       -1   -1    0    0    0  501  0.00000000000E+00  0.00000000000E+00 -0.59314310380E+03  0.59314310382E+03  0.50400001928E-02 0.  1.
    10030    2    1    2    0    0  0.00000000000E+00  0.00000000000E+00  0.14460415496E+04  0.26323277572E+04  0.21995711533E+04 0.  0.
        5    1    3    3  502    0  0.24911753470E+03 -0.83811251385E+03 -0.75320953891E+02  0.87760325208E+03  0.46999998093E+01 0.  1.
       -5    1    3    3    0  502 -0.24911753470E+03  0.83811251385E+03  0.15213625035E+04  0.17547245051E+04  0.46999998093E+01 0. -1.
</event>
<event>
 5   0  0.2532239E-06  0.2200431E+04  0.7818609E-02  0.8518249E-01
       -2   -1    0    0    0  501  0.00000000000E+00  0.00000000000E+00  0.65937185782E+03  0.65937185782E+03  0.25500000920E-02 0. -1.
        2   -1    0    0  501    0  0.00000000000E+00  0.00000000000E+00 -0.18357986570E+04  0.18357986570E+04  0.25500000920E-02 0.  1.
    10030    2    1    2    0    0  0.00000000000E+00  0.00000000000E+00 -0.11764267992E+04  0.24951705149E+04  0.22004308406E+04 0.  0.
        3    1    3    3  502    0  0.24521605712E+03 -0.84449641146E+03  0.16153770572E+03  0.89409146300E+03  0.10100000352E+00 0. -1.
       -3    1    3    3    0  502 -0.24521605712E+03  0.84449641146E+03 -0.13379645049E+04  0.16010790519E+04  0.10100000352E+00 0.  1.
</event>
<event>
 5   0  0.2532239E-06  0.2198716E+04  0.7818609E-02  0.8518963E-01
        2   -1    0    0  501    0  0.00000000000E+00  0.00000000000E+00  0.15085966061E+04  0.15085966061E+04  0.25500000920E-02 0. -1.
       -2   -1    0    0    0  501  0.00000000000E+00  0.00000000000E+00 -0.80113399410E+03  0.80113399411E+03  0.25500000920E-02 0.  1.
    10030    2    1    2    0    0  0.00000000000E+00  0.00000000000E+00  0.70746261199E+03  0.23097306002E+04  0.21987160113E+04 0.  0.
        3    1    3    3  502    0  0.35658606191E+03 -0.81211231092E+03  0.10360716714E+04  0.13638638288E+04  0.10100000352E+00 0. -1.
       -3    1    3    3    0  502 -0.35658606191E+03  0.81211231092E+03 -0.32860905940E+03  0.94586677139E+03  0.10100000352E+00 0.  1.
</event>
<event>
 5   0  0.1144271E-06  0.2199962E+04  0.7818609E-02  0.8518444E-01
        1   -1    0    0  501    0  0.00000000000E+00  0.00000000000E+00  0.80564811848E+03  0.80564811850E+03  0.50400001928E-02 0. -1.
       -1   -1    0    0    0  501  0.00000000000E+00  0.00000000000E+00 -0.15018443105E+04  0.15018443105E+04  0.50400001928E-02 0.  1.
    10030    2    1    2    0    0  0.00000000000E+00  0.00000000000E+00 -0.69619619198E+03  0.23074924290E+04  0.21999618569E+04 0.  0.
        3    1    3    3  502    0  0.40528354974E+03  0.26025901344E+03  0.68916176456E+03  0.84079335018E+03  0.10100000352E+00 0. -1.
       -3    1    3    3    0  502 -0.40528354974E+03 -0.26025901344E+03 -0.13853579565E+04  0.14666990788E+04  0.10100000352E+00 0.  1.
</event>
<event>
 5   0  0.1146827E-06  0.2200253E+04  0.7818609E-02  0.8518323E-01
        1   -1    0    0  501    0  0.00000000000E+00  0.00000000000E+00  0.18447475288E+04  0.18447475288E+04  0.50400001928E-02 0. -1.
       -1   -1    0    0    0  501  0.00000000000E+00  0.00000000000E+00 -0.65606722299E+03  0.65606722301E+03  0.50400001928E-02 0.  1.
    10030    2    1    2    0    0  0.00000000000E+00  0.00000000000E+00  0.11886803058E+04  0.25008147518E+04  0.22002530658E+04 0.  0.
        4    1    3    3  502    0  0.26969326349E+03 -0.31534131990E+03  0.17523944898E+04  0.18008505394E+04  0.12699999809E+01 0.  1.
       -4    1    3    3    0  502 -0.26969326349E+03  0.31534131990E+03 -0.56371418405E+03  0.69996421238E+03  0.12699999809E+01 0. -1.
</event>
<event>
 5   0  0.1137869E-06  0.2199527E+04  0.7818609E-02  0.8518625E-01
        1   -1    0    0  501    0  0.00000000000E+00  0.00000000000E+00  0.12680340991E+04  0.12680340991E+04  0.50400001928E-02 0.  1.
       -1   -1    0    0    0  501  0.00000000000E+00  0.00000000000E+00 -0.95382305183E+03  0.95382305185E+03  0.50400001928E-02 0. -1.
    10030    2    1    2    0    0  0.00000000000E+00  0.00000000000E+00  0.31421104726E+03  0.22218571509E+04  0.21995273622E+04 0.  0.
        5    1    3    3  502    0  0.70520541862E+02  0.14506897050E+03  0.12560098177E+04  0.12663336468E+04  0.46999998093E+01 0.  1.
       -5    1    3    3    0  502 -0.70520541862E+02 -0.14506897050E+03 -0.94179877040E+03  0.95552350413E+03  0.46999998093E+01 0. -1.
</event>
<event>
 5   0  0.2524749E-06  0.2199077E+04  0.7818609E-02  0.8518812E-01
        2   -1    0    0  501    0  0.00000000000E+00  0.00000000000E+00  0.16772328944E+04  0.16772328944E+04  0.25500000920E-02 0. -1.
       -2   -1    0    0    0  501  0.00000000000E+00  0.00000000000E+00 -0.72082104774E+03  0.72082104774E+03  0.25500000920E-02 0.  1.
    10030    2    1    2    0    0  0.00000000000E+00  0.00000000000E+00  0.95641184662E+03  0.23980539421E+04  0.21990768720E+04 0.  0.
        4    1    3    3  502    0  0.33363876396E+03 -0.13997291747E+03  0.16104582170E+04  0.16506012614E+04  0.12699999809E+01 0. -1.
       -4    1    3    3    0  502 -0.33363876396E+03  0.13997291747E+03 -0.65404637038E+03  0.74745268074E+03  0.12699999809E+01 0.  1.
</event>
<event>
 5   0  0.2524749E-06  0.2199638E+04  0.7818609E-02  0.8518579E-01
        2   -1    0    0  501    0  0.00000000000E+00  0.00000000000E+00  0.45418006078E+03  0.45418006079E+03  0.25500000920E-02 0. -1.
       -2   -1    0    0    0  501  0.00000000000E+00  0.00000000000E+00 -0.26632654451E+04  0.26632654451E+04  0.25500000920E-02 0.  1.
    10030    2    1    2    0    0  0.00000000000E+00  0.00000000000E+00 -0.22090853843E+04  0.31174455059E+04  0.21996382082E+04 0.  0.
        4    1    3    3  502    0  0.22148218668E+01  0.99142856521E+02 -0.26569151678E+04  0.26587655093E+04  0.12699999809E+01 0.  1.
       -4    1    3    3    0  502 -0.22148218668E+01 -0.99142856521E+02  0.44782978348E+03  0.45867999663E+03  0.12699999809E+01 0. -1.
</event>
<event>
 5   0  0.2532239E-06  0.2200558E+04  0.7818609E-02  0.8518196E-01
        2   -1    0    0  501    0  0.00000000000E+00  0.00000000000E+00  0.10922984601E+04  0.10922984601E+04  0.25500000920E-02 0.  1.
       -2   -1    0    0    0  501  0.00000000000E+00  0.00000000000E+00 -0.11083177670E+04  0.11083177670E+04  0.25500000920E-02 0. -1.
    10030    2    1    2    0    0  0.00000000000E+00  0.00000000000E+00 -0.16019306935E+02  0.22006162271E+04  0.22005579204E+04 0.  0.
        3    1    3    3  502    0  0.21000956051E+03  0.77542208052E+03  0.74382830451E+03  0.10948351361E+04  0.10100000352E+00 0.  1.
       -3    1    3    3    0  502 -0.21000956051E+03 -0.77542208052E+03 -0.75984761145E+03  0.11057810910E+04  0.10100000352E+00 0. -1.
</event>
<event>
 5   0  0.1107101E-06  0.2197603E+04  0.7818609E-02  0.8519426E-01
       -1   -1    0    0    0  501  0.00000000000E+00  0.00000000000E+00  0.11817109386E+04  0.11817109386E+04  0.50400001928E-02 0.  1.
        1   -1    0    0  501    0  0.00000000000E+00  0.00000000000E+00 -0.10217090366E+04  0.10217090366E+04  0.50400001928E-02 0. -1.
    10030    2    1    2    0    0  0.00000000000E+00  0.00000000000E+00  0.16000190195E+03  0.22034199752E+04  0.21976030075E+04 0.  0.
        1    1    3    3  502    0  0.84046072885E+03 -0.11295627093E+03  0.78058604046E+03  0.11525831521E+04  0.50400001928E-02 0.  1.
       -1    1    3    3    0  502 -0.84046072885E+03  0.11295627093E+03 -0.62058413851E+03  0.10508368231E+04  0.50400001928E-02 0. -1.
</event>
<event>
 5   0  0.2524749E-06  0.2199687E+04  0.7818609E-02  0.8518559E-01
       -2   -1    0    0    0  501  0.00000000000E+00  0.00000000000E+00  0.77958293703E+03  0.77958293703E+03  0.25500000920E-02 0. -1.
        2   -1    0    0  501    0  0.00000000000E+00  0.00000000000E+00 -0.15516697748E+04  0.15516697748E+04  0.25500000920E-02 0.  1.
    10030    2    1    2    0    0  0.00000000000E+00  0.00000000000E+00 -0.77208683778E+03  0.23312527118E+04  0.21996865962E+04 0.  0.
        4    1    3    3  502    0  0.14390592122E+03 -0.21375579404E+03  0.74713882637E+03  0.79032809163E+03  0.12699999809E+01 0. -1.
       -4    1    3    3    0  502 -0.14390592122E+03  0.21375579404E+03 -0.15192256641E+04  0.15409246202E+04  0.12699999809E+01 0.  1.
</event>
<event>
 5   0  0.1146827E-06  0.2203534E+04  0.7818609E-02  0.8516959E-01
        1   -1    0    0  501    0  0.00000000000E+00  0.00000000000E+00  0.14312960432E+04  0.14312960432E+04  0.50400001928E-02 0. -1.
       -1   -1    0    0    0  501  0.00000000000E+00  0.00000000000E+00 -0.84810589849E+03  0.84810589851E+03  0.50400001928E-02 0.  1.
    10030    2    1    2    0    0  0.00000000000E+00  0.00000000000E+00  0.58319014472E+03  0.22794019417E+04  0.22035340857E+04 0.  0.
        4    1    3    3  502    0  0.64755705051E+03 -0.36362057049E+03  0.11334578132E+04  0.13550934581E+04  0.12699999809E+01 0. -1.
       -4    1    3    3    0  502 -0.64755705051E+03  0.36362057049E+03 -0.55026766852E+03  0.92430848361E+03  0.12699999809E+01 0.  1.
</event>
<event>
 5   0  0.2581058E-06  0.2200160E+04  0.7818609E-02  0.8518362E-01
        2   -1    0    0  501    0  0.00000000000E+00  0.00000000000E+00  0.81526805741E+03  0.81526805742E+03  0.25500000920E-02 0.  1.
       -2   -1    0    0    0  501  0.00000000000E+00  0.00000000000E+00 -0.14843900253E+04  0.14843900253E+04  0.25500000920E-02 0. -1.
    10030    2    1    2    0    0  0.00000000000E+00  0.00000000000E+00 -0.66912196791E+03  0.22996580827E+04  0.22001597873E+04 0.  0.
        1    1    3    3  502    0 -0.47850373208E+03  0.96380398249E+03 -0.57357643892E+03  0.12193743763E+04  0.50400001928E-02 0. -1.
       -1    1    3    3    0  502  0.47850373208E+03 -0.96380398249E+03 -0.95545528995E+02  0.10802837064E+04  0.50400001928E-02 0.  1.
</event>
<event>
 5   0  0.2556869E-06  0.2212234E+04  0.7818609E-02  0.8513353E-01
        2   -1    0    0  501    0  0.00000000000E+00  0.00000000000E+00  0.12542586353E+04  0.12542586353E+04  0.25500000920E-02 0.  1.
       -2   -1    0    0    0  501  0.00000000000E+00  0.00000000000E+00 -0.97547293867E+03  0.97547293867E+03  0.25500000920E-02 0. -1.
    10030    2    1    2    0    0  0.00000000000E+00  0.00000000000E+00  0.27878569667E+03  0.22297315740E+04  0.22122344875E+04 0.  0.
        5    1    3    3  502    0 -0.42585782729E+03  0.81465824121E+03  0.75944164381E+03  0.11923911436E+04  0.46999998093E+01 0.  1.
       -5    1    3    3    0  502  0.42585782729E+03 -0.81465824121E+03 -0.48065594714E+03  0.10373404304E+04  0.46999998093E+01 0. -1.
</event>
<event>
 5   0  0.1107101E-06  0.2202884E+04  0.7818609E-02  0.8517229E-01
        1   -1    0    0  501    0  0.00000000000E+00  0.00000000000E+00  0.83995622700E+03  0.83995622701E+03  0.50400001928E-02 0.  1.
       -1   -1    0    0    0  501  0.00000000000E+00  0.00000000000E+00 -0.14443308652E+04  0.14443308652E+04  0.50400001928E-02 0. -1.
    10030    2    1    2    0    0  0.00000000000E+00  0.00000000000E+00 -0.60437463823E+03  0.22842870922E+04  0.22028842041E+04 0.  0.
        1    1    3    3  502    0 -0.59044582271E+02 -0.10305436705E+04 -0.70066360864E+03  0.12475720468E+04  0.50400001928E-02 0. -1.
       -1    1    3    3    0  502  0.59044582271E+02  0.10305436705E+04  0.96288970408E+02  0.10367150454E+04  0.50400001928E-02 0.  1.
</event>
<event>
 5   0  0.1107101E-06  0.2200497E+04  0.7818609E-02  0.8518221E-01
        1   -1    0    0  501    0  0.00000000000E+00  0.00000000000E+00  0.91861190119E+03  0.91861190120E+03  0.50400001928E-02 0. -1.
       -1   -1    0    0    0  501  0.00000000000E+00  0.00000000000E+00 -0.13178003762E+04  0.13178003762E+04  0.50400001928E-02 0.  1.
    10030    2    1    2    0    0  0.00000000000E+00  0.00000000000E+00 -0.39918847505E+03  0.22364122775E+04  0.22004973156E+04 0.  0.
        1    1    3    3  502    0 -0.98363326126E+02 -0.37865633186E+03 -0.12447220253E+04  0.13047562539E+04  0.50400001928E-02 0.  1.
       -1    1    3    3    0  502  0.98363326126E+02  0.37865633186E+03  0.84553355030E+03  0.93165602359E+03  0.50400001928E-02 0. -1.
</event>
<event>
 5   0  0.1146827E-06  0.2199248E+04  0.7818609E-02  0.8518741E-01
        1   -1    0    0  501    0  0.00000000000E+00  0.00000000000E+00  0.60483312336E+03  0.60483312338E+03  0.50400001928E-02 0. -1.
       -1   -1    0    0    0  501  0.00000000000E+00  0.00000000000E+00 -0.19991839804E+04  0.19991839804E+04  0.50400001928E-02 0.  1.
    10030    2    1    2    0    0  0.00000000000E+00  0.00000000000E+00 -0.13943508570E+04  0.26040171038E+04  0.21992477724E+04 0.  0.
        4    1    3    3  502    0 -0.83414405211E+03 -0.18853971452E+03 -0.15156501425E+04  0.17402702351E+04  0.12699999809E+01 0.  1.
       -4    1    3    3    0  502  0.83414405211E+03  0.18853971452E+03  0.12129928552E+03  0.86374686870E+03  0.12699999809E+01 0. -1.
</event>
<event>
 5   0  0.2524749E-06  0.2199858E+04  0.7818609E-02  0.8518487E-01
        2   -1    0    0  501    0  0.00000000000E+00  0.00000000000E+00  0.21405164119E+04  0.21405164119E+04  0.25500000920E-02 0. -1.
       -2   -1    0    0    0  501  0.00000000000E+00  0.00000000000E+00 -0.56521142963E+03  0.56521142964E+03  0.25500000920E-02 0.  1.
    10030    2    1    2    0    0  0.00000000000E+00  0.00000000000E+00  0.15753049823E+04  0.27057278415E+04  0.21998584876E+04 0.  0.
        4    1    3    3  502    0  0.34233640741E+03 -0.94056779496E+03  0.13485724856E+04  0.16794378091E+04  0.12699999809E+01 0.  1.
       -4    1    3    3    0  502 -0.34233640741E+03  0.94056779496E+03  0.22673249665E+03  0.10262900324E+04  0.12699999809E+01 0. -1.
</event>
<event>
 5   0  0.1107101E-06  0.2201788E+04  0.7818609E-02  0.8517684E-01
       -1   -1    0    0    0  501  0.00000000000E+00  0.00000000000E+00  0.12135241882E+04  0.12135241882E+04  0.50400001928E-02 0. -1.
        1   -1    0    0  501    0  0.00000000000E+00  0.00000000000E+00 -0.99871771610E+03  0.99871771612E+03  0.50400001928E-02 0.  1.
    10030    2    1    2    0    0  0.00000000000E+00  0.00000000000E+00  0.21480647212E+03  0.22122419044E+04  0.22017884601E+04 0.  0.
        1    1    3    3  502    0 -0.83815226787E+03  0.30502547436E+03 -0.54097311053E+03  0.10431642586E+04  0.50400001928E-02 0.  1.
       -1    1    3    3    0  502  0.83815226787E+03 -0.30502547436E+03  0.75577958264E+03  0.11690776457E+04  0.50400001928E-02 0. -1.
</event>
<event>
 5   0  0.2581058E-06  0.2200263E+04  0.7818609E-02  0.8518319E-01
        2   -1    0    0  501    0  0.00000000000E+00  0.00000000000E+00  0.18330146326E+04  0.18330146326E+04  0.25500000920E-02 0. -1.
       -2   -1    0    0    0  501  0.00000000000E+00  0.00000000000E+00 -0.66027273504E+03  0.66027273504E+03  0.25500000920E-02 0.  1.
    10030    2    1    2    0    0  0.00000000000E+00  0.00000000000E+00  0.11727418975E+04  0.24932873676E+04  0.22002632432E+04 0.  0.
        1    1    3    3  502    0 -0.66484805181E+03 -0.87632611611E+03  0.60661619369E+03  0.12561662311E+04  0.50400001928E-02 0.  1.
       -1    1    3    3    0  502  0.66484805181E+03  0.87632611611E+03  0.56612570385E+03  0.12371211365E+04  0.50400001928E-02 0. -1.
</event>
<event>
 5   0  0.8905000E-07  0.2201103E+04  0.7818609E-02  0.8517969E-01
        3   -1    0    0  501    0  0.00000000000E+00  0.00000000000E+00  0.60752242534E+03  0.60752243373E+03  0.10100000352E+00 0. -1.
       -3   -1    0    0    0  501  0.00000000000E+00  0.00000000000E+00 -0.19936941130E+04  0.19936941155E+04  0.10100000352E+00 0.  1.
    10030    2    1    2    0    0  0.00000000000E+00  0.00000000000E+00 -0.13861716876E+04  0.26012165493E+04  0.22011032662E+04 0.  0.
        3    1    3    3  502    0 -0.82792768735E+03 -0.24373406225E+03 -0.15001145423E+04  0.17306687143E+04  0.10100000352E+00 0.  1.
       -3    1    3    3    0  502  0.82792768735E+03  0.24373406225E+03  0.11394285465E+03  0.87054783494E+03  0.10100000352E+00 0. -1.
</event>
<event>
 5   0  0.1137869E-06  0.2200508E+04  0.7818609E-02  0.8518217E-01
        1   -1    0    0  501    0  0.00000000000E+00  0.00000000000E+00  0.11196791752E+04  0.11196791752E+04  0.50400001928E-02 0. -1.
       -1   -1    0    0    0  501  0.00000000000E+00  0.00000000000E+00 -0.10811659007E+04  0.10811659007E+04  0.50400001928E-02 0.  1.
    10030    2    1    2    0    0  0.00000000000E+00  0.00000000000E+00  0.38513274452E+02  0.22008450759E+04  0.22005080722E+04 0.  0.
        5    1    3    3  502    0  0.57307753521E+03 -0.13821455039E+03  0.94838530938E+03  0.11166816504E+04  0.46999998093E+01 0. -1.
       -5    1    3    3    0  502 -0.57307753521E+03  0.13821455039E+03 -0.90987203493E+03  0.10841634255E+04  0.46999998093E+01 0.  1.
</event>
<event>
 5   0  0.2532239E-06  0.2199011E+04  0.7818609E-02  0.8518840E-01
        2   -1    0    0  501    0  0.00000000000E+00  0.00000000000E+00  0.20622491967E+04  0.20622491967E+04  0.25500000920E-02 0. -1.
       -2   -1    0    0    0  501  0.00000000000E+00  0.00000000000E+00 -0.58621045113E+03  0.58621045114E+03  0.25500000920E-02 0.  1.
    10030    2    1    2    0    0  0.00000000000E+00  0.00000000000E+00  0.14760387456E+04  0.26484596478E+04  0.21990107157E+04 0.  0.
        3    1    3    3  502    0 -0.25396127459E+02 -0.10888502881E+04  0.55667170670E+03  0.12231611964E+04  0.10100000352E+00 0. -1.
       -3    1    3    3    0  502  0.25396127459E+02  0.10888502881E+04  0.91936703888E+03  0.14252984514E+04  0.10100000352E+00 0.  1.
</event>
<event>
 5   0  0.1107101E-06  0.2204609E+04  0.7818609E-02  0.8516512E-01
        1   -1    0    0  501    0  0.00000000000E+00  0.00000000000E+00  0.32032868428E+03  0.32032868432E+03  0.50400001928E-02 0.  1.
       -1   -1    0    0    0  501  0.00000000000E+00  0.00000000000E+00 -0.37932126223E+04  0.37932126223E+04  0.50400001928E-02 0. -1.
    10030    2    1    2    0    0  0.00000000000E+00  0.00000000000E+00 -0.34728839380E+04  0.41135413067E+04  0.22046086352E+04 0.  0.
        1    1    3    3  502    0 -0.78233029780E+03 -0.71223376578E+03 -0.11590509496E+04  0.15693045389E+04  0.50400001928E-02 0.  1.
       -1    1    3    3    0  502  0.78233029780E+03  0.71223376578E+03 -0.23138329885E+04  0.25442367678E+04  0.50400001928E-02 0. -1.
</event>
<event>
 5   0  0.1137869E-06  0.2200344E+04  0.7818609E-02  0.8518285E-01
        1   -1    0    0  501    0  0.00000000000E+00  0.00000000000E+00  0.11798267793E+04  0.11798267793E+04  0.50400001928E-02 0.  1.
       -1   -1    0    0    0  501  0.00000000000E+00  0.00000000000E+00 -0.10258948323E+04  0.10258948323E+04  0.50400001928E-02 0. -1.
    10030    2    1    2    0    0  0.00000000000E+00  0.00000000000E+00  0.15393194700E+03  0.22057216117E+04  0.22003437876E+04 0.  0.
        5    1    3    3  502    0  0.68502491335E+03  0.85701700351E+03  0.15852100539E+03  0.11085523332E+04  0.46999998093E+01 0.  1.
       -5    1    3    3    0  502 -0.68502491335E+03 -0.85701700351E+03 -0.45890583901E+01  0.10971692785E+04  0.46999998093E+01 0. -1.
</event>
<event>
 5   0  0.2556869E-06  0.2199178E+04  0.7818609E-02  0.8518770E-01
        2   -1    0    0  501    0  0.00000000000E+00  0.00000000000E+00  0.93830596585E+03  0.93830596585E+03  0.25500000920E-02 0. -1.
       -2   -1    0    0    0  501  0.00000000000E+00  0.00000000000E+00 -0.12885943010E+04  0.12885943010E+04  0.25500000920E-02 0.  1.
    10030    2    1    2    0    0  0.00000000000E+00  0.00000000000E+00 -0.35028833512E+03  0.22269002668E+04  0.21991777738E+04 0.  0.
        5    1    3    3  502    0  0.31057355193E+03 -0.72092640938E+02 -0.12407502227E+04  0.12810684936E+04  0.46999998093E+01 0.  1.
       -5    1    3    3    0  502 -0.31057355193E+03  0.72092640938E+02  0.89046188760E+03  0.94583177326E+03  0.46999998093E+01 0. -1.
</event>
<event>
 5   0  0.1107101E-06  0.2202944E+04  0.7818609E-02  0.8517204E-01
       -1   -1    0    0    0  501  0.00000000000E+00  0.00000000000E+00  0.78354464789E+03  0.78354464791E+03  0.50400001928E-02 0.  1.
        1   -1    0    0  501    0  0.00000000000E+00  0.00000000000E+00 -0.15484000462E+04  0.15484000463E+04  0.50400001928E-02 0. -1.
    10030    2    1    2    0    0  0.00000000000E+00  0.00000000000E+00 -0.76485539836E+03  0.23319446942E+04  0.22029440021E+04 0.  0.
        1    1    3    3  502    0  0.39585300916E+02 -0.10507852003E+04 -0.35317346368E+02  0.10521234947E+04  0.50400001928E-02 0.  1.
       -1    1    3    3    0  502 -0.39585300916E+02  0.10507852003E+04 -0.72953805199E+03  0.12798211994E+04  0.50400001928E-02 0. -1.
</event>
<event>
 5   0  0.1137869E-06  0.2200149E+04  0.7818609E-02  0.8518366E-01
        1   -1    0    0  501    0  0.00000000000E+00  0.00000000000E+00  0.16690015526E+04  0.16690015526E+04  0.50400001928E-02 0.  1.
       -1   -1    0    0    0  501  0.00000000000E+00  0.00000000000E+00 -0.72508248941E+03  0.72508248943E+03  0.50400001928E-02 0. -1.
    10030    2    1    2    0    0  0.00000000000E+00  0.00000000000E+00  0.94391906317E+03  0.23940840420E+04  0.22001489046E+04 0.  0.
        5    1    3    3  502    0 -0.77261601828E+03 -0.33976666104E+03  0.12396734506E+04  0.14997297256E+04  0.46999998093E+01 0.  1.
       -5    1    3    3    0  502  0.77261601828E+03  0.33976666104E+03 -0.29575438743E+03  0.89435431644E+03  0.46999998093E+01 0. -1.
</event>
<event>
 5   0  0.1144271E-06  0.2199971E+04  0.7818609E-02  0.8518440E-01
        1   -1    0    0  501    0  0.00000000000E+00  0.00000000000E+00  0.16737312262E+04  0.16737312262E+04  0.50400001928E-02 0. -1.
       -1   -1    0    0    0  501  0.00000000000E+00  0.00000000000E+00 -0.72291671109E+03  0.72291671111E+03  0.50400001928E-02 0.  1.
    10030    2    1    2    0    0  0.00000000000E+00  0.00000000000E+00  0.95081451513E+03  0.23966479373E+04  0.21999711574E+04 0.  0.
        3    1    3    3  502    0  0.10393551012E+04  0.30439674415E+03  0.26571023913E+03  0.11151315374E+04  0.10100000352E+00 0. -1.
       -3    1    3    3    0  502 -0.10393551012E+04 -0.30439674415E+03  0.68510427601E+03  0.12815164000E+04  0.10100000352E+00 0.  1.
</event>
<event>
 5   0  0.2524749E-06  0.2199775E+04  0.7818609E-02  0.8518522E-01
        2   -1    0    0  501    0  0.00000000000E+00  0.00000000000E+00  0.13395591619E+04  0.13395591619E+04  0.25500000920E-02 0. -1.
       -2   -1    0    0    0  501  0.00000000000E+00  0.00000000000E+00 -0.90309728497E+03  0.90309728497E+03  0.25500000920E-02 0.  1.
    10030    2    1    2    0    0  0.00000000000E+00  0.00000000000E+00  0.43646187696E+03  0.22426564469E+04  0.21997747541E+04 0.  0.
        4    1    3    3  502    0 -0.43586426224E+03 -0.26134430630E+03 -0.77621818845E+03  0.92779027292E+03  0.12699999809E+01 0.  1.
       -4    1    3    3    0  502  0.43586426224E+03  0.26134430630E+03  0.12126800654E+04  0.13148661740E+04  0.12699999809E+01 0. -1.
</event>
<event>
 5   0  0.1082209E-06  0.2199302E+04  0.7818609E-02  0.8518718E-01
        1   -1    0    0  501    0  0.00000000000E+00  0.00000000000E+00  0.14386842428E+04  0.14386842428E+04  0.50400001928E-02 0. -1.
       -1   -1    0    0    0  501  0.00000000000E+00  0.00000000000E+00 -0.84051301552E+03  0.84051301554E+03  0.50400001928E-02 0.  1.
    10030    2    1    2    0    0  0.00000000000E+00  0.00000000000E+00  0.59817122729E+03  0.22791972584E+04  0.21993024634E+04 0.  0.
        2    1    3    3  502    0  0.46362855489E+03  0.99711995481E+03  0.30505598791E+03  0.11411655432E+04  0.25500000920E-02 0.  1.
       -2    1    3    3    0  502 -0.46362855489E+03 -0.99711995481E+03  0.29311523938E+03  0.11380317152E+04  0.25500000920E-02 0. -1.
</event>
<event>
 5   0  0.8905000E-07  0.2200289E+04  0.7818609E-02  0.8518308E-01
       -3   -1    0    0    0  501  0.00000000000E+00  0.00000000000E+00  0.18622565555E+04  0.18622565583E+04  0.10100000352E+00 0.  1.
        3   -1    0    0  501    0  0.00000000000E+00  0.00000000000E+00 -0.64992000677E+03  0.64992001462E+03  0.10100000352E+00 0. -1.
    10030    2    1    2    0    0  0.00000000000E+00  0.00000000000E+00  0.12123365487E+04  0.25121765729E+04  0.22002888960E+04 0.  0.
        4    1    3    3  502    0  0.19153006683E+03 -0.98426939939E+03  0.89413633854E+02  0.10067106972E+04  0.12699999809E+01 0. -1.
       -4    1    3    3    0  502 -0.19153006683E+03  0.98426939939E+03  0.11229229149E+04  0.15054658757E+04  0.12699999809E+01 0.  1.
</event>
<event>
 5   0  0.2581058E-06  0.2199728E+04  0.7818609E-02  0.8518541E-01
       -2   -1    0    0    0  501  0.00000000000E+00  0.00000000000E+00  0.41552689962E+03  0.41552689963E+03  0.25500000920E-02 0.  1.
        2   -1    0    0  501    0  0.00000000000E+00  0.00000000000E+00 -0.29112445265E+04  0.29112445265E+04  0.25500000920E-02 0. -1.
    10030    2    1    2    0    0  0.00000000000E+00  0.00000000000E+00 -0.24957176269E+04  0.33267714261E+04  0.21997276306E+04 0.  0.
        1    1    3    3  502    0  0.30661641590E+03  0.96565998035E+03 -0.18951535489E+04  0.21489811070E+04  0.50400001928E-02 0.  1.
       -1    1    3    3    0  502 -0.30661641590E+03 -0.96565998035E+03 -0.60056407798E+03  0.11777903192E+04  0.50400001928E-02 0. -1.
</event>
<event>
 5   0  0.2524749E-06  0.2200682E+04  0.7818609E-02  0.8518144E-01
        2   -1    0    0  501    0  0.00000000000E+00  0.00000000000E+00  0.22609086395E+04  0.22609086395E+04  0.25500000920E-02 0. -1.
       -2   -1    0    0    0  501  0.00000000000E+00  0.00000000000E+00 -0.53551479211E+03  0.53551479212E+03  0.25500000920E-02 0.  1.
    10030    2    1    2    0    0  0.00000000000E+00  0.00000000000E+00  0.17253938474E+04  0.27964234316E+04  0.22006817308E+04 0.  0.
        4    1    3    3  502    0 -0.92373029559E+03 -0.20068915944E+03  0.14703387624E+03  0.95664746452E+03  0.12699999809E+01 0.  1.
       -4    1    3    3    0  502  0.92373029559E+03  0.20068915944E+03  0.15783599712E+04  0.18397759671E+04  0.12699999809E+01 0. -1.
</event>
<event>
 5   0  0.2524749E-06  0.2200111E+04  0.7818609E-02  0.8518382E-01
       -2   -1    0    0    0  501  0.00000000000E+00  0.00000000000E+00  0.94494045748E+03  0.94494045748E+03  0.25500000920E-02 0. -1.
        2   -1    0    0  501    0  0.00000000000E+00  0.00000000000E+00 -0.12806328249E+04  0.12806328249E+04  0.25500000920E-02 0.  1.
    10030    2    1    2    0    0  0.00000000000E+00  0.00000000000E+00 -0.33569236745E+03  0.22255732824E+04  0.22001106949E+04 0.  0.
        4    1    3    3  502    0  0.55385935393E+03 -0.92630746247E+03 -0.38318174184E+03  0.11452665887E+04  0.12699999809E+01 0. -1.
       -4    1    3    3    0  502 -0.55385935393E+03  0.92630746247E+03  0.47489374388E+02  0.10803066937E+04  0.12699999809E+01 0.  1.
</event>
<event>
 5   0  0.2524749E-06  0.2200216E+04  0.7818609E-02  0.8518338E-01
       -2   -1    0    0    0  501  0.00000000000E+00  0.00000000000E+00  0.49572490083E+03  0.49572490084E+03  0.25500000920E-02 0. -1.
        2   -1    0    0  501    0  0.00000000000E+00  0.00000000000E+00 -0.24413489133E+04  0.24413489133E+04  0.25500000920E-02 0.  1.
    10030    2    1    2    0    0  0.00000000000E+00  0.00000000000E+00 -0.19456240125E+04  0.29370738141E+04  0.22002158512E+04 0.  0.
        4    1    3    3  502    0 -0.83779057230E+02  0.29353623258E+03  0.43805649155E+03  0.53392654266E+03  0.12699999809E+01 0. -1.
       -4    1    3    3    0  502  0.83779057230E+02 -0.29353623258E+03 -0.23836805040E+04  0.24031472715E+04  0.12699999809E+01 0.  1.
</event>
<event>
 5   0  0.2532239E-06  0.2200280E+04  0.7818609E-02  0.8518312E-01
        2   -1    0    0  501    0  0.00000000000E+00  0.00000000000E+00  0.18796332856E+04  0.18796332856E+04  0.25500000920E-02 0. -1.
       -2   -1    0    0    0  501  0.00000000000E+00  0.00000000000E+00 -0.64390644112E+03  0.64390644112E+03  0.25500000920E-02 0.  1.
    10030    2    1    2    0    0  0.00000000000E+00  0.00000000000E+00  0.12357268444E+04  0.25235397267E+04  0.22002799636E+04 0.  0.
        3    1    3    3  502    0 -0.27027391867E+03 -0.77375086004E+03 -0.22382841179E+03  0.84961023573E+03  0.10100000352E+00 0.  1.
       -3    1    3    3    0  502  0.27027391867E+03  0.77375086004E+03  0.14595552562E+04  0.16739294910E+04  0.10100000352E+00 0. -1.
</event>
<event>
 5   0  0.1144271E-06  0.2199504E+04  0.7818609E-02  0.8518635E-01
       -1   -1    0    0    0  501  0.00000000000E+00  0.00000000000E+00  0.11637445119E+04  0.11637445119E+04  0.50400001928E-02 0.  1.
        1   -1    0    0  501    0  0.00000000000E+00  0.00000000000E+00 -0.10392781485E+04  0.10392781485E+04  0.50400001928E-02 0. -1.
    10030    2    1    2    0    0  0.00000000000E+00  0.00000000000E+00  0.12446636337E+03  0.22030226605E+04  0.21995038002E+04 0.  0.
        3    1    3    3  502    0 -0.90287705155E+03  0.61796090566E+03 -0.49262384406E+02  0.10952120543E+04  0.10100000352E+00 0.  1.
       -3    1    3    3    0  502  0.90287705155E+03 -0.61796090566E+03  0.17372874778E+03  0.11078106062E+04  0.10100000352E+00 0. -1.
</event>
<event>
 5   0  0.1146827E-06  0.2198667E+04  0.7818609E-02  0.8518983E-01
        1   -1    0    0  501    0  0.00000000000E+00  0.00000000000E+00  0.86611330624E+03  0.86611330626E+03  0.50400001928E-02 0.  1.
       -1   -1    0    0    0  501  0.00000000000E+00  0.00000000000E+00 -0.13953532075E+04  0.13953532075E+04  0.50400001928E-02 0. -1.
    10030    2    1    2    0    0  0.00000000000E+00  0.00000000000E+00 -0.52923990127E+03  0.22614665138E+04  0.21986668506E+04 0.  0.
        4    1    3    3  502    0 -0.10712408227E+04  0.19036109813E+03 -0.42639594283E+03  0.11685928978E+04  0.12699999809E+01 0. -1.
       -4    1    3    3    0  502  0.10712408227E+04 -0.19036109813E+03 -0.10284395844E+03  0.10928736160E+04  0.12699999809E+01 0.  1.
</event>
<event>
 5   0  0.2532239E-06  0.2199358E+04  0.7818609E-02  0.8518696E-01
        2   -1    0    0  501    0  0.00000000000E+00  0.00000000000E+00  0.10194495228E+04  0.10194495228E+04  0.25500000920E-02 0. -1.
       -2   -1    0    0    0  501  0.00000000000E+00  0.00000000000E+00 -0.11862219792E+04  0.11862219792E+04  0.25500000920E-02 0.  1.
    10030    2    1    2    0    0  0.00000000000E+00  0.00000000000E+00 -0.16677245641E+03  0.22056715020E+04  0.21993575705E+04 0.  0.
        3    1    3    3  502    0  0.22410311079E+03  0.67028440710E+03  0.76152277295E+03  0.10389515555E+04  0.10100000352E+00 0. -1.
       -3    1    3    3    0  502 -0.22410311079E+03 -0.67028440710E+03 -0.92829522937E+03  0.11667199466E+04  0.10100000352E+00 0.  1.
</event>
<event>
 5   0  0.2606154E-06  0.2200185E+04  0.7818609E-02  0.8518351E-01
        2   -1    0    0  501    0  0.00000000000E+00  0.00000000000E+00  0.18463884691E+04  0.18463884691E+04  0.25500000920E-02 0. -1.
       -2   -1    0    0    0  501  0.00000000000E+00  0.00000000000E+00 -0.65544331963E+03  0.65544331963E+03  0.25500000920E-02 0.  1.
    10030    2    1    2    0    0  0.00000000000E+00  0.00000000000E+00  0.11909451494E+04  0.25018317887E+04  0.22001845263E+04 0.  0.
        2    1    3    3  502    0 -0.38113932543E+03 -0.91789201756E+03  0.59211590923E+02  0.99563997197E+03  0.25500000920E-02 0.  1.
       -2    1    3    3    0  502  0.38113932543E+03  0.91789201756E+03  0.11317335585E+04  0.15061918167E+04  0.25500000920E-02 0. -1.
</event>
<event>
 5   0  0.1107101E-06  0.2200057E+04  0.7818609E-02  0.8518404E-01
       -1   -1    0    0    0  501  0.00000000000E+00  0.00000000000E+00  0.12649365097E+04  0.12649365097E+04  0.50400001928E-02 0.  1.
        1   -1    0    0  501    0  0.00000000000E+00  0.00000000000E+00 -0.95661920763E+03  0.95661920764E+03  0.50400001928E-02 0. -1.
    10030    2    1    2    0    0  0.00000000000E+00  0.00000000000E+00  0.30831730205E+03  0.22215557173E+04  0.22000568735E+04 0.  0.
        1    1    3    3  502    0  0.77775975874E+03  0.65311062119E+03  0.58089792485E+03  0.11700026175E+04  0.50400001928E-02 0.  1.
       -1    1    3    3    0  502 -0.77775975874E+03 -0.65311062119E+03 -0.27258062280E+03  0.10515530998E+04  0.50400001928E-02 0. -1.
</event>
<event>
 5   0  0.2581058E-06  0.2201059E+04  0.7818609E-02  0.8517988E-01
       -2   -1    0    0    0  501  0.00000000000E+00  0.00000000000E+00  0.71582133633E+03  0.71582133634E+03  0.25500000920E-02 0. -1.
        2   -1    0    0  501    0  0.00000000000E+00  0.00000000000E+00 -0.16919932534E+04  0.16919932534E+04  0.25500000920E-02 0.  1.
    10030    2    1    2    0    0  0.00000000000E+00  0.00000000000E+00 -0.97617191703E+03  0.24078145897E+04  0.22010587195E+04 0.  0.
        1    1    3    3  502    0  0.18811740449E+03  0.96366374712E+03 -0.10319034568E+04  0.14243808197E+04  0.50400001928E-02 0.  1.
       -1    1    3    3    0  502 -0.18811740449E+03 -0.96366374712E+03  0.55731539784E+02  0.98343376998E+03  0.50400001928E-02 0. -1.
</event>
<event>
 5   0  0.1082209E-06  0.2200252E+04  0.7818609E-02  0.8518323E-01
        1   -1    0    0  501    0  0.00000000000E+00  0.00000000000E+00  0.61537653252E+03  0.61537653254E+03  0.50400001928E-02 0. -1.
       -1   -1    0    0    0  501  0.00000000000E+00  0.00000000000E+00 -0.19667264899E+04  0.19667264899E+04  0.50400001928E-02 0.  1.
    10030    2    1    2    0    0  0.00000000000E+00  0.00000000000E+00 -0.13513499574E+04  0.25821030225E+04  0.22002521017E+04 0.  0.
        2    1    3    3  502    0 -0.16437196902E+03 -0.68186465037E+03 -0.16703014991E+04  0.18115917431E+04  0.25500000920E-02 0.  1.
       -2    1    3    3    0  502  0.16437196902E+03  0.68186465037E+03  0.31895154175E+03  0.77051127935E+03  0.25500000920E-02 0. -1.
</event>
<event>
 5   0  0.2556869E-06  0.2200278E+04  0.7818609E-02  0.8518313E-01
       -2   -1    0    0    0  501  0.00000000000E+00  0.00000000000E+00  0.12099400039E+04  0.12099400039E+04  0.25500000920E-02 0.  1.
        2   -1    0    0  501    0  0.00000000000E+00  0.00000000000E+00 -0.10003019140E+04  0.10003019140E+04  0.25500000920E-02 0. -1.
    10030    2    1    2    0    0  0.00000000000E+00  0.00000000000E+00  0.20963808990E+03  0.22102419179E+04  0.22002775295E+04 0.  0.
        5    1    3    3  502    0  0.20638591298E+03 -0.67122235147E+03 -0.74586234429E+03  0.10244351208E+04  0.46999998093E+01 0. -1.
       -5    1    3    3    0  502 -0.20638591298E+03  0.67122235147E+03  0.95550043419E+03  0.11858067970E+04  0.46999998093E+01 0.  1.
</event>
<event>
 5   0  0.1082209E-06  0.2199937E+04  0.7818609E-02  0.8518454E-01
        1   -1    0    0  501    0  0.00000000000E+00  0.00000000000E+00  0.76572604758E+03  0.76572604760E+03  0.50400001928E-02 0. -1.
       -1   -1    0    0    0  501  0.00000000000E+00  0.00000000000E+00 -0.15801092620E+04  0.15801092620E+04  0.50400001928E-02 0.  1.
    10030    2    1    2    0    0  0.00000000000E+00  0.00000000000E+00 -0.81438321442E+03  0.23458353096E+04  0.21999371082E+04 0.  0.
        2    1    3    3  502    0 -0.50550301865E+03  0.14661664952E+03 -0.14371153041E+04  0.15304672950E+04  0.25500000920E-02 0.  1.
       -2    1    3    3    0  502  0.50550301865E+03 -0.14661664952E+03  0.62273208966E+03  0.81536801463E+03  0.25500000920E-02 0. -1.
</event>
<event>
 5   0  0.1144271E-06  0.2202874E+04  0.7818609E-02  0.8517233E-01
        1   -1    0    0  501    0  0.00000000000E+00  0.00000000000E+00  0.13285430666E+04  0.13285430666E+04  0.50400001928E-02 0.  1.
       -1   -1    0    0    0  501  0.00000000000E+00  0.00000000000E+00 -0.91315357440E+03  0.91315357441E+03  0.50400001928E-02 0. -1.
    10030    2    1    2    0    0  0.00000000000E+00  0.00000000000E+00  0.41538949221E+03  0.22416966410E+04  0.22028743496E+04 0.  0.
        3    1    3    3  502    0  0.65880649909E+03  0.42433226986E+03  0.99533791649E+03  0.12667996908E+04  0.10100000352E+00 0.  1.
       -3    1    3    3    0  502 -0.65880649909E+03 -0.42433226986E+03 -0.57994842428E+03  0.97489695020E+03  0.10100000352E+00 0. -1.
</event>
<event>
 5   0  0.1137869E-06  0.2215640E+04  0.7818609E-02  0.8511946E-01
       -1   -1    0    0    0  501  0.00000000000E+00  0.00000000000E+00  0.13293050600E+04  0.13293050601E+04  0.50400001928E-02 0.  1.
        1   -1    0    0  501    0  0.00000000000E+00  0.00000000000E+00 -0.92323826295E+03  0.92323826296E+03  0.50400001928E-02 0. -1.
    10030    2    1    2    0    0  0.00000000000E+00  0.00000000000E+00  0.40606679709E+03  0.22525433230E+04  0.22156401283E+04 0.  0.
        5    1    3    3  502    0 -0.28390299517E+03 -0.36208309386E+03  0.12275571871E+04  0.13109629343E+04  0.46999998093E+01 0.  1.
       -5    1    3    3    0  502  0.28390299517E+03  0.36208309386E+03 -0.82149039000E+03  0.94158038871E+03  0.46999998093E+01 0. -1.
</event>
<event>
 5   0  0.2581058E-06  0.2199936E+04  0.7818609E-02  0.8518455E-01
        2   -1    0    0  501    0  0.00000000000E+00  0.00000000000E+00  0.88004185780E+03  0.88004185780E+03  0.25500000920E-02 0.  1.
       -2   -1    0    0    0  501  0.00000000000E+00  0.00000000000E+00 -0.13748549596E+04  0.13748549596E+04  0.25500000920E-02 0. -1.
    10030    2    1    2    0    0  0.00000000000E+00  0.00000000000E+00 -0.49481310183E+03  0.22548968174E+04  0.21999362835E+04 0.  0.
        1    1    3    3  502    0 -0.86921596801E+03 -0.58242509605E+03 -0.59525877061E+03  0.12037808752E+04  0.50400001928E-02 0. -1.
       -1    1    3    3    0  502  0.86921596801E+03  0.58242509605E+03  0.10044566878E+03  0.10511159422E+04  0.50400001928E-02 0.  1.
</event>
<event>
 5   0  0.1144271E-06  0.2200183E+04  0.7818609E-02  0.8518352E-01
        1   -1    0    0  501    0  0.00000000000E+00  0.00000000000E+00  0.15223818097E+04  0.15223818098E+04  0.50400001928E-02 0. -1.
       -1   -1    0    0    0  501  0.00000000000E+00  0.00000000000E+00 -0.79493908311E+03  0.79493908313E+03  0.50400001928E-02 0.  1.
    10030    2    1    2    0    0  0.00000000000E+00  0.00000000000E+00  0.72744272663E+03  0.23173208929E+04  0.22001825379E+04 0.  0.
        3    1    3    3  502    0  0.10531880434E+04 -0.29724116176E+03  0.24529187220E+03  0.11214836048E+04  0.10100000352E+00 0.  1.
       -3    1    3    3    0  502 -0.10531880434E+04  0.29724116176E+03  0.48215085444E+03  0.11958372881E+04  0.10100000352E+00 0. -1.
</event>
<event>
 5   0  0.2606154E-06  0.2196170E+04  0.7818609E-02  0.8520024E-01
        2   -1    0    0  501    0  0.00000000000E+00  0.00000000000E+00  0.92678262770E+03  0.92678262770E+03  0.25500000920E-02 0. -1.
       -2   -1    0    0    0  501  0.00000000000E+00  0.00000000000E+00 -0.13010496529E+04  0.13010496529E+04  0.25500000920E-02 0.  1.
    10030    2    1    2    0    0  0.00000000000E+00  0.00000000000E+00 -0.37426702520E+03  0.22278322806E+04  0.21961695892E+04 0.  0.
        2    1    3    3  502    0 -0.99368599808E+03  0.37737942021E+03  0.92454170109E+02  0.10669465137E+04  0.25500000920E-02 0.  1.
       -2    1    3    3    0  502  0.99368599808E+03 -0.37737942021E+03 -0.46672119530E+03  0.11608857669E+04  0.25500000920E-02 0. -1.
</event>
<event>
 5   0  0.1146827E-06  0.2200286E+04  0.7818609E-02  0.8518309E-01
        1   -1    0    0  501    0  0.00000000000E+00  0.00000000000E+00  0.13081634244E+04  0.13081634245E+04  0.50400001928E-02 0. -1.
       -1   -1    0    0    0  501  0.00000000000E+00  0.00000000000E+00 -0.92520144424E+03  0.92520144425E+03  0.50400001928E-02 0.  1.
    10030    2    1    2    0    0  0.00000000000E+00  0.00000000000E+00  0.38296198020E+03  0.22333648687E+04  0.22002860629E+04 0.  0.
        4    1    3    3  502    0 -0.15738854459E+03 -0.86751098073E+03 -0.47641331536E+03  0.10021565325E+04  0.12699999809E+01 0.  1.
       -4    1    3    3    0  502  0.15738854459E+03  0.86751098073E+03  0.85937529556E+03  0.12312083362E+04  0.12699999809E+01 0. -1.
</event>
<event>
 5   0  0.1137869E-06  0.2198466E+04  0.7818609E-02  0.8519067E-01
        1   -1    0    0  501    0  0.00000000000E+00  0.00000000000E+00  0.16729672614E+04  0.16729672614E+04  0.50400001928E-02 0.  1.
       -1   -1    0    0    0  501  0.00000000000E+00  0.00000000000E+00 -0.72225744791E+03  0.72225744793E+03  0.50400001928E-02 0. -1.
    10030    2    1    2    0    0  0.00000000000E+00  0.00000000000E+00  0.95070981350E+03  0.23952247093E+04  0.21984658876E+04 0.  0.
        5    1    3    3  502    0 -0.52386509769E+03 -0.34606042736E+03 -0.50767111258E+03  0.80743080726E+03  0.46999998093E+01 0. -1.
       -5    1    3    3    0  502  0.52386509769E+03  0.34606042736E+03  0.14583809261E+04  0.15877939021E+04  0.46999998093E+01 0.  1.
</event>
<event>
 5   0  0.2556869E-06  0.2199958E+04  0.7818609E-02  0.8518445E-01
        2   -1    0    0  501    0  0.00000000000E+00  0.00000000000E+00  0.13951081618E+04  0.13951081618E+04  0.25500000920E-02 0.  1.
       -2   -1    0    0    0  501  0.00000000000E+00  0.00000000000E+00 -0.86728337031E+03  0.86728337031E+03  0.25500000920E-02 0. -1.
    10030    2    1    2    0    0  0.00000000000E+00  0.00000000000E+00  0.52782479154E+03  0.22623915322E+04  0.21999582801E+04 0.  0.
        5    1    3    3  502    0 -0.30942153818E+02  0.10958030138E+04  0.35698132722E+03  0.11529091117E+04  0.46999998093E+01 0. -1.
       -5    1    3    3    0  502  0.30942153818E+02 -0.10958030138E+04  0.17084346432E+03  0.11094824204E+04  0.46999998093E+01 0.  1.
</event>
<event>
 5   0  0.1137869E-06  0.2201231E+04  0.7818609E-02  0.8517916E-01
       -1   -1    0    0    0  501  0.00000000000E+00  0.00000000000E+00  0.11722240012E+04  0.11722240012E+04  0.50400001928E-02 0. -1.
        1   -1    0    0  501    0  0.00000000000E+00  0.00000000000E+00 -0.10333811601E+04  0.10333811601E+04  0.50400001928E-02 0.  1.
    10030    2    1    2    0    0  0.00000000000E+00  0.00000000000E+00  0.13884284109E+03  0.22056051614E+04  0.22012307451E+04 0.  0.
        5    1    3    3  502    0 -0.41656088223E+03 -0.37737267934E+03  0.10175571264E+04  0.11624877217E+04  0.46999998093E+01 0. -1.
       -5    1    3    3    0  502  0.41656088223E+03  0.37737267934E+03 -0.87871428530E+03  0.10431174396E+04  0.46999998093E+01 0.  1.
</event>
<event>
 5   0  0.1082209E-06  0.2199453E+04  0.7818609E-02  0.8518656E-01
       -1   -1    0    0    0  501  0.00000000000E+00  0.00000000000E+00  0.11493237605E+04  0.11493237605E+04  0.50400001928E-02 0. -1.
        1   -1    0    0  501    0  0.00000000000E+00  0.00000000000E+00 -0.10522691516E+04  0.10522691516E+04  0.50400001928E-02 0.  1.
    10030    2    1    2    0    0  0.00000000000E+00  0.00000000000E+00  0.97054608929E+02  0.22015929121E+04  0.21994526031E+04 0.  0.
        2    1    3    3  502    0 -0.65828525686E+03  0.75598975596E+03  0.50122611968E+03  0.11207531457E+04  0.25500000920E-02 0. -1.
       -2    1    3    3    0  502  0.65828525686E+03 -0.75598975596E+03 -0.40417151075E+03  0.10808397664E+04  0.25500000920E-02 0.  1.
</event>
<event>
 5   0  0.2581058E-06  0.2200065E+04  0.7818609E-02  0.8518401E-01
        2   -1    0    0  501    0  0.00000000000E+00  0.00000000000E+00  0.17019503631E+04  0.17019503631E+04  0.25500000920E-02 0. -1.
       -2   -1    0    0    0  501  0.00000000000E+00  0.00000000000E+00 -0.71099108755E+03  0.71099108755E+03  0.25500000920E-02 0.  1.
    10030    2    1    2    0    0  0.00000000000E+00  0.00000000000E+00  0.99095927551E+03  0.24129414506E+04  0.22000650350E+04 0.  0.
        1    1    3    3  502    0 -0.44081282037E+03  0.74112849153E+03 -0.25360297023E+03  0.89883360534E+03  0.50400001928E-02 0.  1.
       -1    1    3    3    0  502  0.44081282037E+03 -0.74112849153E+03  0.12445622457E+04  0.15141078453E+04  0.50400001928E-02 0. -1.
</event>
<event>
 5   0  0.1146827E-06  0.2200357E+04  0.7818609E-02  0.8518280E-01
        1   -1    0    0  501    0  0.00000000000E+00  0.00000000000E+00  0.12216517202E+04  0.12216517203E+04  0.50400001928E-02 0.  1.
       -1   -1    0    0    0  501  0.00000000000E+00  0.00000000000E+00 -0.99078368893E+03  0.99078368894E+03  0.50400001928E-02 0. -1.
    10030    2    1    2    0    0  0.00000000000E+00  0.00000000000E+00  0.23086803132E+03  0.22124354092E+04  0.22003568783E+04 0.  0.
        4    1    3    3  502    0  0.47181415472E+03  0.27267239129E+03  0.10764168350E+04  0.12064964340E+04  0.12699999809E+01 0.  1.
       -4    1    3    3    0  502 -0.47181415472E+03 -0.27267239129E+03 -0.84554880369E+03  0.10059389752E+04  0.12699999809E+01 0. -1.
</event>
<event>
 5   0  0.2581058E-06  0.2199488E+04  0.7818609E-02  0.8518641E-01
       -2   -1    0    0    0  501  0.00000000000E+00  0.00000000000E+00  0.13882956041E+04  0.13882956041E+04  0.25500000920E-02 0. -1.
        2   -1    0    0  501    0  0.00000000000E+00  0.00000000000E+00 -0.87116642145E+03  0.87116642146E+03  0.25500000920E-02 0.  1.
    10030    2    1    2    0    0  0.00000000000E+00  0.00000000000E+00  0.51712918261E+03  0.22594620255E+04  0.21994876797E+04 0.  0.
        1    1    3    3  502    0  0.10132138531E+03 -0.98737197322E+03 -0.22791684649E+03  0.10183886908E+04  0.50400001928E-02 0.  1.
       -1    1    3    3    0  502 -0.10132138531E+03  0.98737197322E+03  0.74504602910E+03  0.12410733347E+04  0.50400001928E-02 0. -1.
</event>
<event>
 5   0  0.2581058E-06  0.2199827E+04  0.7818609E-02  0.8518500E-01
       -2   -1    0    0    0  501  0.00000000000E+00  0.00000000000E+00  0.51052678459E+03  0.51052678459E+03  0.25500000920E-02 0.  1.
        2   -1    0    0  501    0  0.00000000000E+00  0.00000000000E+00 -0.23697289862E+04  0.23697289862E+04  0.25500000920E-02 0. -1.
    10030    2    1    2    0    0  0.00000000000E+00  0.00000000000E+00 -0.18592022016E+04  0.28802557708E+04  0.21998273748E+04 0.  0.
        1    1    3    3  502    0  0.25246687902E+02  0.71299176606E+03  0.16648404461E+03  0.73260602704E+03  0.50400001928E-02 0.  1.
       -1    1    3    3    0  502 -0.25246687902E+02 -0.71299176606E+03 -0.20256862463E+04  0.21476497438E+04  0.50400001928E-02 0. -1.
</event>
<event>
 5   0  0.1146827E-06  0.2196405E+04  0.7818609E-02  0.8519926E-01
       -1   -1    0    0    0  501  0.00000000000E+00  0.00000000000E+00  0.11247731288E+04  0.11247731288E+04  0.50400001928E-02 0. -1.
        1   -1    0    0  501    0  0.00000000000E+00  0.00000000000E+00 -0.10722592009E+04  0.10722592009E+04  0.50400001928E-02 0.  1.
    10030    2    1    2    0    0  0.00000000000E+00  0.00000000000E+00  0.52513927897E+02  0.21970323297E+04  0.21964046406E+04 0.  0.
        4    1    3    3  502    0  0.69295774163E+03  0.14582780173E+03  0.86589576584E+03  0.11185853877E+04  0.12699999809E+01 0. -1.
       -4    1    3    3    0  502 -0.69295774163E+03 -0.14582780173E+03 -0.81338183794E+03  0.10784469420E+04  0.12699999809E+01 0.  1.
</event>
<event>
 5   0  0.1144271E-06  0.2199956E+04  0.7818609E-02  0.8518446E-01
       -1   -1    0    0    0  501  0.00000000000E+00  0.00000000000E+00  0.17543944698E+04  0.17543944698E+04  0.50400001928E-02 0.  1.
        1   -1    0    0  501    0  0.00000000000E+00  0.00000000000E+00 -0.68966934198E+03  0.68966934199E+03  0.50400001928E-02 0. -1.
    10030    2    1    2    0    0  0.00000000000E+00  0.00000000000E+00  0.10647251278E+04  0.24440638118E+04  0.21999564355E+04 0.  0.
        3    1    3    3  502    0  0.39513482816E+03 -0.61533312692E+03  0.14452349523E+04  0.16197130817E+04  0.10100000352E+00 0.  1.
       -3    1    3    3    0  502 -0.39513482816E+03  0.61533312692E+03 -0.38050982446E+03  0.82435073010E+03  0.10100000352E+00 0. -1.
</event>
<event>
 5   0  0.2524749E-06  0.2201040E+04  0.7818609E-02  0.8517995E-01
       -2   -1    0    0    0  501  0.00000000000E+00  0.00000000000E+00  0.86772343754E+03  0.86772343754E+03  0.25500000920E-02 0. -1.
        2   -1    0    0  501    0  0.00000000000E+00  0.00000000000E+00 -0.13957726070E+04  0.13957726070E+04  0.25500000920E-02 0.  1.
    10030    2    1    2    0    0  0.00000000000E+00  0.00000000000E+00 -0.52804916945E+03  0.22634960445E+04  0.22010403036E+04 0.  0.
        4    1    3    3  502    0  0.11975824780E+03  0.63923516954E+03  0.64896173797E+03  0.91875817827E+03  0.12699999809E+01 0. -1.
       -4    1    3    3    0  502 -0.11975824780E+03 -0.63923516954E+03 -0.11770109074E+04  0.13447378663E+04  0.12699999809E+01 0.  1.
</event>
<event>
 5   0  0.1146827E-06  0.2200576E+04  0.7818609E-02  0.8518188E-01
       -1   -1    0    0    0  501  0.00000000000E+00  0.00000000000E+00  0.15377403633E+04  0.15377403633E+04  0.50400001928E-02 0.  1.
        1   -1    0    0  501    0  0.00000000000E+00  0.00000000000E+00 -0.78728129830E+03  0.78728129831E+03  0.50400001928E-02 0. -1.
    10030    2    1    2    0    0  0.00000000000E+00  0.00000000000E+00  0.75045906498E+03  0.23250216616E+04  0.22005764969E+04 0.  0.
        4    1    3    3  502    0 -0.18332584122E+03  0.76728152842E+03 -0.43515506636E+03  0.90093887284E+03  0.12699999809E+01 0. -1.
       -4    1    3    3    0  502  0.18332584122E+03 -0.76728152842E+03  0.11856141313E+04  0.14240827888E+04  0.12699999809E+01 0.  1.
</event>
<event>
 5   0  0.1107101E-06  0.2200927E+04  0.7818609E-02  0.8518042E-01
       -1   -1    0    0    0  501  0.00000000000E+00  0.00000000000E+00  0.73654654492E+03  0.73654654494E+03  0.50400001928E-02 0.  1.
        1   -1    0    0  501    0  0.00000000000E+00  0.00000000000E+00 -0.16441865643E+04  0.16441865644E+04  0.50400001928E-02 0. -1.
    10030    2    1    2    0    0  0.00000000000E+00  0.00000000000E+00 -0.90764001943E+03  0.23807331093E+04  0.22009270167E+04 0.  0.
        1    1    3    3  502    0 -0.29889432993E+03  0.54995283377E+03  0.52523941552E+03  0.81710610295E+03  0.50400001928E-02 0.  1.
       -1    1    3    3    0  502  0.29889432993E+03 -0.54995283377E+03 -0.14328794349E+04  0.15636270063E+04  0.50400001928E-02 0. -1.
</event>
<event>
 5   0  0.1137869E-06  0.2200691E+04  0.7818609E-02  0.8518140E-01
       -1   -1    0    0    0  501  0.00000000000E+00  0.00000000000E+00  0.13524608986E+04  0.13524608986E+04  0.50400001928E-02 0.  1.
        1   -1    0    0  501    0  0.00000000000E+00  0.00000000000E+00 -0.89522775534E+03  0.89522775536E+03  0.50400001928E-02 0. -1.
    10030    2    1    2    0    0  0.00000000000E+00  0.00000000000E+00  0.45723314328E+03  0.22476886540E+04  0.22006912864E+04 0.  0.
        5    1    3    3  502    0  0.52270825779E+03 -0.20613179684E+02 -0.76009039152E+03  0.92271789796E+03  0.46999998093E+01 0. -1.
       -5    1    3    3    0  502 -0.52270825779E+03  0.20613179684E+02  0.12173235348E+04  0.13249707560E+04  0.46999998093E+01 0.  1.
</event>
<event>
 5   0  0.2524749E-06  0.2200273E+04  0.7818609E-02  0.8518315E-01
       -2   -1    0    0    0  501  0.00000000000E+00  0.00000000000E+00  0.87420362108E+03  0.87420362108E+03  0.25500000920E-02 0.  1.
        2   -1    0    0  501    0  0.00000000000E+00  0.00000000000E+00 -0.13844599501E+04  0.13844599501E+04  0.25500000920E-02 0. -1.
    10030    2    1    2    0    0  0.00000000000E+00  0.00000000000E+00 -0.51025632898E+03  0.22586635711E+04  0.22002726209E+04 0.  0.
        4    1    3    3  502    0 -0.81063683197E+03 -0.63610487068E+03  0.14050446036E+03  0.10399541317E+04  0.12699999809E+01 0. -1.
       -4    1    3    3    0  502  0.81063683197E+03  0.63610487068E+03 -0.65076078934E+03  0.12187094394E+04  0.12699999809E+01 0.  1.
</event>
<event>
 5   0  0.2606154E-06  0.2199793E+04  0.7818609E-02  0.8518514E-01
        2   -1    0    0  501    0  0.00000000000E+00  0.00000000000E+00  0.92021676271E+03  0.92021676272E+03  0.25500000920E-02 0. -1.
       -2   -1    0    0    0  501  0.00000000000E+00  0.00000000000E+00 -0.13146600826E+04  0.13146600826E+04  0.25500000920E-02 0.  1.
    10030    2    1    2    0    0  0.00000000000E+00  0.00000000000E+00 -0.39444331989E+03  0.22348768453E+04  0.21997929405E+04 0.  0.
        2    1    3    3  502    0  0.60159630481E+03  0.43511865381E+03  0.62721675271E+03  0.97192963312E+03  0.25500000920E-02 0. -1.
       -2    1    3    3    0  502 -0.60159630481E+03 -0.43511865381E+03 -0.10216600726E+04  0.12629472122E+04  0.25500000920E-02 0.  1.
</event>
<event>
 5   0  0.1137869E-06  0.2200443E+04  0.7818609E-02  0.8518244E-01
        1   -1    0    0  501    0  0.00000000000E+00  0.00000000000E+00  0.16183023427E+04  0.16183023427E+04  0.50400001928E-02 0.  1.
       -1   -1    0    0    0  501  0.00000000000E+00  0.00000000000E+00 -0.74799813556E+03  0.74799813558E+03  0.50400001928E-02 0. -1.
    10030    2    1    2    0    0  0.00000000000E+00  0.00000000000E+00  0.87030420711E+03  0.23663004783E+04  0.22004428056E+04 0.  0.
        5    1    3    3  502    0  0.36488215614E+03  0.69643419117E+03 -0.39247114182E+03  0.87875779237E+03  0.46999998093E+01 0. -1.
       -5    1    3    3    0  502 -0.36488215614E+03 -0.69643419117E+03  0.12627753489E+04  0.14875426859E+04  0.46999998093E+01 0.  1.
</event>
<event>
 5   0  0.1107101E-06  0.2200021E+04  0.7818609E-02  0.8518419E-01
       -1   -1    0    0    0  501  0.00000000000E+00  0.00000000000E+00  0.41075703951E+03  0.41075703954E+03  0.50400001928E-02 0. -1.
        1   -1    0    0  501    0  0.00000000000E+00  0.00000000000E+00 -0.29458358202E+04  0.29458358202E+04  0.50400001928E-02 0.  1.
    10030    2    1    2    0    0  0.00000000000E+00  0.00000000000E+00 -0.25350787806E+04  0.33565928597E+04  0.22000207276E+04 0.  0.
        1    1    3    3  502    0  0.59165511090E+03  0.25981533539E+03 -0.26257321059E+04  0.27040763433E+04  0.50400001928E-02 0.  1.
       -1    1    3    3    0  502 -0.59165511090E+03 -0.25981533539E+03  0.90653325212E+02  0.65251651638E+03  0.50400001928E-02 0. -1.
</event>
<event>
 5   0  0.2532239E-06  0.2199717E+04  0.7818609E-02  0.8518546E-01
       -2   -1    0    0    0  501  0.00000000000E+00  0.00000000000E+00  0.65402794523E+03  0.65402794523E+03  0.25500000920E-02 0.  1.
        2   -1    0    0  501    0  0.00000000000E+00  0.00000000000E+00 -0.18495972960E+04  0.18495972960E+04  0.25500000920E-02 0. -1.
    10030    2    1    2    0    0  0.00000000000E+00  0.00000000000E+00 -0.11955693508E+04  0.25036252412E+04  0.21997166354E+04 0.  0.
        3    1    3    3  502    0 -0.81089840637E+03 -0.74098509665E+03 -0.66087980941E+03  0.12819427724E+04  0.10100000352E+00 0. -1.
       -3    1    3    3    0  502  0.81089840637E+03  0.74098509665E+03 -0.53468954135E+03  0.12216824689E+04  0.10100000352E+00 0.  1.
</event>
<event>
 5   0  0.2524749E-06  0.2194309E+04  0.7818609E-02  0.8520801E-01
       -2   -1    0    0    0  501  0.00000000000E+00  0.00000000000E+00  0.86438385680E+03  0.86438385680E+03  0.25500000920E-02 0.  1.
        2   -1    0    0  501    0  0.00000000000E+00  0.00000000000E+00 -0.13926082221E+04  0.13926082221E+04  0.25500000920E-02 0. -1.
    10030    2    1    2    0    0  0.00000000000E+00  0.00000000000E+00 -0.52822436525E+03  0.22569920789E+04  0.21943090630E+04 0.  0.
        4    1    3    3  502    0 -0.23160497633E+03 -0.10386900833E+04 -0.53862279203E+03  0.11927422518E+04  0.12699999809E+01 0. -1.
       -4    1    3    3    0  502  0.23160497633E+03  0.10386900833E+04  0.10398426780E+02  0.10642498271E+04  0.12699999809E+01 0.  1.
</event>
<event>
 5   0  0.2524749E-06  0.2199353E+04  0.7818609E-02  0.8518697E-01
        2   -1    0    0  501    0  0.00000000000E+00  0.00000000000E+00  0.11511739455E+04  0.11511739455E+04  0.25500000920E-02 0. -1.
       -2   -1    0    0    0  501  0.00000000000E+00  0.00000000000E+00 -0.10504827549E+04  0.10504827549E+04  0.25500000920E-02 0.  1.
    10030    2    1    2    0    0  0.00000000000E+00  0.00000000000E+00  0.10069119055E+03  0.22016567004E+04  0.21993529754E+04 0.  0.
        4    1    3    3  502    0  0.43047241579E+03  0.59987360522E+03 -0.76545091612E+03  0.10635184817E+04  0.12699999809E+01 0.  1.
       -4    1    3    3    0  502 -0.43047241579E+03 -0.59987360522E+03  0.86614210667E+03  0.11381382187E+04  0.12699999809E+01 0. -1.
</event>
<event>
 5   0  0.1144271E-06  0.2200805E+04  0.7818609E-02  0.8518093E-01
       -1   -1    0    0    0  501  0.00000000000E+00  0.00000000000E+00  0.12503746563E+04  0.12503746563E+04  0.50400001928E-02 0.  1.
        1   -1    0    0  501    0  0.00000000000E+00  0.00000000000E+00 -0.96841786537E+03  0.96841786538E+03  0.50400001928E-02 0. -1.
    10030    2    1    2    0    0  0.00000000000E+00  0.00000000000E+00  0.28195679096E+03  0.22187925217E+04  0.22008045398E+04 0.  0.
        3    1    3    3  502    0 -0.72219355802E+03  0.36322419766E+03  0.89366593374E+03  0.12050452956E+04  0.10100000352E+00 0.  1.
       -3    1    3    3    0  502  0.72219355802E+03 -0.36322419766E+03 -0.61170914278E+03  0.10137472262E+04  0.10100000352E+00 0. -1.
</event>
<event>
 5   0  0.1144271E-06  0.2193204E+04  0.7818609E-02  0.8521262E-01
        1   -1    0    0  501    0  0.00000000000E+00  0.00000000000E+00  0.12150874685E+04  0.12150874685E+04  0.50400001928E-02 0.  1.
       -1   -1    0    0    0  501  0.00000000000E+00  0.00000000000E+00 -0.98967062653E+03  0.98967062654E+03  0.50400001928E-02 0. -1.
    10030    2    1    2    0    0  0.00000000000E+00  0.00000000000E+00  0.22541684196E+03  0.22047580950E+04  0.21932043920E+04 0.  0.
        3    1    3    3  502    0  0.50984994307E+03  0.77118746547E+03  0.70561141711E+03  0.11629980883E+04  0.10100000352E+00 0.  1.
       -3    1    3    3    0  502 -0.50984994307E+03 -0.77118746547E+03 -0.48019457516E+03  0.10417600067E+04  0.10100000352E+00 0. -1.
</event>
<event>
 5   0  0.1107101E-06  0.2199846E+04  0.7818609E-02  0.8518492E-01
       -1   -1    0    0    0  501  0.00000000000E+00  0.00000000000E+00  0.52948948718E+03  0.52948948720E+03  0.50400001928E-02 0. -1.
        1   -1    0    0  501    0  0.00000000000E+00  0.00000000000E+00 -0.22849005800E+04  0.22849005801E+04  0.50400001928E-02 0.  1.
    10030    2    1    2    0    0  0.00000000000E+00  0.00000000000E+00 -0.17554110929E+04  0.28143900673E+04  0.21998462096E+04 0.  0.
        1    1    3    3  502    0 -0.10148579953E+04 -0.19611842413E+03 -0.13588386869E+04  0.17072907673E+04  0.50400001928E-02 0.  1.
       -1    1    3    3    0  502  0.10148579953E+04  0.19611842413E+03 -0.39657240594E+03  0.11070993000E+04  0.50400001928E-02 0. -1.
</event>
<event>
 5   0  0.1082209E-06  0.2200447E+04  0.7818609E-02  0.8518242E-01
       -1   -1    0    0    0  501  0.00000000000E+00  0.00000000000E+00  0.11562117253E+04  0.11562117253E+04  0.50400001928E-02 0. -1.
        1   -1    0    0  501    0  0.00000000000E+00  0.00000000000E+00 -0.10469468680E+04  0.10469468680E+04  0.50400001928E-02 0.  1.
    10030    2    1    2    0    0  0.00000000000E+00  0.00000000000E+00  0.10926485728E+03  0.22031585933E+04  0.22004474495E+04 0.  0.
        2    1    3    3  502    0 -0.77557746347E+03  0.65081893332E+03 -0.37648671308E+03  0.10801980980E+04  0.25500000920E-02 0.  1.
       -2    1    3    3    0  502  0.77557746347E+03 -0.65081893332E+03  0.48575157037E+03  0.11229604953E+04  0.25500000920E-02 0. -1.
</event>
<event>
 5   0  0.2532239E-06  0.2201520E+04  0.7818609E-02  0.8517796E-01
       -2   -1    0    0    0  501  0.00000000000E+00  0.00000000000E+00  0.57414510727E+03  0.57414510727E+03  0.25500000920E-02 0. -1.
        2   -1    0    0  501    0  0.00000000000E+00  0.00000000000E+00 -0.21103936210E+04  0.21103936210E+04  0.25500000920E-02 0.  1.
    10030    2    1    2    0    0  0.00000000000E+00  0.00000000000E+00 -0.15362485137E+04  0.26845387282E+04  0.22015196314E+04 0.  0.
        3    1    3    3  502    0  0.96907207307E+03 -0.43724587439E+03 -0.11160015082E+04  0.15413448719E+04  0.10100000352E+00 0.  1.
       -3    1    3    3    0  502 -0.96907207307E+03  0.43724587439E+03 -0.42024700550E+03  0.11431938564E+04  0.10100000352E+00 0. -1.
</event>
<event>
 5   0  0.2532239E-06  0.2199477E+04  0.7818609E-02  0.8518646E-01
       -2   -1    0    0    0  501  0.00000000000E+00  0.00000000000E+00  0.14843830199E+04  0.14843830199E+04  0.25500000920E-02 0. -1.
        2   -1    0    0  501    0  0.00000000000E+00  0.00000000000E+00 -0.81476591894E+03  0.81476591894E+03  0.25500000920E-02 0.  1.
    10030    2    1    2    0    0  0.00000000000E+00  0.00000000000E+00  0.66961710092E+03  0.22991489388E+04  0.21994769335E+04 0.  0.
        3    1    3    3  502    0  0.28509732109E+03  0.59839813268E+03  0.12521078668E+04  0.14167338946E+04  0.10100000352E+00 0. -1.
       -3    1    3    3    0  502 -0.28509732109E+03 -0.59839813268E+03 -0.58249076592E+03  0.88241504422E+03  0.10100000352E+00 0.  1.
</event>
<event>
 5   0  0.1144271E-06  0.2199555E+04  0.7818609E-02  0.8518613E-01
       -1   -1    0    0    0  501  0.00000000000E+00  0.00000000000E+00  0.11866119849E+04  0.11866119849E+04  0.50400001928E-02 0. -1.
        1   -1    0    0  501    0  0.00000000000E+00  0.00000000000E+00 -0.10192973395E+04  0.10192973395E+04  0.50400001928E-02 0.  1.
    10030    2    1    2    0    0  0.00000000000E+00  0.00000000000E+00  0.16731464541E+03  0.22059093244E+04  0.21995548997E+04 0.  0.
        3    1    3    3  502    0  0.31652090599E+03  0.23075755405E+03 -0.94696706623E+03  0.10247834734E+04  0.10100000352E+00 0.  1.
       -3    1    3    3    0  502 -0.31652090599E+03 -0.23075755405E+03  0.11142817116E+04  0.11811258510E+04  0.10100000352E+00 0. -1.
</event>
<event>
 5   0  0.2606154E-06  0.2197577E+04  0.7818609E-02  0.8519437E-01
        2   -1    0    0  501    0  0.00000000000E+00  0.00000000000E+00  0.17141125857E+04  0.17141125857E+04  0.25500000920E-02 0. -1.
       -2   -1    0    0    0  501  0.00000000000E+00  0.00000000000E+00 -0.70435035294E+03  0.70435035294E+03  0.25500000920E-02 0.  1.
    10030    2    1    2    0    0  0.00000000000E+00  0.00000000000E+00  0.10097622327E+04  0.24184629386E+04  0.21975766696E+04 0.  0.
        2    1    3    3  502    0  0.49722474607E+03 -0.97339259999E+03  0.38129876967E+03  0.11576330824E+04  0.25500000920E-02 0.  1.
       -2    1    3    3    0  502 -0.49722474607E+03  0.97339259999E+03  0.62846346307E+03  0.12608298562E+04  0.25500000920E-02 0. -1.
</event>
<event>
 5   0  0.2581058E-06  0.2198052E+04  0.7818609E-02  0.8519239E-01
       -2   -1    0    0    0  501  0.00000000000E+00  0.00000000000E+00  0.14699124171E+04  0.14699124171E+04  0.25500000920E-02 0.  1.
        2   -1    0    0  501    0  0.00000000000E+00  0.00000000000E+00 -0.82172124548E+03  0.82172124549E+03  0.25500000920E-02 0. -1.
    10030    2    1    2    0    0  0.00000000000E+00  0.00000000000E+00  0.64819117159E+03  0.22916336626E+04  0.21980521032E+04 0.  0.
        1    1    3    3  502    0 -0.78706978908E+03  0.74738225350E+03  0.50406940818E+03  0.11967226304E+04  0.50400001928E-02 0.  1.
       -1    1    3    3    0  502  0.78706978908E+03 -0.74738225350E+03  0.14412176340E+03  0.10949110322E+04  0.50400001928E-02 0. -1.
</event>
<event>
 5   0  0.2524749E-06  0.2199569E+04  0.7818609E-02  0.8518608E-01
       -2   -1    0    0    0  501  0.00000000000E+00  0.00000000000E+00  0.14477051205E+04  0.14477051205E+04  0.25500000920E-02 0.  1.
        2   -1    0    0  501    0  0.00000000000E+00  0.00000000000E+00 -0.83547782068E+03  0.83547782069E+03  0.25500000920E-02 0. -1.
    10030    2    1    2    0    0  0.00000000000E+00  0.00000000000E+00  0.61222729983E+03  0.22831829412E+04  0.21995686114E+04 0.  0.
        4    1    3    3  502    0  0.84853958465E+03 -0.69328573159E+03  0.20841136711E+03  0.11153929546E+04  0.12699999809E+01 0. -1.
       -4    1    3    3    0  502 -0.84853958465E+03  0.69328573159E+03  0.40381593272E+03  0.11677899866E+04  0.12699999809E+01 0.  1.
</event>
<event>
 5   0  0.1137869E-06  0.2200344E+04  0.7818609E-02  0.8518285E-01
       -1   -1    0    0    0  501  0.00000000000E+00  0.00000000000E+00  0.62088340738E+03  0.62088340740E+03  0.50400001928E-02 0.  1.
        1   -1    0    0  501    0  0.00000000000E+00  0.00000000000E+00 -0.19494460187E+04  0.19494460187E+04  0.50400001928E-02 0. -1.
    10030    2    1    2    0    0  0.00000000000E+00  0.00000000000E+00 -0.13285626113E+04  0.25703294261E+04  0.22003442336E+04 0.  0.
        5    1    3    3  502    0 -0.80693064528E+03 -0.38253237525E+03 -0.14148916730E+04  0.16731433354E+04  0.46999998093E+01 0. -1.
       -5    1    3    3    0  502  0.80693064528E+03  0.38253237525E+03  0.86329061728E+02  0.89718609068E+03  0.46999998093E+01 0.  1.
</event>
<event>
 5   0  0.2581058E-06  0.2199422E+04  0.7818609E-02  0.8518669E-01
       -2   -1    0    0    0  501  0.00000000000E+00  0.00000000000E+00  0.41392380233E+03  0.41392380233E+03  0.25500000920E-02 0. -1.
        2   -1    0    0  501    0  0.00000000000E+00  0.00000000000E+00 -0.29217081940E+04  0.29217081940E+04  0.25500000920E-02 0.  1.
    10030    2    1    2    0    0  0.00000000000E+00  0.00000000000E+00 -0.25077843917E+04  0.33356319963E+04  0.21994222559E+04 0.  0.
        1    1    3    3  502    0  0.37106465717E+03  0.46026976614E+03 -0.26601830026E+04  0.27250891444E+04  0.50400001928E-02 0.  1.
       -1    1    3    3    0  502 -0.37106465717E+03 -0.46026976614E+03  0.15239861094E+03  0.61054285195E+03  0.50400001928E-02 0. -1.
</event>
<event>
 5   0  0.2532239E-06  0.2199874E+04  0.7818609E-02  0.8518481E-01
       -2   -1    0    0    0  501  0.00000000000E+00  0.00000000000E+00  0.52561831362E+03  0.52561831363E+03  0.25500000920E-02 0.  1.
        2   -1    0    0  501    0  0.00000000000E+00  0.00000000000E+00 -0.23017865892E+04  0.23017865892E+04  0.25500000920E-02 0. -1.
    10030    2    1    2    0    0  0.00000000000E+00  0.00000000000E+00 -0.17761682756E+04  0.28274049028E+04  0.21998738012E+04 0.  0.
        3    1    3    3  502    0 -0.10164973333E+04 -0.33366568049E+03 -0.55974778827E+03  0.12074424258E+04  0.10100000352E+00 0. -1.
       -3    1    3    3    0  502  0.10164973333E+04  0.33366568049E+03 -0.12164204873E+04  0.16199624770E+04  0.10100000352E+00 0.  1.
</event>
<event>
 5   0  0.1146827E-06  0.2200489E+04  0.7818609E-02  0.8518225E-01
       -1   -1    0    0    0  501  0.00000000000E+00  0.00000000000E+00  0.14383489703E+04  0.14383489703E+04  0.50400001928E-02 0. -1.
        1   -1    0    0  501    0  0.00000000000E+00  0.00000000000E+00 -0.84161641554E+03  0.84161641555E+03  0.50400001928E-02 0.  1.
    10030    2    1    2    0    0  0.00000000000E+00  0.00000000000E+00  0.59673255480E+03  0.22799653859E+04  0.22004891317E+04 0.  0.
        4    1    3    3  502    0 -0.65451941153E+03 -0.73237602678E+03  0.81201958810E+03  0.12744205464E+04  0.12699999809E+01 0. -1.
       -4    1    3    3    0  502  0.65451941153E+03  0.73237602678E+03 -0.21528703330E+03  0.10055448395E+04  0.12699999809E+01 0.  1.
</event>
<event>
 5   0  0.2556869E-06  0.2200485E+04  0.7818609E-02  0.8518226E-01
       -2   -1    0    0    0  501  0.00000000000E+00  0.00000000000E+00  0.65680842947E+03  0.65680842947E+03  0.25500000920E-02 0.  1.
        2   -1    0    0  501    0  0.00000000000E+00  0.00000000000E+00 -0.18430539241E+04  0.18430539241E+04  0.25500000920E-02 0. -1.
    10030    2    1    2    0    0  0.00000000000E+00  0.00000000000E+00 -0.11862454947E+04  0.24998623536E+04  0.22004848132E+04 0.  0.
        5    1    3    3  502    0  0.83796033363E+02 -0.10872935254E+04 -0.75885490097E+03  0.13285751151E+04  0.46999998093E+01 0. -1.
       -5    1    3    3    0  502 -0.83796033363E+02  0.10872935254E+04 -0.42739059368E+03  0.11712872385E+04  0.46999998093E+01 0.  1.
</event>
<event>
 5   0  0.2606154E-06  0.2198370E+04  0.7818609E-02  0.8519107E-01
        2   -1    0    0  501    0  0.00000000000E+00  0.00000000000E+00  0.18601817237E+04  0.18601817237E+04  0.25500000920E-02 0. -1.
       -2   -1    0    0    0  501  0.00000000000E+00  0.00000000000E+00 -0.64951062923E+03  0.64951062924E+03  0.25500000920E-02 0.  1.
    10030    2    1    2    0    0  0.00000000000E+00  0.00000000000E+00  0.12106710944E+04  0.25096923529E+04  0.21983701252E+04 0.  0.
        2    1    3    3  502    0  0.62728594582E+03  0.68838505170E+03 -0.61162497248E+02  0.93332871396E+03  0.25500000920E-02 0.  1.
       -2    1    3    3    0  502 -0.62728594582E+03 -0.68838505170E+03  0.12718335917E+04  0.15763636389E+04  0.25500000920E-02 0. -1.
</event>
<event>
 5   0  0.2606154E-06  0.2199442E+04  0.7818609E-02  0.8518661E-01
        2   -1    0    0  501    0  0.00000000000E+00  0.00000000000E+00  0.11762367313E+04  0.11762367313E+04  0.25500000920E-02 0.  1.
       -2   -1    0    0    0  501  0.00000000000E+00  0.00000000000E+00 -0.10281823007E+04  0.10281823007E+04  0.25500000920E-02 0. -1.
    10030    2    1    2    0    0  0.00000000000E+00  0.00000000000E+00  0.14805443059E+03  0.22044190319E+04  0.21994415550E+04 0.  0.
        2    1    3    3  502    0  0.38624836871E+03  0.80947680215E+03  0.71182044278E+03  0.11450453433E+04  0.25500000920E-02 0.  1.
       -2    1    3    3    0  502 -0.38624836871E+03 -0.80947680215E+03 -0.56376601219E+03  0.10593736886E+04  0.25500000920E-02 0. -1.
</event>
<event>
 5   0  0.1144271E-06  0.2199581E+04  0.7818609E-02  0.8518602E-01
       -1   -1    0    0    0  501  0.00000000000E+00  0.00000000000E+00  0.91059145620E+03  0.91059145621E+03  0.50400001928E-02 0. -1.
        1   -1    0    0  501    0  0.00000000000E+00  0.00000000000E+00 -0.13283007170E+04  0.13283007170E+04  0.50400001928E-02 0.  1.
    10030    2    1    2    0    0  0.00000000000E+00  0.00000000000E+00 -0.41770926077E+03  0.22388921732E+04  0.21995811275E+04 0.  0.
        3    1    3    3  502    0 -0.61472083805E+03 -0.39391473542E+03 -0.10460435689E+04  0.12756401083E+04  0.10100000352E+00 0.  1.
       -3    1    3    3    0  502  0.61472083805E+03  0.39391473542E+03  0.62833430818E+03  0.96325206491E+03  0.10100000352E+00 0. -1.
</event>
<event>
 5   0  0.1082209E-06  0.2200280E+04  0.7818609E-02  0.8518312E-01
        1   -1    0    0  501    0  0.00000000000E+00  0.00000000000E+00  0.11918436902E+04  0.11918436902E+04  0.50400001928E-02 0. -1.
       -1   -1    0    0    0  501  0.00000000000E+00  0.00000000000E+00 -0.10154921907E+04  0.10154921908E+04  0.50400001928E-02 0.  1.
    10030    2    1    2    0    0  0.00000000000E+00  0.00000000000E+00  0.17635149948E+03  0.22073358810E+04  0.22002799459E+04 0.  0.
        2    1    3    3  502    0 -0.96686089659E+03  0.62257618594E+02 -0.43465957648E+03  0.10618968650E+04  0.25500000920E-02 0.  1.
       -2    1    3    3    0  502  0.96686089659E+03 -0.62257618594E+02  0.61101107596E+03  0.11454390160E+04  0.25500000920E-02 0. -1.
</event>
<event>
 5   0  0.2581058E-06  0.2200282E+04  0.7818609E-02  0.8518311E-01
       -2   -1    0    0    0  501  0.00000000000E+00  0.00000000000E+00  0.10089066307E+04  0.10089066307E+04  0.25500000920E-02 0.  1.
        2   -1    0    0  501    0  0.00000000000E+00  0.00000000000E+00 -0.11996252594E+04  0.11996252594E+04  0.25500000920E-02 0. -1.
    10030    2    1    2    0    0  0.00000000000E+00  0.00000000000E+00 -0.19071862872E+03  0.22085318901E+04  0.22002816898E+04 0.  0.
        1    1    3    3  502    0 -0.90597831101E+03 -0.55963400383E+03 -0.37266130897E+03  0.11282124665E+04  0.50400001928E-02 0. -1.
       -1    1    3    3    0  502  0.90597831101E+03  0.55963400383E+03  0.18194268025E+03  0.10803194237E+04  0.50400001928E-02 0.  1.
</event>
<event>
 5   0  0.1082209E-06  0.2201867E+04  0.7818609E-02  0.8517651E-01
        1   -1    0    0  501    0  0.00000000000E+00  0.00000000000E+00  0.18455487184E+04  0.18455487184E+04  0.50400001928E-02 0.  1.
       -1   -1    0    0    0  501  0.00000000000E+00  0.00000000000E+00 -0.65674500980E+03  0.65674500982E+03  0.50400001928E-02 0. -1.
    10030    2    1    2    0    0  0.00000000000E+00  0.00000000000E+00  0.11888037086E+04  0.25022937282E+04  0.22018673086E+04 0.  0.
        2    1    3    3  502    0 -0.25265600074E+03 -0.76416040830E+02  0.18090556849E+04  0.18282114038E+04  0.25500000920E-02 0.  1.
       -2    1    3    3    0  502  0.25265600074E+03  0.76416040830E+02 -0.62025197628E+03  0.67408232442E+03  0.25500000920E-02 0. -1.
</event>
<event>
 5   0  0.1137869E-06  0.2201322E+04  0.7818609E-02  0.8517878E-01
        1   -1    0    0  501    0  0.00000000000E+00  0.00000000000E+00  0.11854784170E+04  0.11854784170E+04  0.50400001928E-02 0. -1.
       -1   -1    0    0    0  501  0.00000000000E+00  0.00000000000E+00 -0.10219124355E+04  0.10219124355E+04  0.50400001928E-02 0.  1.
    10030    2    1    2    0    0  0.00000000000E+00  0.00000000000E+00  0.16356598145E+03  0.22073908525E+04  0.22013224538E+04 0.  0.
        5    1    3    3  502    0 -0.12888893553E+03 -0.74126916239E+03 -0.72376257038E+03  0.10440051135E+04  0.46999998093E+01 0.  1.
       -5    1    3    3    0  502  0.12888893553E+03  0.74126916239E+03  0.88732855183E+03  0.11633857390E+04  0.46999998093E+01 0. -1.
</event>
<event>
 5   0  0.2556869E-06  0.2201034E+04  0.7818609E-02  0.8517998E-01
       -2   -1    0    0    0  501  0.00000000000E+00  0.00000000000E+00  0.63107110390E+03  0.63107110390E+03  0.25500000920E-02 0. -1.
        2   -1    0    0  501    0  0.00000000000E+00  0.00000000000E+00 -0.19191774646E+04  0.19191774646E+04  0.25500000920E-02 0.  1.
    10030    2    1    2    0    0  0.00000000000E+00  0.00000000000E+00 -0.12881063607E+04  0.25502485685E+04  0.22010337945E+04 0.  0.
        5    1    3    3  502    0 -0.91511730283E+03  0.38140125092E+03 -0.11975587003E+04  0.15546946719E+04  0.46999998093E+01 0.  1.
       -5    1    3    3    0  502  0.91511730283E+03 -0.38140125092E+03 -0.90547660331E+02  0.99555389655E+03  0.46999998093E+01 0. -1.
</event>
<event>
 5   0  0.1082209E-06  0.2200386E+04  0.7818609E-02  0.8518268E-01
       -1   -1    0    0    0  501  0.00000000000E+00  0.00000000000E+00  0.67912491087E+03  0.67912491089E+03  0.50400001928E-02 0.  1.
        1   -1    0    0  501    0  0.00000000000E+00  0.00000000000E+00 -0.17823291154E+04  0.17823291154E+04  0.50400001928E-02 0. -1.
    10030    2    1    2    0    0  0.00000000000E+00  0.00000000000E+00 -0.11032042046E+04  0.24614540263E+04  0.22003855132E+04 0.  0.
        2    1    3    3  502    0 -0.11755922223E+03 -0.92659207946E+03 -0.12019881984E+04  0.15222249116E+04  0.25500000920E-02 0.  1.
       -2    1    3    3    0  502  0.11755922223E+03  0.92659207946E+03  0.98783993849E+02  0.93922911470E+03  0.25500000920E-02 0. -1.
</event>
<event>
 5   0  0.1144271E-06  0.2198232E+04  0.7818609E-02  0.8519164E-01
       -1   -1    0    0    0  501  0.00000000000E+00  0.00000000000E+00  0.60120874722E+03  0.60120874724E+03  0.50400001928E-02 0.  1.
        1   -1    0    0  501    0  0.00000000000E+00  0.00000000000E+00 -0.20093788352E+04  0.20093788352E+04  0.50400001928E-02 0. -1.
    10030    2    1    2    0    0  0.00000000000E+00  0.00000000000E+00 -0.14081700880E+04  0.26105875825E+04  0.21982321372E+04 0.  0.
        3    1    3    3  502    0 -0.10107309939E+04 -0.10673847258E+03 -0.12010093900E+04  0.15733384279E+04  0.10100000352E+00 0. -1.
       -3    1    3    3    0  502  0.10107309939E+04  0.10673847258E+03 -0.20716069798E+03  0.10372491546E+04  0.10100000352E+00 0.  1.
</event>
<event>
 5   0  0.1137869E-06  0.2200075E+04  0.7818609E-02  0.8518397E-01
       -1   -1    0    0    0  501  0.00000000000E+00  0.00000000000E+00  0.11843602924E+04  0.11843602924E+04  0.50400001928E-02 0.  1.
        1   -1    0    0  501    0  0.00000000000E+00  0.00000000000E+00 -0.10217185994E+04  0.10217185994E+04  0.50400001928E-02 0. -1.
    10030    2    1    2    0    0  0.00000000000E+00  0.00000000000E+00  0.16264169296E+03  0.22060788918E+04  0.22000753979E+04 0.  0.
        5    1    3    3  502    0  0.68928528160E+03  0.40522081543E+02  0.93998964542E+03  0.11663442296E+04  0.46999998093E+01 0.  1.
       -5    1    3    3    0  502 -0.68928528160E+03 -0.40522081543E+02 -0.77734795247E+03  0.10397346622E+04  0.46999998093E+01 0. -1.
</event>
<event>
 5   0  0.2606154E-06  0.2199963E+04  0.7818609E-02  0.8518443E-01
        2   -1    0    0  501    0  0.00000000000E+00  0.00000000000E+00  0.10005213781E+04  0.10005213781E+04  0.25500000920E-02 0. -1.
       -2   -1    0    0    0  501  0.00000000000E+00  0.00000000000E+00 -0.12093291778E+04  0.12093291778E+04  0.25500000920E-02 0.  1.
    10030    2    1    2    0    0  0.00000000000E+00  0.00000000000E+00 -0.20880779970E+03  0.22098505558E+04  0.21999633592E+04 0.  0.
        2    1    3    3  502    0  0.71727014606E+03  0.83298581482E+03 -0.14480736796E+03  0.11087429837E+04  0.25500000920E-02 0. -1.
       -2    1    3    3    0  502 -0.71727014606E+03 -0.83298581482E+03 -0.64000431741E+02  0.11011075721E+04  0.25500000920E-02 0.  1.
</event>
<event>
 5   0  0.2532239E-06  0.2208600E+04  0.7818609E-02  0.8514857E-01
       -2   -1    0    0    0  501  0.00000000000E+00  0.00000000000E+00  0.10132152745E+04  0.10132152745E+04  0.25500000920E-02 0. -1.
        2   -1    0    0  501    0  0.00000000000E+00  0.00000000000E+00 -0.12035730851E+04  0.12035730851E+04  0.25500000920E-02 0.  1.
    10030    2    1    2    0    0  0.00000000000E+00  0.00000000000E+00 -0.19035781058E+03  0.22167883596E+04  0.22086001302E+04 0.  0.
        3    1    3    3  502    0 -0.53859647404E+03 -0.95999273190E+03 -0.64974122043E+01  0.11007790122E+04  0.10100000352E+00 0.  1.
       -3    1    3    3    0  502  0.53859647404E+03  0.95999273190E+03 -0.18386039837E+03  0.11160093474E+04  0.10100000352E+00 0. -1.
</event>
<event>
 5   0  0.1144271E-06  0.2200292E+04  0.7818609E-02  0.8518306E-01
       -1   -1    0    0    0  501  0.00000000000E+00  0.00000000000E+00  0.81166737723E+03  0.81166737724E+03  0.50400001928E-02 0.  1.
        1   -1    0    0  501    0  0.00000000000E+00  0.00000000000E+00 -0.14911546921E+04  0.14911546921E+04  0.50400001928E-02 0. -1.
    10030    2    1    2    0    0  0.00000000000E+00  0.00000000000E+00 -0.67948731488E+03  0.23028220694E+04  0.22002923606E+04 0.  0.
        3    1    3    3  502    0 -0.26867009185E+03  0.10667701329E+04 -0.32738346700E+03  0.11477639476E+04  0.10100000352E+00 0.  1.
       -3    1    3    3    0  502  0.26867009185E+03 -0.10667701329E+04 -0.35210384788E+03  0.11550581218E+04  0.10100000352E+00 0. -1.
</event>
<event>
 5   0  0.2581058E-06  0.2199725E+04  0.7818609E-02  0.8518542E-01
       -2   -1    0    0    0  501  0.00000000000E+00  0.00000000000E+00  0.67892052117E+03  0.67892052118E+03  0.25500000920E-02 0. -1.
        2   -1    0    0  501    0  0.00000000000E+00  0.00000000000E+00 -0.17817962471E+04  0.17817962471E+04  0.25500000920E-02 0.  1.
    10030    2    1    2    0    0  0.00000000000E+00  0.00000000000E+00 -0.11028757259E+04  0.24607167683E+04  0.21997254708E+04 0.  0.
        1    1    3    3  502    0 -0.43430702227E+03  0.37453150205E+02  0.57815916998E+03  0.72408104098E+03  0.50400001928E-02 0. -1.
       -1    1    3    3    0  502  0.43430702227E+03 -0.37453150205E+02 -0.16810348959E+04  0.17366357273E+04  0.50400001928E-02 0.  1.
</event>
<event>
 5   0  0.2581058E-06  0.2202323E+04  0.7818609E-02  0.8517462E-01
       -2   -1    0    0    0  501  0.00000000000E+00  0.00000000000E+00  0.12680412298E+04  0.12680412298E+04  0.25500000920E-02 0.  1.
        2   -1    0    0  501    0  0.00000000000E+00  0.00000000000E+00 -0.95624363871E+03  0.95624363871E+03  0.25500000920E-02 0. -1.
    10030    2    1    2    0    0  0.00000000000E+00  0.00000000000E+00  0.31179759104E+03  0.22242848685E+04  0.22023227371E+04 0.  0.
        1    1    3    3  502    0 -0.73299415203E+02  0.75355819384E+03 -0.65165825056E+03  0.99894005392E+03  0.50400001928E-02 0. -1.
       -1    1    3    3    0  502  0.73299415203E+02 -0.75355819384E+03  0.96345584160E+03  0.12253448145E+04  0.50400001928E-02 0.  1.
</event>
<event>
 5   0  0.2556869E-06  0.2200275E+04  0.7818609E-02  0.8518314E-01
       -2   -1    0    0    0  501  0.00000000000E+00  0.00000000000E+00  0.75387346566E+03  0.75387346567E+03  0.25500000920E-02 0. -1.
        2   -1    0    0  501    0  0.00000000000E+00  0.00000000000E+00 -0.16054454025E+04  0.16054454025E+04  0.25500000920E-02 0.  1.
    10030    2    1    2    0    0  0.00000000000E+00  0.00000000000E+00 -0.85157193684E+03  0.23593188682E+04  0.22002751551E+04 0.  0.
        5    1    3    3  502    0 -0.35083222265E+03  0.98948849512E+03 -0.77835350145E+03  0.13069150675E+04  0.46999998093E+01 0. -1.
       -5    1    3    3    0  502  0.35083222265E+03 -0.98948849512E+03 -0.73218435396E+02  0.10524038007E+04  0.46999998093E+01 0.  1.
</event>
<event>
 5   0  0.2532239E-06  0.2200005E+04  0.7818609E-02  0.8518426E-01
        2   -1    0    0  501    0  0.00000000000E+00  0.00000000000E+00  0.11281273311E+04  0.11281273311E+04  0.25500000920E-02 0. -1.
       -2   -1    0    0    0  501  0.00000000000E+00  0.00000000000E+00 -0.10725790040E+04  0.10725790040E+04  0.25500000920E-02 0.  1.
    10030    2    1    2    0    0  0.00000000000E+00  0.00000000000E+00  0.55548327123E+02  0.22007063350E+04  0.22000051719E+04 0.  0.
        3    1    3    3  502    0 -0.53287115088E+03  0.93996029997E+03 -0.17851631816E+03  0.10951461615E+04  0.10100000352E+00 0.  1.
       -3    1    3    3    0  502  0.53287115088E+03 -0.93996029997E+03  0.23406464529E+03  0.11055601735E+04  0.10100000352E+00 0. -1.
</event>
<event>
 5   0  0.1107101E-06  0.2199414E+04  0.7818609E-02  0.8518672E-01
       -1   -1    0    0    0  501  0.00000000000E+00  0.00000000000E+00  0.81442129277E+03  0.81442129279E+03  0.50400001928E-02 0.  1.
        1   -1    0    0  501    0  0.00000000000E+00  0.00000000000E+00 -0.14849267384E+04  0.14849267384E+04  0.50400001928E-02 0. -1.
    10030    2    1    2    0    0  0.00000000000E+00  0.00000000000E+00 -0.67050544561E+03  0.22993480312E+04  0.21994144257E+04 0.  0.
        1    1    3    3  502    0 -0.10132235596E+04  0.39791323246E+03 -0.17195356772E+03  0.11020548769E+04  0.50400001928E-02 0.  1.
       -1    1    3    3    0  502  0.10132235596E+04 -0.39791323246E+03 -0.49855187789E+03  0.11972931543E+04  0.50400001928E-02 0. -1.
</event>
<event>
 5   0  0.1107101E-06  0.2199024E+04  0.7818609E-02  0.8518834E-01
       -1   -1    0    0    0  501  0.00000000000E+00  0.00000000000E+00  0.16716819370E+04  0.16716819370E+04  0.50400001928E-02 0.  1.
        1   -1    0    0  501    0  0.00000000000E+00  0.00000000000E+00 -0.72317990081E+03  0.72317990083E+03  0.50400001928E-02 0. -1.
    10030    2    1    2    0    0  0.00000000000E+00  0.00000000000E+00  0.94850203617E+03  0.23948618378E+04  0.21990241267E+04 0.  0.
        1    1    3    3  502    0 -0.12243265717E+03  0.26720126342E+02 -0.71537728349E+03  0.72627018282E+03  0.50400001928E-02 0. -1.
       -1    1    3    3    0  502  0.12243265717E+03 -0.26720126342E+02  0.16638793197E+04  0.16685916550E+04  0.50400001928E-02 0.  1.
</event>
<event>
 5   0  0.1107101E-06  0.2200271E+04  0.7818609E-02  0.8518315E-01
        1   -1    0    0  501    0  0.00000000000E+00  0.00000000000E+00  0.86574200615E+03  0.86574200616E+03  0.50400001928E-02 0. -1.
       -1   -1    0    0    0  501  0.00000000000E+00  0.00000000000E+00 -0.13979892564E+04  0.13979892564E+04  0.50400001928E-02 0.  1.
    10030    2    1    2    0    0  0.00000000000E+00  0.00000000000E+00 -0.53224725027E+03  0.22637312626E+04  0.22002709137E+04 0.  0.
        1    1    3    3  502    0  0.71397656699E+03  0.37298270374E+03  0.50476637852E+03  0.95061439733E+03  0.50400001928E-02 0. -1.
       -1    1    3    3    0  502 -0.71397656699E+03 -0.37298270374E+03 -0.10370136288E+04  0.13131168653E+04  0.50400001928E-02 0.  1.
</event>
<event>
 5   0  0.2556869E-06  0.2194979E+04  0.7818609E-02  0.8520521E-01
       -2   -1    0    0    0  501  0.00000000000E+00  0.00000000000E+00  0.10461562524E+04  0.10461562524E+04  0.25500000920E-02 0.  1.
        2   -1    0    0  501    0  0.00000000000E+00  0.00000000000E+00 -0.11513417250E+04  0.11513417250E+04  0.25500000920E-02 0. -1.
    10030    2    1    2    0    0  0.00000000000E+00  0.00000000000E+00 -0.10518547257E+03  0.21974979774E+04  0.21949791290E+04 0.  0.
        5    1    3    3  502    0  0.96409897125E+03  0.48267551518E+03 -0.25776393702E+03  0.11085697166E+04  0.46999998093E+01 0.  1.
       -5    1    3    3    0  502 -0.96409897125E+03 -0.48267551518E+03  0.15257846445E+03  0.10889282608E+04  0.46999998093E+01 0. -1.
</event>
<event>
 5   0  0.2581058E-06  0.2196748E+04  0.7818609E-02  0.8519783E-01
        2   -1    0    0  501    0  0.00000000000E+00  0.00000000000E+00  0.20335119116E+04  0.20335119116E+04  0.25500000920E-02 0. -1.
       -2   -1    0    0    0  501  0.00000000000E+00  0.00000000000E+00 -0.59327162657E+03  0.59327162658E+03  0.25500000920E-02 0.  1.
    10030    2    1    2    0    0  0.00000000000E+00  0.00000000000E+00  0.14402402851E+04  0.26267835382E+04  0.21967475226E+04 0.  0.
        1    1    3    3  502    0 -0.51828195808E+03  0.75771907011E+03  0.14412246374E+04  0.17087664653E+04  0.50400001928E-02 0. -1.
       -1    1    3    3    0  502  0.51828195808E+03 -0.75771907011E+03 -0.98435233882E+00  0.91801707297E+03  0.50400001928E-02 0.  1.
</event>
<event>
 5   0  0.1137869E-06  0.2200410E+04  0.7818609E-02  0.8518257E-01
        1   -1    0    0  501    0  0.00000000000E+00  0.00000000000E+00  0.10162820289E+04  0.10162820289E+04  0.50400001928E-02 0. -1.
       -1   -1    0    0    0  501  0.00000000000E+00  0.00000000000E+00 -0.11910583047E+04  0.11910583048E+04  0.50400001928E-02 0.  1.
    10030    2    1    2    0    0  0.00000000000E+00  0.00000000000E+00 -0.17477627587E+03  0.22073403336E+04  0.22004100986E+04 0.  0.
        5    1    3    3  502    0  0.10838596296E+02  0.44618210324E+03 -0.10961561709E+04  0.11835439939E+04  0.46999998093E+01 0.  1.
       -5    1    3    3    0  502 -0.10838596296E+02 -0.44618210324E+03  0.92137989502E+03  0.10237963398E+04  0.46999998093E+01 0. -1.
</event>
<event>
 5   0  0.1144271E-06  0.2199704E+04  0.7818609E-02  0.8518551E-01
        1   -1    0    0  501    0  0.00000000000E+00  0.00000000000E+00  0.21296850852E+04  0.21296850852E+04  0.50400001928E-02 0. -1.
       -1   -1    0    0    0  501  0.00000000000E+00  0.00000000000E+00 -0.56800616742E+03  0.56800616745E+03  0.50400001928E-02 0.  1.
    10030    2    1    2    0    0  0.00000000000E+00  0.00000000000E+00  0.15616789178E+04  0.26976912526E+04  0.21997038556E+04 0.  0.
        3    1    3    3  502    0  0.27739234457E+02  0.18929215255E+03 -0.54744348776E+03  0.57990979181E+03  0.10100000352E+00 0.  1.
       -3    1    3    3    0  502 -0.27739234457E+02 -0.18929215255E+03  0.21091224055E+04  0.21177814608E+04  0.10100000352E+00 0. -1.
</event>
<event>
 5   0  0.2581058E-06  0.2198602E+04  0.7818609E-02  0.8519010E-01
        2   -1    0    0  501    0  0.00000000000E+00  0.00000000000E+00  0.20826148358E+04  0.20826148358E+04  0.25500000920E-02 0. -1.
       -2   -1    0    0    0  501  0.00000000000E+00  0.00000000000E+00 -0.58026237728E+03  0.58026237729E+03  0.25500000920E-02 0.  1.
    10030    2    1    2    0    0  0.00000000000E+00  0.00000000000E+00  0.15023524585E+04  0.26628772131E+04  0.21986023156E+04 0.  0.
        1    1    3    3  502    0  0.37350653672E+03  0.33647171501E+03 -0.43288715754E+03  0.66340910392E+03  0.50400001928E-02 0.  1.
       -1    1    3    3    0  502 -0.37350653672E+03 -0.33647171501E+03  0.19352396160E+04  0.19994681091E+04  0.50400001928E-02 0. -1.
</event>
<event>
 5   0  0.1107101E-06  0.2200131E+04  0.7818609E-02  0.8518374E-01
       -1   -1    0    0    0  501  0.00000000000E+00  0.00000000000E+00  0.20622012935E+04  0.20622012935E+04  0.50400001928E-02 0.  1.
        1   -1    0    0  501    0  0.00000000000E+00  0.00000000000E+00 -0.58682138842E+03  0.58682138844E+03  0.50400001928E-02 0. -1.
    10030    2    1    2    0    0  0.00000000000E+00  0.00000000000E+00  0.14753799051E+04  0.26490226819E+04  0.22001307473E+04 0.  0.
        1    1    3    3  502    0 -0.34108824192E+03  0.59811794538E+03 -0.29529281263E+03  0.74918896853E+03  0.50400001928E-02 0. -1.
       -1    1    3    3    0  502  0.34108824192E+03 -0.59811794538E+03  0.17706727177E+04  0.18998337134E+04  0.50400001928E-02 0.  1.
</event>
<event>
 5   0  0.1082209E-06  0.2199234E+04  0.7818609E-02  0.8518747E-01
        1   -1    0    0  501    0  0.00000000000E+00  0.00000000000E+00  0.13072979397E+04  0.13072979397E+04  0.50400001928E-02 0.  1.
       -1   -1    0    0    0  501  0.00000000000E+00  0.00000000000E+00 -0.92492906130E+03  0.92492906132E+03  0.50400001928E-02 0. -1.
    10030    2    1    2    0    0  0.00000000000E+00  0.00000000000E+00  0.38236887842E+03  0.22322270011E+04  0.21992342815E+04 0.  0.
        2    1    3    3  502    0  0.60245771707E+02  0.46457420712E+03 -0.81857622878E+03  0.94314674853E+03  0.25500000920E-02 0. -1.
       -2    1    3    3    0  502 -0.60245771707E+02 -0.46457420712E+03  0.12009451072E+04  0.12890802525E+04  0.25500000920E-02 0.  1.
</event>
<event>
 5   0  0.1146827E-06  0.2197713E+04  0.7818609E-02  0.8519381E-01
       -1   -1    0    0    0  501  0.00000000000E+00  0.00000000000E+00  0.79064672476E+03  0.79064672478E+03  0.50400001928E-02 0. -1.
        1   -1    0    0  501    0  0.00000000000E+00  0.00000000000E+00 -0.15272120676E+04  0.15272120676E+04  0.50400001928E-02 0.  1.
    10030    2    1    2    0    0  0.00000000000E+00  0.00000000000E+00 -0.73656534284E+03  0.23178587924E+04  0.21977126466E+04 0.  0.
        4    1    3    3  502    0  0.23074005086E+03  0.91589029065E+03 -0.96057810150E+03  0.13471480607E+04  0.12699999809E+01 0.  1.
       -4    1    3    3    0  502 -0.23074005086E+03 -0.91589029065E+03  0.22401275866E+03  0.97071073164E+03  0.12699999809E+01 0. -1.
</event>
<event>
 5   0  0.1146827E-06  0.2204213E+04  0.7818609E-02  0.8516677E-01
       -1   -1    0    0    0  501  0.00000000000E+00  0.00000000000E+00  0.64264632577E+03  0.64264632579E+03  0.50400001928E-02 0. -1.
        1   -1    0    0  501    0  0.00000000000E+00  0.00000000000E+00 -0.18900576963E+04  0.18900576963E+04  0.50400001928E-02 0.  1.
    10030    2    1    2    0    0  0.00000000000E+00  0.00000000000E+00 -0.12474113705E+04  0.25327040221E+04  0.22042129063E+04 0.  0.
        4    1    3    3  502    0 -0.51277511178E+03  0.37559088561E+03  0.41082240334E+03  0.75682460888E+03  0.12699999809E+01 0. -1.
       -4    1    3    3    0  502  0.51277511178E+03 -0.37559088561E+03 -0.16582337738E+04  0.17758794132E+04  0.12699999809E+01 0.  1.
</event>
<event>
 5   0  0.1107101E-06  0.2200601E+04  0.7818609E-02  0.8518178E-01
       -1   -1    0    0    0  501  0.00000000000E+00  0.00000000000E+00  0.78059988488E+03  0.78059988490E+03  0.50400001928E-02 0.  1.
        1   -1    0    0  501    0  0.00000000000E+00  0.00000000000E+00 -0.15509362358E+04  0.15509362358E+04  0.50400001928E-02 0. -1.
    10030    2    1    2    0    0  0.00000000000E+00  0.00000000000E+00 -0.77033635095E+03  0.23315361207E+04  0.22006005064E+04 0.  0.
        1    1    3    3  502    0 -0.59755453488E+03  0.12076904359E+03 -0.13556400902E+04  0.14864106560E+04  0.50400001928E-02 0. -1.
       -1    1    3    3    0  502  0.59755453488E+03 -0.12076904359E+03  0.58530373922E+03  0.84512546478E+03  0.50400001928E-02 0.  1.
</event>
<event>
 5   0  0.1144271E-06  0.2198969E+04  0.7818609E-02  0.8518857E-01
        1   -1    0    0  501    0  0.00000000000E+00  0.00000000000E+00  0.20997124382E+04  0.20997124383E+04  0.50400001928E-02 0.  1.
       -1   -1    0    0    0  501  0.00000000000E+00  0.00000000000E+00 -0.57572927118E+03  0.57572927120E+03  0.50400001928E-02 0. -1.
    10030    2    1    2    0    0  0.00000000000E+00  0.00000000000E+00  0.15239831671E+04  0.26754417095E+04  0.21989687690E+04 0.  0.
        3    1    3    3  502    0  0.42434129907E+03 -0.92309318446E+03  0.12734306411E+04  0.16290463999E+04  0.10100000352E+00 0.  1.
       -3    1    3    3    0  502 -0.42434129907E+03  0.92309318446E+03  0.25055252596E+03  0.10463953095E+04  0.10100000352E+00 0. -1.
</event>
<event>
 5   0  0.1146827E-06  0.2199401E+04  0.7818609E-02  0.8518677E-01
        1   -1    0    0  501    0  0.00000000000E+00  0.00000000000E+00  0.19459010835E+04  0.19459010835E+04  0.50400001928E-02 0.  1.
       -1   -1    0    0    0  501  0.00000000000E+00  0.00000000000E+00 -0.62148144311E+03  0.62148144313E+03  0.50400001928E-02 0. -1.
    10030    2    1    2    0    0  0.00000000000E+00  0.00000000000E+00  0.13244196404E+04  0.25673825266E+04  0.21994012036E+04 0.  0.
        4    1    3    3  502    0 -0.75934399661E+03 -0.61714294691E+03  0.12480447651E+04  0.15859022891E+04  0.12699999809E+01 0.  1.
       -4    1    3    3    0  502  0.75934399661E+03  0.61714294691E+03  0.76374875291E+02  0.98148023749E+03  0.12699999809E+01 0. -1.
</event>
<event>
 5   0  0.2556869E-06  0.2200298E+04  0.7818609E-02  0.8518304E-01
       -2   -1    0    0    0  501  0.00000000000E+00  0.00000000000E+00  0.92503644523E+03  0.92503644523E+03  0.25500000920E-02 0.  1.
        2   -1    0    0  501    0  0.00000000000E+00  0.00000000000E+00 -0.13084106778E+04  0.13084106778E+04  0.25500000920E-02 0. -1.
    10030    2    1    2    0    0  0.00000000000E+00  0.00000000000E+00 -0.38337423262E+03  0.22334471231E+04  0.22002977638E+04 0.  0.
        5    1    3    3  502    0 -0.10268174531E+04  0.24007125567E+03 -0.50996680874E+03  0.11713567031E+04  0.46999998093E+01 0.  1.
       -5    1    3    3    0  502  0.10268174531E+04 -0.24007125567E+03  0.12659257612E+03  0.10620904200E+04  0.46999998093E+01 0. -1.
</event>
<event>
 5   0  0.1082209E-06  0.2199986E+04  0.7818609E-02  0.8518434E-01
        1   -1    0    0  501    0  0.00000000000E+00  0.00000000000E+00  0.16235306565E+04  0.16235306565E+04  0.50400001928E-02 0. -1.
       -1   -1    0    0    0  501  0.00000000000E+00  0.00000000000E+00 -0.74527981725E+03  0.74527981727E+03  0.50400001928E-02 0.  1.
    10030    2    1    2    0    0  0.00000000000E+00  0.00000000000E+00  0.87825083922E+03  0.23688104738E+04  0.21999860281E+04 0.  0.
        2    1    3    3  502    0 -0.22829561998E+03  0.42953950765E+03  0.15014261639E+04  0.15782596759E+04  0.25500000920E-02 0. -1.
       -2    1    3    3    0  502  0.22829561998E+03 -0.42953950765E+03 -0.62317532470E+03  0.79055079790E+03  0.25500000920E-02 0.  1.
</event>
<event>
 5   0  0.1144271E-06  0.2199489E+04  0.7818609E-02  0.8518641E-01
        1   -1    0    0  501    0  0.00000000000E+00  0.00000000000E+00  0.20356907512E+04  0.20356907512E+04  0.50400001928E-02 0.  1.
       -1   -1    0    0    0  501  0.00000000000E+00  0.00000000000E+00 -0.59411671075E+03  0.59411671077E+03  0.50400001928E-02 0. -1.
    10030    2    1    2    0    0  0.00000000000E+00  0.00000000000E+00  0.14415740405E+04  0.26298074620E+04  0.21994889345E+04 0.  0.
        3    1    3    3  502    0 -0.54597394965E+03 -0.89265201146E+03  0.31616641898E+03  0.10931040124E+04  0.10100000352E+00 0. -1.
       -3    1    3    3    0  502  0.54597394965E+03  0.89265201146E+03  0.11254076215E+04  0.15367034496E+04  0.10100000352E+00 0.  1.
</event>
<event>
 5   0  0.1082209E-06  0.2200203E+04  0.7818609E-02  0.8518343E-01
        1   -1    0    0  501    0  0.00000000000E+00  0.00000000000E+00  0.10401298888E+04  0.10401298888E+04  0.50400001928E-02 0.  1.
       -1   -1    0    0    0  501  0.00000000000E+00  0.00000000000E+00 -0.11635314090E+04  0.11635314090E+04  0.50400001928E-02 0. -1.
    10030    2    1    2    0    0  0.00000000000E+00  0.00000000000E+00 -0.12340152019E+03  0.22036612979E+04  0.22002034407E+04 0.  0.
        2    1    3    3  502    0 -0.17551426813E+03  0.65160917981E+03 -0.93187226778E+03  0.11505588664E+04  0.25500000920E-02 0. -1.
       -2    1    3    3    0  502  0.17551426813E+03 -0.65160917981E+03  0.80847074759E+03  0.10531024315E+04  0.25500000920E-02 0.  1.
</event>
<event>
 5   0  0.2581058E-06  0.2197742E+04  0.7818609E-02  0.8519369E-01
        2   -1    0    0  501    0  0.00000000000E+00  0.00000000000E+00  0.20712041295E+04  0.20712041295E+04  0.25500000920E-02 0.  1.
       -2   -1    0    0    0  501  0.00000000000E+00  0.00000000000E+00 -0.58300265549E+03  0.58300265549E+03  0.25500000920E-02 0. -1.
    10030    2    1    2    0    0  0.00000000000E+00  0.00000000000E+00  0.14882014740E+04  0.26542067850E+04  0.21977420300E+04 0.  0.
        1    1    3    3  502    0  0.77184185242E+03 -0.52748079134E+03  0.14415828834E+04  0.17181784076E+04  0.50400001928E-02 0.  1.
       -1    1    3    3    0  502 -0.77184185242E+03  0.52748079134E+03  0.46618590596E+02  0.93602837745E+03  0.50400001928E-02 0. -1.
</event>
<event>
 5   0  0.1107101E-06  0.2201014E+04  0.7818609E-02  0.8518006E-01
        1   -1    0    0  501    0  0.00000000000E+00  0.00000000000E+00  0.12680453638E+04  0.12680453638E+04  0.50400001928E-02 0.  1.
       -1   -1    0    0    0  501  0.00000000000E+00  0.00000000000E+00 -0.95510397732E+03  0.95510397733E+03  0.50400001928E-02 0. -1.
    10030    2    1    2    0    0  0.00000000000E+00  0.00000000000E+00  0.31294138650E+03  0.22231493412E+04  0.22010135578E+04 0.  0.
        1    1    3    3  502    0  0.26199945264E+03  0.97993266731E+02  0.12315381698E+04  0.12629064324E+04  0.50400001928E-02 0.  1.
       -1    1    3    3    0  502 -0.26199945264E+03 -0.97993266731E+02 -0.91859678326E+03  0.96024290872E+03  0.50400001928E-02 0. -1.
</event>
<event>
 5   0  0.2606154E-06  0.2200115E+04  0.7818609E-02  0.8518380E-01
        2   -1    0    0  501    0  0.00000000000E+00  0.00000000000E+00  0.10351700130E+04  0.10351700130E+04  0.25500000920E-02 0.  1.
       -2   -1    0    0    0  501  0.00000000000E+00  0.00000000000E+00 -0.11690123407E+04  0.11690123407E+04  0.25500000920E-02 0. -1.
    10030    2    1    2    0    0  0.00000000000E+00  0.00000000000E+00 -0.13384232766E+03  0.22041823537E+04  0.22001150151E+04 0.  0.
        2    1    3    3  502    0  0.22062012976E+03 -0.58089043307E+03 -0.97635456915E+03  0.11573137784E+04  0.25500000920E-02 0. -1.
       -2    1    3    3    0  502 -0.22062012976E+03  0.58089043307E+03  0.84251224149E+03  0.10468685753E+04  0.25500000920E-02 0.  1.
</event>
<event>
 5   0  0.1137869E-06  0.2197897E+04  0.7818609E-02  0.8519304E-01
       -1   -1    0    0    0  501  0.00000000000E+00  0.00000000000E+00  0.47297018826E+03  0.47297018829E+03  0.50400001928E-02 0.  1.
        1   -1    0    0  501    0  0.00000000000E+00  0.00000000000E+00 -0.25534129989E+04  0.25534129989E+04  0.50400001928E-02 0. -1.
    10030    2    1    2    0    0  0.00000000000E+00  0.00000000000E+00 -0.20804428106E+04  0.30263831872E+04  0.21978973833E+04 0.  0.
        5    1    3    3  502    0 -0.28296344692E+03 -0.54253567715E+03  0.21669070614E+03  0.64914576591E+03  0.46999998093E+01 0.  1.
       -5    1    3    3    0  502  0.28296344692E+03  0.54253567715E+03 -0.22971335168E+04  0.23772374213E+04  0.46999998093E+01 0. -1.
</event>
<event>
 5   0  0.1107101E-06  0.2200369E+04  0.7818609E-02  0.8518274E-01
       -1   -1    0    0    0  501  0.00000000000E+00  0.00000000000E+00  0.78933769291E+03  0.78933769292E+03  0.50400001928E-02 0.  1.
        1   -1    0    0  501    0  0.00000000000E+00  0.00000000000E+00 -0.15334453326E+04  0.15334453326E+04  0.50400001928E-02 0. -1.
    10030    2    1    2    0    0  0.00000000000E+00  0.00000000000E+00 -0.74410763972E+03  0.23227830256E+04  0.22003692427E+04 0.  0.
        1    1    3    3  502    0  0.15483461037E+03 -0.40018682436E+02  0.77700238702E+03  0.79328932992E+03  0.50400001928E-02 0.  1.
       -1    1    3    3    0  502 -0.15483461037E+03  0.40018682436E+02 -0.15211100267E+04  0.15294936956E+04  0.50400001928E-02 0. -1.
</event>
<event>
 5   0  0.1144271E-06  0.2202986E+04  0.7818609E-02  0.8517186E-01
        1   -1    0    0  501    0  0.00000000000E+00  0.00000000000E+00  0.14904074224E+04  0.14904074224E+04  0.50400001928E-02 0. -1.
       -1   -1    0    0    0  501  0.00000000000E+00  0.00000000000E+00 -0.81406392356E+03  0.81406392358E+03  0.50400001928E-02 0.  1.
    10030    2    1    2    0    0  0.00000000000E+00  0.00000000000E+00  0.67634349881E+03  0.23044713460E+04  0.22029860771E+04 0.  0.
        3    1    3    3  502    0 -0.39356610130E+03  0.10120578723E+04  0.53142961968E+03  0.12089552778E+04  0.10100000352E+00 0. -1.
       -3    1    3    3    0  502  0.39356610130E+03 -0.10120578723E+04  0.14491387913E+03  0.10955160681E+04  0.10100000352E+00 0.  1.
</event>
<event>
 5   0  0.2532239E-06  0.2200004E+04  0.7818609E-02  0.8518426E-01
       -2   -1    0    0    0  501  0.00000000000E+00  0.00000000000E+00  0.14435805226E+04  0.14435805226E+04  0.25500000920E-02 0.  1.
        2   -1    0    0  501    0  0.00000000000E+00  0.00000000000E+00 -0.83819698588E+03  0.83819698588E+03  0.25500000920E-02 0. -1.
    10030    2    1    2    0    0  0.00000000000E+00  0.00000000000E+00  0.60538353675E+03  0.22817775085E+04  0.22000044027E+04 0.  0.
        3    1    3    3  502    0 -0.55629182689E+03  0.87251913715E+03 -0.84347033556E+02  0.10382026169E+04  0.10100000352E+00 0. -1.
       -3    1    3    3    0  502  0.55629182689E+03 -0.87251913715E+03  0.68973057030E+03  0.12435748917E+04  0.10100000352E+00 0.  1.
</event>
<event>
 5   0  0.2524749E-06  0.2197661E+04  0.7818609E-02  0.8519402E-01
        2   -1    0    0  501    0  0.00000000000E+00  0.00000000000E+00  0.13316447399E+04  0.13316447399E+04  0.25500000920E-02 0.  1.
       -2   -1    0    0    0  501  0.00000000000E+00  0.00000000000E+00 -0.90671957905E+03  0.90671957905E+03  0.25500000920E-02 0. -1.
    10030    2    1    2    0    0  0.00000000000E+00  0.00000000000E+00  0.42492516086E+03  0.22383643190E+04  0.21976609001E+04 0.  0.
        4    1    3    3  502    0  0.37248980986E+03  0.10120370220E+04 -0.22960789873E+01  0.10784129437E+04  0.12699999809E+01 0. -1.
       -4    1    3    3    0  502 -0.37248980986E+03 -0.10120370220E+04  0.42722123985E+03  0.11599513753E+04  0.12699999809E+01 0.  1.
</event>
<event>
 5   0  0.1107101E-06  0.2199332E+04  0.7818609E-02  0.8518706E-01
       -1   -1    0    0    0  501  0.00000000000E+00  0.00000000000E+00  0.10562053718E+04  0.10562053718E+04  0.50400001928E-02 0. -1.
        1   -1    0    0  501    0  0.00000000000E+00  0.00000000000E+00 -0.11449145437E+04  0.11449145437E+04  0.50400001928E-02 0.  1.
    10030    2    1    2    0    0  0.00000000000E+00  0.00000000000E+00 -0.88709171870E+02  0.22011199155E+04  0.21993316179E+04 0.  0.
        1    1    3    3  502    0 -0.20439666451E+03 -0.10328522796E+04 -0.36195007597E+03  0.11133596388E+04  0.50400001928E-02 0.  1.
       -1    1    3    3    0  502  0.20439666451E+03  0.10328522796E+04  0.27324090410E+03  0.10877602767E+04  0.50400001928E-02 0. -1.
</event>
<event>
 5   0  0.1137869E-06  0.2200066E+04  0.7818609E-02  0.8518401E-01
        1   -1    0    0  501    0  0.00000000000E+00  0.00000000000E+00  0.11361672035E+04  0.11361672035E+04  0.50400001928E-02 0.  1.
       -1   -1    0    0    0  501  0.00000000000E+00  0.00000000000E+00 -0.10650477437E+04  0.10650477437E+04  0.50400001928E-02 0. -1.
    10030    2    1    2    0    0  0.00000000000E+00  0.00000000000E+00  0.71119459789E+02  0.22012149472E+04  0.22000657414E+04 0.  0.
        5    1    3    3  502    0  0.64215045175E+03 -0.89223405439E+03  0.75723146040E+02  0.11019051208E+04  0.46999998093E+01 0. -1.
       -5    1    3    3    0  502 -0.64215045175E+03  0.89223405439E+03 -0.46036862501E+01  0.10993098264E+04  0.46999998093E+01 0.  1.
</event>
<event>
 5   0  0.2532239E-06  0.2199318E+04  0.7818609E-02  0.8518712E-01
       -2   -1    0    0    0  501  0.00000000000E+00  0.00000000000E+00  0.85855656528E+03  0.85855656528E+03  0.25500000920E-02 0. -1.
        2   -1    0    0  501    0  0.00000000000E+00  0.00000000000E+00 -0.14084686582E+04  0.14084686583E+04  0.25500000920E-02 0.  1.
    10030    2    1    2    0    0  0.00000000000E+00  0.00000000000E+00 -0.54991209297E+03  0.22670252235E+04  0.21993180884E+04 0.  0.
        3    1    3    3  502    0 -0.90074729403E+03 -0.24147275323E+03  0.32573214382E+03  0.98780373454E+03  0.10100000352E+00 0. -1.
       -3    1    3    3    0  502  0.90074729403E+03  0.24147275323E+03 -0.87564423679E+03  0.12792214890E+04  0.10100000352E+00 0.  1.
</event>
<event>
 5   0  0.1146827E-06  0.2202014E+04  0.7818609E-02  0.8517590E-01
       -1   -1    0    0    0  501  0.00000000000E+00  0.00000000000E+00  0.81751411672E+03  0.81751411673E+03  0.50400001928E-02 0. -1.
        1   -1    0    0  501    0  0.00000000000E+00  0.00000000000E+00 -0.14828085846E+04  0.14828085846E+04  0.50400001928E-02 0.  1.
    10030    2    1    2    0    0  0.00000000000E+00  0.00000000000E+00 -0.66529446788E+03  0.23003227013E+04  0.22020144871E+04 0.  0.
        4    1    3    3  502    0  0.69068343612E+03  0.58414820901E+03  0.32302239317E+03  0.96052996747E+03  0.12699999809E+01 0. -1.
       -4    1    3    3    0  502 -0.69068343612E+03 -0.58414820901E+03 -0.98831686105E+03  0.13397927339E+04  0.12699999809E+01 0.  1.
</event>
<event>
 5   0  0.2532239E-06  0.2200136E+04  0.7818609E-02  0.8518371E-01
        2   -1    0    0  501    0  0.00000000000E+00  0.00000000000E+00  0.18531070884E+04  0.18531070884E+04  0.25500000920E-02 0. -1.
       -2   -1    0    0    0  501  0.00000000000E+00  0.00000000000E+00 -0.65303818495E+03  0.65303818495E+03  0.25500000920E-02 0.  1.
    10030    2    1    2    0    0  0.00000000000E+00  0.00000000000E+00  0.12000689034E+04  0.25061452733E+04  0.22001360772E+04 0.  0.
        3    1    3    3  502    0 -0.23113992234E+03  0.46192402872E+03  0.17063860667E+04  0.17828496546E+04  0.10100000352E+00 0. -1.
       -3    1    3    3    0  502  0.23113992234E+03 -0.46192402872E+03 -0.50631716330E+03  0.72329561872E+03  0.10100000352E+00 0.  1.
</event>
<event>
 5   0  0.1137869E-06  0.2204297E+04  0.7818609E-02  0.8516642E-01
       -1   -1    0    0    0  501  0.00000000000E+00  0.00000000000E+00  0.12660534033E+04  0.12660534034E+04  0.50400001928E-02 0.  1.
        1   -1    0    0  501    0  0.00000000000E+00  0.00000000000E+00 -0.95946312666E+03  0.95946312668E+03  0.50400001928E-02 0. -1.
    10030    2    1    2    0    0  0.00000000000E+00  0.00000000000E+00  0.30659027668E+03  0.22255165300E+04  0.22042972185E+04 0.  0.
        5    1    3    3  502    0 -0.18233308679E+03 -0.10739197346E+04 -0.16131220181E+02  0.10894178524E+04  0.46999998093E+01 0. -1.
       -5    1    3    3    0  502  0.18233308679E+03  0.10739197346E+04  0.32272149686E+03  0.11360986776E+04  0.46999998093E+01 0.  1.
</event>
<event>
 5   0  0.1082209E-06  0.2204006E+04  0.7818609E-02  0.8516763E-01
       -1   -1    0    0    0  501  0.00000000000E+00  0.00000000000E+00  0.10142161707E+04  0.10142161707E+04  0.50400001928E-02 0.  1.
        1   -1    0    0  501    0  0.00000000000E+00  0.00000000000E+00 -0.11973878255E+04  0.11973878255E+04  0.50400001928E-02 0. -1.
    10030    2    1    2    0    0  0.00000000000E+00  0.00000000000E+00 -0.18317165486E+03  0.22116039962E+04  0.22040055311E+04 0.  0.
        2    1    3    3  502    0  0.89124941770E+03  0.18276226465E+03  0.53239602494E+03  0.10541219556E+04  0.25500000920E-02 0.  1.
       -2    1    3    3    0  502 -0.89124941770E+03 -0.18276226465E+03 -0.71556767980E+03  0.11574820406E+04  0.25500000920E-02 0. -1.
</event>
<event>
 5   0  0.2556869E-06  0.2199613E+04  0.7818609E-02  0.8518589E-01
        2   -1    0    0  501    0  0.00000000000E+00  0.00000000000E+00  0.22720621984E+04  0.22720621984E+04  0.25500000920E-02 0. -1.
       -2   -1    0    0    0  501  0.00000000000E+00  0.00000000000E+00 -0.53236831552E+03  0.53236831552E+03  0.25500000920E-02 0.  1.
    10030    2    1    2    0    0  0.00000000000E+00  0.00000000000E+00  0.17396938829E+04  0.28044305139E+04  0.21996126253E+04 0.  0.
        5    1    3    3  502    0 -0.76971200156E+03  0.59396113887E+03  0.15253149914E+04  0.18088267780E+04  0.46999998093E+01 0. -1.
       -5    1    3    3    0  502  0.76971200156E+03 -0.59396113887E+03  0.21437889145E+03  0.99560373589E+03  0.46999998093E+01 0.  1.
</event>
<event>
 5   0  0.1107101E-06  0.2200164E+04  0.7818609E-02  0.8518360E-01
       -1   -1    0    0    0  501  0.00000000000E+00  0.00000000000E+00  0.10127752785E+04  0.10127752785E+04  0.50400001928E-02 0.  1.
        1   -1    0    0  501    0  0.00000000000E+00  0.00000000000E+00 -0.11949145717E+04  0.11949145717E+04  0.50400001928E-02 0. -1.
    10030    2    1    2    0    0  0.00000000000E+00  0.00000000000E+00 -0.18213929322E+03  0.22076898503E+04  0.22001635741E+04 0.  0.
        1    1    3    3  502    0 -0.68212728464E+03  0.48556132458E+03 -0.80703164794E+03  0.11629133730E+04  0.50400001928E-02 0. -1.
       -1    1    3    3    0  502  0.68212728464E+03 -0.48556132458E+03  0.62489235471E+03  0.10447764772E+04  0.50400001928E-02 0.  1.
</event>
<event>
 5   0  0.1107101E-06  0.2200695E+04  0.7818609E-02  0.8518139E-01
        1   -1    0    0  501    0  0.00000000000E+00  0.00000000000E+00  0.13458065177E+04  0.13458065177E+04  0.50400001928E-02 0. -1.
       -1   -1    0    0    0  501  0.00000000000E+00  0.00000000000E+00 -0.89965754738E+03  0.89965754740E+03  0.50400001928E-02 0.  1.
    10030    2    1    2    0    0  0.00000000000E+00  0.00000000000E+00  0.44614897035E+03  0.22454640651E+04  0.22006953365E+04 0.  0.
        1    1    3    3  502    0 -0.71069904553E+03 -0.70096515243E+03 -0.24929000848E+03  0.10288784120E+04  0.50400001928E-02 0. -1.
       -1    1    3    3    0  502  0.71069904553E+03  0.70096515243E+03  0.69543897883E+03  0.12165856532E+04  0.50400001928E-02 0.  1.
</event>
<event>
 5   0  0.2532239E-06  0.2199778E+04  0.7818609E-02  0.8518521E-01
       -2   -1    0    0    0  501  0.00000000000E+00  0.00000000000E+00  0.63476290026E+03  0.63476290027E+03  0.25500000920E-02 0.  1.
        2   -1    0    0  501    0  0.00000000000E+00  0.00000000000E+00 -0.19058381159E+04  0.19058381159E+04  0.25500000920E-02 0. -1.
    10030    2    1    2    0    0  0.00000000000E+00  0.00000000000E+00 -0.12710752157E+04  0.25406010162E+04  0.21997775614E+04 0.  0.
        3    1    3    3  502    0 -0.56851456768E+03 -0.77255978726E+03 -0.13909907069E+02  0.95929710427E+03  0.10100000352E+00 0.  1.
       -3    1    3    3    0  502  0.56851456768E+03  0.77255978726E+03 -0.12571653086E+04  0.15813039119E+04  0.10100000352E+00 0. -1.
</event>
<event>
 5   0  0.1146827E-06  0.2201162E+04  0.7818609E-02  0.8517945E-01
        1   -1    0    0  501    0  0.00000000000E+00  0.00000000000E+00  0.99964954992E+03  0.99964954993E+03  0.50400001928E-02 0.  1.
       -1   -1    0    0    0  501  0.00000000000E+00  0.00000000000E+00 -0.12117027943E+04  0.12117027943E+04  0.50400001928E-02 0. -1.
    10030    2    1    2    0    0  0.00000000000E+00  0.00000000000E+00 -0.21205324436E+03  0.22113523442E+04  0.22011616505E+04 0.  0.
        4    1    3    3  502    0 -0.77502575128E+03  0.25243229136E+02 -0.89065103040E+03  0.11809161726E+04  0.12699999809E+01 0. -1.
       -4    1    3    3    0  502  0.77502575128E+03 -0.25243229136E+02  0.67859778604E+03  0.10304361717E+04  0.12699999809E+01 0.  1.
</event>
<event>
 5   0  0.1107101E-06  0.2199585E+04  0.7818609E-02  0.8518601E-01
       -1   -1    0    0    0  501  0.00000000000E+00  0.00000000000E+00  0.10550022306E+04  0.10550022307E+04  0.50400001928E-02 0.  1.
        1   -1    0    0  501    0  0.00000000000E+00  0.00000000000E+00 -0.11464844678E+04  0.11464844678E+04  0.50400001928E-02 0. -1.
    10030    2    1    2    0    0  0.00000000000E+00  0.00000000000E+00 -0.91482237168E+02  0.22014866985E+04  0.21995851163E+04 0.  0.
        1    1    3    3  502    0  0.43404510055E+03 -0.13156969656E+03 -0.10485244251E+04  0.11424137624E+04  0.50400001928E-02 0. -1.
       -1    1    3    3    0  502 -0.43404510055E+03  0.13156969656E+03  0.95704218797E+03  0.10590729361E+04  0.50400001928E-02 0.  1.
</event>
<event>
 5   0  0.2556869E-06  0.2200194E+04  0.7818609E-02  0.8518347E-01
       -2   -1    0    0    0  501  0.00000000000E+00  0.00000000000E+00  0.58356132169E+03  0.58356132170E+03  0.25500000920E-02 0.  1.
        2   -1    0    0  501    0  0.00000000000E+00  0.00000000000E+00 -0.20738412601E+04  0.20738412601E+04  0.25500000920E-02 0. -1.
    10030    2    1    2    0    0  0.00000000000E+00  0.00000000000E+00 -0.14902799384E+04  0.26574025818E+04  0.22001941248E+04 0.  0.
        5    1    3    3  502    0  0.39560743373E+03  0.98031351935E+03 -0.11128197320E+04  0.15348972877E+04  0.46999998093E+01 0. -1.
       -5    1    3    3    0  502 -0.39560743373E+03 -0.98031351935E+03 -0.37746020637E+03  0.11225052941E+04  0.46999998093E+01 0.  1.
</event>
<event>
 5   0  0.1137869E-06  0.2200323E+04  0.7818609E-02  0.8518294E-01
        1   -1    0    0  501    0  0.00000000000E+00  0.00000000000E+00  0.84340741456E+03  0.84340741458E+03  0.50400001928E-02 0.  1.
       -1   -1    0    0    0  501  0.00000000000E+00  0.00000000000E+00 -0.14350774129E+04  0.14350774129E+04  0.50400001928E-02 0. -1.
    10030    2    1    2    0    0  0.00000000000E+00  0.00000000000E+00 -0.59166999831E+03  0.22784848275E+04  0.22003226405E+04 0.  0.
        5    1    3    3  502    0  0.91895425864E+03  0.24405215576E+02 -0.92167167014E+03  0.13017577738E+04  0.46999998093E+01 0. -1.
       -5    1    3    3    0  502 -0.91895425864E+03 -0.24405215576E+02  0.33000167183E+03  0.97672705370E+03  0.46999998093E+01 0.  1.
</event>
<event>
 5   0  0.2532239E-06  0.2200578E+04  0.7818609E-02  0.8518187E-01
       -2   -1    0    0    0  501  0.00000000000E+00  0.00000000000E+00  0.81867585042E+03  0.81867585043E+03  0.25500000920E-02 0. -1.
        2   -1    0    0  501    0  0.00000000000E+00  0.00000000000E+00 -0.14787736841E+04  0.14787736841E+04  0.25500000920E-02 0.  1.
    10030    2    1    2    0    0  0.00000000000E+00  0.00000000000E+00 -0.66009783367E+03  0.22974495345E+04  0.22005783816E+04 0.  0.
        3    1    3    3  502    0  0.40635743310E+03  0.10191303235E+04 -0.41666686948E+03  0.11736116351E+04  0.10100000352E+00 0.  1.
       -3    1    3    3    0  502 -0.40635743310E+03 -0.10191303235E+04 -0.24343096419E+03  0.11238378994E+04  0.10100000352E+00 0. -1.
</event>
<event>
 5   0  0.1082209E-06  0.2198439E+04  0.7818609E-02  0.8519078E-01
        1   -1    0    0  501    0  0.00000000000E+00  0.00000000000E+00  0.88470912739E+03  0.88470912741E+03  0.50400001928E-02 0. -1.
       -1   -1    0    0    0  501  0.00000000000E+00  0.00000000000E+00 -0.13657406173E+04  0.13657406173E+04  0.50400001928E-02 0.  1.
    10030    2    1    2    0    0  0.00000000000E+00  0.00000000000E+00 -0.48103148989E+03  0.22504497447E+04  0.21984387094E+04 0.  0.
        2    1    3    3  502    0  0.18396208577E+03 -0.60759954447E+03  0.67807926312E+03  0.92887606413E+03  0.25500000920E-02 0. -1.
       -2    1    3    3    0  502 -0.18396208577E+03  0.60759954447E+03 -0.11591107530E+04  0.13215736806E+04  0.25500000920E-02 0.  1.
</event>
<event>
 5   0  0.1146827E-06  0.2198103E+04  0.7818609E-02  0.8519218E-01
        1   -1    0    0  501    0  0.00000000000E+00  0.00000000000E+00  0.72653199883E+03  0.72653199885E+03  0.50400001928E-02 0. -1.
       -1   -1    0    0    0  501  0.00000000000E+00  0.00000000000E+00 -0.16625756455E+04  0.16625756456E+04  0.50400001928E-02 0.  1.
    10030    2    1    2    0    0  0.00000000000E+00  0.00000000000E+00 -0.93604364672E+03  0.23891076444E+04  0.21981031887E+04 0.  0.
        4    1    3    3  502    0 -0.78349607021E+03  0.15275928629E+03  0.35307784817E+03  0.87284997070E+03  0.12699999809E+01 0. -1.
       -4    1    3    3    0  502  0.78349607021E+03 -0.15275928629E+03 -0.12891214949E+04  0.15162576737E+04  0.12699999809E+01 0.  1.
</event>
<event>
 5   0  0.1107101E-06  0.2198478E+04  0.7818609E-02  0.8519062E-01
        1   -1    0    0  501    0  0.00000000000E+00  0.00000000000E+00  0.21711501445E+04  0.21711501445E+04  0.50400001928E-02 0.  1.
       -1   -1    0    0    0  501  0.00000000000E+00  0.00000000000E+00 -0.55653742942E+03  0.55653742944E+03  0.50400001928E-02 0. -1.
    10030    2    1    2    0    0  0.00000000000E+00  0.00000000000E+00  0.16146127151E+04  0.27276875740E+04  0.21984779465E+04 0.  0.
        1    1    3    3  502    0 -0.98670503712E+03  0.21921529331E+03  0.13433821912E+04  0.16811656333E+04  0.50400001928E-02 0.  1.
       -1    1    3    3    0  502  0.98670503712E+03 -0.21921529331E+03  0.27123052393E+03  0.10465219406E+04  0.50400001928E-02 0. -1.
</event>
<event>
 5   0  0.1146827E-06  0.2205805E+04  0.7818609E-02  0.8516016E-01
       -1   -1    0    0    0  501  0.00000000000E+00  0.00000000000E+00  0.11326883275E+04  0.11326883275E+04  0.50400001928E-02 0.  1.
        1   -1    0    0  501    0  0.00000000000E+00  0.00000000000E+00 -0.10738996940E+04  0.10738996940E+04  0.50400001928E-02 0. -1.
    10030    2    1    2    0    0  0.00000000000E+00  0.00000000000E+00  0.58788633440E+02  0.22065880215E+04  0.22058047496E+04 0.  0.
        4    1    3    3  502    0  0.44782026476E+03 -0.99931009927E+03 -0.10190918278E+03  0.10997957803E+04  0.12699999809E+01 0. -1.
       -4    1    3    3    0  502 -0.44782026476E+03  0.99931009927E+03  0.16069781622E+03  0.11067922412E+04  0.12699999809E+01 0.  1.
</event>
<event>
 5   0  0.2606154E-06  0.2199792E+04  0.7818609E-02  0.8518515E-01
        2   -1    0    0  501    0  0.00000000000E+00  0.00000000000E+00  0.14093252562E+04  0.14093252562E+04  0.25500000920E-02 0.  1.
       -2   -1    0    0    0  501  0.00000000000E+00  0.00000000000E+00 -0.85840451767E+03  0.85840451768E+03  0.25500000920E-02 0. -1.
    10030    2    1    2    0    0  0.00000000000E+00  0.00000000000E+00  0.55092073853E+03  0.22677297739E+04  0.21997919600E+04 0.  0.
        2    1    3    3  502    0  0.10917797914E+04 -0.12641378835E+03  0.23163134218E+03  0.11232170927E+04  0.25500000920E-02 0.  1.
       -2    1    3    3    0  502 -0.10917797914E+04  0.12641378835E+03  0.31928939636E+03  0.11445126812E+04  0.25500000920E-02 0. -1.
</event>
<event>
 5   0  0.2581058E-06  0.2198382E+04  0.7818609E-02  0.8519102E-01
        2   -1    0    0  501    0  0.00000000000E+00  0.00000000000E+00  0.10337756047E+04  0.10337756047E+04  0.25500000920E-02 0. -1.
       -2   -1    0    0    0  501  0.00000000000E+00  0.00000000000E+00 -0.11687459832E+04  0.11687459832E+04  0.25500000920E-02 0.  1.
    10030    2    1    2    0    0  0.00000000000E+00  0.00000000000E+00 -0.13497037849E+03  0.22025215880E+04  0.21983822103E+04 0.  0.
        1    1    3    3  502    0 -0.73258739423E+03  0.10304649065E+03  0.74701433289E+03  0.10513483167E+04  0.50400001928E-02 0.  1.
       -1    1    3    3    0  502  0.73258739423E+03 -0.10304649065E+03 -0.88198471138E+03  0.11511732713E+04  0.50400001928E-02 0. -1.
</event>
<event>
 5   0  0.2532239E-06  0.2201804E+04  0.7818609E-02  0.8517678E-01
        2   -1    0    0  501    0  0.00000000000E+00  0.00000000000E+00  0.63649990686E+03  0.63649990687E+03  0.25500000920E-02 0. -1.
       -2   -1    0    0    0  501  0.00000000000E+00  0.00000000000E+00 -0.19041402489E+04  0.19041402489E+04  0.25500000920E-02 0.  1.
    10030    2    1    2    0    0  0.00000000000E+00  0.00000000000E+00 -0.12676403421E+04  0.25406401558E+04  0.22018038887E+04 0.  0.
        3    1    3    3  502    0  0.98195712736E+02 -0.88599181701E+03 -0.13792736587E+04  0.16422605560E+04  0.10100000352E+00 0.  1.
       -3    1    3    3    0  502 -0.98195712736E+02  0.88599181701E+03  0.11163331666E+03  0.89837959984E+03  0.10100000352E+00 0. -1.
</event>
<event>
 5   0  0.2581058E-06  0.2200487E+04  0.7818609E-02  0.8518225E-01
        2   -1    0    0  501    0  0.00000000000E+00  0.00000000000E+00  0.99204236951E+03  0.99204236951E+03  0.25500000920E-02 0. -1.
       -2   -1    0    0    0  501  0.00000000000E+00  0.00000000000E+00 -0.12202458705E+04  0.12202458705E+04  0.25500000920E-02 0.  1.
    10030    2    1    2    0    0  0.00000000000E+00  0.00000000000E+00 -0.22820350099E+03  0.22122882400E+04  0.22004868595E+04 0.  0.
        1    1    3    3  502    0  0.50156115701E+03  0.95712555116E+03  0.94090203194E+02  0.10846685583E+04  0.50400001928E-02 0. -1.
       -1    1    3    3    0  502 -0.50156115701E+03 -0.95712555116E+03 -0.32229370418E+03  0.11276196818E+04  0.50400001928E-02 0.  1.
</event>
<event>
 5   0  0.2524749E-06  0.2202570E+04  0.7818609E-02  0.8517359E-01
       -2   -1    0    0    0  501  0.00000000000E+00  0.00000000000E+00  0.50990199263E+03  0.50990199264E+03  0.25500000920E-02 0. -1.
        2   -1    0    0  501    0  0.00000000000E+00  0.00000000000E+00 -0.23785524054E+04  0.23785524054E+04  0.25500000920E-02 0.  1.
    10030    2    1    2    0    0  0.00000000000E+00  0.00000000000E+00 -0.18686504128E+04  0.28884543980E+04  0.22025699636E+04 0.  0.
        4    1    3    3  502    0 -0.50088857370E+03  0.42741775238E+03  0.22331787920E+03  0.69530409634E+03  0.12699999809E+01 0. -1.
       -4    1    3    3    0  502  0.50088857370E+03 -0.42741775238E+03 -0.20919682920E+04  0.21931503017E+04  0.12699999809E+01 0.  1.
</event>
<event>
 5   0  0.1144271E-06  0.2201350E+04  0.7818609E-02  0.8517866E-01
        1   -1    0    0  501    0  0.00000000000E+00  0.00000000000E+00  0.12203772549E+04  0.12203772549E+04  0.50400001928E-02 0.  1.
       -1   -1    0    0    0  501  0.00000000000E+00  0.00000000000E+00 -0.99271403389E+03  0.99271403390E+03  0.50400001928E-02 0. -1.
    10030    2    1    2    0    0  0.00000000000E+00  0.00000000000E+00  0.22766322105E+03  0.22130912888E+04  0.22013501563E+04 0.  0.
        3    1    3    3  502    0 -0.79521503413E+03  0.19287135066E+03 -0.62624642079E+03  0.10304129746E+04  0.10100000352E+00 0. -1.
       -3    1    3    3    0  502  0.79521503413E+03 -0.19287135066E+03  0.85390964184E+03  0.11826783143E+04  0.10100000352E+00 0.  1.
</event>
<event>
 5   0  0.1107101E-06  0.2202179E+04  0.7818609E-02  0.8517522E-01
       -1   -1    0    0    0  501  0.00000000000E+00  0.00000000000E+00  0.81358918933E+03  0.81358918934E+03  0.50400001928E-02 0. -1.
        1   -1    0    0  501    0  0.00000000000E+00  0.00000000000E+00 -0.14901841794E+04  0.14901841794E+04  0.50400001928E-02 0.  1.
    10030    2    1    2    0    0  0.00000000000E+00  0.00000000000E+00 -0.67659499007E+03  0.23037733687E+04  0.22021786835E+04 0.  0.
        1    1    3    3  502    0 -0.62256644667E+03  0.73393091887E+03 -0.89790977290E+03  0.13162391631E+04  0.50400001928E-02 0.  1.
       -1    1    3    3    0  502  0.62256644667E+03 -0.73393091887E+03  0.22131478283E+03  0.98753420564E+03  0.50400001928E-02 0. -1.
</event>
<event>
 5   0  0.1137869E-06  0.2200232E+04  0.7818609E-02  0.8518331E-01
        1   -1    0    0  501    0  0.00000000000E+00  0.00000000000E+00  0.12556251942E+04  0.12556251942E+04  0.50400001928E-02 0. -1.
       -1   -1    0    0    0  501  0.00000000000E+00  0.00000000000E+00 -0.96386697608E+03  0.96386697609E+03  0.50400001928E-02 0.  1.
    10030    2    1    2    0    0  0.00000000000E+00  0.00000000000E+00  0.29175821815E+03  0.22194921703E+04  0.22002324051E+04 0.  0.
        5    1    3    3  502    0  0.97470543857E+02  0.98965511648E+03  0.62043927685E+03  0.11721282962E+04  0.46999998093E+01 0. -1.
       -5    1    3    3    0  502 -0.97470543857E+02 -0.98965511648E+03 -0.32868105870E+03  0.10473638741E+04  0.46999998093E+01 0.  1.
</event>
<event>
 5   0  0.1107101E-06  0.2200198E+04  0.7818609E-02  0.8518346E-01
        1   -1    0    0  501    0  0.00000000000E+00  0.00000000000E+00  0.13147204706E+04  0.13147204706E+04  0.50400001928E-02 0.  1.
       -1   -1    0    0    0  501  0.00000000000E+00  0.00000000000E+00 -0.92051341289E+03  0.92051341290E+03  0.50400001928E-02 0. -1.
    10030    2    1    2    0    0  0.00000000000E+00  0.00000000000E+00  0.39420705775E+03  0.22352338835E+04  0.22001980160E+04 0.  0.
        1    1    3    3  502    0  0.52008760250E+03  0.14027265873E+03 -0.77736313754E+03  0.94575947296E+03  0.50400001928E-02 0. -1.
       -1    1    3    3    0  502 -0.52008760250E+03 -0.14027265873E+03  0.11715701953E+04  0.12894744106E+04  0.50400001928E-02 0.  1.
</event>
<event>
 5   0  0.1146827E-06  0.2200107E+04  0.7818609E-02  0.8518384E-01
       -1   -1    0    0    0  501  0.00000000000E+00  0.00000000000E+00  0.13327142348E+04  0.13327142348E+04  0.50400001928E-02 0. -1.
        1   -1    0    0  501    0  0.00000000000E+00  0.00000000000E+00 -0.90800977103E+03  0.90800977105E+03  0.50400001928E-02 0.  1.
    10030    2    1    2    0    0  0.00000000000E+00  0.00000000000E+00  0.42470446372E+03  0.22407240058E+04  0.22001068585E+04 0.  0.
        4    1    3    3  502    0 -0.16034739870E+03  0.93925566747E+03  0.77223137832E+03  0.12264809056E+04  0.12699999809E+01 0. -1.
       -4    1    3    3    0  502  0.16034739870E+03 -0.93925566747E+03 -0.34752691460E+03  0.10142431003E+04  0.12699999809E+01 0.  1.
</event>
<event>
 5   0  0.1144271E-06  0.2199766E+04  0.7818609E-02  0.8518525E-01
        1   -1    0    0  501    0  0.00000000000E+00  0.00000000000E+00  0.23020253555E+04  0.23020253555E+04  0.50400001928E-02 0. -1.
       -1   -1    0    0    0  501  0.00000000000E+00  0.00000000000E+00 -0.52551251826E+03  0.52551251828E+03  0.50400001928E-02 0.  1.
    10030    2    1    2    0    0  0.00000000000E+00  0.00000000000E+00  0.17765128373E+04  0.28275378738E+04  0.21997664801E+04 0.  0.
        3    1    3    3  502    0  0.60059402344E+03  0.98313568709E+02 -0.28936886585E+03  0.67387913569E+03  0.10100000352E+00 0.  1.
       -3    1    3    3    0  502 -0.60059402344E+03 -0.98313568709E+02  0.20658817031E+04  0.21536587381E+04  0.10100000352E+00 0. -1.
</event>
<event>
 5   0  0.2524749E-06  0.2201393E+04  0.7818609E-02  0.8517848E-01
       -2   -1    0    0    0  501  0.00000000000E+00  0.00000000000E+00  0.14157668831E+04  0.14157668831E+04  0.25500000920E-02 0. -1.
        2   -1    0    0  501    0  0.00000000000E+00  0.00000000000E+00 -0.85574332655E+03  0.85574332655E+03  0.25500000920E-02 0.  1.
    10030    2    1    2    0    0  0.00000000000E+00  0.00000000000E+00  0.56002355652E+03  0.22715102096E+04  0.22013932517E+04 0.  0.
        4    1    3    3  502    0  0.47094264508E+03  0.15271205861E+03  0.12943920720E+04  0.13858428470E+04  0.12699999809E+01 0. -1.
       -4    1    3    3    0  502 -0.47094264508E+03 -0.15271205861E+03 -0.73436851544E+03  0.88566736260E+03  0.12699999809E+01 0.  1.
</event>
<event>
 5   0  0.1082209E-06  0.2200057E+04  0.7818609E-02  0.8518404E-01
        1   -1    0    0  501    0  0.00000000000E+00  0.00000000000E+00  0.11864507080E+04  0.11864507080E+04  0.50400001928E-02 0. -1.
       -1   -1    0    0    0  501  0.00000000000E+00  0.00000000000E+00 -0.10199017110E+04  0.10199017111E+04  0.50400001928E-02 0.  1.
    10030    2    1    2    0    0  0.00000000000E+00  0.00000000000E+00  0.16654899695E+03  0.22063524191E+04  0.22000573694E+04 0.  0.
        2    1    3    3  502    0  0.87950871780E+03  0.52216499562E+02 -0.57724574397E+03  0.10533160952E+04  0.25500000920E-02 0.  1.
       -2    1    3    3    0  502 -0.87950871780E+03 -0.52216499562E+02  0.74379474092E+03  0.11530363239E+04  0.25500000920E-02 0. -1.
</event>
<event>
 5   0  0.1144271E-06  0.2200615E+04  0.7818609E-02  0.8518172E-01
       -1   -1    0    0    0  501  0.00000000000E+00  0.00000000000E+00  0.95115888779E+03  0.95115888780E+03  0.50400001928E-02 0.  1.
        1   -1    0    0  501    0  0.00000000000E+00  0.00000000000E+00 -0.12728442039E+04  0.12728442039E+04  0.50400001928E-02 0. -1.
    10030    2    1    2    0    0  0.00000000000E+00  0.00000000000E+00 -0.32168531608E+03  0.22240030917E+04  0.22006154387E+04 0.  0.
        3    1    3    3  502    0 -0.55163248547E+03 -0.76196925986E+03  0.41599612312E+03  0.10285661557E+04  0.10100000352E+00 0.  1.
       -3    1    3    3    0  502  0.55163248547E+03  0.76196925986E+03 -0.73768143920E+03  0.11954369360E+04  0.10100000352E+00 0. -1.
</event>
<event>
 5   0  0.2556869E-06  0.2200360E+04  0.7818609E-02  0.8518278E-01
        2   -1    0    0  501    0  0.00000000000E+00  0.00000000000E+00  0.88760007642E+03  0.88760007642E+03  0.25500000920E-02 0.  1.
       -2   -1    0    0    0  501  0.00000000000E+00  0.00000000000E+00 -0.13636724163E+04  0.13636724163E+04  0.25500000920E-02 0. -1.
    10030    2    1    2    0    0  0.00000000000E+00  0.00000000000E+00 -0.47607233986E+03  0.22512724927E+04  0.22003597350E+04 0.  0.
        5    1    3    3  502    0 -0.10611284174E+04  0.22211634708E+03 -0.46502968189E+02  0.10851330821E+04  0.46999998093E+01 0.  1.
       -5    1    3    3    0  502  0.10611284174E+04 -0.22211634708E+03 -0.42956937167E+03  0.11661394106E+04  0.46999998093E+01 0. -1.
</event>
<event>
 5   0  0.1082209E-06  0.2197244E+04  0.7818609E-02  0.8519576E-01
        1   -1    0    0  501    0  0.00000000000E+00  0.00000000000E+00  0.13773148310E+04  0.13773148310E+04  0.50400001928E-02 0.  1.
       -1   -1    0    0    0  501  0.00000000000E+00  0.00000000000E+00 -0.87632143912E+03  0.87632143914E+03  0.50400001928E-02 0. -1.
    10030    2    1    2    0    0  0.00000000000E+00  0.00000000000E+00  0.50099339188E+03  0.22536362702E+04  0.21972441966E+04 0.  0.
        2    1    3    3  502    0 -0.51495441751E+03 -0.84941044974E+02  0.12420433511E+04  0.13472433778E+04  0.25500000920E-02 0.  1.
       -2    1    3    3    0  502  0.51495441751E+03  0.84941044974E+02 -0.74104995917E+03  0.90639289231E+03  0.25500000920E-02 0. -1.
</event>
<event>
 5   0  0.1137869E-06  0.2199229E+04  0.7818609E-02  0.8518749E-01
       -1   -1    0    0    0  501  0.00000000000E+00  0.00000000000E+00  0.11204407006E+04  0.11204407006E+04  0.50400001928E-02 0.  1.
        1   -1    0    0  501    0  0.00000000000E+00  0.00000000000E+00 -0.10791757723E+04  0.10791757723E+04  0.50400001928E-02 0. -1.
    10030    2    1    2    0    0  0.00000000000E+00  0.00000000000E+00  0.41264928334E+02  0.21996164729E+04  0.21992293727E+04 0.  0.
        5    1    3    3  502    0  0.85855435134E+01 -0.69940853023E+03  0.86924180289E+03  0.11157281952E+04  0.46999998093E+01 0.  1.
       -5    1    3    3    0  502 -0.85855435134E+01  0.69940853023E+03 -0.82797687456E+03  0.10838882777E+04  0.46999998093E+01 0. -1.
</event>
<event>
 5   0  0.1137869E-06  0.2200191E+04  0.7818609E-02  0.8518348E-01
        1   -1    0    0  501    0  0.00000000000E+00  0.00000000000E+00  0.16643714301E+04  0.16643714301E+04  0.50400001928E-02 0. -1.
       -1   -1    0    0    0  501  0.00000000000E+00  0.00000000000E+00 -0.72712768903E+03  0.72712768905E+03  0.50400001928E-02 0.  1.
    10030    2    1    2    0    0  0.00000000000E+00  0.00000000000E+00  0.93724374108E+03  0.23914991192E+04  0.22001914023E+04 0.  0.
        5    1    3    3  502    0  0.47812180114E+01 -0.74868111991E+03  0.13447081328E+04  0.15390933473E+04  0.46999998093E+01 0. -1.
       -5    1    3    3    0  502 -0.47812180114E+01  0.74868111991E+03 -0.40746439172E+03  0.85240577184E+03  0.46999998093E+01 0.  1.
</event>
<event>
 5   0  0.2606154E-06  0.2200095E+04  0.7818609E-02  0.8518389E-01
       -2   -1    0    0    0  501  0.00000000000E+00  0.00000000000E+00  0.11277430816E+04  0.11277430816E+04  0.25500000920E-02 0.  1.
        2   -1    0    0  501    0  0.00000000000E+00  0.00000000000E+00 -0.10730318845E+04  0.10730318845E+04  0.25500000920E-02 0. -1.
    10030    2    1    2    0    0  0.00000000000E+00  0.00000000000E+00  0.54711197073E+02  0.22007749662E+04  0.22000948017E+04 0.  0.
        2    1    3    3  502    0 -0.10200504704E+04  0.41076185929E+03 -0.22511338965E+01  0.10996514606E+04  0.25500000920E-02 0. -1.
       -2    1    3    3    0  502  0.10200504704E+04 -0.41076185929E+03  0.56962330970E+02  0.11011235055E+04  0.25500000920E-02 0.  1.
</event>
<event>
 5   0  0.2606154E-06  0.2200428E+04  0.7818609E-02  0.8518250E-01
        2   -1    0    0  501    0  0.00000000000E+00  0.00000000000E+00  0.11972656720E+04  0.11972656720E+04  0.25500000920E-02 0.  1.
       -2   -1    0    0    0  501  0.00000000000E+00  0.00000000000E+00 -0.10110295502E+04  0.10110295502E+04  0.25500000920E-02 0. -1.
    10030    2    1    2    0    0  0.00000000000E+00  0.00000000000E+00  0.18623612176E+03  0.22082952222E+04  0.22004281164E+04 0.  0.
        2    1    3    3  502    0  0.37138177450E+03  0.29107522218E+03  0.10905637163E+04  0.11882669846E+04  0.25500000920E-02 0.  1.
       -2    1    3    3    0  502 -0.37138177450E+03 -0.29107522218E+03 -0.90432759449E+03  0.10200282376E+04  0.25500000920E-02 0. -1.
</event>
<event>
 5   0  0.2556869E-06  0.2198420E+04  0.7818609E-02  0.8519086E-01
       -2   -1    0    0    0  501  0.00000000000E+00  0.00000000000E+00  0.13920259645E+04  0.13920259645E+04  0.25500000920E-02 0. -1.
        2   -1    0    0  501    0  0.00000000000E+00  0.00000000000E+00 -0.86798817819E+03  0.86798817819E+03  0.25500000920E-02 0.  1.
    10030    2    1    2    0    0  0.00000000000E+00  0.00000000000E+00  0.52403778628E+03  0.22600141427E+04  0.21984195058E+04 0.  0.
        5    1    3    3  502    0 -0.18154098140E+03 -0.50636367276E+03  0.12474577409E+04  0.13585043991E+04  0.46999998093E+01 0. -1.
       -5    1    3    3    0  502  0.18154098140E+03  0.50636367276E+03 -0.72341995462E+03  0.90150974357E+03  0.46999998093E+01 0.  1.
</event>
<event>
 5   0  0.2524749E-06  0.2200182E+04  0.7818609E-02  0.8518352E-01
        2   -1    0    0  501    0  0.00000000000E+00  0.00000000000E+00  0.15232138289E+04  0.15232138290E+04  0.25500000920E-02 0. -1.
       -2   -1    0    0    0  501  0.00000000000E+00  0.00000000000E+00 -0.79450428967E+03  0.79450428967E+03  0.25500000920E-02 0.  1.
    10030    2    1    2    0    0  0.00000000000E+00  0.00000000000E+00  0.72870953928E+03  0.23177181186E+04  0.22001817390E+04 0.  0.
        4    1    3    3  502    0 -0.17263704942E+03 -0.36313309318E+03 -0.71432443675E+03  0.81971349143E+03  0.12699999809E+01 0.  1.
       -4    1    3    3    0  502  0.17263704942E+03  0.36313309318E+03  0.14430339760E+04  0.14980046272E+04  0.12699999809E+01 0. -1.
</event>
<event>
 5   0  0.1107101E-06  0.2200293E+04  0.7818609E-02  0.8518306E-01
       -1   -1    0    0    0  501  0.00000000000E+00  0.00000000000E+00  0.97694341490E+03  0.97694341491E+03  0.50400001928E-02 0.  1.
        1   -1    0    0  501    0  0.00000000000E+00  0.00000000000E+00 -0.12388869407E+04  0.12388869407E+04  0.50400001928E-02 0. -1.
    10030    2    1    2    0    0  0.00000000000E+00  0.00000000000E+00 -0.26194352577E+03  0.22158303556E+04  0.22002931064E+04 0.  0.
        1    1    3    3  502    0 -0.11581608924E+03  0.72055725543E+03  0.69807062370E+03  0.10099102537E+04  0.50400001928E-02 0.  1.
       -1    1    3    3    0  502  0.11581608924E+03 -0.72055725543E+03 -0.96001414947E+03  0.12059201019E+04  0.50400001928E-02 0. -1.
</event>
<event>
 5   0  0.2524749E-06  0.2199742E+04  0.7818609E-02  0.8518535E-01
       -2   -1    0    0    0  501  0.00000000000E+00  0.00000000000E+00  0.52203145684E+03  0.52203145684E+03  0.25500000920E-02 0. -1.
        2   -1    0    0  501    0  0.00000000000E+00  0.00000000000E+00 -0.23173244863E+04  0.23173244863E+04  0.25500000920E-02 0.  1.
    10030    2    1    2    0    0  0.00000000000E+00  0.00000000000E+00 -0.17952930295E+04  0.28393559432E+04  0.21997420554E+04 0.  0.
        4    1    3    3  502    0 -0.10870417727E+04  0.48643342528E+02 -0.11045267152E+04  0.15504860102E+04  0.12699999809E+01 0.  1.
       -4    1    3    3    0  502  0.10870417727E+04 -0.48643342528E+02 -0.69076631424E+03  0.12888699330E+04  0.12699999809E+01 0. -1.
</event>
<event>
 5   0  0.1146827E-06  0.2199988E+04  0.7818609E-02  0.8518433E-01
        1   -1    0    0  501    0  0.00000000000E+00  0.00000000000E+00  0.13400239676E+04  0.13400239676E+04  0.50400001928E-02 0.  1.
       -1   -1    0    0    0  501  0.00000000000E+00  0.00000000000E+00 -0.90295910041E+03  0.90295910042E+03  0.50400001928E-02 0. -1.
    10030    2    1    2    0    0  0.00000000000E+00  0.00000000000E+00  0.43706486721E+03  0.22429830681E+04  0.21999880330E+04 0.  0.
        4    1    3    3  502    0  0.21888711349E+03  0.55629066763E+03  0.11599493440E+04  0.13049348523E+04  0.12699999809E+01 0.  1.
       -4    1    3    3    0  502 -0.21888711349E+03 -0.55629066763E+03 -0.72288447678E+03  0.93804821571E+03  0.12699999809E+01 0. -1.
</event>
<event>
 5   0  0.2581058E-06  0.2200151E+04  0.7818609E-02  0.8518365E-01
       -2   -1    0    0    0  501  0.00000000000E+00  0.00000000000E+00  0.62991125394E+03  0.62991125395E+03  0.25500000920E-02 0.  1.
        2   -1    0    0  501    0  0.00000000000E+00  0.00000000000E+00 -0.19211694148E+04  0.19211694148E+04  0.25500000920E-02 0. -1.
    10030    2    1    2    0    0  0.00000000000E+00  0.00000000000E+00 -0.12912581608E+04  0.25510806687E+04  0.22001511176E+04 0.  0.
        1    1    3    3  502    0 -0.85063776666E+03 -0.44202874483E+03 -0.19935701261E+02  0.95883859619E+03  0.50400001928E-02 0.  1.
       -1    1    3    3    0  502  0.85063776666E+03  0.44202874483E+03 -0.12713224596E+04  0.15922420725E+04  0.50400001928E-02 0. -1.
</event>
<event>
 5   0  0.1144271E-06  0.2200471E+04  0.7818609E-02  0.8518232E-01
       -1   -1    0    0    0  501  0.00000000000E+00  0.00000000000E+00  0.13687684156E+04  0.13687684156E+04  0.50400001928E-02 0.  1.
        1   -1    0    0  501    0  0.00000000000E+00  0.00000000000E+00 -0.88438505026E+03  0.88438505027E+03  0.50400001928E-02 0. -1.
    10030    2    1    2    0    0  0.00000000000E+00  0.00000000000E+00  0.48438336532E+03  0.22531534659E+04  0.22004711532E+04 0.  0.
        3    1    3    3  502    0  0.66787149379E+03 -0.42218347665E+03 -0.54179382891E+03  0.95803537691E+03  0.10100000352E+00 0. -1.
       -3    1    3    3    0  502 -0.66787149379E+03  0.42218347665E+03  0.10261771942E+04  0.12951180889E+04  0.10100000352E+00 0.  1.
</event>
<event>
 5   0  0.2532239E-06  0.2200014E+04  0.7818609E-02  0.8518422E-01
        2   -1    0    0  501    0  0.00000000000E+00  0.00000000000E+00  0.17736186306E+04  0.17736186306E+04  0.25500000920E-02 0. -1.
       -2   -1    0    0    0  501  0.00000000000E+00  0.00000000000E+00 -0.68222979006E+03  0.68222979007E+03  0.25500000920E-02 0.  1.
    10030    2    1    2    0    0  0.00000000000E+00  0.00000000000E+00  0.10913888405E+04  0.24558484206E+04  0.22000140600E+04 0.  0.
        3    1    3    3  502    0  0.48237025605E+03 -0.72906321744E+01 -0.55783999616E+03  0.73750911097E+03  0.10100000352E+00 0.  1.
       -3    1    3    3    0  502 -0.48237025605E+03  0.72906321744E+01  0.16492288367E+04  0.17183393097E+04  0.10100000352E+00 0. -1.
</event>
<event>
 5   0  0.1137869E-06  0.2200650E+04  0.7818609E-02  0.8518158E-01
        1   -1    0    0  501    0  0.00000000000E+00  0.00000000000E+00  0.20738443638E+04  0.20738443638E+04  0.50400001928E-02 0.  1.
       -1   -1    0    0    0  501  0.00000000000E+00  0.00000000000E+00 -0.58380236701E+03  0.58380236704E+03  0.50400001928E-02 0. -1.
    10030    2    1    2    0    0  0.00000000000E+00  0.00000000000E+00  0.14900419968E+04  0.26576467309E+04  0.22006501298E+04 0.  0.
        5    1    3    3  502    0 -0.68905732674E+03  0.47533725133E+02 -0.28937275061E+03  0.74887791619E+03  0.46999998093E+01 0. -1.
       -5    1    3    3    0  502  0.68905732674E+03 -0.47533725133E+02  0.17794147474E+04  0.19087688147E+04  0.46999998093E+01 0.  1.
</event>
<event>
 5   0  0.2581058E-06  0.2199735E+04  0.7818609E-02  0.8518538E-01
        2   -1    0    0  501    0  0.00000000000E+00  0.00000000000E+00  0.14813650226E+04  0.14813650226E+04  0.25500000920E-02 0.  1.
       -2   -1    0    0    0  501  0.00000000000E+00  0.00000000000E+00 -0.81661771855E+03  0.81661771855E+03  0.25500000920E-02 0. -1.
    10030    2    1    2    0    0  0.00000000000E+00  0.00000000000E+00  0.66474730406E+03  0.22979827412E+04  0.21997353705E+04 0.  0.
        1    1    3    3  502    0 -0.87128390640E+01  0.10076281120E+04  0.79287776179E+03  0.12822033656E+04  0.50400001928E-02 0.  1.
       -1    1    3    3    0  502  0.87128390640E+01 -0.10076281120E+04 -0.12813045773E+03  0.10157793756E+04  0.50400001928E-02 0. -1.
</event>
<event>
 5   0  0.2532239E-06  0.2194486E+04  0.7818609E-02  0.8520727E-01
        2   -1    0    0  501    0  0.00000000000E+00  0.00000000000E+00  0.14039094818E+04  0.14039094819E+04  0.25500000920E-02 0.  1.
       -2   -1    0    0    0  501  0.00000000000E+00  0.00000000000E+00 -0.85756375276E+03  0.85756375276E+03  0.25500000920E-02 0. -1.
    10030    2    1    2    0    0  0.00000000000E+00  0.00000000000E+00  0.54634572909E+03  0.22614732346E+04  0.21944857109E+04 0.  0.
        3    1    3    3  502    0  0.22895633712E+03 -0.49245453281E+03  0.12556962193E+04  0.13681028750E+04  0.10100000352E+00 0.  1.
       -3    1    3    3    0  502 -0.22895633712E+03  0.49245453281E+03 -0.70935049024E+03  0.89337035959E+03  0.10100000352E+00 0. -1.
</event>
<event>
 5   0  0.1137869E-06  0.2199703E+04  0.7818609E-02  0.8518552E-01
       -1   -1    0    0    0  501  0.00000000000E+00  0.00000000000E+00  0.15680656298E+04  0.15680656298E+04  0.50400001928E-02 0. -1.
        1   -1    0    0  501    0  0.00000000000E+00  0.00000000000E+00 -0.77144270273E+03  0.77144270275E+03  0.50400001928E-02 0.  1.
    10030    2    1    2    0    0  0.00000000000E+00  0.00000000000E+00  0.79662292704E+03  0.23395083325E+04  0.21997025140E+04 0.  0.
        5    1    3    3  502    0  0.59642885212E+03  0.82985798049E+03  0.83066924179E+03  0.13169757487E+04  0.46999998093E+01 0. -1.
       -5    1    3    3    0  502 -0.59642885212E+03 -0.82985798049E+03 -0.34046314752E+02  0.10225325838E+04  0.46999998093E+01 0.  1.
</event>
<event>
 5   0  0.1146827E-06  0.2199622E+04  0.7818609E-02  0.8518585E-01
       -1   -1    0    0    0  501  0.00000000000E+00  0.00000000000E+00  0.62019573399E+03  0.62019573401E+03  0.50400001928E-02 0.  1.
        1   -1    0    0  501    0  0.00000000000E+00  0.00000000000E+00 -0.19503265690E+04  0.19503265690E+04  0.50400001928E-02 0. -1.
    10030    2    1    2    0    0  0.00000000000E+00  0.00000000000E+00 -0.13301308350E+04  0.25705223030E+04  0.21996219839E+04 0.  0.
        4    1    3    3  502    0  0.59879526531E+03  0.52734799616E+03  0.21948880028E+03  0.82754373006E+03  0.12699999809E+01 0.  1.
       -4    1    3    3    0  502 -0.59879526531E+03 -0.52734799616E+03 -0.15496196353E+04  0.17429785729E+04  0.12699999809E+01 0. -1.
</event>
<event>
 5   0  0.1082209E-06  0.2198821E+04  0.7818609E-02  0.8518919E-01
        1   -1    0    0  501    0  0.00000000000E+00  0.00000000000E+00  0.12954824266E+04  0.12954824266E+04  0.50400001928E-02 0. -1.
       -1   -1    0    0    0  501  0.00000000000E+00  0.00000000000E+00 -0.93301452424E+03  0.93301452426E+03  0.50400001928E-02 0.  1.
    10030    2    1    2    0    0  0.00000000000E+00  0.00000000000E+00  0.36246790237E+03  0.22284969509E+04  0.21988214297E+04 0.  0.
        2    1    3    3  502    0  0.82324579354E+03  0.22944642384E+03  0.88217815960E+03  0.12282579547E+04  0.25500000920E-02 0. -1.
       -2    1    3    3    0  502 -0.82324579354E+03 -0.22944642384E+03 -0.51971025724E+03  0.10002389962E+04  0.25500000920E-02 0.  1.
</event>
<event>
 5   0  0.2524749E-06  0.2199324E+04  0.7818609E-02  0.8518709E-01
        2   -1    0    0  501    0  0.00000000000E+00  0.00000000000E+00  0.18607099989E+04  0.18607099989E+04  0.25500000920E-02 0. -1.
       -2   -1    0    0    0  501  0.00000000000E+00  0.00000000000E+00 -0.64989001862E+03  0.64989001863E+03  0.25500000920E-02 0.  1.
    10030    2    1    2    0    0  0.00000000000E+00  0.00000000000E+00  0.12108199803E+04  0.25106000176E+04  0.21993243107E+04 0.  0.
        4    1    3    3  502    0  0.73192240781E+03 -0.71050178967E+02  0.15387457116E+04  0.17054320617E+04  0.12699999809E+01 0. -1.
       -4    1    3    3    0  502 -0.73192240781E+03  0.71050178967E+02 -0.32792573135E+03  0.80516795587E+03  0.12699999809E+01 0.  1.
</event>
<event>
 5   0  0.2581058E-06  0.2201387E+04  0.7818609E-02  0.8517851E-01
        2   -1    0    0  501    0  0.00000000000E+00  0.00000000000E+00  0.28200885444E+04  0.28200885444E+04  0.25500000920E-02 0. -1.
       -2   -1    0    0    0  501  0.00000000000E+00  0.00000000000E+00 -0.42960565504E+03  0.42960565505E+03  0.25500000920E-02 0.  1.
    10030    2    1    2    0    0  0.00000000000E+00  0.00000000000E+00  0.23904828894E+04  0.32496941994E+04  0.22013868233E+04 0.  0.
        1    1    3    3  502    0  0.22986145093E+03 -0.42253889387E+03  0.26567202916E+04  0.26999144637E+04  0.50400001928E-02 0. -1.
       -1    1    3    3    0  502 -0.22986145093E+03  0.42253889387E+03 -0.26623740224E+03  0.54977973575E+03  0.50400001928E-02 0.  1.
</event>
<event>
 5   0  0.1107101E-06  0.2199417E+04  0.7818609E-02  0.8518671E-01
       -1   -1    0    0    0  501  0.00000000000E+00  0.00000000000E+00  0.56370461224E+03  0.56370461226E+03  0.50400001928E-02 0. -1.
        1   -1    0    0  501    0  0.00000000000E+00  0.00000000000E+00 -0.21453768535E+04  0.21453768535E+04  0.50400001928E-02 0.  1.
    10030    2    1    2    0    0  0.00000000000E+00  0.00000000000E+00 -0.15816722412E+04  0.27090814657E+04  0.21994170385E+04 0.  0.
        1    1    3    3  502    0  0.31945500271E+03  0.53349771470E+03 -0.19080387103E+04  0.20068091664E+04  0.50400001928E-02 0.  1.
       -1    1    3    3    0  502 -0.31945500271E+03 -0.53349771470E+03  0.32636646902E+03  0.70227229938E+03  0.50400001928E-02 0. -1.
</event>
<event>
 5   0  0.2556869E-06  0.2200426E+04  0.7818609E-02  0.8518251E-01
        2   -1    0    0  501    0  0.00000000000E+00  0.00000000000E+00  0.11015207362E+04  0.11015207362E+04  0.25500000920E-02 0. -1.
       -2   -1    0    0    0  501  0.00000000000E+00  0.00000000000E+00 -0.10989067861E+04  0.10989067861E+04  0.25500000920E-02 0.  1.
    10030    2    1    2    0    0  0.00000000000E+00  0.00000000000E+00  0.26139500913E+01  0.22004275223E+04  0.22004259697E+04 0.  0.
        5    1    3    3  502    0  0.51036725172E+03  0.68602012780E+03  0.69365721237E+03  0.11010362236E+04  0.46999998093E+01 0.  1.
       -5    1    3    3    0  502 -0.51036725172E+03 -0.68602012780E+03 -0.69104326228E+03  0.10993912987E+04  0.46999998093E+01 0. -1.
</event>
<event>
 5   0  0.1146827E-06  0.2198468E+04  0.7818609E-02  0.8519066E-01
        1   -1    0    0  501    0  0.00000000000E+00  0.00000000000E+00  0.10989580610E+04  0.10989580610E+04  0.50400001928E-02 0. -1.
       -1   -1    0    0    0  501  0.00000000000E+00  0.00000000000E+00 -0.10995101638E+04  0.10995101638E+04  0.50400001928E-02 0.  1.
    10030    2    1    2    0    0  0.00000000000E+00  0.00000000000E+00 -0.55210278736E+00  0.21984682248E+04  0.21984681555E+04 0.  0.
        4    1    3    3  502    0 -0.32701977198E+03 -0.46953889234E+03  0.93828950179E+03  0.10989984098E+04  0.12699999809E+01 0. -1.
       -4    1    3    3    0  502  0.32701977198E+03  0.46953889234E+03 -0.93884160458E+03  0.10994698150E+04  0.12699999809E+01 0.  1.
</event>
<event>
 5   0  0.1144271E-06  0.2206469E+04  0.7818609E-02  0.8515740E-01
       -1   -1    0    0    0  501  0.00000000000E+00  0.00000000000E+00  0.64564112637E+03  0.64564112639E+03  0.50400001928E-02 0.  1.
        1   -1    0    0  501    0  0.00000000000E+00  0.00000000000E+00 -0.18851441085E+04  0.18851441085E+04  0.50400001928E-02 0. -1.
    10030    2    1    2    0    0  0.00000000000E+00  0.00000000000E+00 -0.12395029822E+04  0.25307852349E+04  0.22064691846E+04 0.  0.
        3    1    3    3  502    0 -0.79332442176E+03 -0.19749817576E+02  0.25930009961E+03  0.83485941650E+03  0.10100000352E+00 0.  1.
       -3    1    3    3    0  502  0.79332442176E+03  0.19749817576E+02 -0.14988030818E+04  0.16959258184E+04  0.10100000352E+00 0. -1.
</event>
<event>
 5   0  0.1082209E-06  0.2200152E+04  0.7818609E-02  0.8518365E-01
        1   -1    0    0  501    0  0.00000000000E+00  0.00000000000E+00  0.20596408971E+04  0.20596408971E+04  0.50400001928E-02 0. -1.
       -1   -1    0    0    0  501  0.00000000000E+00  0.00000000000E+00 -0.58756199896E+03  0.58756199898E+03  0.50400001928E-02 0.  1.
    10030    2    1    2    0    0  0.00000000000E+00  0.00000000000E+00  0.14720788981E+04  0.26472028960E+04  0.22001515608E+04 0.  0.
        2    1    3    3  502    0 -0.10607782536E+04  0.20538122393E+03  0.98476782099E+03  0.14619164175E+04  0.25500000920E-02 0.  1.
       -2    1    3    3    0  502  0.10607782536E+04 -0.20538122393E+03  0.48731107711E+03  0.11852864786E+04  0.25500000920E-02 0. -1.
</event>
<event>
 5   0  0.2524749E-06  0.2200945E+04  0.7818609E-02  0.8518035E-01
       -2   -1    0    0    0  501  0.00000000000E+00  0.00000000000E+00  0.80627940749E+03  0.80627940749E+03  0.25500000920E-02 0.  1.
        2   -1    0    0  501    0  0.00000000000E+00  0.00000000000E+00 -0.15020104006E+04  0.15020104006E+04  0.25500000920E-02 0. -1.
    10030    2    1    2    0    0  0.00000000000E+00  0.00000000000E+00 -0.69573099311E+03  0.23082898081E+04  0.22009453022E+04 0.  0.
        4    1    3    3  502    0 -0.38356863137E+03  0.10298429371E+04 -0.28728066139E+03  0.11358843081E+04  0.12699999809E+01 0. -1.
       -4    1    3    3    0  502  0.38356863137E+03 -0.10298429371E+04 -0.40845033172E+03  0.11724055000E+04  0.12699999809E+01 0.  1.
</event>
<event>
 5   0  0.1107101E-06  0.2199364E+04  0.7818609E-02  0.8518693E-01
        1   -1    0    0  501    0  0.00000000000E+00  0.00000000000E+00  0.22542461066E+04  0.22542461066E+04  0.50400001928E-02 0. -1.
       -1   -1    0    0    0  501  0.00000000000E+00  0.00000000000E+00 -0.53645468027E+03  0.53645468029E+03  0.50400001928E-02 0.  1.
    10030    2    1    2    0    0  0.00000000000E+00  0.00000000000E+00  0.17177914263E+04  0.27907007869E+04  0.21993643394E+04 0.  0.
        1    1    3    3  502    0 -0.10818366342E+04 -0.55215228585E+02  0.10992502349E+04  0.15432985141E+04  0.50400001928E-02 0.  1.
       -1    1    3    3    0  502  0.10818366342E+04  0.55215228585E+02  0.61854119144E+03  0.12474022728E+04  0.50400001928E-02 0. -1.
</event>
<event>
 5   0  0.1144271E-06  0.2199920E+04  0.7818609E-02  0.8518461E-01
        1   -1    0    0  501    0  0.00000000000E+00  0.00000000000E+00  0.95299138034E+03  0.95299138035E+03  0.50400001928E-02 0. -1.
       -1   -1    0    0    0  501  0.00000000000E+00  0.00000000000E+00 -0.12695940538E+04  0.12695940538E+04  0.50400001928E-02 0.  1.
    10030    2    1    2    0    0  0.00000000000E+00  0.00000000000E+00 -0.31660267344E+03  0.22225854341E+04  0.21999201711E+04 0.  0.
        3    1    3    3  502    0  0.64850353558E+03 -0.87996825097E+03 -0.28208392360E+03  0.11289252892E+04  0.10100000352E+00 0.  1.
       -3    1    3    3    0  502 -0.64850353558E+03  0.87996825097E+03 -0.34518749844E+02  0.10936601450E+04  0.10100000352E+00 0. -1.
</event>
<event>
 5   0  0.2606154E-06  0.2199762E+04  0.7818609E-02  0.8518527E-01
       -2   -1    0    0    0  501  0.00000000000E+00  0.00000000000E+00  0.86954015111E+03  0.86954015111E+03  0.25500000920E-02 0.  1.
        2   -1    0    0  501    0  0.00000000000E+00  0.00000000000E+00 -0.13912386886E+04  0.13912386886E+04  0.25500000920E-02 0. -1.
    10030    2    1    2    0    0  0.00000000000E+00  0.00000000000E+00 -0.52169853747E+03  0.22607788397E+04  0.21997617139E+04 0.  0.
        2    1    3    3  502    0 -0.28093696353E+02  0.83381326961E+03 -0.99746153416E+03  0.13003704612E+04  0.25500000920E-02 0. -1.
       -2    1    3    3    0  502  0.28093696353E+02 -0.83381326961E+03  0.47576299669E+03  0.96040837844E+03  0.25500000920E-02 0.  1.
</event>
<event>
 5   0  0.2524749E-06  0.2199561E+04  0.7818609E-02  0.8518611E-01
        2   -1    0    0  501    0  0.00000000000E+00  0.00000000000E+00  0.14867533140E+04  0.14867533140E+04  0.25500000920E-02 0. -1.
       -2   -1    0    0    0  501  0.00000000000E+00  0.00000000000E+00 -0.81352946410E+03  0.81352946410E+03  0.25500000920E-02 0.  1.
    10030    2    1    2    0    0  0.00000000000E+00  0.00000000000E+00  0.67322384992E+03  0.23002827781E+04  0.21995614352E+04 0.  0.
        4    1    3    3  502    0  0.51349672657E+03  0.84864516385E+03 -0.16015393840E+03  0.10047529046E+04  0.12699999809E+01 0. -1.
       -4    1    3    3    0  502 -0.51349672657E+03 -0.84864516385E+03  0.83337778832E+03  0.12955298736E+04  0.12699999809E+01 0.  1.
</event>
<event>
 5   0  0.1137869E-06  0.2199754E+04  0.7818609E-02  0.8518531E-01
       -1   -1    0    0    0  501  0.00000000000E+00  0.00000000000E+00  0.91431447981E+03  0.91431447982E+03  0.50400001928E-02 0.  1.
        1   -1    0    0  501    0  0.00000000000E+00  0.00000000000E+00 -0.13230994846E+04  0.13230994846E+04  0.50400001928E-02 0. -1.
    10030    2    1    2    0    0  0.00000000000E+00  0.00000000000E+00 -0.40878500476E+03  0.22374139644E+04  0.21997536380E+04 0.  0.
        5    1    3    3  502    0  0.47992189168E+03  0.93776774211E+03 -0.52599165296E+03  0.11774645087E+04  0.46999998093E+01 0.  1.
       -5    1    3    3    0  502 -0.47992189168E+03 -0.93776774211E+03  0.11720664820E+03  0.10599494557E+04  0.46999998093E+01 0. -1.
</event>
<event>
 5   0  0.2524749E-06  0.2200427E+04  0.7818609E-02  0.8518251E-01
       -2   -1    0    0    0  501  0.00000000000E+00  0.00000000000E+00  0.14719170736E+04  0.14719170736E+04  0.25500000920E-02 0. -1.
        2   -1    0    0  501    0  0.00000000000E+00  0.00000000000E+00 -0.82237599261E+03  0.82237599261E+03  0.25500000920E-02 0.  1.
    10030    2    1    2    0    0  0.00000000000E+00  0.00000000000E+00  0.64954108095E+03  0.22942930662E+04  0.22004265627E+04 0.  0.
        4    1    3    3  502    0 -0.47296258300E+03 -0.16736282844E+03 -0.69616379941E+03  0.85810813408E+03  0.12699999809E+01 0.  1.
       -4    1    3    3    0  502  0.47296258300E+03  0.16736282844E+03  0.13457048804E+04  0.14361849321E+04  0.12699999809E+01 0. -1.
</event>
<event>
 5   0  0.1082209E-06  0.2200403E+04  0.7818609E-02  0.8518260E-01
       -1   -1    0    0    0  501  0.00000000000E+00  0.00000000000E+00  0.13596645326E+04  0.13596645326E+04  0.50400001928E-02 0.  1.
        1   -1    0    0  501    0  0.00000000000E+00  0.00000000000E+00 -0.89025173868E+03  0.89025173869E+03  0.50400001928E-02 0. -1.
    10030    2    1    2    0    0  0.00000000000E+00  0.00000000000E+00  0.46941279392E+03  0.22499162713E+04  0.22004033396E+04 0.  0.
        2    1    3    3  502    0  0.29922161923E+03 -0.10133937369E+04  0.54810488688E+03  0.11903442403E+04  0.25500000920E-02 0. -1.
       -2    1    3    3    0  502 -0.29922161923E+03  0.10133937369E+04 -0.78692092959E+02  0.10595720310E+04  0.25500000920E-02 0.  1.
</event>
<event>
 5   0  0.2556869E-06  0.2199974E+04  0.7818609E-02  0.8518439E-01
       -2   -1    0    0    0  501  0.00000000000E+00  0.00000000000E+00  0.82908932408E+03  0.82908932409E+03  0.25500000920E-02 0.  1.
        2   -1    0    0  501    0  0.00000000000E+00  0.00000000000E+00 -0.14593981058E+04  0.14593981058E+04  0.25500000920E-02 0. -1.
    10030    2    1    2    0    0  0.00000000000E+00  0.00000000000E+00 -0.63030878170E+03  0.22884874299E+04  0.21999739899E+04 0.  0.
        5    1    3    3  502    0 -0.41108475904E+02 -0.46126159326E+03  0.72273480785E+03  0.85838211577E+03  0.46999998093E+01 0.  1.
       -5    1    3    3    0  502  0.41108475904E+02  0.46126159326E+03 -0.13530435896E+04  0.14301053141E+04  0.46999998093E+01 0. -1.
</event>
<event>
 5   0  0.1146827E-06  0.2200751E+04  0.7818609E-02  0.8518116E-01
       -1   -1    0    0    0  501  0.00000000000E+00  0.00000000000E+00  0.63836111077E+03  0.63836111079E+03  0.50400001928E-02 0.  1.
        1   -1    0    0  501    0  0.00000000000E+00  0.00000000000E+00 -0.18967724891E+04  0.18967724891E+04  0.50400001928E-02 0. -1.
    10030    2    1    2    0    0  0.00000000000E+00  0.00000000000E+00 -0.12584113784E+04  0.25351335999E+04  0.22007505929E+04 0.  0.
        4    1    3    3  502    0 -0.37125617352E+03  0.95397837782E+03 -0.16424638441E+03  0.10367663090E+04  0.12699999809E+01 0. -1.
       -4    1    3    3    0  502  0.37125617352E+03 -0.95397837782E+03 -0.10941649940E+04  0.14983672910E+04  0.12699999809E+01 0.  1.
</event>
<event>
 5   0  0.2532239E-06  0.2202775E+04  0.7818609E-02  0.8517274E-01
       -2   -1    0    0    0  501  0.00000000000E+00  0.00000000000E+00  0.73466448838E+03  0.73466448839E+03  0.25500000920E-02 0. -1.
        2   -1    0    0  501    0  0.00000000000E+00  0.00000000000E+00 -0.16511675869E+04  0.16511675869E+04  0.25500000920E-02 0.  1.
    10030    2    1    2    0    0  0.00000000000E+00  0.00000000000E+00 -0.91650309850E+03  0.23858320753E+04  0.22027747869E+04 0.  0.
        3    1    3    3  502    0  0.78490955725E+03  0.37527834141E+03 -0.11897570325E+04  0.14739194867E+04  0.10100000352E+00 0.  1.
       -3    1    3    3    0  502 -0.78490955725E+03 -0.37527834141E+03  0.27325393401E+03  0.91191258860E+03  0.10100000352E+00 0. -1.
</event>
<event>
 5   0  0.1082209E-06  0.2199827E+04  0.7818609E-02  0.8518500E-01
       -1   -1    0    0    0  501  0.00000000000E+00  0.00000000000E+00  0.20753848514E+04  0.20753848514E+04  0.50400001928E-02 0. -1.
        1   -1    0    0  501    0  0.00000000000E+00  0.00000000000E+00 -0.58293246313E+03  0.58293246315E+03  0.50400001928E-02 0.  1.
    10030    2    1    2    0    0  0.00000000000E+00  0.00000000000E+00  0.14924523883E+04  0.26583173146E+04  0.21998265417E+04 0.  0.
        2    1    3    3  502    0  0.68997948476E+03  0.44594557537E+03  0.16300028495E+04  0.18253351569E+04  0.25500000920E-02 0. -1.
       -2    1    3    3    0  502 -0.68997948476E+03 -0.44594557537E+03 -0.13755046124E+03  0.83298215766E+03  0.25500000920E-02 0.  1.
</event>
<event>
 5   0  0.2606154E-06  0.2197647E+04  0.7818609E-02  0.8519408E-01
        2   -1    0    0  501    0  0.00000000000E+00  0.00000000000E+00  0.22022538927E+04  0.22022538927E+04  0.25500000920E-02 0.  1.
       -2   -1    0    0    0  501  0.00000000000E+00  0.00000000000E+00 -0.54826268556E+03  0.54826268557E+03  0.25500000920E-02 0. -1.
    10030    2    1    2    0    0  0.00000000000E+00  0.00000000000E+00  0.16539912071E+04  0.27505165782E+04  0.21976474999E+04 0.  0.
        2    1    3    3  502    0  0.45803277658E+03  0.44905343318E+03 -0.28962272792E+03  0.70379282094E+03  0.25500000920E-02 0. -1.
       -2    1    3    3    0  502 -0.45803277658E+03 -0.44905343318E+03  0.19436139350E+04  0.20467237573E+04  0.25500000920E-02 0.  1.
</event>
<event>
 5   0  0.8905000E-07  0.2199735E+04  0.7818609E-02  0.8518538E-01
       -3   -1    0    0    0  501  0.00000000000E+00  0.00000000000E+00  0.80970687209E+03  0.80970687839E+03  0.10100000352E+00 0. -1.
        3   -1    0    0  501    0  0.00000000000E+00  0.00000000000E+00 -0.14940077935E+04  0.14940077970E+04  0.10100000352E+00 0.  1.
    10030    2    1    2    0    0  0.00000000000E+00  0.00000000000E+00 -0.68430092146E+03  0.23037146753E+04  0.21997348827E+04 0.  0.
        4    1    3    3  502    0 -0.77707051862E+03  0.74276766554E+03 -0.98416955424E+02  0.10794581538E+04  0.12699999809E+01 0. -1.
       -4    1    3    3    0  502  0.77707051862E+03 -0.74276766554E+03 -0.58588396603E+03  0.12242565215E+04  0.12699999809E+01 0.  1.
</event>
<event>
 5   0  0.2524749E-06  0.2190997E+04  0.7818609E-02  0.8522185E-01
        2   -1    0    0  501    0  0.00000000000E+00  0.00000000000E+00  0.14982483506E+04  0.14982483506E+04  0.25500000920E-02 0.  1.
       -2   -1    0    0    0  501  0.00000000000E+00  0.00000000000E+00 -0.80101309866E+03  0.80101309867E+03  0.25500000920E-02 0. -1.
    10030    2    1    2    0    0  0.00000000000E+00  0.00000000000E+00  0.69723525196E+03  0.22992614493E+04  0.21909966261E+04 0.  0.
        4    1    3    3  502    0 -0.73070562401E+03  0.16828044903E+02 -0.50773276129E+03  0.88994834785E+03  0.12699999809E+01 0. -1.
       -4    1    3    3    0  502  0.73070562401E+03 -0.16828044903E+02  0.12049680133E+04  0.14093131014E+04  0.12699999809E+01 0.  1.
</event>
<event>
 5   0  0.2556869E-06  0.2187316E+04  0.7818609E-02  0.8523726E-01
        2   -1    0    0  501    0  0.00000000000E+00  0.00000000000E+00  0.14272102834E+04  0.14272102834E+04  0.25500000920E-02 0.  1.
       -2   -1    0    0    0  501  0.00000000000E+00  0.00000000000E+00 -0.83805978150E+03  0.83805978151E+03  0.25500000920E-02 0. -1.
    10030    2    1    2    0    0  0.00000000000E+00  0.00000000000E+00  0.58915050186E+03  0.22652700649E+04  0.21873157415E+04 0.  0.
        5    1    3    3  502    0 -0.24258535753E+03  0.67745737600E+03  0.11474977808E+04  0.13544627714E+04  0.46999998093E+01 0.  1.
       -5    1    3    3    0  502  0.24258535753E+03 -0.67745737600E+03 -0.55834727897E+03  0.91080729351E+03  0.46999998093E+01 0. -1.
</event>
<event>
 5   0  0.1146827E-06  0.2199795E+04  0.7818609E-02  0.8518514E-01
        1   -1    0    0  501    0  0.00000000000E+00  0.00000000000E+00  0.74793416641E+03  0.74793416643E+03  0.50400001928E-02 0. -1.
       -1   -1    0    0    0  501  0.00000000000E+00  0.00000000000E+00 -0.16174875855E+04  0.16174875855E+04  0.50400001928E-02 0.  1.
    10030    2    1    2    0    0  0.00000000000E+00  0.00000000000E+00 -0.86955341908E+03  0.23654217519E+04  0.21997947440E+04 0.  0.
        4    1    3    3  502    0  0.48751825583E+03 -0.73566147090E+03  0.27107758186E+03  0.92323156241E+03  0.12699999809E+01 0. -1.
       -4    1    3    3    0  502 -0.48751825583E+03  0.73566147090E+03 -0.11406310009E+04  0.14421901895E+04  0.12699999809E+01 0.  1.
</event>
<event>
 5   0  0.1082209E-06  0.2199646E+04  0.7818609E-02  0.8518575E-01
        1   -1    0    0  501    0  0.00000000000E+00  0.00000000000E+00  0.24574773301E+04  0.24574773301E+04  0.50400001928E-02 0. -1.
       -1   -1    0    0    0  501  0.00000000000E+00  0.00000000000E+00 -0.49221654482E+03  0.49221654484E+03  0.50400001928E-02 0.  1.
    10030    2    1    2    0    0  0.00000000000E+00  0.00000000000E+00  0.19652607853E+04  0.29496938750E+04  0.21996463356E+04 0.  0.
        2    1    3    3  502    0  0.47068834064E+03 -0.93759079245E+03  0.53992845717E+03  0.11798926845E+04  0.25500000920E-02 0.  1.
       -2    1    3    3    0  502 -0.47068834064E+03  0.93759079245E+03  0.14253323281E+04  0.17698011904E+04  0.25500000920E-02 0. -1.
</event>
<event>
 5   0  0.2556869E-06  0.2200566E+04  0.7818609E-02  0.8518192E-01
       -2   -1    0    0    0  501  0.00000000000E+00  0.00000000000E+00  0.61019298201E+03  0.61019298202E+03  0.25500000920E-02 0.  1.
        2   -1    0    0  501    0  0.00000000000E+00  0.00000000000E+00 -0.19840002678E+04  0.19840002678E+04  0.25500000920E-02 0. -1.
    10030    2    1    2    0    0  0.00000000000E+00  0.00000000000E+00 -0.13738072858E+04  0.25941932498E+04  0.22005663269E+04 0.  0.
        5    1    3    3  502    0 -0.25974552376E+03 -0.62361119511E+03  0.33691563212E+03  0.75491250681E+03  0.46999998093E+01 0.  1.
       -5    1    3    3    0  502  0.25974552376E+03  0.62361119511E+03 -0.17107229179E+04  0.18392807430E+04  0.46999998093E+01 0. -1.
</event>
<event>
 5   0  0.1144271E-06  0.2200510E+04  0.7818609E-02  0.8518216E-01
       -1   -1    0    0    0  501  0.00000000000E+00  0.00000000000E+00  0.13985684474E+04  0.13985684474E+04  0.50400001928E-02 0.  1.
        1   -1    0    0  501    0  0.00000000000E+00  0.00000000000E+00 -0.86557193451E+03  0.86557193452E+03  0.50400001928E-02 0. -1.
    10030    2    1    2    0    0  0.00000000000E+00  0.00000000000E+00  0.53299651290E+03  0.22641403819E+04  0.22005104831E+04 0.  0.
        3    1    3    3  502    0 -0.10526682397E+04  0.21718621503E+03  0.24579758253E+02  0.10751206674E+04  0.10100000352E+00 0. -1.
       -3    1    3    3    0  502  0.10526682397E+04 -0.21718621503E+03  0.50841675465E+03  0.11890197145E+04  0.10100000352E+00 0.  1.
</event>
<event>
 5   0  0.2581058E-06  0.2200342E+04  0.7818609E-02  0.8518286E-01
       -2   -1    0    0    0  501  0.00000000000E+00  0.00000000000E+00  0.12622342128E+04  0.12622342128E+04  0.25500000920E-02 0. -1.
        2   -1    0    0  501    0  0.00000000000E+00  0.00000000000E+00 -0.95891589801E+03  0.95891589801E+03  0.25500000920E-02 0.  1.
    10030    2    1    2    0    0  0.00000000000E+00  0.00000000000E+00  0.30331831478E+03  0.22211501108E+04  0.22003422040E+04 0.  0.
        1    1    3    3  502    0 -0.47064937230E+03  0.94356189211E+03  0.46856517704E+03  0.11538514640E+04  0.50400001928E-02 0. -1.
       -1    1    3    3    0  502  0.47064937230E+03 -0.94356189211E+03 -0.16524686226E+03  0.10672986468E+04  0.50400001928E-02 0.  1.
</event>
<event>
 5   0  0.1107101E-06  0.2200027E+04  0.7818609E-02  0.8518417E-01
       -1   -1    0    0    0  501  0.00000000000E+00  0.00000000000E+00  0.12027202946E+04  0.12027202946E+04  0.50400001928E-02 0. -1.
        1   -1    0    0  501    0  0.00000000000E+00  0.00000000000E+00 -0.10060774480E+04  0.10060774480E+04  0.50400001928E-02 0.  1.
    10030    2    1    2    0    0  0.00000000000E+00  0.00000000000E+00  0.19664284656E+03  0.22087977426E+04  0.22000270586E+04 0.  0.
        1    1    3    3  502    0  0.85972761363E+03 -0.71760511262E+02 -0.58685706218E+03  0.10433994212E+04  0.50400001928E-02 0.  1.
       -1    1    3    3    0  502 -0.85972761363E+03  0.71760511262E+02  0.78349990874E+03  0.11653983214E+04  0.50400001928E-02 0. -1.
</event>
<event>
 5   0  0.2581058E-06  0.2200253E+04  0.7818609E-02  0.8518323E-01
       -2   -1    0    0    0  501  0.00000000000E+00  0.00000000000E+00  0.87559982910E+03  0.87559982910E+03  0.25500000920E-02 0.  1.
        2   -1    0    0  501    0  0.00000000000E+00  0.00000000000E+00 -0.13822274722E+04  0.13822274723E+04  0.25500000920E-02 0. -1.
    10030    2    1    2    0    0  0.00000000000E+00  0.00000000000E+00 -0.50662764315E+03  0.22578273014E+04  0.22002528386E+04 0.  0.
        1    1    3    3  502    0 -0.20008835054E+03 -0.10499455949E+04  0.13996408520E+02  0.10689326451E+04  0.50400001928E-02 0.  1.
       -1    1    3    3    0  502  0.20008835054E+03  0.10499455949E+04 -0.52062405167E+03  0.11888946562E+04  0.50400001928E-02 0. -1.
</event>
<event>
 5   0  0.2581058E-06  0.2196833E+04  0.7818609E-02  0.8519748E-01
       -2   -1    0    0    0  501  0.00000000000E+00  0.00000000000E+00  0.78671966239E+03  0.78671966240E+03  0.25500000920E-02 0.  1.
        2   -1    0    0  501    0  0.00000000000E+00  0.00000000000E+00 -0.15336065380E+04  0.15336065380E+04  0.25500000920E-02 0. -1.
    10030    2    1    2    0    0  0.00000000000E+00  0.00000000000E+00 -0.74688687557E+03  0.23203262004E+04  0.21968326452E+04 0.  0.
        1    1    3    3  502    0  0.10972948507E+04  0.45530817395E+02 -0.35260164884E+03  0.11534543630E+04  0.50400001928E-02 0.  1.
       -1    1    3    3    0  502 -0.10972948507E+04 -0.45530817395E+02 -0.39428522674E+03  0.11668718374E+04  0.50400001928E-02 0. -1.
</event>
<event>
 5   0  0.2556869E-06  0.2200432E+04  0.7818609E-02  0.8518248E-01
        2   -1    0    0  501    0  0.00000000000E+00  0.00000000000E+00  0.10641991212E+04  0.10641991212E+04  0.25500000920E-02 0. -1.
       -2   -1    0    0    0  501  0.00000000000E+00  0.00000000000E+00 -0.11374516073E+04  0.11374516073E+04  0.25500000920E-02 0.  1.
    10030    2    1    2    0    0  0.00000000000E+00  0.00000000000E+00 -0.73252486051E+02  0.22016507285E+04  0.22004317767E+04 0.  0.
        5    1    3    3  502    0 -0.27011176230E+02  0.90357056532E+03  0.59084438451E+03  0.10799484001E+04  0.46999998093E+01 0.  1.
       -5    1    3    3    0  502  0.27011176230E+02 -0.90357056532E+03 -0.66409687056E+03  0.11217023284E+04  0.46999998093E+01 0. -1.
</event>
<event>
 5   0  0.2532239E-06  0.2199297E+04  0.7818609E-02  0.8518721E-01
        2   -1    0    0  501    0  0.00000000000E+00  0.00000000000E+00  0.15586790001E+04  0.15586790001E+04  0.25500000920E-02 0. -1.
       -2   -1    0    0    0  501  0.00000000000E+00  0.00000000000E+00 -0.77580259917E+03  0.77580259917E+03  0.25500000920E-02 0.  1.
    10030    2    1    2    0    0  0.00000000000E+00  0.00000000000E+00  0.78287640092E+03  0.23344815993E+04  0.21992973601E+04 0.  0.
        3    1    3    3  502    0 -0.52719808389E+03 -0.59807501604E+02 -0.63094380069E+03  0.82438149345E+03  0.10100000352E+00 0.  1.
       -3    1    3    3    0  502  0.52719808389E+03  0.59807501604E+02  0.14138202016E+04  0.15101001058E+04  0.10100000352E+00 0. -1.
</event>
<event>
 5   0  0.1082209E-06  0.2200302E+04  0.7818609E-02  0.8518303E-01
       -1   -1    0    0    0  501  0.00000000000E+00  0.00000000000E+00  0.58185284508E+03  0.58185284511E+03  0.50400001928E-02 0.  1.
        1   -1    0    0  501    0  0.00000000000E+00  0.00000000000E+00 -0.20801339565E+04  0.20801339565E+04  0.50400001928E-02 0. -1.
    10030    2    1    2    0    0  0.00000000000E+00  0.00000000000E+00 -0.14982811115E+04  0.26619868017E+04  0.22003016710E+04 0.  0.
        2    1    3    3  502    0  0.66965530693E+03 -0.79442578260E+03 -0.11866591403E+04  0.15772477514E+04  0.25500000920E-02 0. -1.
       -2    1    3    3    0  502 -0.66965530693E+03  0.79442578260E+03 -0.31162197118E+03  0.10847390502E+04  0.25500000920E-02 0.  1.
</event>
<event>
 5   0  0.1144271E-06  0.2193747E+04  0.7818609E-02  0.8521035E-01
        1   -1    0    0  501    0  0.00000000000E+00  0.00000000000E+00  0.82946082644E+03  0.82946082645E+03  0.50400001928E-02 0.  1.
       -1   -1    0    0    0  501  0.00000000000E+00  0.00000000000E+00 -0.14504978993E+04  0.14504978993E+04  0.50400001928E-02 0. -1.
    10030    2    1    2    0    0  0.00000000000E+00  0.00000000000E+00 -0.62103707284E+03  0.22799587257E+04  0.21937467368E+04 0.  0.
        3    1    3    3  502    0  0.27125089352E+01  0.26115467256E+03 -0.14177120050E+04  0.14415673623E+04  0.10100000352E+00 0. -1.
       -3    1    3    3    0  502 -0.27125089352E+01 -0.26115467256E+03  0.79667493212E+03  0.83839136349E+03  0.10100000352E+00 0.  1.
</event>
<event>
 5   0  0.8905000E-07  0.2197953E+04  0.7818609E-02  0.8519281E-01
        3   -1    0    0  501    0  0.00000000000E+00  0.00000000000E+00  0.15157976270E+04  0.15157976303E+04  0.10100000352E+00 0. -1.
       -3   -1    0    0    0  501  0.00000000000E+00  0.00000000000E+00 -0.79677452220E+03  0.79677452860E+03  0.10100000352E+00 0.  1.
    10030    2    1    2    0    0  0.00000000000E+00  0.00000000000E+00  0.71902310476E+03  0.23125721589E+04  0.21979526303E+04 0.  0.
        3    1    3    3  502    0 -0.51755308761E+03  0.39492079440E+03 -0.57205589582E+03  0.86664386601E+03  0.10100000352E+00 0.  1.
       -3    1    3    3    0  502  0.51755308761E+03 -0.39492079440E+03  0.12910790006E+04  0.14459282929E+04  0.10100000352E+00 0. -1.
</event>
<event>
 5   0  0.1082209E-06  0.2200120E+04  0.7818609E-02  0.8518378E-01
       -1   -1    0    0    0  501  0.00000000000E+00  0.00000000000E+00  0.11578742076E+04  0.11578742076E+04  0.50400001928E-02 0. -1.
        1   -1    0    0  501    0  0.00000000000E+00  0.00000000000E+00 -0.10451329941E+04  0.10451329941E+04  0.50400001928E-02 0.  1.
    10030    2    1    2    0    0  0.00000000000E+00  0.00000000000E+00  0.11274121345E+03  0.22030072017E+04  0.22001204852E+04 0.  0.
        2    1    3    3  502    0 -0.79687490714E+03 -0.12591049919E+03  0.80519504032E+03  0.11398254798E+04  0.25500000920E-02 0. -1.
       -2    1    3    3    0  502  0.79687490714E+03  0.12591049919E+03 -0.69245382687E+03  0.10631817219E+04  0.25500000920E-02 0.  1.
</event>
<event>
 5   0  0.1107101E-06  0.2200810E+04  0.7818609E-02  0.8518091E-01
        1   -1    0    0  501    0  0.00000000000E+00  0.00000000000E+00  0.10972093923E+04  0.10972093923E+04  0.50400001928E-02 0.  1.
       -1   -1    0    0    0  501  0.00000000000E+00  0.00000000000E+00 -0.11036102555E+04  0.11036102555E+04  0.50400001928E-02 0. -1.
    10030    2    1    2    0    0  0.00000000000E+00  0.00000000000E+00 -0.64008632113E+01  0.22008196478E+04  0.22008103397E+04 0.  0.
        1    1    3    3  502    0 -0.30242060494E+03  0.91643631439E+03 -0.53195383545E+03  0.11019476502E+04  0.50400001928E-02 0. -1.
       -1    1    3    3    0  502  0.30242060494E+03 -0.91643631439E+03  0.52555297224E+03  0.10988719977E+04  0.50400001928E-02 0.  1.
</event>
<event>
 5   0  0.2581058E-06  0.2201208E+04  0.7818609E-02  0.8517926E-01
       -2   -1    0    0    0  501  0.00000000000E+00  0.00000000000E+00  0.83278820944E+03  0.83278820945E+03  0.25500000920E-02 0.  1.
        2   -1    0    0  501    0  0.00000000000E+00  0.00000000000E+00 -0.14545463739E+04  0.14545463739E+04  0.25500000920E-02 0. -1.
    10030    2    1    2    0    0  0.00000000000E+00  0.00000000000E+00 -0.62175816444E+03  0.22873345833E+04  0.22012079141E+04 0.  0.
        1    1    3    3  502    0 -0.46923086492E+03  0.51675819106E+03  0.57336392566E+03  0.90330660570E+03  0.50400001928E-02 0.  1.
       -1    1    3    3    0  502  0.46923086492E+03 -0.51675819106E+03 -0.11951220901E+04  0.13840279776E+04  0.50400001928E-02 0. -1.
</event>
<event>
 5   0  0.1144271E-06  0.2202256E+04  0.7818609E-02  0.8517490E-01
       -1   -1    0    0    0  501  0.00000000000E+00  0.00000000000E+00  0.16193383517E+04  0.16193383517E+04  0.50400001928E-02 0.  1.
        1   -1    0    0  501    0  0.00000000000E+00  0.00000000000E+00 -0.74875229806E+03  0.74875229808E+03  0.50400001928E-02 0. -1.
    10030    2    1    2    0    0  0.00000000000E+00  0.00000000000E+00  0.87058605362E+03  0.23680906498E+04  0.22022563994E+04 0.  0.
        3    1    3    3  502    0  0.29529807428E+03 -0.93014159576E+03  0.98371702148E+03  0.13856635701E+04  0.10100000352E+00 0.  1.
       -3    1    3    3    0  502 -0.29529807428E+03  0.93014159576E+03 -0.11313096786E+03  0.98242707970E+03  0.10100000352E+00 0. -1.
</event>
<event>
 5   0  0.2606154E-06  0.2199783E+04  0.7818609E-02  0.8518518E-01
       -2   -1    0    0    0  501  0.00000000000E+00  0.00000000000E+00  0.68049133044E+03  0.68049133044E+03  0.25500000920E-02 0.  1.
        2   -1    0    0  501    0  0.00000000000E+00  0.00000000000E+00 -0.17777764315E+04  0.17777764315E+04  0.25500000920E-02 0. -1.
    10030    2    1    2    0    0  0.00000000000E+00  0.00000000000E+00 -0.10972851010E+04  0.24582677619E+04  0.21997831248E+04 0.  0.
        2    1    3    3  502    0 -0.10510494068E+03  0.51316034155E+03 -0.16294381311E+04  0.17115633812E+04  0.25500000920E-02 0. -1.
       -2    1    3    3    0  502  0.10510494068E+03 -0.51316034155E+03  0.53215303011E+03  0.74670438070E+03  0.25500000920E-02 0.  1.
</event>
<event>
 5   0  0.1137869E-06  0.2199562E+04  0.7818609E-02  0.8518610E-01
        1   -1    0    0  501    0  0.00000000000E+00  0.00000000000E+00  0.75769424732E+03  0.75769424734E+03  0.50400001928E-02 0. -1.
       -1   -1    0    0    0  501  0.00000000000E+00  0.00000000000E+00 -0.15963146222E+04  0.15963146222E+04  0.50400001928E-02 0.  1.
    10030    2    1    2    0    0  0.00000000000E+00  0.00000000000E+00 -0.83862037486E+03  0.23540088695E+04  0.21995621439E+04 0.  0.
        5    1    3    3  502    0 -0.94857950947E+03  0.18165415352E+03 -0.98226367387E+03  0.13775577419E+04  0.46999998093E+01 0.  1.
       -5    1    3    3    0  502  0.94857950947E+03 -0.18165415352E+03  0.14364329901E+03  0.97645112762E+03  0.46999998093E+01 0. -1.
</event>
<event>
 5   0  0.2524749E-06  0.2207964E+04  0.7818609E-02  0.8515121E-01
       -2   -1    0    0    0  501  0.00000000000E+00  0.00000000000E+00  0.10654027933E+04  0.10654027933E+04  0.25500000920E-02 0.  1.
        2   -1    0    0  501    0  0.00000000000E+00  0.00000000000E+00 -0.11439578008E+04  0.11439578008E+04  0.25500000920E-02 0. -1.
    10030    2    1    2    0    0  0.00000000000E+00  0.00000000000E+00 -0.78555007592E+02  0.22093605941E+04  0.22079636196E+04 0.  0.
        4    1    3    3  502    0  0.39440443417E+03 -0.93489452805E+03  0.39595928841E+03  0.10892052181E+04  0.12699999809E+01 0. -1.
       -4    1    3    3    0  502 -0.39440443417E+03  0.93489452805E+03 -0.47451429601E+03  0.11201553760E+04  0.12699999809E+01 0.  1.
</event>
<event>
 5   0  0.2581058E-06  0.2203910E+04  0.7818609E-02  0.8516802E-01
        2   -1    0    0  501    0  0.00000000000E+00  0.00000000000E+00  0.11671964642E+04  0.11671964642E+04  0.25500000920E-02 0. -1.
       -2   -1    0    0    0  501  0.00000000000E+00  0.00000000000E+00 -0.10403604369E+04  0.10403604369E+04  0.25500000920E-02 0.  1.
    10030    2    1    2    0    0  0.00000000000E+00  0.00000000000E+00  0.12683602738E+03  0.22075569011E+04  0.22039101828E+04 0.  0.
        1    1    3    3  502    0 -0.82594946822E+03 -0.35997787313E+03 -0.57208306918E+03  0.10672654924E+04  0.50400001928E-02 0.  1.
       -1    1    3    3    0  502  0.82594946822E+03  0.35997787313E+03  0.69891909657E+03  0.11402914087E+04  0.50400001928E-02 0. -1.
</event>
<event>
 5   0  0.2581058E-06  0.2199820E+04  0.7818609E-02  0.8518503E-01
       -2   -1    0    0    0  501  0.00000000000E+00  0.00000000000E+00  0.52428220293E+03  0.52428220294E+03  0.25500000920E-02 0.  1.
        2   -1    0    0  501    0  0.00000000000E+00  0.00000000000E+00 -0.23075394710E+04  0.23075394710E+04  0.25500000920E-02 0. -1.
    10030    2    1    2    0    0  0.00000000000E+00  0.00000000000E+00 -0.17832572681E+04  0.28318216739E+04  0.21998198810E+04 0.  0.
        1    1    3    3  502    0 -0.10170959050E+04  0.38994841558E+03 -0.69530831762E+03  0.12922838324E+04  0.50400001928E-02 0.  1.
       -1    1    3    3    0  502  0.10170959050E+04 -0.38994841558E+03 -0.10879489505E+04  0.15395378416E+04  0.50400001928E-02 0. -1.
</event>
<event>
 5   0  0.1146827E-06  0.2199996E+04  0.7818609E-02  0.8518430E-01
       -1   -1    0    0    0  501  0.00000000000E+00  0.00000000000E+00  0.72838435781E+03  0.72838435782E+03  0.50400001928E-02 0.  1.
        1   -1    0    0  501    0  0.00000000000E+00  0.00000000000E+00 -0.16612050712E+04  0.16612050712E+04  0.50400001928E-02 0. -1.
    10030    2    1    2    0    0  0.00000000000E+00  0.00000000000E+00 -0.93282071343E+03  0.23895894291E+04  0.21999961718E+04 0.  0.
        4    1    3    3  502    0  0.90031673142E+03  0.29686159404E+03  0.13961240728E+03  0.95822244811E+03  0.12699999809E+01 0.  1.
       -4    1    3    3    0  502 -0.90031673142E+03 -0.29686159404E+03 -0.10724331207E+04  0.14313669810E+04  0.12699999809E+01 0. -1.
</event>
<event>
 5   0  0.2524749E-06  0.2200185E+04  0.7818609E-02  0.8518351E-01
       -2   -1    0    0    0  501  0.00000000000E+00  0.00000000000E+00  0.50424429572E+03  0.50424429573E+03  0.25500000920E-02 0. -1.
        2   -1    0    0  501    0  0.00000000000E+00  0.00000000000E+00 -0.24000335085E+04  0.24000335085E+04  0.25500000920E-02 0.  1.
    10030    2    1    2    0    0  0.00000000000E+00  0.00000000000E+00 -0.18957892128E+04  0.29042778043E+04  0.22001847252E+04 0.  0.
        4    1    3    3  502    0 -0.74791094923E+03 -0.27918220399E+03 -0.19470060010E+04  0.21043163906E+04  0.12699999809E+01 0.  1.
       -4    1    3    3    0  502  0.74791094923E+03  0.27918220399E+03  0.51216788207E+02  0.79996141363E+03  0.12699999809E+01 0. -1.
</event>
<event>
 5   0  0.2524749E-06  0.2200007E+04  0.7818609E-02  0.8518425E-01
       -2   -1    0    0    0  501  0.00000000000E+00  0.00000000000E+00  0.11101249224E+04  0.11101249224E+04  0.25500000920E-02 0.  1.
        2   -1    0    0  501    0  0.00000000000E+00  0.00000000000E+00 -0.10899746682E+04  0.10899746682E+04  0.25500000920E-02 0. -1.
    10030    2    1    2    0    0  0.00000000000E+00  0.00000000000E+00  0.20150254173E+02  0.22000995906E+04  0.22000073127E+04 0.  0.
        4    1    3    3  502    0  0.15395038778E+03 -0.10867060028E+04 -0.63247608300E+02  0.10993782476E+04  0.12699999809E+01 0. -1.
       -4    1    3    3    0  502 -0.15395038778E+03  0.10867060028E+04  0.83397862472E+02  0.11007213430E+04  0.12699999809E+01 0.  1.
</event>
<event>
 5   0  0.1082209E-06  0.2201064E+04  0.7818609E-02  0.8517986E-01
       -1   -1    0    0    0  501  0.00000000000E+00  0.00000000000E+00  0.20076852806E+04  0.20076852806E+04  0.50400001928E-02 0.  1.
        1   -1    0    0  501    0  0.00000000000E+00  0.00000000000E+00 -0.60326697817E+03  0.60326697820E+03  0.50400001928E-02 0. -1.
    10030    2    1    2    0    0  0.00000000000E+00  0.00000000000E+00  0.14044183025E+04  0.26109522588E+04  0.22010635905E+04 0.  0.
        2    1    3    3  502    0 -0.95492128593E+03 -0.48504084445E+03  0.40204328022E+03  0.11440183925E+04  0.25500000920E-02 0. -1.
       -2    1    3    3    0  502  0.95492128593E+03  0.48504084445E+03  0.10023750222E+04  0.14669338664E+04  0.25500000920E-02 0.  1.
</event>
<event>
 5   0  0.2581058E-06  0.2202230E+04  0.7818609E-02  0.8517501E-01
       -2   -1    0    0    0  501  0.00000000000E+00  0.00000000000E+00  0.11189554011E+04  0.11189554011E+04  0.25500000920E-02 0.  1.
        2   -1    0    0  501    0  0.00000000000E+00  0.00000000000E+00 -0.10835587505E+04  0.10835587505E+04  0.25500000920E-02 0. -1.
    10030    2    1    2    0    0  0.00000000000E+00  0.00000000000E+00  0.35396650564E+02  0.22025141517E+04  0.22022297031E+04 0.  0.
        1    1    3    3  502    0 -0.35206888118E+03 -0.83464537198E+03 -0.60837655786E+03  0.10911954134E+04  0.50400001928E-02 0. -1.
       -1    1    3    3    0  502  0.35206888118E+03  0.83464537198E+03  0.64377320842E+03  0.11113187382E+04  0.50400001928E-02 0.  1.
</event>
<event>
 5   0  0.1137869E-06  0.2199866E+04  0.7818609E-02  0.8518484E-01
        1   -1    0    0  501    0  0.00000000000E+00  0.00000000000E+00  0.11231321425E+04  0.11231321425E+04  0.50400001928E-02 0.  1.
       -1   -1    0    0    0  501  0.00000000000E+00  0.00000000000E+00 -0.10772129064E+04  0.10772129064E+04  0.50400001928E-02 0. -1.
    10030    2    1    2    0    0  0.00000000000E+00  0.00000000000E+00  0.45919236042E+02  0.22003450489E+04  0.21998658500E+04 0.  0.
        5    1    3    3  502    0 -0.18347670472E+03  0.10531408544E+04 -0.23605815789E+03  0.10947670548E+04  0.46999998093E+01 0. -1.
       -5    1    3    3    0  502  0.18347670472E+03 -0.10531408544E+04  0.28197739393E+03  0.11055779941E+04  0.46999998093E+01 0.  1.
</event>
<event>
 5   0  0.1137869E-06  0.2200264E+04  0.7818609E-02  0.8518318E-01
        1   -1    0    0  501    0  0.00000000000E+00  0.00000000000E+00  0.13348535487E+04  0.13348535487E+04  0.50400001928E-02 0.  1.
       -1   -1    0    0    0  501  0.00000000000E+00  0.00000000000E+00 -0.90668367040E+03  0.90668367041E+03  0.50400001928E-02 0. -1.
    10030    2    1    2    0    0  0.00000000000E+00  0.00000000000E+00  0.42816987829E+03  0.22415372191E+04  0.22002635433E+04 0.  0.
        5    1    3    3  502    0 -0.10353261965E+04  0.32042165735E+03  0.40656682678E+03  0.11575357646E+04  0.46999998093E+01 0.  1.
       -5    1    3    3    0  502  0.10353261965E+04 -0.32042165735E+03  0.21603051515E+02  0.10840014545E+04  0.46999998093E+01 0. -1.
</event>
<event>
 5   0  0.1137869E-06  0.2199235E+04  0.7818609E-02  0.8518746E-01
        1   -1    0    0  501    0  0.00000000000E+00  0.00000000000E+00  0.10602006354E+04  0.10602006354E+04  0.50400001928E-02 0.  1.
       -1   -1    0    0    0  501  0.00000000000E+00  0.00000000000E+00 -0.11405001341E+04  0.11405001341E+04  0.50400001928E-02 0. -1.
    10030    2    1    2    0    0  0.00000000000E+00  0.00000000000E+00 -0.80299498731E+02  0.22007007695E+04  0.21992352915E+04 0.  0.
        5    1    3    3  502    0 -0.96377887459E+03 -0.32825120013E+02  0.48858636040E+03  0.10810577825E+04  0.46999998093E+01 0.  1.
       -5    1    3    3    0  502  0.96377887459E+03  0.32825120013E+02 -0.56888585914E+03  0.11196429870E+04  0.46999998093E+01 0. -1.
</event>
<event>
 5   0  0.1082209E-06  0.2200254E+04  0.7818609E-02  0.8518322E-01
        1   -1    0    0  501    0  0.00000000000E+00  0.00000000000E+00  0.15569495538E+04  0.15569495539E+04  0.50400001928E-02 0.  1.
       -1   -1    0    0    0  501  0.00000000000E+00  0.00000000000E+00 -0.77734035027E+03  0.77734035029E+03  0.50400001928E-02 0. -1.
    10030    2    1    2    0    0  0.00000000000E+00  0.00000000000E+00  0.77960920358E+03  0.23342899041E+04  0.22002542685E+04 0.  0.
        2    1    3    3  502    0  0.30588367456E+03 -0.88266033722E+03  0.10062570983E+04  0.13730285653E+04  0.25500000920E-02 0.  1.
       -2    1    3    3    0  502 -0.30588367456E+03  0.88266033722E+03 -0.22664789477E+03  0.96126133880E+03  0.25500000920E-02 0. -1.
</event>
<event>
 5   0  0.2532239E-06  0.2200229E+04  0.7818609E-02  0.8518333E-01
        2   -1    0    0  501    0  0.00000000000E+00  0.00000000000E+00  0.16888827815E+04  0.16888827815E+04  0.25500000920E-02 0. -1.
       -2   -1    0    0    0  501  0.00000000000E+00  0.00000000000E+00 -0.71659930511E+03  0.71659930511E+03  0.25500000920E-02 0.  1.
    10030    2    1    2    0    0  0.00000000000E+00  0.00000000000E+00  0.97228347637E+03  0.24054820866E+04  0.22002292859E+04 0.  0.
        3    1    3    3  502    0 -0.35583656195E+03  0.59783949738E+03 -0.44554183071E+03  0.82615934090E+03  0.10100000352E+00 0.  1.
       -3    1    3    3    0  502  0.35583656195E+03 -0.59783949738E+03  0.14178253071E+04  0.15793227457E+04  0.10100000352E+00 0. -1.
</event>
<event>
 5   0  0.2556869E-06  0.2198051E+04  0.7818609E-02  0.8519240E-01
        2   -1    0    0  501    0  0.00000000000E+00  0.00000000000E+00  0.17123312879E+04  0.17123312879E+04  0.25500000920E-02 0. -1.
       -2   -1    0    0    0  501  0.00000000000E+00  0.00000000000E+00 -0.70538768279E+03  0.70538768279E+03  0.25500000920E-02 0.  1.
    10030    2    1    2    0    0  0.00000000000E+00  0.00000000000E+00  0.10069436051E+04  0.24177189706E+04  0.21980513182E+04 0.  0.
        5    1    3    3  502    0 -0.49404477568E+03 -0.89674516806E+03  0.64042766465E+02  0.10258438979E+04  0.46999998093E+01 0. -1.
       -5    1    3    3    0  502  0.49404477568E+03  0.89674516806E+03  0.94290083860E+03  0.13918750728E+04  0.46999998093E+01 0.  1.
</event>
<event>
 5   0  0.2606154E-06  0.2199369E+04  0.7818609E-02  0.8518691E-01
        2   -1    0    0  501    0  0.00000000000E+00  0.00000000000E+00  0.12046772630E+04  0.12046772630E+04  0.25500000920E-02 0.  1.
       -2   -1    0    0    0  501  0.00000000000E+00  0.00000000000E+00 -0.10038426847E+04  0.10038426847E+04  0.25500000920E-02 0. -1.
    10030    2    1    2    0    0  0.00000000000E+00  0.00000000000E+00  0.20083457833E+03  0.22085199477E+04  0.21993694168E+04 0.  0.
        2    1    3    3  502    0  0.32693244772E+03 -0.82849535403E+03 -0.54726008489E+03  0.10453626058E+04  0.25500000920E-02 0. -1.
       -2    1    3    3    0  502 -0.32693244772E+03  0.82849535403E+03  0.74809466322E+03  0.11631573420E+04  0.25500000920E-02 0.  1.
</event>
<event>
 5   0  0.1082209E-06  0.2199045E+04  0.7818609E-02  0.8518826E-01
       -1   -1    0    0    0  501  0.00000000000E+00  0.00000000000E+00  0.99142660331E+03  0.99142660332E+03  0.50400001928E-02 0.  1.
        1   -1    0    0  501    0  0.00000000000E+00  0.00000000000E+00 -0.12194044622E+04  0.12194044622E+04  0.50400001928E-02 0. -1.
    10030    2    1    2    0    0  0.00000000000E+00  0.00000000000E+00 -0.22797785889E+03  0.22108310655E+04  0.21990452692E+04 0.  0.
        2    1    3    3  502    0 -0.43010016907E+03  0.10079142783E+04 -0.20431854359E+03  0.11147301983E+04  0.25500000920E-02 0. -1.
       -2    1    3    3    0  502  0.43010016907E+03 -0.10079142783E+04 -0.23659315302E+02  0.10961008672E+04  0.25500000920E-02 0.  1.
</event>
<event>
 5   0  0.2581058E-06  0.2203465E+04  0.7818609E-02  0.8516987E-01
       -2   -1    0    0    0  501  0.00000000000E+00  0.00000000000E+00  0.14614663432E+04  0.14614663432E+04  0.25500000920E-02 0. -1.
        2   -1    0    0  501    0  0.00000000000E+00  0.00000000000E+00 -0.83054577349E+03  0.83054577350E+03  0.25500000920E-02 0.  1.
    10030    2    1    2    0    0  0.00000000000E+00  0.00000000000E+00  0.63092056970E+03  0.22920121167E+04  0.22034651751E+04 0.  0.
        1    1    3    3  502    0  0.21190233648E+03  0.70297910735E+03  0.11698903524E+04  0.13812044245E+04  0.50400001928E-02 0. -1.
       -1    1    3    3    0  502 -0.21190233648E+03 -0.70297910735E+03 -0.53896978267E+03  0.91080769223E+03  0.50400001928E-02 0.  1.
</event>
<event>
 5   0  0.8905000E-07  0.2200176E+04  0.7818609E-02  0.8518355E-01
       -3   -1    0    0    0  501  0.00000000000E+00  0.00000000000E+00  0.10443464947E+04  0.10443464996E+04  0.10100000352E+00 0. -1.
        3   -1    0    0  501    0  0.00000000000E+00  0.00000000000E+00 -0.11588051448E+04  0.11588051492E+04  0.10100000352E+00 0.  1.
    10030    2    1    2    0    0  0.00000000000E+00  0.00000000000E+00 -0.11445865012E+03  0.22031516488E+04  0.22001764487E+04 0.  0.
        5    1    3    3  502    0 -0.33289061905E+03  0.90495337154E+03  0.47302923558E+03  0.10740277076E+04  0.46999998093E+01 0. -1.
       -5    1    3    3    0  502  0.33289061905E+03 -0.90495337154E+03 -0.58748788570E+03  0.11291239413E+04  0.46999998093E+01 0.  1.
</event>
<event>
 5   0  0.1082209E-06  0.2200527E+04  0.7818609E-02  0.8518209E-01
       -1   -1    0    0    0  501  0.00000000000E+00  0.00000000000E+00  0.18204933124E+04  0.18204933124E+04  0.50400001928E-02 0.  1.
        1   -1    0    0  501    0  0.00000000000E+00  0.00000000000E+00 -0.66497349678E+03  0.66497349680E+03  0.50400001928E-02 0. -1.
    10030    2    1    2    0    0  0.00000000000E+00  0.00000000000E+00  0.11555198156E+04  0.24854668092E+04  0.22005270313E+04 0.  0.
        2    1    3    3  502    0  0.10428347432E+04  0.35033300123E+03  0.55686315908E+03  0.12330182850E+04  0.25500000920E-02 0. -1.
       -2    1    3    3    0  502 -0.10428347432E+04 -0.35033300123E+03  0.59865665656E+03  0.12524485242E+04  0.25500000920E-02 0.  1.
</event>
<event>
 5   0  0.1107101E-06  0.2198870E+04  0.7818609E-02  0.8518899E-01
       -1   -1    0    0    0  501  0.00000000000E+00  0.00000000000E+00  0.11645118604E+04  0.11645118604E+04  0.50400001928E-02 0.  1.
        1   -1    0    0  501    0  0.00000000000E+00  0.00000000000E+00 -0.10379949613E+04  0.10379949613E+04  0.50400001928E-02 0. -1.
    10030    2    1    2    0    0  0.00000000000E+00  0.00000000000E+00  0.12651689911E+03  0.22025068216E+04  0.21988701129E+04 0.  0.
        1    1    3    3  502    0  0.16625677526E+02  0.39280262972E+03  0.10916927185E+04  0.11603289666E+04  0.50400001928E-02 0.  1.
       -1    1    3    3    0  502 -0.16625677526E+02 -0.39280262972E+03 -0.96517581942E+03  0.10421778550E+04  0.50400001928E-02 0. -1.
</event>
<event>
 5   0  0.1144271E-06  0.2199925E+04  0.7818609E-02  0.8518459E-01
        1   -1    0    0  501    0  0.00000000000E+00  0.00000000000E+00  0.11092384860E+04  0.11092384861E+04  0.50400001928E-02 0.  1.
       -1   -1    0    0    0  501  0.00000000000E+00  0.00000000000E+00 -0.10907639242E+04  0.10907639243E+04  0.50400001928E-02 0. -1.
    10030    2    1    2    0    0  0.00000000000E+00  0.00000000000E+00  0.18474561795E+02  0.22000024103E+04  0.21999248387E+04 0.  0.
        3    1    3    3  502    0  0.92715761147E+03 -0.58904792373E+03 -0.48372222251E+02  0.10995174283E+04  0.10100000352E+00 0. -1.
       -3    1    3    3    0  502 -0.92715761147E+03  0.58904792373E+03  0.66846784046E+02  0.11004849820E+04  0.10100000352E+00 0.  1.
</event>
<event>
 5   0  0.1082209E-06  0.2196444E+04  0.7818609E-02  0.8519910E-01
       -1   -1    0    0    0  501  0.00000000000E+00  0.00000000000E+00  0.71863262531E+03  0.71863262533E+03  0.50400001928E-02 0. -1.
        1   -1    0    0  501    0  0.00000000000E+00  0.00000000000E+00 -0.16783139675E+04  0.16783139675E+04  0.50400001928E-02 0.  1.
    10030    2    1    2    0    0  0.00000000000E+00  0.00000000000E+00 -0.95968134217E+03  0.23969465928E+04  0.21964436461E+04 0.  0.
        2    1    3    3  502    0 -0.83215339481E+03 -0.11509297453E+03 -0.12517778783E+04  0.15075388957E+04  0.25500000920E-02 0.  1.
       -2    1    3    3    0  502  0.83215339481E+03  0.11509297453E+03  0.29209653617E+03  0.88940769714E+03  0.25500000920E-02 0. -1.
</event>
<event>
 5   0  0.1144271E-06  0.2200356E+04  0.7818609E-02  0.8518280E-01
        1   -1    0    0  501    0  0.00000000000E+00  0.00000000000E+00  0.13772326923E+04  0.13772326923E+04  0.50400001928E-02 0.  1.
       -1   -1    0    0    0  501  0.00000000000E+00  0.00000000000E+00 -0.87885761683E+03  0.87885761684E+03  0.50400001928E-02 0. -1.
    10030    2    1    2    0    0  0.00000000000E+00  0.00000000000E+00  0.49837507549E+03  0.22560903092E+04  0.22003558274E+04 0.  0.
        3    1    3    3  502    0  0.99683357140E+03 -0.46356951740E+03  0.29290033003E+03  0.11377014020E+04  0.10100000352E+00 0. -1.
       -3    1    3    3    0  502 -0.99683357140E+03  0.46356951740E+03  0.20547474547E+03  0.11183889072E+04  0.10100000352E+00 0.  1.
</event>
<event>
 5   0  0.1146827E-06  0.2200704E+04  0.7818609E-02  0.8518135E-01
       -1   -1    0    0    0  501  0.00000000000E+00  0.00000000000E+00  0.55289790974E+03  0.55289790976E+03  0.50400001928E-02 0.  1.
        1   -1    0    0  501    0  0.00000000000E+00  0.00000000000E+00 -0.21898703531E+04  0.21898703531E+04  0.50400001928E-02 0. -1.
    10030    2    1    2    0    0  0.00000000000E+00  0.00000000000E+00 -0.16369724434E+04  0.27427682629E+04  0.22007041972E+04 0.  0.
        4    1    3    3  502    0 -0.22390930075E+03  0.89594367943E+03 -0.15641139512E+04  0.18163987770E+04  0.12699999809E+01 0. -1.
       -4    1    3    3    0  502  0.22390930075E+03 -0.89594367943E+03 -0.72858492178E+02  0.92636948593E+03  0.12699999809E+01 0.  1.
</event>
<event>
 5   0  0.1082209E-06  0.2191059E+04  0.7818609E-02  0.8522159E-01
        1   -1    0    0  501    0  0.00000000000E+00  0.00000000000E+00  0.21066043055E+04  0.21066043055E+04  0.50400001928E-02 0. -1.
       -1   -1    0    0    0  501  0.00000000000E+00  0.00000000000E+00 -0.56972496029E+03  0.56972496031E+03  0.50400001928E-02 0.  1.
    10030    2    1    2    0    0  0.00000000000E+00  0.00000000000E+00  0.15368793452E+04  0.26763292658E+04  0.21910591542E+04 0.  0.
        2    1    3    3  502    0 -0.26081355576E+03 -0.20421370875E+03 -0.50708813978E+03  0.60569409046E+03  0.25500000920E-02 0.  1.
       -2    1    3    3    0  502  0.26081355576E+03  0.20421370875E+03  0.20439674850E+04  0.20706351753E+04  0.25500000920E-02 0. -1.
</event>
<event>
 5   0  0.2606154E-06  0.2199769E+04  0.7818609E-02  0.8518524E-01
        2   -1    0    0  501    0  0.00000000000E+00  0.00000000000E+00  0.12075153233E+04  0.12075153233E+04  0.25500000920E-02 0.  1.
       -2   -1    0    0    0  501  0.00000000000E+00  0.00000000000E+00 -0.10018468108E+04  0.10018468108E+04  0.25500000920E-02 0. -1.
    10030    2    1    2    0    0  0.00000000000E+00  0.00000000000E+00  0.20566851257E+03  0.22093621341E+04  0.21997685111E+04 0.  0.
        2    1    3    3  502    0 -0.18151107076E+03  0.10292932893E+04  0.44689860334E+03  0.11367098601E+04  0.25500000920E-02 0. -1.
       -2    1    3    3    0  502  0.18151107076E+03 -0.10292932893E+04 -0.24123009077E+03  0.10726522740E+04  0.25500000920E-02 0.  1.
</event>
<event>
 5   0  0.1082209E-06  0.2200139E+04  0.7818609E-02  0.8518370E-01
        1   -1    0    0  501    0  0.00000000000E+00  0.00000000000E+00  0.18019098774E+04  0.18019098774E+04  0.50400001928E-02 0.  1.
       -1   -1    0    0    0  501  0.00000000000E+00  0.00000000000E+00 -0.67159436128E+03  0.67159436130E+03  0.50400001928E-02 0. -1.
    10030    2    1    2    0    0  0.00000000000E+00  0.00000000000E+00  0.11303155161E+04  0.24735042387E+04  0.22001386440E+04 0.  0.
        2    1    3    3  502    0 -0.31078991337E+03  0.56584206752E+03  0.15665508113E+04  0.16943580082E+04  0.25500000920E-02 0.  1.
       -2    1    3    3    0  502  0.31078991337E+03 -0.56584206752E+03 -0.43623529521E+03  0.77914623045E+03  0.25500000920E-02 0. -1.
</event>
<event>
 5   0  0.1137869E-06  0.2203089E+04  0.7818609E-02  0.8517144E-01
        1   -1    0    0  501    0  0.00000000000E+00  0.00000000000E+00  0.67522810834E+03  0.67522810836E+03  0.50400001928E-02 0.  1.
       -1   -1    0    0    0  501  0.00000000000E+00  0.00000000000E+00 -0.17970225178E+04  0.17970225178E+04  0.50400001928E-02 0. -1.
    10030    2    1    2    0    0  0.00000000000E+00  0.00000000000E+00 -0.11217944095E+04  0.24722506262E+04  0.22030888456E+04 0.  0.
        5    1    3    3  502    0  0.98170557085E+03 -0.30513675959E+03 -0.11693028306E+03  0.10346734031E+04  0.46999998093E+01 0.  1.
       -5    1    3    3    0  502 -0.98170557085E+03  0.30513675959E+03 -0.10048641264E+04  0.14375772231E+04  0.46999998093E+01 0. -1.
</event>
<event>
 5   0  0.8905000E-07  0.2200950E+04  0.7818609E-02  0.8518033E-01
       -3   -1    0    0    0  501  0.00000000000E+00  0.00000000000E+00  0.10307680250E+04  0.10307680299E+04  0.10100000352E+00 0. -1.
        3   -1    0    0  501    0  0.00000000000E+00  0.00000000000E+00 -0.11748963670E+04  0.11748963713E+04  0.10100000352E+00 0.  1.
    10030    2    1    2    0    0  0.00000000000E+00  0.00000000000E+00 -0.14412834203E+03  0.22056644012E+04  0.22009503565E+04 0.  0.
        1    1    3    3  502    0  0.20110063580E+03  0.48510826041E+03 -0.10412312363E+04  0.11661620717E+04  0.50400001928E-02 0.  1.
       -1    1    3    3    0  502 -0.20110063580E+03 -0.48510826041E+03  0.89710289430E+03  0.10395023295E+04  0.50400001928E-02 0. -1.
</event>
<event>
 5   0  0.2532239E-06  0.2199743E+04  0.7818609E-02  0.8518535E-01
       -2   -1    0    0    0  501  0.00000000000E+00  0.00000000000E+00  0.67634945902E+03  0.67634945903E+03  0.25500000920E-02 0.  1.
        2   -1    0    0  501    0  0.00000000000E+00  0.00000000000E+00 -0.17885977979E+04  0.17885977979E+04  0.25500000920E-02 0. -1.
    10030    2    1    2    0    0  0.00000000000E+00  0.00000000000E+00 -0.11122483389E+04  0.24649472569E+04  0.21997428514E+04 0.  0.
        3    1    3    3  502    0  0.21115150490E+03 -0.98569815988E+03 -0.10490837916E+04  0.14549098365E+04  0.10100000352E+00 0. -1.
       -3    1    3    3    0  502 -0.21115150490E+03  0.98569815988E+03 -0.63164547281E+02  0.10100374204E+04  0.10100000352E+00 0.  1.
</event>
<event>
 5   0  0.2532239E-06  0.2200058E+04  0.7818609E-02  0.8518404E-01
       -2   -1    0    0    0  501  0.00000000000E+00  0.00000000000E+00  0.63345475428E+03  0.63345475428E+03  0.25500000920E-02 0.  1.
        2   -1    0    0  501    0  0.00000000000E+00  0.00000000000E+00 -0.19102602227E+04  0.19102602227E+04  0.25500000920E-02 0. -1.
    10030    2    1    2    0    0  0.00000000000E+00  0.00000000000E+00 -0.12768054684E+04  0.25437149770E+04  0.22000576538E+04 0.  0.
        3    1    3    3  502    0  0.82198107768E+03  0.18730161946E+03 -0.14554131913E+04  0.16819519483E+04  0.10100000352E+00 0. -1.
       -3    1    3    3    0  502 -0.82198107768E+03 -0.18730161946E+03  0.17860772291E+03  0.86176302868E+03  0.10100000352E+00 0.  1.
</event>
<event>
 5   0  0.2524749E-06  0.2200012E+04  0.7818609E-02  0.8518423E-01
        2   -1    0    0  501    0  0.00000000000E+00  0.00000000000E+00  0.12258121519E+04  0.12258121519E+04  0.25500000920E-02 0. -1.
       -2   -1    0    0    0  501  0.00000000000E+00  0.00000000000E+00 -0.98711111727E+03  0.98711111727E+03  0.25500000920E-02 0.  1.
    10030    2    1    2    0    0  0.00000000000E+00  0.00000000000E+00  0.23870103466E+03  0.22129232692E+04  0.22000116389E+04 0.  0.
        4    1    3    3  502    0 -0.63812052466E+03 -0.83190287917E+03  0.45409634838E+03  0.11425696088E+04  0.12699999809E+01 0. -1.
       -4    1    3    3    0  502  0.63812052466E+03  0.83190287917E+03 -0.21539531372E+03  0.10703536604E+04  0.12699999809E+01 0.  1.
</event>
<event>
 5   0  0.2532239E-06  0.2199730E+04  0.7818609E-02  0.8518540E-01
        2   -1    0    0  501    0  0.00000000000E+00  0.00000000000E+00  0.10159721736E+04  0.10159721736E+04  0.25500000920E-02 0. -1.
       -2   -1    0    0    0  501  0.00000000000E+00  0.00000000000E+00 -0.11906854479E+04  0.11906854479E+04  0.25500000920E-02 0.  1.
    10030    2    1    2    0    0  0.00000000000E+00  0.00000000000E+00 -0.17471327434E+03  0.22066576215E+04  0.21997302403E+04 0.  0.
        3    1    3    3  502    0  0.63609768683E+03  0.15744189759E+03 -0.97348156986E+03  0.11734882170E+04  0.10100000352E+00 0.  1.
       -3    1    3    3    0  502 -0.63609768683E+03 -0.15744189759E+03  0.79876829552E+03  0.10331694045E+04  0.10100000352E+00 0. -1.
</event>
<event>
 5   0  0.2581058E-06  0.2200798E+04  0.7818609E-02  0.8518096E-01
       -2   -1    0    0    0  501  0.00000000000E+00  0.00000000000E+00  0.63635488893E+03  0.63635488894E+03  0.25500000920E-02 0. -1.
        2   -1    0    0  501    0  0.00000000000E+00  0.00000000000E+00 -0.19028340405E+04  0.19028340405E+04  0.25500000920E-02 0.  1.
    10030    2    1    2    0    0  0.00000000000E+00  0.00000000000E+00 -0.12664791515E+04  0.25391889294E+04  0.22007978049E+04 0.  0.
        1    1    3    3  502    0  0.10370101329E+04 -0.24325954074E+03 -0.95196211892E+03  0.14285646978E+04  0.50400001928E-02 0.  1.
       -1    1    3    3    0  502 -0.10370101329E+04  0.24325954074E+03 -0.31451703263E+03  0.11106242316E+04  0.50400001928E-02 0. -1.
</event>
<event>
 5   0  0.2556869E-06  0.2198308E+04  0.7818609E-02  0.8519133E-01
       -2   -1    0    0    0  501  0.00000000000E+00  0.00000000000E+00  0.82296022247E+03  0.82296022248E+03  0.25500000920E-02 0.  1.
        2   -1    0    0  501    0  0.00000000000E+00  0.00000000000E+00 -0.14680409739E+04  0.14680409739E+04  0.25500000920E-02 0. -1.
    10030    2    1    2    0    0  0.00000000000E+00  0.00000000000E+00 -0.64508075140E+03  0.22910011964E+04  0.21983078278E+04 0.  0.
        5    1    3    3  502    0 -0.63821719181E+03  0.74854115001E+03  0.18852713974E+03  0.10015985272E+04  0.46999998093E+01 0.  1.
       -5    1    3    3    0  502  0.63821719181E+03 -0.74854115001E+03 -0.83360789115E+03  0.12894026692E+04  0.46999998093E+01 0. -1.
</event>
<event>
 5   0  0.2556869E-06  0.2202063E+04  0.7818609E-02  0.8517570E-01
        2   -1    0    0  501    0  0.00000000000E+00  0.00000000000E+00  0.14395300085E+04  0.14395300085E+04  0.25500000920E-02 0.  1.
       -2   -1    0    0    0  501  0.00000000000E+00  0.00000000000E+00 -0.84212957339E+03  0.84212957339E+03  0.25500000920E-02 0. -1.
    10030    2    1    2    0    0  0.00000000000E+00  0.00000000000E+00  0.59740043512E+03  0.22816595819E+04  0.22020633887E+04 0.  0.
        5    1    3    3  502    0 -0.65352003385E+03  0.85810779884E+03  0.52761882713E+03  0.12007668990E+04  0.46999998093E+01 0. -1.
       -5    1    3    3    0  502  0.65352003385E+03 -0.85810779884E+03  0.69781607986E+02  0.10808926829E+04  0.46999998093E+01 0.  1.
</event>
<event>
 5   0  0.1144271E-06  0.2200337E+04  0.7818609E-02  0.8518288E-01
       -1   -1    0    0    0  501  0.00000000000E+00  0.00000000000E+00  0.99340523699E+03  0.99340523700E+03  0.50400001928E-02 0. -1.
        1   -1    0    0  501    0  0.00000000000E+00  0.00000000000E+00 -0.12184060192E+04  0.12184060192E+04  0.50400001928E-02 0.  1.
    10030    2    1    2    0    0  0.00000000000E+00  0.00000000000E+00 -0.22500078218E+03  0.22118112562E+04  0.22003371744E+04 0.  0.
        3    1    3    3  502    0 -0.27337969021E+03 -0.10651490685E+04 -0.79283910795E+02  0.11025266173E+04  0.10100000352E+00 0. -1.
       -3    1    3    3    0  502  0.27337969021E+03  0.10651490685E+04 -0.14571687138E+03  0.11092846389E+04  0.10100000352E+00 0.  1.
</event>
<event>
 5   0  0.1107101E-06  0.2199330E+04  0.7818609E-02  0.8518707E-01
       -1   -1    0    0    0  501  0.00000000000E+00  0.00000000000E+00  0.13987723476E+04  0.13987723476E+04  0.50400001928E-02 0.  1.
        1   -1    0    0  501    0  0.00000000000E+00  0.00000000000E+00 -0.86451721326E+03  0.86451721328E+03  0.50400001928E-02 0. -1.
    10030    2    1    2    0    0  0.00000000000E+00  0.00000000000E+00  0.53425513431E+03  0.22632895609E+04  0.21993296906E+04 0.  0.
        1    1    3    3  502    0  0.64319757527E+03  0.12939939527E+03  0.11752973792E+04  0.13460205251E+04  0.50400001928E-02 0.  1.
       -1    1    3    3    0  502 -0.64319757527E+03 -0.12939939527E+03 -0.64104224487E+03  0.91726903581E+03  0.50400001928E-02 0. -1.
</event>
<event>
 5   0  0.1144271E-06  0.2199396E+04  0.7818609E-02  0.8518679E-01
       -1   -1    0    0    0  501  0.00000000000E+00  0.00000000000E+00  0.88124902002E+03  0.88124902004E+03  0.50400001928E-02 0.  1.
        1   -1    0    0  501    0  0.00000000000E+00  0.00000000000E+00 -0.13722978212E+04  0.13722978212E+04  0.50400001928E-02 0. -1.
    10030    2    1    2    0    0  0.00000000000E+00  0.00000000000E+00 -0.49104880122E+03  0.22535468413E+04  0.21993963810E+04 0.  0.
        3    1    3    3  502    0 -0.28946155181E+03 -0.10518912939E+04 -0.10401982255E+03  0.10959395138E+04  0.10100000352E+00 0. -1.
       -3    1    3    3    0  502  0.28946155181E+03  0.10518912939E+04 -0.38702897867E+03  0.11576073275E+04  0.10100000352E+00 0.  1.
</event>
<event>
 5   0  0.1107101E-06  0.2191799E+04  0.7818609E-02  0.8521849E-01
        1   -1    0    0  501    0  0.00000000000E+00  0.00000000000E+00  0.15916485828E+04  0.15916485828E+04  0.50400001928E-02 0. -1.
       -1   -1    0    0    0  501  0.00000000000E+00  0.00000000000E+00 -0.75456119464E+03  0.75456119465E+03  0.50400001928E-02 0.  1.
    10030    2    1    2    0    0  0.00000000000E+00  0.00000000000E+00  0.83708738820E+03  0.23462097775E+04  0.21917994946E+04 0.  0.
        1    1    3    3  502    0 -0.11616083346E+02 -0.10130018005E+03 -0.74947255160E+03  0.75637673517E+03  0.50400001928E-02 0.  1.
       -1    1    3    3    0  502  0.11616083346E+02  0.10130018005E+03  0.15865599398E+04  0.15898330423E+04  0.50400001928E-02 0. -1.
</event>
<event>
 5   0  0.1146827E-06  0.2200029E+04  0.7818609E-02  0.8518416E-01
       -1   -1    0    0    0  501  0.00000000000E+00  0.00000000000E+00  0.84286476746E+03  0.84286476747E+03  0.50400001928E-02 0. -1.
        1   -1    0    0  501    0  0.00000000000E+00  0.00000000000E+00 -0.14356181561E+04  0.14356181561E+04  0.50400001928E-02 0.  1.
    10030    2    1    2    0    0  0.00000000000E+00  0.00000000000E+00 -0.59275338861E+03  0.22784829236E+04  0.22000290574E+04 0.  0.
        4    1    3    3  502    0 -0.13797812551E+03 -0.78124115503E+03  0.49280374712E+03  0.93393407235E+03  0.12699999809E+01 0.  1.
       -4    1    3    3    0  502  0.13797812551E+03  0.78124115503E+03 -0.10855571357E+04  0.13445488512E+04  0.12699999809E+01 0. -1.
</event>
<event>
 5   0  0.2524749E-06  0.2199924E+04  0.7818609E-02  0.8518460E-01
        2   -1    0    0  501    0  0.00000000000E+00  0.00000000000E+00  0.12880608340E+04  0.12880608340E+04  0.25500000920E-02 0.  1.
       -2   -1    0    0    0  501  0.00000000000E+00  0.00000000000E+00 -0.93933197229E+03  0.93933197229E+03  0.25500000920E-02 0. -1.
    10030    2    1    2    0    0  0.00000000000E+00  0.00000000000E+00  0.34872886175E+03  0.22273928063E+04  0.21999242929E+04 0.  0.
        4    1    3    3  502    0 -0.71917467990E+03 -0.74124888860E+03 -0.20884916009E+03  0.10536990650E+04  0.12699999809E+01 0.  1.
       -4    1    3    3    0  502  0.71917467990E+03  0.74124888860E+03  0.55757802184E+03  0.11736937413E+04  0.12699999809E+01 0. -1.
</event>
<event>
 5   0  0.2556869E-06  0.2195718E+04  0.7818609E-02  0.8520212E-01
       -2   -1    0    0    0  501  0.00000000000E+00  0.00000000000E+00  0.16241400244E+04  0.16241400244E+04  0.25500000920E-02 0. -1.
        2   -1    0    0  501    0  0.00000000000E+00  0.00000000000E+00 -0.74211253105E+03  0.74211253106E+03  0.25500000920E-02 0.  1.
    10030    2    1    2    0    0  0.00000000000E+00  0.00000000000E+00  0.88202749332E+03  0.23662525554E+04  0.21957182554E+04 0.  0.
        5    1    3    3  502    0 -0.20630393483E+03 -0.52786072838E+03 -0.57226485008E+03  0.80542374606E+03  0.46999998093E+01 0.  1.
       -5    1    3    3    0  502  0.20630393483E+03  0.52786072838E+03  0.14542923434E+04  0.15608288094E+04  0.46999998093E+01 0. -1.
</event>
<event>
 5   0  0.1107101E-06  0.2200078E+04  0.7818609E-02  0.8518396E-01
        1   -1    0    0  501    0  0.00000000000E+00  0.00000000000E+00  0.11436038314E+04  0.11436038314E+04  0.50400001928E-02 0.  1.
       -1   -1    0    0    0  501  0.00000000000E+00  0.00000000000E+00 -0.10581334912E+04  0.10581334913E+04  0.50400001928E-02 0. -1.
    10030    2    1    2    0    0  0.00000000000E+00  0.00000000000E+00  0.85470340131E+02  0.22017373226E+04  0.22000777393E+04 0.  0.
        1    1    3    3  502    0  0.10937646802E+04 -0.94055915123E+02  0.11291526756E+03  0.11035930176E+04  0.50400001928E-02 0.  1.
       -1    1    3    3    0  502 -0.10937646802E+04  0.94055915123E+02 -0.27444927429E+02  0.10981443051E+04  0.50400001928E-02 0. -1.
</event>
<event>
 5   0  0.2532239E-06  0.2200504E+04  0.7818609E-02  0.8518218E-01
        2   -1    0    0  501    0  0.00000000000E+00  0.00000000000E+00  0.23884713016E+04  0.23884713016E+04  0.25500000920E-02 0.  1.
       -2   -1    0    0    0  501  0.00000000000E+00  0.00000000000E+00 -0.50683245439E+03  0.50683245439E+03  0.25500000920E-02 0. -1.
    10030    2    1    2    0    0  0.00000000000E+00  0.00000000000E+00  0.18816388472E+04  0.28953037560E+04  0.22005042804E+04 0.  0.
        3    1    3    3  502    0 -0.15312972179E+03 -0.47884257478E+02 -0.49135808300E+03  0.51688914647E+03  0.10100000352E+00 0. -1.
       -3    1    3    3    0  502  0.15312972179E+03  0.47884257478E+02  0.23729969302E+04  0.23784146095E+04  0.10100000352E+00 0.  1.
</event>
<event>
 5   0  0.2581058E-06  0.2202476E+04  0.7818609E-02  0.8517398E-01
        2   -1    0    0  501    0  0.00000000000E+00  0.00000000000E+00  0.21346125775E+04  0.21346125775E+04  0.25500000920E-02 0. -1.
       -2   -1    0    0    0  501  0.00000000000E+00  0.00000000000E+00 -0.56812426518E+03  0.56812426519E+03  0.25500000920E-02 0.  1.
    10030    2    1    2    0    0  0.00000000000E+00  0.00000000000E+00  0.15664883124E+04  0.27027368427E+04  0.22024760630E+04 0.  0.
        1    1    3    3  502    0 -0.72213560264E+02 -0.30636950937E+02 -0.56469145365E+03  0.57011389994E+03  0.50400001928E-02 0.  1.
       -1    1    3    3    0  502  0.72213560264E+02  0.30636950937E+02  0.21311797660E+04  0.21326229428E+04  0.50400001928E-02 0. -1.
</event>
<event>
 5   0  0.2606154E-06  0.2200872E+04  0.7818609E-02  0.8518065E-01
        2   -1    0    0  501    0  0.00000000000E+00  0.00000000000E+00  0.13921515242E+04  0.13921515242E+04  0.25500000920E-02 0. -1.
       -2   -1    0    0    0  501  0.00000000000E+00  0.00000000000E+00 -0.86984765479E+03  0.86984765480E+03  0.25500000920E-02 0.  1.
    10030    2    1    2    0    0  0.00000000000E+00  0.00000000000E+00  0.52230386937E+03  0.22619991790E+04  0.22008723165E+04 0.  0.
        2    1    3    3  502    0  0.61896259394E+03 -0.80454600492E+03 -0.17556222132E+03  0.10301606963E+04  0.25500000920E-02 0.  1.
       -2    1    3    3    0  502 -0.61896259394E+03  0.80454600492E+03  0.69786609069E+03  0.12318384826E+04  0.25500000920E-02 0. -1.
</event>
<event>
 5   0  0.1082209E-06  0.2200115E+04  0.7818609E-02  0.8518380E-01
       -1   -1    0    0    0  501  0.00000000000E+00  0.00000000000E+00  0.10717074463E+04  0.10717074463E+04  0.50400001928E-02 0. -1.
        1   -1    0    0  501    0  0.00000000000E+00  0.00000000000E+00 -0.11291573615E+04  0.11291573616E+04  0.50400001928E-02 0.  1.
    10030    2    1    2    0    0  0.00000000000E+00  0.00000000000E+00 -0.57449915284E+02  0.22008648078E+04  0.22001148628E+04 0.  0.
        2    1    3    3  502    0  0.69438499223E+02 -0.10374544948E+04 -0.38800308393E+03  0.11098107618E+04  0.25500000920E-02 0.  1.
       -2    1    3    3    0  502 -0.69438499223E+02  0.10374544948E+04  0.33055316865E+03  0.10910540460E+04  0.25500000920E-02 0. -1.
</event>
<event>
 5   0  0.1146827E-06  0.2204495E+04  0.7818609E-02  0.8516559E-01
        1   -1    0    0  501    0  0.00000000000E+00  0.00000000000E+00  0.17263303645E+04  0.17263303645E+04  0.50400001928E-02 0.  1.
       -1   -1    0    0    0  501  0.00000000000E+00  0.00000000000E+00 -0.70377611391E+03  0.70377611393E+03  0.50400001928E-02 0. -1.
    10030    2    1    2    0    0  0.00000000000E+00  0.00000000000E+00  0.10225542505E+04  0.24301064784E+04  0.22044954754E+04 0.  0.
        4    1    3    3  502    0 -0.15943899154E+03 -0.51532702208E+03 -0.54832793416E+03  0.76918649753E+03  0.12699999809E+01 0. -1.
       -4    1    3    3    0  502  0.15943899154E+03  0.51532702208E+03  0.15708821847E+04  0.16609199809E+04  0.12699999809E+01 0.  1.
</event>
<event>
 5   0  0.2556869E-06  0.2198784E+04  0.7818609E-02  0.8518934E-01
        2   -1    0    0  501    0  0.00000000000E+00  0.00000000000E+00  0.15709182819E+04  0.15709182819E+04  0.25500000920E-02 0. -1.
       -2   -1    0    0    0  501  0.00000000000E+00  0.00000000000E+00 -0.76939883235E+03  0.76939883235E+03  0.25500000920E-02 0.  1.
    10030    2    1    2    0    0  0.00000000000E+00  0.00000000000E+00  0.80151944950E+03  0.23403171142E+04  0.21987839292E+04 0.  0.
        5    1    3    3  502    0  0.16410373598E+03 -0.35254220408E+03  0.14952624596E+04  0.15450074287E+04  0.46999998093E+01 0. -1.
       -5    1    3    3    0  502 -0.16410373598E+03  0.35254220408E+03 -0.69374301006E+03  0.79530968549E+03  0.46999998093E+01 0.  1.
</event>
<event>
 5   0  0.1082209E-06  0.2199804E+04  0.7818609E-02  0.8518510E-01
       -1   -1    0    0    0  501  0.00000000000E+00  0.00000000000E+00  0.73125137623E+03  0.73125137625E+03  0.50400001928E-02 0.  1.
        1   -1    0    0  501    0  0.00000000000E+00  0.00000000000E+00 -0.16544026595E+04  0.16544026595E+04  0.50400001928E-02 0. -1.
    10030    2    1    2    0    0  0.00000000000E+00  0.00000000000E+00 -0.92315128322E+03  0.23856540357E+04  0.21998038291E+04 0.  0.
        2    1    3    3  502    0 -0.50688636826E+03  0.81344055124E+03 -0.10467604186E+04  0.14192697751E+04  0.25500000920E-02 0. -1.
       -2    1    3    3    0  502  0.50688636826E+03 -0.81344055124E+03  0.12360913535E+03  0.96638426057E+03  0.25500000920E-02 0.  1.
</event>
<event>
 5   0  0.1137869E-06  0.2200368E+04  0.7818609E-02  0.8518275E-01
       -1   -1    0    0    0  501  0.00000000000E+00  0.00000000000E+00  0.72079595375E+03  0.72079595377E+03  0.50400001928E-02 0. -1.
        1   -1    0    0  501    0  0.00000000000E+00  0.00000000000E+00 -0.16792612561E+04  0.16792612561E+04  0.50400001928E-02 0.  1.
    10030    2    1    2    0    0  0.00000000000E+00  0.00000000000E+00 -0.95846530233E+03  0.24000572099E+04  0.22003678953E+04 0.  0.
        5    1    3    3  502    0 -0.66221138809E+03 -0.81364160720E+03 -0.11772416271E+03  0.10556598202E+04  0.46999998093E+01 0.  1.
       -5    1    3    3    0  502  0.66221138809E+03  0.81364160720E+03 -0.84074113961E+03  0.13443973897E+04  0.46999998093E+01 0. -1.
</event>
<event>
 5   0  0.1146827E-06  0.2199368E+04  0.7818609E-02  0.8518691E-01
       -1   -1    0    0    0  501  0.00000000000E+00  0.00000000000E+00  0.56538543964E+03  0.56538543966E+03  0.50400001928E-02 0.  1.
        1   -1    0    0  501    0  0.00000000000E+00  0.00000000000E+00 -0.21389036287E+04  0.21389036287E+04  0.50400001928E-02 0. -1.
    10030    2    1    2    0    0  0.00000000000E+00  0.00000000000E+00 -0.15735181891E+04  0.27042890684E+04  0.21993680624E+04 0.  0.
        4    1    3    3  502    0  0.72357586151E+03  0.34797244317E+03 -0.17107067483E+04  0.18897529045E+04  0.12699999809E+01 0. -1.
       -4    1    3    3    0  502 -0.72357586151E+03 -0.34797244317E+03  0.13718855922E+03  0.81453616387E+03  0.12699999809E+01 0.  1.
</event>
<event>
 5   0  0.1144271E-06  0.2199884E+04  0.7818609E-02  0.8518477E-01
       -1   -1    0    0    0  501  0.00000000000E+00  0.00000000000E+00  0.78031485174E+03  0.78031485176E+03  0.50400001928E-02 0.  1.
        1   -1    0    0  501    0  0.00000000000E+00  0.00000000000E+00 -0.15504920954E+04  0.15504920954E+04  0.50400001928E-02 0. -1.
    10030    2    1    2    0    0  0.00000000000E+00  0.00000000000E+00 -0.77017724362E+03  0.23308069471E+04  0.21998836420E+04 0.  0.
        3    1    3    3  502    0 -0.90108281789E+03 -0.58189160933E+03 -0.12702815659E+03  0.10801315903E+04  0.10100000352E+00 0.  1.
       -3    1    3    3    0  502  0.90108281789E+03  0.58189160933E+03 -0.64314908703E+03  0.12506753568E+04  0.10100000352E+00 0. -1.
</event>
<event>
 5   0  0.1137869E-06  0.2200556E+04  0.7818609E-02  0.8518197E-01
        1   -1    0    0  501    0  0.00000000000E+00  0.00000000000E+00  0.16664631753E+04  0.16664631753E+04  0.50400001928E-02 0. -1.
       -1   -1    0    0    0  501  0.00000000000E+00  0.00000000000E+00 -0.72645562041E+03  0.72645562043E+03  0.50400001928E-02 0.  1.
    10030    2    1    2    0    0  0.00000000000E+00  0.00000000000E+00  0.94000755486E+03  0.23929187957E+04  0.22005558752E+04 0.  0.
        5    1    3    3  502    0  0.74178745041E+03 -0.78913891982E+03  0.68086315051E+03  0.12792910443E+04  0.46999998093E+01 0. -1.
       -5    1    3    3    0  502 -0.74178745041E+03  0.78913891982E+03  0.25914440435E+03  0.11136277514E+04  0.46999998093E+01 0.  1.
</event>
<event>
 5   0  0.1107101E-06  0.2199542E+04  0.7818609E-02  0.8518619E-01
       -1   -1    0    0    0  501  0.00000000000E+00  0.00000000000E+00  0.48264709617E+03  0.48264709619E+03  0.50400001928E-02 0. -1.
        1   -1    0    0  501    0  0.00000000000E+00  0.00000000000E+00 -0.25059634494E+04  0.25059634494E+04  0.50400001928E-02 0.  1.
    10030    2    1    2    0    0  0.00000000000E+00  0.00000000000E+00 -0.20233163532E+04  0.29886105456E+04  0.21995417541E+04 0.  0.
        1    1    3    3  502    0  0.74947916498E+03  0.12317803046E+03  0.69036786840E+02  0.76266501420E+03  0.50400001928E-02 0. -1.
       -1    1    3    3    0  502 -0.74947916498E+03 -0.12317803046E+03 -0.20923531400E+04  0.22259455314E+04  0.50400001928E-02 0.  1.
</event>
<event>
 5   0  0.8905000E-07  0.2200445E+04  0.7818609E-02  0.8518243E-01
       -3   -1    0    0    0  501  0.00000000000E+00  0.00000000000E+00  0.10339545349E+04  0.10339545398E+04  0.10100000352E+00 0.  1.
        3   -1    0    0  501    0  0.00000000000E+00  0.00000000000E+00 -0.11707373736E+04  0.11707373779E+04  0.10100000352E+00 0. -1.
    10030    2    1    2    0    0  0.00000000000E+00  0.00000000000E+00 -0.13678283873E+03  0.22046919177E+04  0.22004447067E+04 0.  0.
        3    1    3    3  502    0  0.29570807853E+03  0.48249668443E+03 -0.10137394177E+04  0.11609969576E+04  0.10100000352E+00 0. -1.
       -3    1    3    3    0  502 -0.29570807853E+03 -0.48249668443E+03  0.87695657901E+03  0.10436949602E+04  0.10100000352E+00 0.  1.
</event>
<event>
 5   0  0.2581058E-06  0.2200828E+04  0.7818609E-02  0.8518084E-01
       -2   -1    0    0    0  501  0.00000000000E+00  0.00000000000E+00  0.87662541135E+03  0.87662541136E+03  0.25500000920E-02 0. -1.
        2   -1    0    0  501    0  0.00000000000E+00  0.00000000000E+00 -0.13813324176E+04  0.13813324176E+04  0.25500000920E-02 0.  1.
    10030    2    1    2    0    0  0.00000000000E+00  0.00000000000E+00 -0.50470700629E+03  0.22579578290E+04  0.22008281158E+04 0.  0.
        1    1    3    3  502    0 -0.96382275546E+03  0.52787611117E+03 -0.31132251252E+03  0.11421598835E+04  0.50400001928E-02 0.  1.
       -1    1    3    3    0  502  0.96382275546E+03 -0.52787611117E+03 -0.19338449376E+03  0.11157979455E+04  0.50400001928E-02 0. -1.
</event>
<event>
 5   0  0.1107101E-06  0.2201124E+04  0.7818609E-02  0.8517960E-01
        1   -1    0    0  501    0  0.00000000000E+00  0.00000000000E+00  0.19191041086E+04  0.19191041086E+04  0.50400001928E-02 0. -1.
       -1   -1    0    0    0  501  0.00000000000E+00  0.00000000000E+00 -0.63114685626E+03  0.63114685628E+03  0.50400001928E-02 0.  1.
    10030    2    1    2    0    0  0.00000000000E+00  0.00000000000E+00  0.12879572524E+04  0.25502509649E+04  0.22011238266E+04 0.  0.
        1    1    3    3  502    0  0.91210792955E+03 -0.52268980104E+03  0.10213576543E+04  0.14657138060E+04  0.50400001928E-02 0.  1.
       -1    1    3    3    0  502 -0.91210792955E+03  0.52268980104E+03  0.26659959810E+03  0.10845371589E+04  0.50400001928E-02 0. -1.
</event>
<event>
 5   0  0.2524749E-06  0.2200559E+04  0.7818609E-02  0.8518196E-01
        2   -1    0    0  501    0  0.00000000000E+00  0.00000000000E+00  0.77439231385E+03  0.77439231385E+03  0.25500000920E-02 0. -1.
       -2   -1    0    0    0  501  0.00000000000E+00  0.00000000000E+00 -0.15633089860E+04  0.15633089860E+04  0.25500000920E-02 0.  1.
    10030    2    1    2    0    0  0.00000000000E+00  0.00000000000E+00 -0.78891667211E+03  0.23377012998E+04  0.22005585317E+04 0.  0.
        4    1    3    3  502    0  0.70514330984E+03 -0.59315335844E+03  0.24430972521E+03  0.95328214541E+03  0.12699999809E+01 0. -1.
       -4    1    3    3    0  502 -0.70514330984E+03  0.59315335844E+03 -0.10332263973E+04  0.13844191544E+04  0.12699999809E+01 0.  1.
</event>
<event>
 5   0  0.2556869E-06  0.2197608E+04  0.7818609E-02  0.8519424E-01
       -2   -1    0    0    0  501  0.00000000000E+00  0.00000000000E+00  0.54817781790E+03  0.54817781790E+03  0.25500000920E-02 0. -1.
        2   -1    0    0  501    0  0.00000000000E+00  0.00000000000E+00 -0.22025155851E+04  0.22025155851E+04  0.25500000920E-02 0.  1.
    10030    2    1    2    0    0  0.00000000000E+00  0.00000000000E+00 -0.16543377673E+04  0.27506934030E+04  0.21976079608E+04 0.  0.
        5    1    3    3  502    0  0.41518015936E+03 -0.49139615041E+03  0.28780924968E+03  0.70477017215E+03  0.46999998093E+01 0. -1.
       -5    1    3    3    0  502 -0.41518015936E+03  0.49139615041E+03 -0.19421470169E+04  0.20459232309E+04  0.46999998093E+01 0.  1.
</event>
<event>
 5   0  0.1082209E-06  0.2200394E+04  0.7818609E-02  0.8518264E-01
        1   -1    0    0  501    0  0.00000000000E+00  0.00000000000E+00  0.68458394406E+03  0.68458394407E+03  0.50400001928E-02 0. -1.
       -1   -1    0    0    0  501  0.00000000000E+00  0.00000000000E+00 -0.17681295900E+04  0.17681295900E+04  0.50400001928E-02 0.  1.
    10030    2    1    2    0    0  0.00000000000E+00  0.00000000000E+00 -0.10835456459E+04  0.24527135340E+04  0.22003937178E+04 0.  0.
        2    1    3    3  502    0 -0.13960876462E+03 -0.71288333339E+03  0.37925778924E+03  0.81946917263E+03  0.25500000920E-02 0. -1.
       -2    1    3    3    0  502  0.13960876462E+03  0.71288333339E+03 -0.14628034351E+04  0.16332443614E+04  0.25500000920E-02 0.  1.
</event>
<event>
 5   0  0.1107101E-06  0.2199984E+04  0.7818609E-02  0.8518435E-01
        1   -1    0    0  501    0  0.00000000000E+00  0.00000000000E+00  0.16307798139E+04  0.16307798139E+04  0.50400001928E-02 0. -1.
       -1   -1    0    0    0  501  0.00000000000E+00  0.00000000000E+00 -0.74196578028E+03  0.74196578029E+03  0.50400001928E-02 0.  1.
    10030    2    1    2    0    0  0.00000000000E+00  0.00000000000E+00  0.88881403361E+03  0.23727455942E+04  0.21999843791E+04 0.  0.
        1    1    3    3  502    0  0.90654026063E+03  0.42721246776E+03  0.93351349092E+03  0.13695886881E+04  0.50400001928E-02 0. -1.
       -1    1    3    3    0  502 -0.90654026063E+03 -0.42721246776E+03 -0.44699457310E+02  0.10031569061E+04  0.50400001928E-02 0.  1.
</event>
<event>
 5   0  0.2606154E-06  0.2202667E+04  0.7818609E-02  0.8517319E-01
        2   -1    0    0  501    0  0.00000000000E+00  0.00000000000E+00  0.97351194574E+03  0.97351194575E+03  0.25500000920E-02 0. -1.
       -2   -1    0    0    0  501  0.00000000000E+00  0.00000000000E+00 -0.12459384976E+04  0.12459384976E+04  0.25500000920E-02 0.  1.
    10030    2    1    2    0    0  0.00000000000E+00  0.00000000000E+00 -0.27242655184E+03  0.22194504433E+04  0.22026674838E+04 0.  0.
        2    1    3    3  502    0  0.83094102705E+03  0.26127242645E+02 -0.86406773824E+03  0.11990657528E+04  0.25500000920E-02 0.  1.
       -2    1    3    3    0  502 -0.83094102705E+03 -0.26127242645E+02  0.59164118640E+03  0.10203846905E+04  0.25500000920E-02 0. -1.
</event>
<event>
 5   0  0.1144271E-06  0.2199405E+04  0.7818609E-02  0.8518676E-01
        1   -1    0    0  501    0  0.00000000000E+00  0.00000000000E+00  0.10378517114E+04  0.10378517114E+04  0.50400001928E-02 0.  1.
       -1   -1    0    0    0  501  0.00000000000E+00  0.00000000000E+00 -0.11652395305E+04  0.11652395306E+04  0.50400001928E-02 0. -1.
    10030    2    1    2    0    0  0.00000000000E+00  0.00000000000E+00 -0.12738781916E+03  0.22030912419E+04  0.21994052296E+04 0.  0.
        3    1    3    3  502    0  0.87014028986E+03  0.66817839767E+03 -0.13957927698E+03  0.11059334880E+04  0.10100000352E+00 0. -1.
       -3    1    3    3    0  502 -0.87014028986E+03 -0.66817839767E+03  0.12191457829E+02  0.10971577539E+04  0.10100000352E+00 0.  1.
</event>
<event>
 5   0  0.1144271E-06  0.2199536E+04  0.7818609E-02  0.8518621E-01
       -1   -1    0    0    0  501  0.00000000000E+00  0.00000000000E+00  0.11858172282E+04  0.11858172282E+04  0.50400001928E-02 0. -1.
        1   -1    0    0  501    0  0.00000000000E+00  0.00000000000E+00 -0.10199634053E+04  0.10199634054E+04  0.50400001928E-02 0.  1.
    10030    2    1    2    0    0  0.00000000000E+00  0.00000000000E+00  0.16585382286E+03  0.22057806336E+04  0.21995364768E+04 0.  0.
        3    1    3    3  502    0  0.10002897116E+04  0.15267261041E+03  0.51496512988E+03  0.11353755010E+04  0.10100000352E+00 0. -1.
       -3    1    3    3    0  502 -0.10002897116E+04 -0.15267261041E+03 -0.34911130702E+03  0.10704051326E+04  0.10100000352E+00 0.  1.
</event>
<event>
 5   0  0.2606154E-06  0.2198137E+04  0.7818609E-02  0.8519204E-01
       -2   -1    0    0    0  501  0.00000000000E+00  0.00000000000E+00  0.83021360708E+03  0.83021360708E+03  0.25500000920E-02 0. -1.
        2   -1    0    0  501    0  0.00000000000E+00  0.00000000000E+00 -0.14549889732E+04  0.14549889732E+04  0.25500000920E-02 0.  1.
    10030    2    1    2    0    0  0.00000000000E+00  0.00000000000E+00 -0.62477536615E+03  0.22852025803E+04  0.21981370692E+04 0.  0.
        2    1    3    3  502    0  0.10366382091E+04  0.33127938180E+03 -0.15272449341E+03  0.10989493056E+04  0.25500000920E-02 0. -1.
       -2    1    3    3    0  502 -0.10366382091E+04 -0.33127938180E+03 -0.47205087274E+03  0.11862532747E+04  0.25500000920E-02 0.  1.
</event>
<event>
 5   0  0.1137869E-06  0.2205755E+04  0.7818609E-02  0.8516037E-01
       -1   -1    0    0    0  501  0.00000000000E+00  0.00000000000E+00  0.87375828416E+03  0.87375828418E+03  0.50400001928E-02 0. -1.
        1   -1    0    0  501    0  0.00000000000E+00  0.00000000000E+00 -0.13920769310E+04  0.13920769311E+04  0.50400001928E-02 0.  1.
    10030    2    1    2    0    0  0.00000000000E+00  0.00000000000E+00 -0.51831864688E+03  0.22658352152E+04  0.22057549734E+04 0.  0.
        5    1    3    3  502    0  0.95163481948E+02  0.72917916789E+03  0.58515173310E+03  0.93977815889E+03  0.46999998093E+01 0. -1.
       -5    1    3    3    0  502 -0.95163481948E+02 -0.72917916789E+03 -0.11034703800E+04  0.13260570563E+04  0.46999998093E+01 0.  1.
</event>
<event>
 5   0  0.2532239E-06  0.2200187E+04  0.7818609E-02  0.8518350E-01
        2   -1    0    0  501    0  0.00000000000E+00  0.00000000000E+00  0.13526285976E+04  0.13526285976E+04  0.25500000920E-02 0.  1.
       -2   -1    0    0    0  501  0.00000000000E+00  0.00000000000E+00 -0.89470671113E+03  0.89470671114E+03  0.25500000920E-02 0. -1.
    10030    2    1    2    0    0  0.00000000000E+00  0.00000000000E+00  0.45792188650E+03  0.22473353088E+04  0.22001871593E+04 0.  0.
        3    1    3    3  502    0  0.93216359027E+03 -0.57364145921E+03  0.11608312662E+03  0.11006674272E+04  0.10100000352E+00 0. -1.
       -3    1    3    3    0  502 -0.93216359027E+03  0.57364145921E+03  0.34183875988E+03  0.11466678816E+04  0.10100000352E+00 0.  1.
</event>
<event>
 5   0  0.2532239E-06  0.2203134E+04  0.7818609E-02  0.8517125E-01
        2   -1    0    0  501    0  0.00000000000E+00  0.00000000000E+00  0.11432635619E+04  0.11432635619E+04  0.25500000920E-02 0.  1.
       -2   -1    0    0    0  501  0.00000000000E+00  0.00000000000E+00 -0.10613908446E+04  0.10613908446E+04  0.25500000920E-02 0. -1.
    10030    2    1    2    0    0  0.00000000000E+00  0.00000000000E+00  0.81872717362E+02  0.22046544065E+04  0.22031336569E+04 0.  0.
        3    1    3    3  502    0  0.14990609216E+03  0.96751468071E+03 -0.46428139951E+03  0.10835652828E+04  0.10100000352E+00 0. -1.
       -3    1    3    3    0  502 -0.14990609216E+03 -0.96751468071E+03  0.54615411687E+03  0.11210891238E+04  0.10100000352E+00 0.  1.
</event>
<event>
 5   0  0.2606154E-06  0.2201028E+04  0.7818609E-02  0.8518000E-01
        2   -1    0    0  501    0  0.00000000000E+00  0.00000000000E+00  0.17190103879E+04  0.17190103879E+04  0.25500000920E-02 0. -1.
       -2   -1    0    0    0  501  0.00000000000E+00  0.00000000000E+00 -0.70455128042E+03  0.70455128042E+03  0.25500000920E-02 0.  1.
    10030    2    1    2    0    0  0.00000000000E+00  0.00000000000E+00  0.10144591075E+04  0.24235616683E+04  0.22010279143E+04 0.  0.
        2    1    3    3  502    0 -0.61309317278E+03  0.40024472260E+03  0.14119139594E+04  0.15904653738E+04  0.25500000920E-02 0. -1.
       -2    1    3    3    0  502  0.61309317278E+03 -0.40024472260E+03 -0.39745485198E+03  0.83309629447E+03  0.25500000920E-02 0.  1.
</event>
<event>
 5   0  0.1146827E-06  0.2200284E+04  0.7818609E-02  0.8518310E-01
        1   -1    0    0  501    0  0.00000000000E+00  0.00000000000E+00  0.12936254999E+04  0.12936255000E+04  0.50400001928E-02 0. -1.
       -1   -1    0    0    0  501  0.00000000000E+00  0.00000000000E+00 -0.93559688223E+03  0.93559688224E+03  0.50400001928E-02 0.  1.
    10030    2    1    2    0    0  0.00000000000E+00  0.00000000000E+00  0.35802861772E+03  0.22292223822E+04  0.22002836040E+04 0.  0.
        4    1    3    3  502    0  0.77483520988E+03  0.55718881091E+03  0.73346082430E+03  0.12036591574E+04  0.12699999809E+01 0.  1.
       -4    1    3    3    0  502 -0.77483520988E+03 -0.55718881091E+03 -0.37543220658E+03  0.10255632248E+04  0.12699999809E+01 0. -1.
</event>
<event>
 5   0  0.2581058E-06  0.2200057E+04  0.7818609E-02  0.8518404E-01
        2   -1    0    0  501    0  0.00000000000E+00  0.00000000000E+00  0.12936298356E+04  0.12936298356E+04  0.25500000920E-02 0.  1.
       -2   -1    0    0    0  501  0.00000000000E+00  0.00000000000E+00 -0.93540119222E+03  0.93540119222E+03  0.25500000920E-02 0. -1.
    10030    2    1    2    0    0  0.00000000000E+00  0.00000000000E+00  0.35822864339E+03  0.22290310278E+04  0.22000571725E+04 0.  0.
        1    1    3    3  502    0 -0.44632779489E+03  0.48013210403E+03 -0.71588069632E+03  0.97068043619E+03  0.50400001928E-02 0. -1.
       -1    1    3    3    0  502  0.44632779489E+03 -0.48013210403E+03  0.10741093397E+04  0.12583505916E+04  0.50400001928E-02 0.  1.
</event>
<event>
 5   0  0.2606154E-06  0.2198518E+04  0.7818609E-02  0.8519045E-01
       -2   -1    0    0    0  501  0.00000000000E+00  0.00000000000E+00  0.13526380411E+04  0.13526380411E+04  0.25500000920E-02 0. -1.
        2   -1    0    0  501    0  0.00000000000E+00  0.00000000000E+00 -0.89334375345E+03  0.89334375346E+03  0.25500000920E-02 0.  1.
    10030    2    1    2    0    0  0.00000000000E+00  0.00000000000E+00  0.45929428767E+03  0.22459817946E+04  0.21985183599E+04 0.  0.
        2    1    3    3  502    0 -0.59542098333E+03 -0.14263724489E+03 -0.70302441207E+03  0.93226329703E+03  0.25500000920E-02 0.  1.
       -2    1    3    3    0  502  0.59542098333E+03  0.14263724489E+03  0.11623186997E+04  0.13137184975E+04  0.25500000920E-02 0. -1.
</event>
<event>
 5   0  0.2581058E-06  0.2198730E+04  0.7818609E-02  0.8518957E-01
       -2   -1    0    0    0  501  0.00000000000E+00  0.00000000000E+00  0.83191924946E+03  0.83191924947E+03  0.25500000920E-02 0. -1.
        2   -1    0    0  501    0  0.00000000000E+00  0.00000000000E+00 -0.14527887988E+04  0.14527887988E+04  0.25500000920E-02 0.  1.
    10030    2    1    2    0    0  0.00000000000E+00  0.00000000000E+00 -0.62086954935E+03  0.22847080483E+04  0.21987296033E+04 0.  0.
        1    1    3    3  502    0 -0.86259347236E+03  0.55755202727E+03 -0.71777297180E+03  0.12530482037E+04  0.50400001928E-02 0.  1.
       -1    1    3    3    0  502  0.86259347236E+03 -0.55755202727E+03  0.96903422453E+02  0.10316598446E+04  0.50400001928E-02 0. -1.
</event>
<event>
 5   0  0.2532239E-06  0.2199598E+04  0.7818609E-02  0.8518596E-01
        2   -1    0    0  501    0  0.00000000000E+00  0.00000000000E+00  0.81594049818E+03  0.81594049818E+03  0.25500000920E-02 0.  1.
       -2   -1    0    0    0  501  0.00000000000E+00  0.00000000000E+00 -0.14824090305E+04  0.14824090305E+04  0.25500000920E-02 0. -1.
    10030    2    1    2    0    0  0.00000000000E+00  0.00000000000E+00 -0.66646853231E+03  0.22983495287E+04  0.21995977476E+04 0.  0.
        3    1    3    3  502    0  0.50108405281E+02  0.86175020175E+03 -0.10453236002E+04  0.13556643028E+04  0.10100000352E+00 0. -1.
       -3    1    3    3    0  502 -0.50108405281E+02 -0.86175020175E+03  0.37885506787E+03  0.94268522591E+03  0.10100000352E+00 0.  1.
</event>
<event>
 5   0  0.1082209E-06  0.2200218E+04  0.7818609E-02  0.8518337E-01
       -1   -1    0    0    0  501  0.00000000000E+00  0.00000000000E+00  0.59506108897E+03  0.59506108899E+03  0.50400001928E-02 0.  1.
        1   -1    0    0  501    0  0.00000000000E+00  0.00000000000E+00 -0.20338078947E+04  0.20338078947E+04  0.50400001928E-02 0. -1.
    10030    2    1    2    0    0  0.00000000000E+00  0.00000000000E+00 -0.14387468057E+04  0.26288689837E+04  0.22002181170E+04 0.  0.
        2    1    3    3  502    0 -0.46910928403E+01  0.10610110666E+04 -0.10666402498E+04  0.15044892530E+04  0.25500000920E-02 0. -1.
       -2    1    3    3    0  502  0.46910928403E+01 -0.10610110666E+04 -0.37210655588E+03  0.11243797307E+04  0.25500000920E-02 0.  1.
</event>
<event>
 5   0  0.2532239E-06  0.2200029E+04  0.7818609E-02  0.8518416E-01
       -2   -1    0    0    0  501  0.00000000000E+00  0.00000000000E+00  0.93767681633E+03  0.93767681633E+03  0.25500000920E-02 0.  1.
        2   -1    0    0  501    0  0.00000000000E+00  0.00000000000E+00 -0.12904573793E+04  0.12904573793E+04  0.25500000920E-02 0. -1.
    10030    2    1    2    0    0  0.00000000000E+00  0.00000000000E+00 -0.35278056293E+03  0.22281341956E+04  0.22000290607E+04 0.  0.
        3    1    3    3  502    0  0.44764254892E+02 -0.63958116692E+03 -0.10816569815E+04  0.12573980052E+04  0.10100000352E+00 0. -1.
       -3    1    3    3    0  502 -0.44764254892E+02  0.63958116692E+03  0.72887641859E+03  0.97073619041E+03  0.10100000352E+00 0.  1.
</event>
<event>
 5   0  0.2524749E-06  0.2200438E+04  0.7818609E-02  0.8518246E-01
        2   -1    0    0  501    0  0.00000000000E+00  0.00000000000E+00  0.15412467061E+04  0.15412467061E+04  0.25500000920E-02 0. -1.
       -2   -1    0    0    0  501  0.00000000000E+00  0.00000000000E+00 -0.78539141885E+03  0.78539141886E+03  0.25500000920E-02 0.  1.
    10030    2    1    2    0    0  0.00000000000E+00  0.00000000000E+00  0.75585528728E+03  0.23266381250E+04  0.22004380812E+04 0.  0.
        4    1    3    3  502    0 -0.64235937363E+03  0.86973119389E+03  0.16273007065E+03  0.10934077937E+04  0.12699999809E+01 0.  1.
       -4    1    3    3    0  502  0.64235937363E+03 -0.86973119389E+03  0.59312521663E+03  0.12332303313E+04  0.12699999809E+01 0. -1.
</event>
<event>
 5   0  0.1107101E-06  0.2199125E+04  0.7818609E-02  0.8518793E-01
        1   -1    0    0  501    0  0.00000000000E+00  0.00000000000E+00  0.13571176972E+04  0.13571176972E+04  0.50400001928E-02 0.  1.
       -1   -1    0    0    0  501  0.00000000000E+00  0.00000000000E+00 -0.89088599347E+03  0.89088599349E+03  0.50400001928E-02 0. -1.
    10030    2    1    2    0    0  0.00000000000E+00  0.00000000000E+00  0.46623170376E+03  0.22480036907E+04  0.21991245058E+04 0.  0.
        1    1    3    3  502    0  0.17410450450E+02  0.94406188691E+03 -0.34286254304E+03  0.10045450182E+04  0.50400001928E-02 0. -1.
       -1    1    3    3    0  502 -0.17410450450E+02 -0.94406188691E+03  0.80909424680E+03  0.12434586725E+04  0.50400001928E-02 0.  1.
</event>
<event>
 5   0  0.1082209E-06  0.2202300E+04  0.7818609E-02  0.8517471E-01
        1   -1    0    0  501    0  0.00000000000E+00  0.00000000000E+00  0.89344316571E+03  0.89344316573E+03  0.50400001928E-02 0.  1.
       -1   -1    0    0    0  501  0.00000000000E+00  0.00000000000E+00 -0.13571442625E+04  0.13571442625E+04  0.50400001928E-02 0. -1.
    10030    2    1    2    0    0  0.00000000000E+00  0.00000000000E+00 -0.46370109677E+03  0.22505874282E+04  0.22022999489E+04 0.  0.
        2    1    3    3  502    0  0.38079215196E+03  0.73751136481E+03  0.50762115011E+03  0.97293623032E+03  0.25500000920E-02 0.  1.
       -2    1    3    3    0  502 -0.38079215196E+03 -0.73751136481E+03 -0.97132224688E+03  0.12776511979E+04  0.25500000920E-02 0. -1.
</event>
<event>
 5   0  0.1137869E-06  0.2192392E+04  0.7818609E-02  0.8521602E-01
       -1   -1    0    0    0  501  0.00000000000E+00  0.00000000000E+00  0.53763462899E+03  0.53763462901E+03  0.50400001928E-02 0.  1.
        1   -1    0    0  501    0  0.00000000000E+00  0.00000000000E+00 -0.22350594781E+04  0.22350594781E+04  0.50400001928E-02 0. -1.
    10030    2    1    2    0    0  0.00000000000E+00  0.00000000000E+00 -0.16974248491E+04  0.27726941071E+04  0.21923917290E+04 0.  0.
        5    1    3    3  502    0  0.98595732469E+03 -0.41195711673E+03 -0.53943767855E+03  0.11970111157E+04  0.46999998093E+01 0.  1.
       -5    1    3    3    0  502 -0.98595732469E+03  0.41195711673E+03 -0.11579871705E+04  0.15756829914E+04  0.46999998093E+01 0. -1.
</event>
<event>
 5   0  0.8905000E-07  0.2199689E+04  0.7818609E-02  0.8518558E-01
        3   -1    0    0  501    0  0.00000000000E+00  0.00000000000E+00  0.98876892061E+03  0.98876892577E+03  0.10100000352E+00 0.  1.
       -3   -1    0    0    0  501  0.00000000000E+00  0.00000000000E+00 -0.12233977745E+04  0.12233977786E+04  0.10100000352E+00 0. -1.
    10030    2    1    2    0    0  0.00000000000E+00  0.00000000000E+00 -0.23462885385E+03  0.22121667044E+04  0.21996888028E+04 0.  0.
        1    1    3    3  502    0 -0.22942994012E+03  0.32801463901E+03  0.91291160276E+03  0.99681457418E+03  0.50400001928E-02 0.  1.
       -1    1    3    3    0  502  0.22942994012E+03 -0.32801463901E+03 -0.11475404566E+04  0.12153521302E+04  0.50400001928E-02 0. -1.
</event>
<event>
 5   0  0.1144271E-06  0.2197855E+04  0.7818609E-02  0.8519322E-01
        1   -1    0    0  501    0  0.00000000000E+00  0.00000000000E+00  0.11909899565E+04  0.11909899565E+04  0.50400001928E-02 0.  1.
       -1   -1    0    0    0  501  0.00000000000E+00  0.00000000000E+00 -0.10139809372E+04  0.10139809373E+04  0.50400001928E-02 0. -1.
    10030    2    1    2    0    0  0.00000000000E+00  0.00000000000E+00  0.17700901927E+03  0.22049708938E+04  0.21978545105E+04 0.  0.
        3    1    3    3  502    0 -0.44523028303E+03  0.17220322693E+02  0.10963040509E+04  0.11833888316E+04  0.10100000352E+00 0.  1.
       -3    1    3    3    0  502  0.44523028303E+03 -0.17220322693E+02 -0.91929503164E+03  0.10215820622E+04  0.10100000352E+00 0. -1.
</event>
<event>
 5   0  0.2524749E-06  0.2199168E+04  0.7818609E-02  0.8518774E-01
       -2   -1    0    0    0  501  0.00000000000E+00  0.00000000000E+00  0.86634657035E+03  0.86634657036E+03  0.25500000920E-02 0.  1.
        2   -1    0    0  501    0  0.00000000000E+00  0.00000000000E+00 -0.13956137531E+04  0.13956137531E+04  0.25500000920E-02 0. -1.
    10030    2    1    2    0    0  0.00000000000E+00  0.00000000000E+00 -0.52926718275E+03  0.22619603235E+04  0.21991681960E+04 0.  0.
        4    1    3    3  502    0  0.51557494300E+02 -0.75600041085E+03 -0.10841834174E+04  0.13227433960E+04  0.12699999809E+01 0. -1.
       -4    1    3    3    0  502 -0.51557494300E+02  0.75600041085E+03  0.55491623461E+03  0.93921692742E+03  0.12699999809E+01 0.  1.
</event>
<event>
 5   0  0.1107101E-06  0.2199574E+04  0.7818609E-02  0.8518605E-01
        1   -1    0    0  501    0  0.00000000000E+00  0.00000000000E+00  0.18050639116E+04  0.18050639116E+04  0.50400001928E-02 0.  1.
       -1   -1    0    0    0  501  0.00000000000E+00  0.00000000000E+00 -0.67007671467E+03  0.67007671469E+03  0.50400001928E-02 0. -1.
    10030    2    1    2    0    0  0.00000000000E+00  0.00000000000E+00  0.11349871969E+04  0.24751406263E+04  0.21995738639E+04 0.  0.
        1    1    3    3  502    0 -0.75752587151E+03  0.70596276476E+03  0.98445939443E+03  0.14287719099E+04  0.50400001928E-02 0. -1.
       -1    1    3    3    0  502  0.75752587151E+03 -0.70596276476E+03  0.15052780246E+03  0.10463687164E+04  0.50400001928E-02 0.  1.
</event>
<event>
 5   0  0.2556869E-06  0.2200193E+04  0.7818609E-02  0.8518348E-01
       -2   -1    0    0    0  501  0.00000000000E+00  0.00000000000E+00  0.79479675051E+03  0.79479675051E+03  0.25500000920E-02 0.  1.
        2   -1    0    0  501    0  0.00000000000E+00  0.00000000000E+00 -0.15226690032E+04  0.15226690032E+04  0.25500000920E-02 0. -1.
    10030    2    1    2    0    0  0.00000000000E+00  0.00000000000E+00 -0.72787225265E+03  0.23174657537E+04  0.22001930605E+04 0.  0.
        5    1    3    3  502    0  0.37133840669E+02  0.82680876863E+03  0.39939737683E+03  0.91898423089E+03  0.46999998093E+01 0.  1.
       -5    1    3    3    0  502 -0.37133840669E+02 -0.82680876863E+03 -0.11272696295E+04  0.13984815228E+04  0.46999998093E+01 0. -1.
</event>
<event>
 5   0  0.2556869E-06  0.2196480E+04  0.7818609E-02  0.8519894E-01
       -2   -1    0    0    0  501  0.00000000000E+00  0.00000000000E+00  0.18684121981E+04  0.18684121981E+04  0.25500000920E-02 0. -1.
        2   -1    0    0  501    0  0.00000000000E+00  0.00000000000E+00 -0.64553822418E+03  0.64553822419E+03  0.25500000920E-02 0.  1.
    10030    2    1    2    0    0  0.00000000000E+00  0.00000000000E+00  0.12228739739E+04  0.25139504223E+04  0.21964803595E+04 0.  0.
        5    1    3    3  502    0 -0.36067781853E+03 -0.10172232048E+04  0.37890216410E+03  0.11438620883E+04  0.46999998093E+01 0. -1.
       -5    1    3    3    0  502  0.36067781853E+03  0.10172232048E+04  0.84397180978E+03  0.13700883339E+04  0.46999998093E+01 0.  1.
</event>
<event>
 5   0  0.2556869E-06  0.2201803E+04  0.7818609E-02  0.8517678E-01
       -2   -1    0    0    0  501  0.00000000000E+00  0.00000000000E+00  0.82385203238E+03  0.82385203238E+03  0.25500000920E-02 0. -1.
        2   -1    0    0  501    0  0.00000000000E+00  0.00000000000E+00 -0.14711188478E+04  0.14711188478E+04  0.25500000920E-02 0.  1.
    10030    2    1    2    0    0  0.00000000000E+00  0.00000000000E+00 -0.64726681542E+03  0.22949708802E+04  0.22018031271E+04 0.  0.
        5    1    3    3  502    0 -0.44385773326E+03  0.22313986500E+03  0.70036338079E+03  0.85868040730E+03  0.46999998093E+01 0. -1.
       -5    1    3    3    0  502  0.44385773326E+03 -0.22313986500E+03 -0.13476301962E+04  0.14362904729E+04  0.46999998093E+01 0.  1.
</event>
<event>
 5   0  0.2606154E-06  0.2199665E+04  0.7818609E-02  0.8518568E-01
       -2   -1    0    0    0  501  0.00000000000E+00  0.00000000000E+00  0.13060023552E+04  0.13060023552E+04  0.25500000920E-02 0.  1.
        2   -1    0    0  501    0  0.00000000000E+00  0.00000000000E+00 -0.92620911366E+03  0.92620911367E+03  0.25500000920E-02 0. -1.
    10030    2    1    2    0    0  0.00000000000E+00  0.00000000000E+00  0.37979324151E+03  0.22322114688E+04  0.21996647779E+04 0.  0.
        2    1    3    3  502    0  0.10508484905E+04 -0.15722573487E+03 -0.98256905444E+02  0.10670786761E+04  0.25500000920E-02 0.  1.
       -2    1    3    3    0  502 -0.10508484905E+04  0.15722573487E+03  0.47805014695E+03  0.11651327927E+04  0.25500000920E-02 0. -1.
</event>
<event>
 5   0  0.1146827E-06  0.2200228E+04  0.7818609E-02  0.8518333E-01
        1   -1    0    0  501    0  0.00000000000E+00  0.00000000000E+00  0.10288045036E+04  0.10288045036E+04  0.50400001928E-02 0.  1.
       -1   -1    0    0    0  501  0.00000000000E+00  0.00000000000E+00 -0.11763659609E+04  0.11763659610E+04  0.50400001928E-02 0. -1.
    10030    2    1    2    0    0  0.00000000000E+00  0.00000000000E+00 -0.14756145732E+03  0.22051704646E+04  0.22002278051E+04 0.  0.
        4    1    3    3  502    0 -0.20390893064E+03  0.40511707591E+03 -0.10783048266E+04  0.11698040901E+04  0.12699999809E+01 0. -1.
       -4    1    3    3    0  502  0.20390893064E+03 -0.40511707591E+03  0.93074336926E+03  0.10353663745E+04  0.12699999809E+01 0.  1.
</event>
<event>
 5   0  0.2581058E-06  0.2200032E+04  0.7818609E-02  0.8518415E-01
       -2   -1    0    0    0  501  0.00000000000E+00  0.00000000000E+00  0.12404322015E+04  0.12404322015E+04  0.25500000920E-02 0.  1.
        2   -1    0    0  501    0  0.00000000000E+00  0.00000000000E+00 -0.97549467567E+03  0.97549467568E+03  0.25500000920E-02 0. -1.
    10030    2    1    2    0    0  0.00000000000E+00  0.00000000000E+00  0.26493752583E+03  0.22159268772E+04  0.22000318253E+04 0.  0.
        1    1    3    3  502    0  0.58164332452E+03  0.32412485304E+03  0.10143913192E+04  0.12134066201E+04  0.50400001928E-02 0.  1.
       -1    1    3    3    0  502 -0.58164332452E+03 -0.32412485304E+03 -0.74945379338E+03  0.10025202570E+04  0.50400001928E-02 0. -1.
</event>
<event>
 5   0  0.2556869E-06  0.2200565E+04  0.7818609E-02  0.8518193E-01
        2   -1    0    0  501    0  0.00000000000E+00  0.00000000000E+00  0.72004268718E+03  0.72004268719E+03  0.25500000920E-02 0. -1.
       -2   -1    0    0    0  501  0.00000000000E+00  0.00000000000E+00 -0.16813193379E+04  0.16813193379E+04  0.25500000920E-02 0.  1.
    10030    2    1    2    0    0  0.00000000000E+00  0.00000000000E+00 -0.96127665071E+03  0.24013620251E+04  0.22005651039E+04 0.  0.
        5    1    3    3  502    0 -0.62243686620E+02  0.17540471444E+03 -0.16640052243E+04  0.16743884158E+04  0.46999998093E+01 0.  1.
       -5    1    3    3    0  502  0.62243686620E+02 -0.17540471444E+03  0.70272857364E+03  0.72697360927E+03  0.46999998093E+01 0. -1.
</event>
<event>
 5   0  0.2524749E-06  0.2199546E+04  0.7818609E-02  0.8518617E-01
        2   -1    0    0  501    0  0.00000000000E+00  0.00000000000E+00  0.81449519559E+03  0.81449519560E+03  0.25500000920E-02 0. -1.
       -2   -1    0    0    0  501  0.00000000000E+00  0.00000000000E+00 -0.14849689933E+04  0.14849689933E+04  0.25500000920E-02 0.  1.
    10030    2    1    2    0    0  0.00000000000E+00  0.00000000000E+00 -0.67047379768E+03  0.22994641889E+04  0.21995455082E+04 0.  0.
        4    1    3    3  502    0 -0.28803879653E+03  0.10413818588E+04 -0.54962838963E+03  0.12122439951E+04  0.12699999809E+01 0.  1.
       -4    1    3    3    0  502  0.28803879653E+03 -0.10413818588E+04 -0.12084540805E+03  0.10872201937E+04  0.12699999809E+01 0. -1.
</event>
<event>
 5   0  0.2532239E-06  0.2200378E+04  0.7818609E-02  0.8518271E-01
       -2   -1    0    0    0  501  0.00000000000E+00  0.00000000000E+00  0.11704841960E+04  0.11704841960E+04  0.25500000920E-02 0.  1.
        2   -1    0    0  501    0  0.00000000000E+00  0.00000000000E+00 -0.10341151732E+04  0.10341151732E+04  0.25500000920E-02 0. -1.
    10030    2    1    2    0    0  0.00000000000E+00  0.00000000000E+00  0.13636902271E+03  0.22045993692E+04  0.22003776649E+04 0.  0.
        3    1    3    3  502    0 -0.58928708279E+03 -0.82433752188E+03 -0.36115117112E+03  0.10757424388E+04  0.10100000352E+00 0. -1.
       -3    1    3    3    0  502  0.58928708279E+03  0.82433752188E+03  0.49752019383E+03  0.11288569304E+04  0.10100000352E+00 0.  1.
</event>
<event>
 5   0  0.2556869E-06  0.2200131E+04  0.7818609E-02  0.8518373E-01
        2   -1    0    0  501    0  0.00000000000E+00  0.00000000000E+00  0.11422344723E+04  0.11422344724E+04  0.25500000920E-02 0. -1.
       -2   -1    0    0    0  501  0.00000000000E+00  0.00000000000E+00 -0.10594536094E+04  0.10594536094E+04  0.25500000920E-02 0.  1.
    10030    2    1    2    0    0  0.00000000000E+00  0.00000000000E+00  0.82780862943E+02  0.22016880818E+04  0.22001313002E+04 0.  0.
        5    1    3    3  502    0 -0.41538574216E+03  0.10185998590E+04  0.35786744823E+02  0.11006333489E+04  0.46999998093E+01 0. -1.
       -5    1    3    3    0  502  0.41538574216E+03 -0.10185998590E+04  0.46994118121E+02  0.11010547329E+04  0.46999998093E+01 0.  1.
</event>
<event>
 5   0  0.1146827E-06  0.2200919E+04  0.7818609E-02  0.8518046E-01
       -1   -1    0    0    0  501  0.00000000000E+00  0.00000000000E+00  0.65668465918E+03  0.65668465920E+03  0.50400001928E-02 0. -1.
        1   -1    0    0  501    0  0.00000000000E+00  0.00000000000E+00 -0.18441291504E+04  0.18441291504E+04  0.50400001928E-02 0.  1.
    10030    2    1    2    0    0  0.00000000000E+00  0.00000000000E+00 -0.11874444912E+04  0.25008138096E+04  0.22009191922E+04 0.  0.
        4    1    3    3  502    0  0.12844091015E+03 -0.10577087448E+04 -0.90648221043E+03  0.13989126016E+04  0.12699999809E+01 0.  1.
       -4    1    3    3    0  502 -0.12844091015E+03  0.10577087448E+04 -0.28096228081E+03  0.11019012080E+04  0.12699999809E+01 0. -1.
</event>
<event>
 5   0  0.1144271E-06  0.2201248E+04  0.7818609E-02  0.8517909E-01
       -1   -1    0    0    0  501  0.00000000000E+00  0.00000000000E+00  0.77930013350E+03  0.77930013352E+03  0.50400001928E-02 0.  1.
        1   -1    0    0  501    0  0.00000000000E+00  0.00000000000E+00 -0.15544377853E+04  0.15544377853E+04  0.50400001928E-02 0. -1.
    10030    2    1    2    0    0  0.00000000000E+00  0.00000000000E+00 -0.77513765183E+03  0.23337379189E+04  0.22012483491E+04 0.  0.
        3    1    3    3  502    0  0.16887902734E+03  0.25021583743E+03  0.73455203982E+03  0.79416295593E+03  0.10100000352E+00 0.  1.
       -3    1    3    3    0  502 -0.16887902734E+03 -0.25021583743E+03 -0.15096896916E+04  0.15395749629E+04  0.10100000352E+00 0. -1.
</event>
<event>
 5   0  0.1137869E-06  0.2201065E+04  0.7818609E-02  0.8517985E-01
        1   -1    0    0  501    0  0.00000000000E+00  0.00000000000E+00  0.13562962727E+04  0.13562962727E+04  0.50400001928E-02 0. -1.
       -1   -1    0    0    0  501  0.00000000000E+00  0.00000000000E+00 -0.89299959853E+03  0.89299959854E+03  0.50400001928E-02 0.  1.
    10030    2    1    2    0    0  0.00000000000E+00  0.00000000000E+00  0.46329667420E+03  0.22492958713E+04  0.22010652213E+04 0.  0.
        5    1    3    3  502    0  0.96449970824E+03  0.14799202662E+03  0.75170900185E+03  0.12317669587E+04  0.46999998093E+01 0. -1.
       -5    1    3    3    0  502 -0.96449970824E+03 -0.14799202662E+03 -0.28841232766E+03  0.10175289126E+04  0.46999998093E+01 0.  1.
</event>
<event>
 5   0  0.2581058E-06  0.2201047E+04  0.7818609E-02  0.8517993E-01
       -2   -1    0    0    0  501  0.00000000000E+00  0.00000000000E+00  0.35330228796E+03  0.35330228797E+03  0.25500000920E-02 0. -1.
        2   -1    0    0  501    0  0.00000000000E+00  0.00000000000E+00 -0.34280885787E+04  0.34280885787E+04  0.25500000920E-02 0.  1.
    10030    2    1    2    0    0  0.00000000000E+00  0.00000000000E+00 -0.30747862907E+04  0.37813908666E+04  0.22010466039E+04 0.  0.
        1    1    3    3  502    0  0.10284679783E+04  0.16593468352E+03 -0.21469088387E+04  0.23863147871E+04  0.50400001928E-02 0.  1.
       -1    1    3    3    0  502 -0.10284679783E+04 -0.16593468352E+03 -0.92787745201E+03  0.13950760795E+04  0.50400001928E-02 0. -1.
</event>
<event>
 5   0  0.2556869E-06  0.2199868E+04  0.7818609E-02  0.8518483E-01
        2   -1    0    0  501    0  0.00000000000E+00  0.00000000000E+00  0.15597544708E+04  0.15597544708E+04  0.25500000920E-02 0. -1.
       -2   -1    0    0    0  501  0.00000000000E+00  0.00000000000E+00 -0.77566981092E+03  0.77566981093E+03  0.25500000920E-02 0.  1.
    10030    2    1    2    0    0  0.00000000000E+00  0.00000000000E+00  0.78408465984E+03  0.23354242817E+04  0.21998676828E+04 0.  0.
        5    1    3    3  502    0 -0.69472759915E+03  0.85227948641E+03  0.36191015843E+03  0.11575957035E+04  0.46999998093E+01 0.  1.
       -5    1    3    3    0  502  0.69472759915E+03 -0.85227948641E+03  0.42217450141E+03  0.11778285782E+04  0.46999998093E+01 0. -1.
</event>
<event>
 5   0  0.1137869E-06  0.2199891E+04  0.7818609E-02  0.8518473E-01
        1   -1    0    0  501    0  0.00000000000E+00  0.00000000000E+00  0.12322116371E+04  0.12322116371E+04  0.50400001928E-02 0. -1.
       -1   -1    0    0    0  501  0.00000000000E+00  0.00000000000E+00 -0.98187686195E+03  0.98187686196E+03  0.50400001928E-02 0.  1.
    10030    2    1    2    0    0  0.00000000000E+00  0.00000000000E+00  0.25033477516E+03  0.22140884991E+04  0.21998909932E+04 0.  0.
        5    1    3    3  502    0 -0.68229915915E+03 -0.82586063430E+03 -0.12600296787E+03  0.10786458027E+04  0.46999998093E+01 0.  1.
       -5    1    3    3    0  502  0.68229915915E+03  0.82586063430E+03  0.37633774303E+03  0.11354426963E+04  0.46999998093E+01 0. -1.
</event>
<event>
 5   0  0.1107101E-06  0.2193915E+04  0.7818609E-02  0.8520965E-01
        1   -1    0    0  501    0  0.00000000000E+00  0.00000000000E+00  0.19387460844E+04  0.19387460844E+04  0.50400001928E-02 0.  1.
       -1   -1    0    0    0  501  0.00000000000E+00  0.00000000000E+00 -0.62066728689E+03  0.62066728691E+03  0.50400001928E-02 0. -1.
    10030    2    1    2    0    0  0.00000000000E+00  0.00000000000E+00  0.13180787975E+04  0.25594133713E+04  0.21939154699E+04 0.  0.
        1    1    3    3  502    0 -0.96114431140E+03 -0.33096310913E+03  0.17806592640E+03  0.10320089346E+04  0.50400001928E-02 0. -1.
       -1    1    3    3    0  502  0.96114431140E+03  0.33096310913E+03  0.11400128711E+04  0.15274044367E+04  0.50400001928E-02 0.  1.
</event>
<event>
 5   0  0.2524749E-06  0.2200778E+04  0.7818609E-02  0.8518104E-01
       -2   -1    0    0    0  501  0.00000000000E+00  0.00000000000E+00  0.15258588927E+04  0.15258588927E+04  0.25500000920E-02 0.  1.
        2   -1    0    0  501    0  0.00000000000E+00  0.00000000000E+00 -0.79355698036E+03  0.79355698036E+03  0.25500000920E-02 0. -1.
    10030    2    1    2    0    0  0.00000000000E+00  0.00000000000E+00  0.73230191230E+03  0.23194158730E+04  0.22007780218E+04 0.  0.
        4    1    3    3  502    0 -0.62687228053E+03 -0.90394718013E+03  0.33700128704E+03  0.11505046027E+04  0.12699999809E+01 0. -1.
       -4    1    3    3    0  502  0.62687228053E+03  0.90394718013E+03  0.39530062526E+03  0.11689112703E+04  0.12699999809E+01 0.  1.
</event>
<event>
 5   0  0.1107101E-06  0.2197502E+04  0.7818609E-02  0.8519469E-01
        1   -1    0    0  501    0  0.00000000000E+00  0.00000000000E+00  0.14960291693E+04  0.14960291693E+04  0.50400001928E-02 0.  1.
       -1   -1    0    0    0  501  0.00000000000E+00  0.00000000000E+00 -0.80697183301E+03  0.80697183302E+03  0.50400001928E-02 0. -1.
    10030    2    1    2    0    0  0.00000000000E+00  0.00000000000E+00  0.68905733626E+03  0.23030010023E+04  0.21975016732E+04 0.  0.
        1    1    3    3  502    0  0.43009402120E+03  0.92500032886E+03 -0.83293776878E+02  0.10234961303E+04  0.50400001928E-02 0. -1.
       -1    1    3    3    0  502 -0.43009402120E+03 -0.92500032886E+03  0.77235111314E+03  0.12795048720E+04  0.50400001928E-02 0.  1.
</event>
<event>
 5   0  0.2524749E-06  0.2200255E+04  0.7818609E-02  0.8518322E-01
        2   -1    0    0  501    0  0.00000000000E+00  0.00000000000E+00  0.14123208618E+04  0.14123208618E+04  0.25500000920E-02 0. -1.
       -2   -1    0    0    0  501  0.00000000000E+00  0.00000000000E+00 -0.85694452603E+03  0.85694452603E+03  0.25500000920E-02 0.  1.
    10030    2    1    2    0    0  0.00000000000E+00  0.00000000000E+00  0.55537633581E+03  0.22692653879E+04  0.22002551048E+04 0.  0.
        4    1    3    3  502    0  0.13695456973E+01 -0.53611350381E+02  0.14109711598E+04  0.14119905380E+04  0.12699999809E+01 0. -1.
       -4    1    3    3    0  502 -0.13695456973E+01  0.53611350381E+02 -0.85559482400E+03  0.85727484992E+03  0.12699999809E+01 0.  1.
</event>
<event>
 5   0  0.2581058E-06  0.2198513E+04  0.7818609E-02  0.8519047E-01
       -2   -1    0    0    0  501  0.00000000000E+00  0.00000000000E+00  0.65420139880E+03  0.65420139880E+03  0.25500000920E-02 0.  1.
        2   -1    0    0  501    0  0.00000000000E+00  0.00000000000E+00 -0.18470832169E+04  0.18470832169E+04  0.25500000920E-02 0. -1.
    10030    2    1    2    0    0  0.00000000000E+00  0.00000000000E+00 -0.11928818181E+04  0.25012846157E+04  0.21985126101E+04 0.  0.
        1    1    3    3  502    0 -0.31906301014E+03 -0.82327976812E+03 -0.13414270467E+04  0.16059319110E+04  0.50400001928E-02 0. -1.
       -1    1    3    3    0  502  0.31906301014E+03  0.82327976812E+03  0.14854522854E+03  0.89535270479E+03  0.50400001928E-02 0.  1.
</event>
<event>
 5   0  0.8905000E-07  0.2199988E+04  0.7818609E-02  0.8518433E-01
        4   -1    0    0  501    0  0.00000000000E+00  0.00000000000E+00  0.11039948186E+04  0.11039955491E+04  0.12699999809E+01 0.  1.
       -4   -1    0    0    0  501  0.00000000000E+00  0.00000000000E+00 -0.10960064797E+04  0.10960072155E+04  0.12699999809E+01 0. -1.
    10030    2    1    2    0    0  0.00000000000E+00  0.00000000000E+00  0.79883389385E+01  0.22000027646E+04  0.21999882615E+04 0.  0.
        5    1    3    3  502    0 -0.44624494745E+03  0.50708410288E+03  0.87215665110E+03  0.11031537312E+04  0.46999998093E+01 0.  1.
       -5    1    3    3    0  502  0.44624494745E+03 -0.50708410288E+03 -0.86416831216E+03  0.10968490335E+04  0.46999998093E+01 0. -1.
</event>
<event>
 5   0  0.1107101E-06  0.2200653E+04  0.7818609E-02  0.8518156E-01
        1   -1    0    0  501    0  0.00000000000E+00  0.00000000000E+00  0.12732901542E+04  0.12732901542E+04  0.50400001928E-02 0.  1.
       -1   -1    0    0    0  501  0.00000000000E+00  0.00000000000E+00 -0.95085829476E+03  0.95085829478E+03  0.50400001928E-02 0. -1.
    10030    2    1    2    0    0  0.00000000000E+00  0.00000000000E+00  0.32243185942E+03  0.22241484490E+04  0.22006530892E+04 0.  0.
        1    1    3    3  502    0 -0.10715106338E+04  0.88870844861E+02 -0.75129950871E+02  0.10778114747E+04  0.50400001928E-02 0. -1.
       -1    1    3    3    0  502  0.10715106338E+04 -0.88870844861E+02  0.39756181029E+03  0.11463369742E+04  0.50400001928E-02 0.  1.
</event>
<event>
 5   0  0.8905000E-07  0.2199419E+04  0.7818609E-02  0.8518670E-01
        3   -1    0    0  501    0  0.00000000000E+00  0.00000000000E+00  0.82504670471E+03  0.82504671089E+03  0.10100000352E+00 0.  1.
       -3   -1    0    0    0  501  0.00000000000E+00  0.00000000000E+00 -0.14658087671E+04  0.14658087706E+04  0.10100000352E+00 0. -1.
    10030    2    1    2    0    0  0.00000000000E+00  0.00000000000E+00 -0.64076206242E+03  0.22908554815E+04  0.21994187451E+04 0.  0.
        2    1    3    3  502    0  0.30561931466E+03 -0.43374355276E+03  0.68289996888E+03  0.86480576001E+03  0.25500000920E-02 0.  1.
       -2    1    3    3    0  502 -0.30561931466E+03  0.43374355276E+03 -0.13236620313E+04  0.14260497215E+04  0.25500000920E-02 0. -1.
</event>
<event>
 5   0  0.2524749E-06  0.2201781E+04  0.7818609E-02  0.8517687E-01
        2   -1    0    0  501    0  0.00000000000E+00  0.00000000000E+00  0.21669799246E+04  0.21669799246E+04  0.25500000920E-02 0. -1.
       -2   -1    0    0    0  501  0.00000000000E+00  0.00000000000E+00 -0.55928503527E+03  0.55928503528E+03  0.25500000920E-02 0.  1.
    10030    2    1    2    0    0  0.00000000000E+00  0.00000000000E+00  0.16076948893E+04  0.27262649598E+04  0.22017805917E+04 0.  0.
        4    1    3    3  502    0  0.59399664128E+03 -0.48756417448E+02  0.19499427471E+04  0.20389917920E+04  0.12699999809E+01 0. -1.
       -4    1    3    3    0  502 -0.59399664128E+03  0.48756417448E+02 -0.34224785782E+03  0.68727316780E+03  0.12699999809E+01 0.  1.
</event>
<event>
 5   0  0.1146827E-06  0.2200579E+04  0.7818609E-02  0.8518187E-01
        1   -1    0    0  501    0  0.00000000000E+00  0.00000000000E+00  0.12039610413E+04  0.12039610413E+04  0.50400001928E-02 0. -1.
       -1   -1    0    0    0  501  0.00000000000E+00  0.00000000000E+00 -0.10055448559E+04  0.10055448559E+04  0.50400001928E-02 0.  1.
    10030    2    1    2    0    0  0.00000000000E+00  0.00000000000E+00  0.19841618541E+03  0.22095058972E+04  0.22005788618E+04 0.  0.
        4    1    3    3  502    0 -0.28946695722E+03 -0.23982134112E+03  0.11374870873E+04  0.11979916033E+04  0.12699999809E+01 0. -1.
       -4    1    3    3    0  502  0.28946695722E+03  0.23982134112E+03 -0.93907090190E+03  0.10115142939E+04  0.12699999809E+01 0.  1.
</event>
<event>
 5   0  0.2524749E-06  0.2199203E+04  0.7818609E-02  0.8518760E-01
        2   -1    0    0  501    0  0.00000000000E+00  0.00000000000E+00  0.17597042010E+04  0.17597042010E+04  0.25500000920E-02 0.  1.
       -2   -1    0    0    0  501  0.00000000000E+00  0.00000000000E+00 -0.68711764710E+03  0.68711764711E+03  0.25500000920E-02 0. -1.
    10030    2    1    2    0    0  0.00000000000E+00  0.00000000000E+00  0.10725865539E+04  0.24468218481E+04  0.21992033196E+04 0.  0.
        4    1    3    3  502    0 -0.52459201841E+03  0.32106003676E+03  0.15504316096E+04  0.16679676621E+04  0.12699999809E+01 0.  1.
       -4    1    3    3    0  502  0.52459201841E+03 -0.32106003676E+03 -0.47784505565E+03  0.77885418603E+03  0.12699999809E+01 0. -1.
</event>
<event>
 5   0  0.1082209E-06  0.2200423E+04  0.7818609E-02  0.8518252E-01
        1   -1    0    0  501    0  0.00000000000E+00  0.00000000000E+00  0.20495802882E+04  0.20495802882E+04  0.50400001928E-02 0.  1.
       -1   -1    0    0    0  501  0.00000000000E+00  0.00000000000E+00 -0.59059169333E+03  0.59059169335E+03  0.50400001928E-02 0. -1.
    10030    2    1    2    0    0  0.00000000000E+00  0.00000000000E+00  0.14589885949E+04  0.26401719816E+04  0.22004227713E+04 0.  0.
        2    1    3    3  502    0  0.24490045042E+02  0.98416442457E+02 -0.58497121397E+03  0.59369763317E+03  0.25500000920E-02 0. -1.
       -2    1    3    3    0  502 -0.24490045042E+02 -0.98416442457E+02  0.20439598088E+04  0.20464743484E+04  0.25500000920E-02 0.  1.
</event>
<event>
 5   0  0.2581058E-06  0.2196888E+04  0.7818609E-02  0.8519725E-01
        2   -1    0    0  501    0  0.00000000000E+00  0.00000000000E+00  0.16220183420E+04  0.16220183420E+04  0.25500000920E-02 0. -1.
       -2   -1    0    0    0  501  0.00000000000E+00  0.00000000000E+00 -0.74387504427E+03  0.74387504427E+03  0.25500000920E-02 0.  1.
    10030    2    1    2    0    0  0.00000000000E+00  0.00000000000E+00  0.87814329769E+03  0.23658933862E+04  0.21968877677E+04 0.  0.
        1    1    3    3  502    0 -0.88023856173E+03  0.32043871603E+03 -0.17871251294E+03  0.95364514291E+03  0.50400001928E-02 0.  1.
       -1    1    3    3    0  502  0.88023856173E+03 -0.32043871603E+03  0.10568558106E+04  0.14122482433E+04  0.50400001928E-02 0. -1.
</event>
<event>
 5   0  0.1144271E-06  0.2200178E+04  0.7818609E-02  0.8518354E-01
        1   -1    0    0  501    0  0.00000000000E+00  0.00000000000E+00  0.78725512839E+03  0.78725512840E+03  0.50400001928E-02 0.  1.
       -1   -1    0    0    0  501  0.00000000000E+00  0.00000000000E+00 -0.15372338977E+04  0.15372338977E+04  0.50400001928E-02 0. -1.
    10030    2    1    2    0    0  0.00000000000E+00  0.00000000000E+00 -0.74997876931E+03  0.23244890261E+04  0.22001775106E+04 0.  0.
        3    1    3    3  502    0 -0.57564562766E+03 -0.86909871184E+03 -0.37157461504E+01  0.10424558871E+04  0.10100000352E+00 0.  1.
       -3    1    3    3    0  502  0.57564562766E+03  0.86909871184E+03 -0.74626302316E+03  0.12820331390E+04  0.10100000352E+00 0. -1.
</event>
<event>
 5   0  0.1107101E-06  0.2199036E+04  0.7818609E-02  0.8518829E-01
       -1   -1    0    0    0  501  0.00000000000E+00  0.00000000000E+00  0.59031331492E+03  0.59031331494E+03  0.50400001928E-02 0.  1.
        1   -1    0    0  501    0  0.00000000000E+00  0.00000000000E+00 -0.20479634356E+04  0.20479634356E+04  0.50400001928E-02 0. -1.
    10030    2    1    2    0    0  0.00000000000E+00  0.00000000000E+00 -0.14576501207E+04  0.26382767505E+04  0.21990362294E+04 0.  0.
        1    1    3    3  502    0  0.72540867854E+02 -0.78132836297E+03  0.19521322014E+03  0.80860644917E+03  0.50400001928E-02 0.  1.
       -1    1    3    3    0  502 -0.72540867854E+02  0.78132836297E+03 -0.16528633408E+04  0.18296703014E+04  0.50400001928E-02 0. -1.
</event>
<event>
 5   0  0.1144271E-06  0.2200069E+04  0.7818609E-02  0.8518399E-01
       -1   -1    0    0    0  501  0.00000000000E+00  0.00000000000E+00  0.66990185910E+03  0.66990185912E+03  0.50400001928E-02 0.  1.
        1   -1    0    0  501    0  0.00000000000E+00  0.00000000000E+00 -0.18063487926E+04  0.18063487926E+04  0.50400001928E-02 0. -1.
    10030    2    1    2    0    0  0.00000000000E+00  0.00000000000E+00 -0.11364469335E+04  0.24762506517E+04  0.22000694665E+04 0.  0.
        3    1    3    3  502    0  0.10959446323E+03  0.64395617313E+03 -0.15644224306E+04  0.16953194540E+04  0.10100000352E+00 0. -1.
       -3    1    3    3    0  502 -0.10959446323E+03 -0.64395617313E+03  0.42797549714E+03  0.78093119776E+03  0.10100000352E+00 0.  1.
</event>
<event>
 5   0  0.2532239E-06  0.2199915E+04  0.7818609E-02  0.8518463E-01
        2   -1    0    0  501    0  0.00000000000E+00  0.00000000000E+00  0.10945658396E+04  0.10945658396E+04  0.25500000920E-02 0. -1.
       -2   -1    0    0    0  501  0.00000000000E+00  0.00000000000E+00 -0.11053759802E+04  0.11053759802E+04  0.25500000920E-02 0.  1.
    10030    2    1    2    0    0  0.00000000000E+00  0.00000000000E+00 -0.10810140618E+02  0.21999418198E+04  0.21999152600E+04 0.  0.
        3    1    3    3  502    0  0.17704407949E+02 -0.93443241906E+03  0.57462726439E+03  0.10971207295E+04  0.10100000352E+00 0. -1.
       -3    1    3    3    0  502 -0.17704407949E+02  0.93443241906E+03 -0.58543740501E+03  0.11028210903E+04  0.10100000352E+00 0.  1.
</event>
<event>
 5   0  0.2606154E-06  0.2205054E+04  0.7818609E-02  0.8516327E-01
        2   -1    0    0  501    0  0.00000000000E+00  0.00000000000E+00  0.17320038446E+04  0.17320038446E+04  0.25500000920E-02 0.  1.
       -2   -1    0    0    0  501  0.00000000000E+00  0.00000000000E+00 -0.70182655729E+03  0.70182655729E+03  0.25500000920E-02 0. -1.
    10030    2    1    2    0    0  0.00000000000E+00  0.00000000000E+00  0.10301772873E+04  0.24338304019E+04  0.22050544623E+04 0.  0.
        2    1    3    3  502    0 -0.95900414140E+03 -0.17312145206E+03 -0.54072596540E+02  0.97600400926E+03  0.25500000920E-02 0. -1.
       -2    1    3    3    0  502  0.95900414140E+03  0.17312145206E+03  0.10842498838E+04  0.14578263926E+04  0.25500000920E-02 0.  1.
</event>
<event>
 5   0  0.1146827E-06  0.2199311E+04  0.7818609E-02  0.8518715E-01
       -1   -1    0    0    0  501  0.00000000000E+00  0.00000000000E+00  0.60184272332E+03  0.60184272334E+03  0.50400001928E-02 0. -1.
        1   -1    0    0  501    0  0.00000000000E+00  0.00000000000E+00 -0.20092337721E+04  0.20092337721E+04  0.50400001928E-02 0.  1.
    10030    2    1    2    0    0  0.00000000000E+00  0.00000000000E+00 -0.14073910488E+04  0.26110764954E+04  0.21993114606E+04 0.  0.
        4    1    3    3  502    0 -0.61181094403E+03  0.81110034215E+03 -0.20415083914E+03  0.10362796796E+04  0.12699999809E+01 0. -1.
       -4    1    3    3    0  502  0.61181094403E+03 -0.81110034215E+03 -0.12032402096E+04  0.15747968158E+04  0.12699999809E+01 0.  1.
</event>
<event>
 5   0  0.2581058E-06  0.2203618E+04  0.7818609E-02  0.8516924E-01
       -2   -1    0    0    0  501  0.00000000000E+00  0.00000000000E+00  0.92084598306E+03  0.92084598306E+03  0.25500000920E-02 0.  1.
        2   -1    0    0  501    0  0.00000000000E+00  0.00000000000E+00 -0.13183349363E+04  0.13183349363E+04  0.25500000920E-02 0. -1.
    10030    2    1    2    0    0  0.00000000000E+00  0.00000000000E+00 -0.39748895324E+03  0.22391809194E+04  0.22036183249E+04 0.  0.
        1    1    3    3  502    0 -0.69738889381E+03 -0.49128310067E+02 -0.10640854498E+04  0.12732017533E+04  0.50400001928E-02 0. -1.
       -1    1    3    3    0  502  0.69738889381E+03  0.49128310067E+02  0.66659649656E+03  0.96597916608E+03  0.50400001928E-02 0.  1.
</event>
<event>
 5   0  0.2556869E-06  0.2199964E+04  0.7818609E-02  0.8518443E-01
       -2   -1    0    0    0  501  0.00000000000E+00  0.00000000000E+00  0.81418092974E+03  0.81418092975E+03  0.25500000920E-02 0. -1.
        2   -1    0    0  501    0  0.00000000000E+00  0.00000000000E+00 -0.14861070135E+04  0.14861070135E+04  0.25500000920E-02 0.  1.
    10030    2    1    2    0    0  0.00000000000E+00  0.00000000000E+00 -0.67192608375E+03  0.23002879432E+04  0.21999636269E+04 0.  0.
        5    1    3    3  502    0  0.81940385544E+03 -0.66503345563E+03 -0.11580535023E+02  0.10553901526E+04  0.46999998093E+01 0.  1.
       -5    1    3    3    0  502 -0.81940385544E+03  0.66503345563E+03 -0.66034554873E+03  0.12448977906E+04  0.46999998093E+01 0. -1.
</event>
<event>
 5   0  0.1146827E-06  0.2199206E+04  0.7818609E-02  0.8518759E-01
       -1   -1    0    0    0  501  0.00000000000E+00  0.00000000000E+00  0.66935986592E+03  0.66935986594E+03  0.50400001928E-02 0. -1.
        1   -1    0    0  501    0  0.00000000000E+00  0.00000000000E+00 -0.18063922792E+04  0.18063922793E+04  0.50400001928E-02 0.  1.
    10030    2    1    2    0    0  0.00000000000E+00  0.00000000000E+00 -0.11370324133E+04  0.24757521452E+04  0.21992057602E+04 0.  0.
        4    1    3    3  502    0  0.57900283534E+03 -0.24406818007E+03  0.44735005266E+03  0.77132175023E+03  0.12699999809E+01 0. -1.
       -4    1    3    3    0  502 -0.57900283534E+03  0.24406818007E+03 -0.15843824660E+04  0.17044303950E+04  0.12699999809E+01 0.  1.
</event>
<event>
 5   0  0.2581058E-06  0.2199874E+04  0.7818609E-02  0.8518481E-01
       -2   -1    0    0    0  501  0.00000000000E+00  0.00000000000E+00  0.91342612689E+03  0.91342612690E+03  0.25500000920E-02 0. -1.
        2   -1    0    0  501    0  0.00000000000E+00  0.00000000000E+00 -0.13245311139E+04  0.13245311139E+04  0.25500000920E-02 0.  1.
    10030    2    1    2    0    0  0.00000000000E+00  0.00000000000E+00 -0.41110498705E+03  0.22379572408E+04  0.21998739285E+04 0.  0.
        1    1    3    3  502    0 -0.91601831059E+03 -0.20606517089E+03  0.37734922603E+03  0.10119015952E+04  0.50400001928E-02 0. -1.
       -1    1    3    3    0  502  0.91601831059E+03  0.20606517089E+03 -0.78845421309E+03  0.12260556456E+04  0.50400001928E-02 0.  1.
</event>
<event>
 5   0  0.1107101E-06  0.2199939E+04  0.7818609E-02  0.8518454E-01
       -1   -1    0    0    0  501  0.00000000000E+00  0.00000000000E+00  0.97704028611E+03  0.97704028612E+03  0.50400001928E-02 0.  1.
        1   -1    0    0  501    0  0.00000000000E+00  0.00000000000E+00 -0.12383653985E+04  0.12383653985E+04  0.50400001928E-02 0. -1.
    10030    2    1    2    0    0  0.00000000000E+00  0.00000000000E+00 -0.26132511234E+03  0.22154056846E+04  0.21999389839E+04 0.  0.
        1    1    3    3  502    0  0.29100506646E+03  0.81844437385E+03 -0.81023860842E+03  0.11878643628E+04  0.50400001928E-02 0. -1.
       -1    1    3    3    0  502 -0.29100506646E+03 -0.81844437385E+03  0.54891349608E+03  0.10275413218E+04  0.50400001928E-02 0.  1.
</event>
<event>
 5   0  0.2581058E-06  0.2201757E+04  0.7818609E-02  0.8517697E-01
       -2   -1    0    0    0  501  0.00000000000E+00  0.00000000000E+00  0.64663223289E+03  0.64663223290E+03  0.25500000920E-02 0. -1.
        2   -1    0    0  501    0  0.00000000000E+00  0.00000000000E+00 -0.18742230336E+04  0.18742230336E+04  0.25500000920E-02 0.  1.
    10030    2    1    2    0    0  0.00000000000E+00  0.00000000000E+00 -0.12275908007E+04  0.25208552665E+04  0.22017565943E+04 0.  0.
        1    1    3    3  502    0 -0.76183187503E+03  0.76081263128E+03 -0.87665417253E+03  0.13884330031E+04  0.50400001928E-02 0.  1.
       -1    1    3    3    0  502  0.76183187503E+03 -0.76081263128E+03 -0.35093662818E+03  0.11324222634E+04  0.50400001928E-02 0. -1.
</event>
<event>
 5   0  0.1146827E-06  0.2199669E+04  0.7818609E-02  0.8518566E-01
        1   -1    0    0  501    0  0.00000000000E+00  0.00000000000E+00  0.26414372838E+04  0.26414372839E+04  0.50400001928E-02 0. -1.
       -1   -1    0    0    0  501  0.00000000000E+00  0.00000000000E+00 -0.45794627613E+03  0.45794627616E+03  0.50400001928E-02 0.  1.
    10030    2    1    2    0    0  0.00000000000E+00  0.00000000000E+00  0.21834910077E+04  0.30993835600E+04  0.21996694005E+04 0.  0.
        4    1    3    3  502    0  0.19520487393E+03  0.96949441599E+03  0.17698504781E+04  0.20274113281E+04  0.12699999809E+01 0. -1.
       -4    1    3    3    0  502 -0.19520487393E+03 -0.96949441599E+03  0.41364052963E+03  0.10719722320E+04  0.12699999809E+01 0.  1.
</event>
<event>
 5   0  0.2606154E-06  0.2200417E+04  0.7818609E-02  0.8518255E-01
        2   -1    0    0  501    0  0.00000000000E+00  0.00000000000E+00  0.20089970636E+04  0.20089970636E+04  0.25500000920E-02 0. -1.
       -2   -1    0    0    0  501  0.00000000000E+00  0.00000000000E+00 -0.60251881246E+03  0.60251881247E+03  0.25500000920E-02 0.  1.
    10030    2    1    2    0    0  0.00000000000E+00  0.00000000000E+00  0.14064782511E+04  0.26115158761E+04  0.22004168014E+04 0.  0.
        2    1    3    3  502    0  0.68671415409E+03 -0.37313705726E+02 -0.31597574493E+03  0.75684167000E+03  0.25500000920E-02 0.  1.
       -2    1    3    3    0  502 -0.68671415409E+03  0.37313705726E+02  0.17224539961E+04  0.18546742061E+04  0.25500000920E-02 0. -1.
</event>
<event>
 5   0  0.2606154E-06  0.2191742E+04  0.7818609E-02  0.8521873E-01
       -2   -1    0    0    0  501  0.00000000000E+00  0.00000000000E+00  0.63818496082E+03  0.63818496082E+03  0.25500000920E-02 0. -1.
        2   -1    0    0  501    0  0.00000000000E+00  0.00000000000E+00 -0.18817953961E+04  0.18817953961E+04  0.25500000920E-02 0.  1.
    10030    2    1    2    0    0  0.00000000000E+00  0.00000000000E+00 -0.12436104353E+04  0.25199803569E+04  0.21917422487E+04 0.  0.
        2    1    3    3  502    0  0.23173966192E+03  0.45370329992E+03 -0.17373602056E+04  0.18105166222E+04  0.25500000920E-02 0.  1.
       -2    1    3    3    0  502 -0.23173966192E+03 -0.45370329992E+03  0.49374977029E+03  0.70946373475E+03  0.25500000920E-02 0. -1.
</event>
<event>
 5   0  0.1146827E-06  0.2200062E+04  0.7818609E-02  0.8518402E-01
       -1   -1    0    0    0  501  0.00000000000E+00  0.00000000000E+00  0.97290995832E+03  0.97290995833E+03  0.50400001928E-02 0.  1.
        1   -1    0    0  501    0  0.00000000000E+00  0.00000000000E+00 -0.12437615426E+04  0.12437615426E+04  0.50400001928E-02 0. -1.
    10030    2    1    2    0    0  0.00000000000E+00  0.00000000000E+00 -0.27085158424E+03  0.22166715009E+04  0.22000618087E+04 0.  0.
        4    1    3    3  502    0 -0.19206270100E+03  0.47704779413E+03  0.84433721264E+03  0.98862005874E+03  0.12699999809E+01 0.  1.
       -4    1    3    3    0  502  0.19206270100E+03 -0.47704779413E+03 -0.11151887969E+04  0.12280514422E+04  0.12699999809E+01 0. -1.
</event>
<event>
 5   0  0.1137869E-06  0.2200640E+04  0.7818609E-02  0.8518162E-01
        1   -1    0    0  501    0  0.00000000000E+00  0.00000000000E+00  0.14362637581E+04  0.14362637581E+04  0.50400001928E-02 0. -1.
       -1   -1    0    0    0  501  0.00000000000E+00  0.00000000000E+00 -0.84295393691E+03  0.84295393692E+03  0.50400001928E-02 0.  1.
    10030    2    1    2    0    0  0.00000000000E+00  0.00000000000E+00  0.59330982121E+03  0.22792176950E+04  0.22006400790E+04 0.  0.
        5    1    3    3  502    0 -0.10474930992E+04  0.10900767244E+03  0.62671504853E+03  0.12255277669E+04  0.46999998093E+01 0. -1.
       -5    1    3    3    0  502  0.10474930992E+04 -0.10900767244E+03 -0.33405227321E+02  0.10536899281E+04  0.46999998093E+01 0.  1.
</event>
<event>
 5   0  0.1082209E-06  0.2199960E+04  0.7818609E-02  0.8518445E-01
        1   -1    0    0  501    0  0.00000000000E+00  0.00000000000E+00  0.17994928665E+04  0.17994928665E+04  0.50400001928E-02 0. -1.
       -1   -1    0    0    0  501  0.00000000000E+00  0.00000000000E+00 -0.67238701678E+03  0.67238701680E+03  0.50400001928E-02 0.  1.
    10030    2    1    2    0    0  0.00000000000E+00  0.00000000000E+00  0.11271058497E+04  0.24718798833E+04  0.21999596726E+04 0.  0.
        2    1    3    3  502    0  0.25779051014E+03 -0.48761969062E+03  0.16328816562E+04  0.17235229656E+04  0.25500000920E-02 0. -1.
       -2    1    3    3    0  502 -0.25779051014E+03  0.48761969062E+03 -0.50577580649E+03  0.74835691768E+03  0.25500000920E-02 0.  1.
</event>
<event>
 5   0  0.2532239E-06  0.2199032E+04  0.7818609E-02  0.8518831E-01
        2   -1    0    0  501    0  0.00000000000E+00  0.00000000000E+00  0.20637708183E+04  0.20637708183E+04  0.25500000920E-02 0. -1.
       -2   -1    0    0    0  501  0.00000000000E+00  0.00000000000E+00 -0.58578932118E+03  0.58578932118E+03  0.25500000920E-02 0.  1.
    10030    2    1    2    0    0  0.00000000000E+00  0.00000000000E+00  0.14779814971E+04  0.26495601395E+04  0.21990315202E+04 0.  0.
        3    1    3    3  502    0 -0.77516331779E+03 -0.24301306579E+03  0.16317390735E+04  0.18227742410E+04  0.10100000352E+00 0. -1.
       -3    1    3    3    0  502  0.77516331779E+03  0.24301306579E+03 -0.15375757642E+03  0.82678589846E+03  0.10100000352E+00 0.  1.
</event>
<event>
 5   0  0.1082209E-06  0.2201555E+04  0.7818609E-02  0.8517781E-01
       -1   -1    0    0    0  501  0.00000000000E+00  0.00000000000E+00  0.94410027864E+03  0.94410027865E+03  0.50400001928E-02 0.  1.
        1   -1    0    0  501    0  0.00000000000E+00  0.00000000000E+00 -0.12834563813E+04  0.12834563814E+04  0.50400001928E-02 0. -1.
    10030    2    1    2    0    0  0.00000000000E+00  0.00000000000E+00 -0.33935610271E+03  0.22275566600E+04  0.22015553841E+04 0.  0.
        2    1    3    3  502    0 -0.43032065888E+03  0.38993990972E+03 -0.11158601164E+04  0.12579240049E+04  0.25500000920E-02 0. -1.
       -2    1    3    3    0  502  0.43032065888E+03 -0.38993990972E+03  0.77650401369E+03  0.96963265515E+03  0.25500000920E-02 0.  1.
</event>
<event>
 5   0  0.1107101E-06  0.2201043E+04  0.7818609E-02  0.8517994E-01
       -1   -1    0    0    0  501  0.00000000000E+00  0.00000000000E+00  0.75458627196E+03  0.75458627198E+03  0.50400001928E-02 0. -1.
        1   -1    0    0  501    0  0.00000000000E+00  0.00000000000E+00 -0.16050492037E+04  0.16050492037E+04  0.50400001928E-02 0.  1.
    10030    2    1    2    0    0  0.00000000000E+00  0.00000000000E+00 -0.85046293175E+03  0.23596354757E+04  0.22010434752E+04 0.  0.
        1    1    3    3  502    0 -0.62789621931E+03  0.74752897309E+03  0.11940407683E+03  0.98351947689E+03  0.50400001928E-02 0. -1.
       -1    1    3    3    0  502  0.62789621931E+03 -0.74752897309E+03 -0.96986700857E+03  0.13761159988E+04  0.50400001928E-02 0.  1.
</event>
<event>
 5   0  0.2581058E-06  0.2200927E+04  0.7818609E-02  0.8518042E-01
        2   -1    0    0  501    0  0.00000000000E+00  0.00000000000E+00  0.18833011307E+04  0.18833011307E+04  0.25500000920E-02 0. -1.
       -2   -1    0    0    0  501  0.00000000000E+00  0.00000000000E+00 -0.64303039179E+03  0.64303039180E+03  0.25500000920E-02 0.  1.
    10030    2    1    2    0    0  0.00000000000E+00  0.00000000000E+00  0.12402707390E+04  0.25263315225E+04  0.22009269538E+04 0.  0.
        1    1    3    3  502    0 -0.10717401048E+04 -0.22174433958E+03  0.48814542862E+03  0.11983669571E+04  0.50400001928E-02 0.  1.
       -1    1    3    3    0  502  0.10717401048E+04  0.22174433958E+03  0.75212531033E+03  0.13279645654E+04  0.50400001928E-02 0. -1.
</event>
<event>
 5   0  0.1137869E-06  0.2199743E+04  0.7818609E-02  0.8518535E-01
       -1   -1    0    0    0  501  0.00000000000E+00  0.00000000000E+00  0.59010998893E+03  0.59010998895E+03  0.50400001928E-02 0. -1.
        1   -1    0    0  501    0  0.00000000000E+00  0.00000000000E+00 -0.20499854369E+04  0.20499854369E+04  0.50400001928E-02 0.  1.
    10030    2    1    2    0    0  0.00000000000E+00  0.00000000000E+00 -0.14598754480E+04  0.26400954259E+04  0.21997426063E+04 0.  0.
        5    1    3    3  502    0 -0.65705697968E+03  0.84987039101E+03 -0.10131689890E+04  0.14766641617E+04  0.46999998093E+01 0. -1.
       -5    1    3    3    0  502  0.65705697968E+03 -0.84987039101E+03 -0.44670645897E+03  0.11634312642E+04  0.46999998093E+01 0.  1.
</event>
<event>
 5   0  0.1137869E-06  0.2202753E+04  0.7818609E-02  0.8517283E-01
       -1   -1    0    0    0  501  0.00000000000E+00  0.00000000000E+00  0.96563078171E+03  0.96563078172E+03  0.50400001928E-02 0. -1.
        1   -1    0    0  501    0  0.00000000000E+00  0.00000000000E+00 -0.12562052910E+04  0.12562052910E+04  0.50400001928E-02 0.  1.
    10030    2    1    2    0    0  0.00000000000E+00  0.00000000000E+00 -0.29057450927E+03  0.22218360727E+04  0.22027532745E+04 0.  0.
        5    1    3    3  502    0  0.10348896275E+04 -0.32797978937E+03  0.41903680867E+02  0.10864369709E+04  0.46999998093E+01 0. -1.
       -5    1    3    3    0  502 -0.10348896275E+04  0.32797978937E+03 -0.33247819014E+03  0.11353991018E+04  0.46999998093E+01 0.  1.
</event>
<event>
 5   0  0.2606154E-06  0.2200020E+04  0.7818609E-02  0.8518420E-01
        2   -1    0    0  501    0  0.00000000000E+00  0.00000000000E+00  0.77601088703E+03  0.77601088703E+03  0.25500000920E-02 0.  1.
       -2   -1    0    0    0  501  0.00000000000E+00  0.00000000000E+00 -0.15592854172E+04  0.15592854172E+04  0.25500000920E-02 0. -1.
    10030    2    1    2    0    0  0.00000000000E+00  0.00000000000E+00 -0.78327453014E+03  0.23352963042E+04  0.22000204178E+04 0.  0.
        2    1    3    3  502    0 -0.71742343448E+03  0.36994983158E+03 -0.11848917932E+04  0.14337112066E+04  0.25500000920E-02 0. -1.
       -2    1    3    3    0  502  0.71742343448E+03 -0.36994983158E+03  0.40161726309E+03  0.90158509762E+03  0.25500000920E-02 0.  1.
</event>
<event>
 5   0  0.2606154E-06  0.2200562E+04  0.7818609E-02  0.8518194E-01
       -2   -1    0    0    0  501  0.00000000000E+00  0.00000000000E+00  0.93090443248E+03  0.93090443249E+03  0.25500000920E-02 0. -1.
        2   -1    0    0  501    0  0.00000000000E+00  0.00000000000E+00 -0.13004758560E+04  0.13004758560E+04  0.25500000920E-02 0.  1.
    10030    2    1    2    0    0  0.00000000000E+00  0.00000000000E+00 -0.36957142349E+03  0.22313802885E+04  0.22005624178E+04 0.  0.
        2    1    3    3  502    0 -0.34255825922E+03 -0.70956029585E+03  0.59395179702E+03  0.98671207127E+03  0.25500000920E-02 0. -1.
       -2    1    3    3    0  502  0.34255825922E+03  0.70956029585E+03 -0.96352322051E+03  0.12446682172E+04  0.25500000920E-02 0.  1.
</event>
<event>
 5   0  0.1144271E-06  0.2197130E+04  0.7818609E-02  0.8519624E-01
        1   -1    0    0  501    0  0.00000000000E+00  0.00000000000E+00  0.13141897047E+04  0.13141897047E+04  0.50400001928E-02 0. -1.
       -1   -1    0    0    0  501  0.00000000000E+00  0.00000000000E+00 -0.91831867631E+03  0.91831867632E+03  0.50400001928E-02 0.  1.
    10030    2    1    2    0    0  0.00000000000E+00  0.00000000000E+00  0.39587102837E+03  0.22325083810E+04  0.21971299006E+04 0.  0.
        3    1    3    3  502    0 -0.69355298367E+03  0.26838547446E+03  0.10195333794E+04  0.12619408963E+04  0.10100000352E+00 0. -1.
       -3    1    3    3    0  502  0.69355298367E+03 -0.26838547446E+03 -0.62366235098E+03  0.97056748467E+03  0.10100000352E+00 0.  1.
</event>
<event>
 5   0  0.2556869E-06  0.2199947E+04  0.7818609E-02  0.8518450E-01
        2   -1    0    0  501    0  0.00000000000E+00  0.00000000000E+00  0.28525717167E+04  0.28525717167E+04  0.25500000920E-02 0. -1.
       -2   -1    0    0    0  501  0.00000000000E+00  0.00000000000E+00 -0.42415816270E+03  0.42415816270E+03  0.25500000920E-02 0.  1.
    10030    2    1    2    0    0  0.00000000000E+00  0.00000000000E+00  0.24284135541E+04  0.32767298795E+04  0.21999468888E+04 0.  0.
        5    1    3    3  502    0  0.42571709760E+03  0.77850916550E+03  0.24593502686E+03  0.92077016426E+03  0.46999998093E+01 0.  1.
       -5    1    3    3    0  502 -0.42571709760E+03 -0.77850916550E+03  0.21824785272E+04  0.23559597152E+04  0.46999998093E+01 0. -1.
</event>
<event>
 5   0  0.1146827E-06  0.2199329E+04  0.7818609E-02  0.8518708E-01
        1   -1    0    0  501    0  0.00000000000E+00  0.00000000000E+00  0.17491406022E+04  0.17491406022E+04  0.50400001928E-02 0.  1.
       -1   -1    0    0    0  501  0.00000000000E+00  0.00000000000E+00 -0.69134620351E+03  0.69134620352E+03  0.50400001928E-02 0. -1.
    10030    2    1    2    0    0  0.00000000000E+00  0.00000000000E+00  0.10577943987E+04  0.24404868057E+04  0.21993287292E+04 0.  0.
        4    1    3    3  502    0 -0.72526642811E+03 -0.73657806457E+03  0.11266504558E+03  0.10398334782E+04  0.12699999809E+01 0. -1.
       -4    1    3    3    0  502  0.72526642811E+03  0.73657806457E+03  0.94512935311E+03  0.14006533275E+04  0.12699999809E+01 0.  1.
</event>
<event>
 5   0  0.2606154E-06  0.2202842E+04  0.7818609E-02  0.8517246E-01
       -2   -1    0    0    0  501  0.00000000000E+00  0.00000000000E+00  0.73989149223E+03  0.73989149224E+03  0.25500000920E-02 0.  1.
        2   -1    0    0  501    0  0.00000000000E+00  0.00000000000E+00 -0.16396034015E+04  0.16396034015E+04  0.25500000920E-02 0. -1.
    10030    2    1    2    0    0  0.00000000000E+00  0.00000000000E+00 -0.89971190929E+03  0.23794948938E+04  0.22028423524E+04 0.  0.
        2    1    3    3  502    0  0.78157770579E+03 -0.58405043624E+03  0.10215330415E+03  0.98102697201E+03  0.25500000920E-02 0.  1.
       -2    1    3    3    0  502 -0.78157770579E+03  0.58405043624E+03 -0.10018652134E+04  0.13984679218E+04  0.25500000920E-02 0. -1.
</event>
<event>
 5   0  0.1144271E-06  0.2204589E+04  0.7818609E-02  0.8516520E-01
       -1   -1    0    0    0  501  0.00000000000E+00  0.00000000000E+00  0.87013360933E+03  0.87013360934E+03  0.50400001928E-02 0. -1.
        1   -1    0    0  501    0  0.00000000000E+00  0.00000000000E+00 -0.13963989556E+04  0.13963989556E+04  0.50400001928E-02 0.  1.
    10030    2    1    2    0    0  0.00000000000E+00  0.00000000000E+00 -0.52626534628E+03  0.22665325650E+04  0.22045894523E+04 0.  0.
        3    1    3    3  502    0  0.64843627423E+03 -0.58863812902E+03 -0.95133554162E+03  0.12930598484E+04  0.10100000352E+00 0.  1.
       -3    1    3    3    0  502 -0.64843627423E+03  0.58863812902E+03  0.42507019534E+03  0.97347271653E+03  0.10100000352E+00 0. -1.
</event>
<event>
 5   0  0.1137869E-06  0.2200003E+04  0.7818609E-02  0.8518427E-01
        1   -1    0    0  501    0  0.00000000000E+00  0.00000000000E+00  0.22686100954E+04  0.22686100954E+04  0.50400001928E-02 0.  1.
       -1   -1    0    0    0  501  0.00000000000E+00  0.00000000000E+00 -0.53336758207E+03  0.53336758210E+03  0.50400001928E-02 0. -1.
    10030    2    1    2    0    0  0.00000000000E+00  0.00000000000E+00  0.17352425134E+04  0.28019776775E+04  0.22000028012E+04 0.  0.
        5    1    3    3  502    0 -0.26421095294E+02 -0.48183125911E+03  0.21265922791E+04  0.21806595902E+04  0.46999998093E+01 0.  1.
       -5    1    3    3    0  502  0.26421095294E+02  0.48183125911E+03 -0.39134976577E+03  0.62131808737E+03  0.46999998093E+01 0. -1.
</event>
<event>
 5   0  0.1082209E-06  0.2199407E+04  0.7818609E-02  0.8518675E-01
        1   -1    0    0  501    0  0.00000000000E+00  0.00000000000E+00  0.14193886547E+04  0.14193886547E+04  0.50400001928E-02 0.  1.
       -1   -1    0    0    0  501  0.00000000000E+00  0.00000000000E+00 -0.85202045769E+03  0.85202045771E+03  0.50400001928E-02 0. -1.
    10030    2    1    2    0    0  0.00000000000E+00  0.00000000000E+00  0.56736819703E+03  0.22714091124E+04  0.21994073486E+04 0.  0.
        2    1    3    3  502    0  0.12943958180E+03  0.61777604218E+03  0.12136900926E+04  0.13680078525E+04  0.25500000920E-02 0.  1.
       -2    1    3    3    0  502 -0.12943958180E+03 -0.61777604218E+03 -0.64632189561E+03  0.90340125989E+03  0.25500000920E-02 0. -1.
</event>
<event>
 5   0  0.1137869E-06  0.2201692E+04  0.7818609E-02  0.8517724E-01
       -1   -1    0    0    0  501  0.00000000000E+00  0.00000000000E+00  0.64506634083E+03  0.64506634085E+03  0.50400001928E-02 0.  1.
        1   -1    0    0  501    0  0.00000000000E+00  0.00000000000E+00 -0.18786616856E+04  0.18786616856E+04  0.50400001928E-02 0. -1.
    10030    2    1    2    0    0  0.00000000000E+00  0.00000000000E+00 -0.12335953448E+04  0.25237280265E+04  0.22016915490E+04 0.  0.
        5    1    3    3  502    0  0.11027479872E+03 -0.47305486366E+02 -0.18711315017E+04  0.18749809404E+04  0.46999998093E+01 0. -1.
       -5    1    3    3    0  502 -0.11027479872E+03  0.47305486366E+02  0.63753615692E+03  0.64874708605E+03  0.46999998093E+01 0.  1.
</event>
<event>
 5   0  0.2606154E-06  0.2200164E+04  0.7818609E-02  0.8518360E-01
        2   -1    0    0  501    0  0.00000000000E+00  0.00000000000E+00  0.13056004606E+04  0.13056004606E+04  0.25500000920E-02 0. -1.
       -2   -1    0    0    0  501  0.00000000000E+00  0.00000000000E+00 -0.92691465975E+03  0.92691465976E+03  0.25500000920E-02 0.  1.
    10030    2    1    2    0    0  0.00000000000E+00  0.00000000000E+00  0.37868580080E+03  0.22325151203E+04  0.22001638181E+04 0.  0.
        2    1    3    3  502    0 -0.44654354014E+03  0.13042719128E+03  0.12008800925E+04  0.12878374828E+04  0.25500000920E-02 0. -1.
       -2    1    3    3    0  502  0.44654354014E+03 -0.13042719128E+03 -0.82219429172E+03  0.94467763751E+03  0.25500000920E-02 0.  1.
</event>
<event>
 5   0  0.2606154E-06  0.2201242E+04  0.7818609E-02  0.8517911E-01
       -2   -1    0    0    0  501  0.00000000000E+00  0.00000000000E+00  0.71756762565E+03  0.71756762566E+03  0.25500000920E-02 0. -1.
        2   -1    0    0  501    0  0.00000000000E+00  0.00000000000E+00 -0.16881563730E+04  0.16881563730E+04  0.25500000920E-02 0.  1.
    10030    2    1    2    0    0  0.00000000000E+00  0.00000000000E+00 -0.97058874732E+03  0.24057239986E+04  0.22012417953E+04 0.  0.
        2    1    3    3  502    0 -0.47658532127E+03  0.57554356650E+03  0.39784406232E+03  0.84656001755E+03  0.25500000920E-02 0. -1.
       -2    1    3    3    0  502  0.47658532127E+03 -0.57554356650E+03 -0.13684328096E+04  0.15591639811E+04  0.25500000920E-02 0.  1.
</event>
<event>
 5   0  0.1146827E-06  0.2196616E+04  0.7818609E-02  0.8519838E-01
        1   -1    0    0  501    0  0.00000000000E+00  0.00000000000E+00  0.12408567788E+04  0.12408567788E+04  0.50400001928E-02 0.  1.
       -1   -1    0    0    0  501  0.00000000000E+00  0.00000000000E+00 -0.97213532231E+03  0.97213532233E+03  0.50400001928E-02 0. -1.
    10030    2    1    2    0    0  0.00000000000E+00  0.00000000000E+00  0.26872145647E+03  0.22129921011E+04  0.21966162201E+04 0.  0.
        4    1    3    3  502    0 -0.25528837456E+03  0.11175067882E+03  0.12046453935E+04  0.12364596659E+04  0.12699999809E+01 0.  1.
       -4    1    3    3    0  502  0.25528837456E+03 -0.11175067882E+03 -0.93592393699E+03  0.97653243527E+03  0.12699999809E+01 0. -1.
</event>
<event>
 5   0  0.2524749E-06  0.2200036E+04  0.7818609E-02  0.8518413E-01
        2   -1    0    0  501    0  0.00000000000E+00  0.00000000000E+00  0.13099061718E+04  0.13099061718E+04  0.25500000920E-02 0. -1.
       -2   -1    0    0    0  501  0.00000000000E+00  0.00000000000E+00 -0.92376060600E+03  0.92376060600E+03  0.25500000920E-02 0.  1.
    10030    2    1    2    0    0  0.00000000000E+00  0.00000000000E+00  0.38614556580E+03  0.22336667778E+04  0.22000361080E+04 0.  0.
        4    1    3    3  502    0  0.39849689733E+03  0.65293826758E+02  0.12319321051E+04  0.12964263903E+04  0.12699999809E+01 0. -1.
       -4    1    3    3    0  502 -0.39849689733E+03 -0.65293826758E+02 -0.84578653931E+03  0.93724038750E+03  0.12699999809E+01 0.  1.
</event>
<event>
 5   0  0.8905000E-07  0.2200590E+04  0.7818609E-02  0.8518183E-01
        3   -1    0    0  501    0  0.00000000000E+00  0.00000000000E+00  0.90848478582E+03  0.90848479144E+03  0.10100000352E+00 0.  1.
       -3   -1    0    0    0  501  0.00000000000E+00  0.00000000000E+00 -0.13326023510E+04  0.13326023549E+04  0.10100000352E+00 0. -1.
    10030    2    1    2    0    0  0.00000000000E+00  0.00000000000E+00 -0.42411756522E+03  0.22410871463E+04  0.22005898955E+04 0.  0.
        4    1    3    3  502    0 -0.31472606591E+03  0.77927907400E+02  0.85872884723E+03  0.91790092127E+03  0.12699999809E+01 0.  1.
       -4    1    3    3    0  502  0.31472606591E+03 -0.77927907400E+02 -0.12828464124E+04  0.13231862250E+04  0.12699999809E+01 0. -1.
</event>
<event>
 5   0  0.1137869E-06  0.2204185E+04  0.7818609E-02  0.8516688E-01
       -1   -1    0    0    0  501  0.00000000000E+00  0.00000000000E+00  0.11819181871E+04  0.11819181871E+04  0.50400001928E-02 0.  1.
        1   -1    0    0  501    0  0.00000000000E+00  0.00000000000E+00 -0.10276579692E+04  0.10276579692E+04  0.50400001928E-02 0. -1.
    10030    2    1    2    0    0  0.00000000000E+00  0.00000000000E+00  0.15426021791E+03  0.22095761563E+04  0.22041847871E+04 0.  0.
        5    1    3    3  502    0  0.93429204236E+03  0.34832480352E+03 -0.39343661358E+03  0.10719357481E+04  0.46999998093E+01 0. -1.
       -5    1    3    3    0  502 -0.93429204236E+03 -0.34832480352E+03  0.54769683148E+03  0.11376404082E+04  0.46999998093E+01 0.  1.
</event>
<event>
 5   0  0.1144271E-06  0.2193053E+04  0.7818609E-02  0.8521325E-01
       -1   -1    0    0    0  501  0.00000000000E+00  0.00000000000E+00  0.11462221104E+04  0.11462221104E+04  0.50400001928E-02 0. -1.
        1   -1    0    0  501    0  0.00000000000E+00  0.00000000000E+00 -0.10489856198E+04  0.10489856198E+04  0.50400001928E-02 0.  1.
    10030    2    1    2    0    0  0.00000000000E+00  0.00000000000E+00  0.97236490626E+02  0.21952077302E+04  0.21930531329E+04 0.  0.
        3    1    3    3  502    0  0.49354291877E+03 -0.36429389593E+03  0.95839834155E+03  0.11379024767E+04  0.10100000352E+00 0. -1.
       -3    1    3    3    0  502 -0.49354291877E+03  0.36429389593E+03 -0.86116185092E+03  0.10573052534E+04  0.10100000352E+00 0.  1.
</event>
<event>
 5   0  0.2606154E-06  0.2196404E+04  0.7818609E-02  0.8519926E-01
        2   -1    0    0  501    0  0.00000000000E+00  0.00000000000E+00  0.18512816094E+04  0.18512816094E+04  0.25500000920E-02 0. -1.
       -2   -1    0    0    0  501  0.00000000000E+00  0.00000000000E+00 -0.65146630351E+03  0.65146630352E+03  0.25500000920E-02 0.  1.
    10030    2    1    2    0    0  0.00000000000E+00  0.00000000000E+00  0.11998153058E+04  0.25027479129E+04  0.21964039581E+04 0.  0.
        2    1    3    3  502    0 -0.82429854218E+03  0.44550544686E+02 -0.22540187672E+03  0.85572124183E+03  0.25500000920E-02 0.  1.
       -2    1    3    3    0  502  0.82429854218E+03 -0.44550544686E+02  0.14252171826E+04  0.16470266711E+04  0.25500000920E-02 0. -1.
</event>
<event>
 5   0  0.1107101E-06  0.2199763E+04  0.7818609E-02  0.8518527E-01
        1   -1    0    0  501    0  0.00000000000E+00  0.00000000000E+00  0.76204159226E+03  0.76204159228E+03  0.50400001928E-02 0.  1.
       -1   -1    0    0    0  501  0.00000000000E+00  0.00000000000E+00 -0.15874973254E+04  0.15874973255E+04  0.50400001928E-02 0. -1.
    10030    2    1    2    0    0  0.00000000000E+00  0.00000000000E+00 -0.82545573318E+03  0.23495389177E+04  0.21997627050E+04 0.  0.
        1    1    3    3  502    0 -0.28944530923E+03 -0.97197037071E+03 -0.86742963945E+03  0.13345183281E+04  0.50400001928E-02 0. -1.
       -1    1    3    3    0  502  0.28944530923E+03  0.97197037071E+03  0.41973906265E+02  0.10150205896E+04  0.50400001928E-02 0.  1.
</event>
<event>
 5   0  0.2606154E-06  0.2205694E+04  0.7818609E-02  0.8516062E-01
       -2   -1    0    0    0  501  0.00000000000E+00  0.00000000000E+00  0.71600317793E+03  0.71600317794E+03  0.25500000920E-02 0.  1.
        2   -1    0    0  501    0  0.00000000000E+00  0.00000000000E+00 -0.16986956287E+04  0.16986956287E+04  0.25500000920E-02 0. -1.
    10030    2    1    2    0    0  0.00000000000E+00  0.00000000000E+00 -0.98269245076E+03  0.24146988066E+04  0.22056939665E+04 0.  0.
        2    1    3    3  502    0 -0.65333206297E+03  0.82408103285E+03 -0.85496235245E+03  0.13553276199E+04  0.25500000920E-02 0.  1.
       -2    1    3    3    0  502  0.65333206297E+03 -0.82408103285E+03 -0.12773009831E+03  0.10593711867E+04  0.25500000920E-02 0. -1.
</event>
<event>
 5   0  0.2606154E-06  0.2202724E+04  0.7818609E-02  0.8517295E-01
        2   -1    0    0  501    0  0.00000000000E+00  0.00000000000E+00  0.12828621882E+04  0.12828621882E+04  0.25500000920E-02 0.  1.
       -2   -1    0    0    0  501  0.00000000000E+00  0.00000000000E+00 -0.94554034457E+03  0.94554034457E+03  0.25500000920E-02 0. -1.
    10030    2    1    2    0    0  0.00000000000E+00  0.00000000000E+00  0.33732184367E+03  0.22284025328E+04  0.22027237280E+04 0.  0.
        2    1    3    3  502    0  0.10540121802E+03 -0.89068503045E+03  0.81530628505E+03  0.12120864568E+04  0.25500000920E-02 0.  1.
       -2    1    3    3    0  502 -0.10540121802E+03  0.89068503045E+03 -0.47798444138E+03  0.10163160760E+04  0.25500000920E-02 0. -1.
</event>
<event>
 5   0  0.1144271E-06  0.2205339E+04  0.7818609E-02  0.8516209E-01
       -1   -1    0    0    0  501  0.00000000000E+00  0.00000000000E+00  0.16478262507E+04  0.16478262507E+04  0.50400001928E-02 0. -1.
        1   -1    0    0  501    0  0.00000000000E+00  0.00000000000E+00 -0.73786916116E+03  0.73786916117E+03  0.50400001928E-02 0.  1.
    10030    2    1    2    0    0  0.00000000000E+00  0.00000000000E+00  0.90995708952E+03  0.23856954119E+04  0.22053391334E+04 0.  0.
        3    1    3    3  502    0  0.31119481156E+03 -0.20936758844E+03  0.15766996169E+04  0.16206969766E+04  0.10100000352E+00 0. -1.
       -3    1    3    3    0  502 -0.31119481156E+03  0.20936758844E+03 -0.66674252741E+03  0.76499843522E+03  0.10100000352E+00 0.  1.
</event>
<event>
 5   0  0.1107101E-06  0.2200169E+04  0.7818609E-02  0.8518358E-01
       -1   -1    0    0    0  501  0.00000000000E+00  0.00000000000E+00  0.85052652535E+03  0.85052652537E+03  0.50400001928E-02 0. -1.
        1   -1    0    0  501    0  0.00000000000E+00  0.00000000000E+00 -0.14228667909E+04  0.14228667909E+04  0.50400001928E-02 0.  1.
    10030    2    1    2    0    0  0.00000000000E+00  0.00000000000E+00 -0.57234026558E+03  0.22733933163E+04  0.22001690369E+04 0.  0.
        1    1    3    3  502    0 -0.14809340909E+03  0.95333845434E+03  0.26000483843E+03  0.99919386626E+03  0.50400001928E-02 0. -1.
       -1    1    3    3    0  502  0.14809340909E+03 -0.95333845434E+03 -0.83234510401E+03  0.12741994501E+04  0.50400001928E-02 0.  1.
</event>
<event>
 5   0  0.1144271E-06  0.2202663E+04  0.7818609E-02  0.8517321E-01
       -1   -1    0    0    0  501  0.00000000000E+00  0.00000000000E+00  0.12094242229E+04  0.12094242229E+04  0.50400001928E-02 0.  1.
        1   -1    0    0  501    0  0.00000000000E+00  0.00000000000E+00 -0.10028995828E+04  0.10028995828E+04  0.50400001928E-02 0. -1.
    10030    2    1    2    0    0  0.00000000000E+00  0.00000000000E+00  0.20652464014E+03  0.22123238057E+04  0.22026629779E+04 0.  0.
        3    1    3    3  502    0 -0.28257275098E+03  0.93631549684E+03  0.61183975125E+03  0.11536385745E+04  0.10100000352E+00 0.  1.
       -3    1    3    3    0  502  0.28257275098E+03 -0.93631549684E+03 -0.40531511111E+03  0.10586852312E+04  0.10100000352E+00 0. -1.
</event>
<event>
 5   0  0.8905000E-07  0.2200145E+04  0.7818609E-02  0.8518368E-01
        3   -1    0    0  501    0  0.00000000000E+00  0.00000000000E+00  0.13242676974E+04  0.13242677013E+04  0.10100000352E+00 0.  1.
       -3   -1    0    0    0  501  0.00000000000E+00  0.00000000000E+00 -0.91383265690E+03  0.91383266248E+03  0.10100000352E+00 0. -1.
    10030    2    1    2    0    0  0.00000000000E+00  0.00000000000E+00  0.41043504051E+03  0.22381003638E+04  0.22001446125E+04 0.  0.
        2    1    3    3  502    0 -0.72114162184E+03 -0.80425583287E+03 -0.64255445644E+01  0.10802379234E+04  0.25500000920E-02 0. -1.
       -2    1    3    3    0  502  0.72114162184E+03  0.80425583287E+03  0.41686058508E+03  0.11578624404E+04  0.25500000920E-02 0.  1.
</event>
<event>
 5   0  0.1146827E-06  0.2198362E+04  0.7818609E-02  0.8519110E-01
       -1   -1    0    0    0  501  0.00000000000E+00  0.00000000000E+00  0.90571189245E+03  0.90571189247E+03  0.50400001928E-02 0.  1.
        1   -1    0    0  501    0  0.00000000000E+00  0.00000000000E+00 -0.13339772296E+04  0.13339772296E+04  0.50400001928E-02 0. -1.
    10030    2    1    2    0    0  0.00000000000E+00  0.00000000000E+00 -0.42826533718E+03  0.22396891221E+04  0.21983621550E+04 0.  0.
        4    1    3    3  502    0  0.57833853351E+03  0.44597593423E+03  0.62278910530E+03  0.95981137513E+03  0.12699999809E+01 0.  1.
       -4    1    3    3    0  502 -0.57833853351E+03 -0.44597593423E+03 -0.10510544425E+04  0.12798777470E+04  0.12699999809E+01 0. -1.
</event>
<event>
 5   0  0.1146827E-06  0.2199767E+04  0.7818609E-02  0.8518525E-01
       -1   -1    0    0    0  501  0.00000000000E+00  0.00000000000E+00  0.85632315829E+03  0.85632315830E+03  0.50400001928E-02 0. -1.
        1   -1    0    0  501    0  0.00000000000E+00  0.00000000000E+00 -0.14127184631E+04  0.14127184631E+04  0.50400001928E-02 0.  1.
    10030    2    1    2    0    0  0.00000000000E+00  0.00000000000E+00 -0.55639530477E+03  0.22690416214E+04  0.21997668386E+04 0.  0.
        4    1    3    3  502    0  0.14263989293E+03 -0.35531968547E+03  0.78536186322E+03  0.87372369033E+03  0.12699999809E+01 0. -1.
       -4    1    3    3    0  502 -0.14263989293E+03  0.35531968547E+03 -0.13417571680E+04  0.13953179310E+04  0.12699999809E+01 0.  1.
</event>
<event>
 5   0  0.2581058E-06  0.2200304E+04  0.7818609E-02  0.8518302E-01
        2   -1    0    0  501    0  0.00000000000E+00  0.00000000000E+00  0.18878580160E+04  0.18878580160E+04  0.25500000920E-02 0. -1.
       -2   -1    0    0    0  501  0.00000000000E+00  0.00000000000E+00 -0.64111510626E+03  0.64111510627E+03  0.25500000920E-02 0.  1.
    10030    2    1    2    0    0  0.00000000000E+00  0.00000000000E+00  0.12467429097E+04  0.25289731223E+04  0.22003038813E+04 0.  0.
        1    1    3    3  502    0  0.82839815455E+03  0.61781041826E+03  0.10571001804E+04  0.14783078187E+04  0.50400001928E-02 0. -1.
       -1    1    3    3    0  502 -0.82839815455E+03 -0.61781041826E+03  0.18964272936E+03  0.10506653036E+04  0.50400001928E-02 0.  1.
</event>
<event>
 5   0  0.2532239E-06  0.2201336E+04  0.7818609E-02  0.8517872E-01
        2   -1    0    0  501    0  0.00000000000E+00  0.00000000000E+00  0.14158791225E+04  0.14158791225E+04  0.25500000920E-02 0. -1.
       -2   -1    0    0    0  501  0.00000000000E+00  0.00000000000E+00 -0.85563080531E+03  0.85563080531E+03  0.25500000920E-02 0.  1.
    10030    2    1    2    0    0  0.00000000000E+00  0.00000000000E+00  0.56024831724E+03  0.22715099279E+04  0.22013357707E+04 0.  0.
        3    1    3    3  502    0 -0.21883250545E+03  0.46180453297E+03  0.12860430960E+04  0.13838561873E+04  0.10100000352E+00 0. -1.
       -3    1    3    3    0  502  0.21883250545E+03 -0.46180453297E+03 -0.72579477875E+03  0.88765374059E+03  0.10100000352E+00 0.  1.
</event>
<event>
 5   0  0.1137869E-06  0.2200597E+04  0.7818609E-02  0.8518180E-01
       -1   -1    0    0    0  501  0.00000000000E+00  0.00000000000E+00  0.36779068847E+03  0.36779068851E+03  0.50400001928E-02 0.  1.
        1   -1    0    0  501    0  0.00000000000E+00  0.00000000000E+00 -0.32917015040E+04  0.32917015040E+04  0.50400001928E-02 0. -1.
    10030    2    1    2    0    0  0.00000000000E+00  0.00000000000E+00 -0.29239108156E+04  0.36594921925E+04  0.22005973393E+04 0.  0.
        5    1    3    3  502    0 -0.43994552140E+03  0.42983767796E+03  0.55186063787E+02  0.61755978078E+03  0.46999998093E+01 0.  1.
       -5    1    3    3    0  502  0.43994552140E+03 -0.42983767796E+03 -0.29790968794E+04  0.30419324118E+04  0.46999998093E+01 0. -1.
</event>
<event>
 5   0  0.2606154E-06  0.2199883E+04  0.7818609E-02  0.8518477E-01
       -2   -1    0    0    0  501  0.00000000000E+00  0.00000000000E+00  0.37041260512E+03  0.37041260513E+03  0.25500000920E-02 0. -1.
        2   -1    0    0  501    0  0.00000000000E+00  0.00000000000E+00 -0.32662793809E+04  0.32662793809E+04  0.25500000920E-02 0.  1.
    10030    2    1    2    0    0  0.00000000000E+00  0.00000000000E+00 -0.28958667758E+04  0.36366919860E+04  0.21998827738E+04 0.  0.
        2    1    3    3  502    0 -0.10544823381E+04  0.28702997200E+03 -0.12417764346E+04  0.16541849714E+04  0.25500000920E-02 0.  1.
       -2    1    3    3    0  502  0.10544823381E+04 -0.28702997200E+03 -0.16540903412E+04  0.19825070146E+04  0.25500000920E-02 0. -1.
</event>
<event>
 5   0  0.2524749E-06  0.2199014E+04  0.7818609E-02  0.8518839E-01
        2   -1    0    0  501    0  0.00000000000E+00  0.00000000000E+00  0.16505476933E+04  0.16505476933E+04  0.25500000920E-02 0.  1.
       -2   -1    0    0    0  501  0.00000000000E+00  0.00000000000E+00 -0.73243277743E+03  0.73243277743E+03  0.25500000920E-02 0. -1.
    10030    2    1    2    0    0  0.00000000000E+00  0.00000000000E+00  0.91811491586E+03  0.23829804707E+04  0.21990136255E+04 0.  0.
        4    1    3    3  502    0 -0.40221843514E+03  0.34206656919E+03  0.15041700590E+04  0.15941513061E+04  0.12699999809E+01 0.  1.
       -4    1    3    3    0  502  0.40221843514E+03 -0.34206656919E+03 -0.58605514314E+03  0.78882916466E+03  0.12699999809E+01 0. -1.
</event>
<event>
 5   0  0.1146827E-06  0.2199830E+04  0.7818609E-02  0.8518499E-01
       -1   -1    0    0    0  501  0.00000000000E+00  0.00000000000E+00  0.65982515157E+03  0.65982515159E+03  0.50400001928E-02 0. -1.
        1   -1    0    0  501    0  0.00000000000E+00  0.00000000000E+00 -0.18335356053E+04  0.18335356053E+04  0.50400001928E-02 0.  1.
    10030    2    1    2    0    0  0.00000000000E+00  0.00000000000E+00 -0.11737104537E+04  0.24933607569E+04  0.21998299104E+04 0.  0.
        4    1    3    3  502    0 -0.12845318605E+03  0.10156022092E+04 -0.13084969091E+03  0.10320229274E+04  0.12699999809E+01 0.  1.
       -4    1    3    3    0  502  0.12845318605E+03 -0.10156022092E+04 -0.10428607628E+04  0.14613378294E+04  0.12699999809E+01 0. -1.
</event>
<event>
 5   0  0.2556869E-06  0.2199601E+04  0.7818609E-02  0.8518594E-01
        2   -1    0    0  501    0  0.00000000000E+00  0.00000000000E+00  0.14923568153E+04  0.14923568153E+04  0.25500000920E-02 0. -1.
       -2   -1    0    0    0  501  0.00000000000E+00  0.00000000000E+00 -0.81050387027E+03  0.81050387028E+03  0.25500000920E-02 0.  1.
    10030    2    1    2    0    0  0.00000000000E+00  0.00000000000E+00  0.68185294504E+03  0.23028606856E+04  0.21996008498E+04 0.  0.
        5    1    3    3  502    0  0.10735582307E+04 -0.21506308046E+03  0.23232906511E+03  0.11192757871E+04  0.46999998093E+01 0.  1.
       -5    1    3    3    0  502 -0.10735582307E+04  0.21506308046E+03  0.44952387993E+03  0.11835848984E+04  0.46999998093E+01 0. -1.
</event>
<event>
 5   0  0.2532239E-06  0.2201674E+04  0.7818609E-02  0.8517732E-01
       -2   -1    0    0    0  501  0.00000000000E+00  0.00000000000E+00  0.76994142314E+03  0.76994142315E+03  0.25500000920E-02 0.  1.
        2   -1    0    0  501    0  0.00000000000E+00  0.00000000000E+00 -0.15739400229E+04  0.15739400229E+04  0.25500000920E-02 0. -1.
    10030    2    1    2    0    0  0.00000000000E+00  0.00000000000E+00 -0.80399859973E+03  0.23438814460E+04  0.22016735645E+04 0.  0.
        3    1    3    3  502    0 -0.34241939162E+02 -0.27701013256E+03  0.73164470408E+03  0.78307797003E+03  0.10100000352E+00 0.  1.
       -3    1    3    3    0  502  0.34241939162E+02  0.27701013256E+03 -0.15356433038E+04  0.15608034760E+04  0.10100000352E+00 0. -1.
</event>
<event>
 5   0  0.1146827E-06  0.2200117E+04  0.7818609E-02  0.8518380E-01
        1   -1    0    0  501    0  0.00000000000E+00  0.00000000000E+00  0.16732315005E+04  0.16732315005E+04  0.50400001928E-02 0. -1.
       -1   -1    0    0    0  501  0.00000000000E+00  0.00000000000E+00 -0.72322831700E+03  0.72322831702E+03  0.50400001928E-02 0.  1.
    10030    2    1    2    0    0  0.00000000000E+00  0.00000000000E+00  0.95000318351E+03  0.23964598175E+04  0.22001167261E+04 0.  0.
        4    1    3    3  502    0  0.39935237074E+03  0.90876735009E+03 -0.41425981390E+02  0.99350799566E+03  0.12699999809E+01 0.  1.
       -4    1    3    3    0  502 -0.39935237074E+03 -0.90876735009E+03  0.99142916490E+03  0.14029518219E+04  0.12699999809E+01 0. -1.
</event>
<event>
 5   0  0.1144271E-06  0.2199572E+04  0.7818609E-02  0.8518606E-01
        1   -1    0    0  501    0  0.00000000000E+00  0.00000000000E+00  0.12905557736E+04  0.12905557736E+04  0.50400001928E-02 0. -1.
       -1   -1    0    0    0  501  0.00000000000E+00  0.00000000000E+00 -0.93721536593E+03  0.93721536594E+03  0.50400001928E-02 0.  1.
    10030    2    1    2    0    0  0.00000000000E+00  0.00000000000E+00  0.35334040768E+03  0.22277711396E+04  0.21995715052E+04 0.  0.
        3    1    3    3  502    0  0.10596401546E+03 -0.10943958402E+04  0.15190132899E+03  0.11099570494E+04  0.10100000352E+00 0.  1.
       -3    1    3    3    0  502 -0.10596401546E+03  0.10943958402E+04  0.20143907869E+03  0.11178140902E+04  0.10100000352E+00 0. -1.
</event>
<event>
 5   0  0.2524749E-06  0.2203681E+04  0.7818609E-02  0.8516897E-01
        2   -1    0    0  501    0  0.00000000000E+00  0.00000000000E+00  0.16939770004E+04  0.16939770004E+04  0.25500000920E-02 0.  1.
       -2   -1    0    0    0  501  0.00000000000E+00  0.00000000000E+00 -0.71668787706E+03  0.71668787706E+03  0.25500000920E-02 0. -1.
    10030    2    1    2    0    0  0.00000000000E+00  0.00000000000E+00  0.97728912331E+03  0.24106648774E+04  0.22036812657E+04 0.  0.
        4    1    3    3  502    0 -0.19108166210E+03 -0.10302196231E+03 -0.69306191277E+03  0.72626589769E+03  0.12699999809E+01 0. -1.
       -4    1    3    3    0  502  0.19108166210E+03  0.10302196231E+03  0.16703510361E+04  0.16843989797E+04  0.12699999809E+01 0.  1.
</event>
<event>
 5   0  0.2532239E-06  0.2200317E+04  0.7818609E-02  0.8518296E-01
       -2   -1    0    0    0  501  0.00000000000E+00  0.00000000000E+00  0.73674443789E+03  0.73674443790E+03  0.25500000920E-02 0. -1.
        2   -1    0    0  501    0  0.00000000000E+00  0.00000000000E+00 -0.16428337814E+04  0.16428337814E+04  0.25500000920E-02 0.  1.
    10030    2    1    2    0    0  0.00000000000E+00  0.00000000000E+00 -0.90608934346E+03  0.23795782192E+04  0.22003169324E+04 0.  0.
        3    1    3    3  502    0  0.74809090238E+03  0.59122972875E+03  0.14044141280E+03  0.96380308726E+03  0.10100000352E+00 0. -1.
       -3    1    3    3    0  502 -0.74809090238E+03 -0.59122972875E+03 -0.10465307563E+04  0.14157751320E+04  0.10100000352E+00 0.  1.
</event>
<event>
 5   0  0.2606154E-06  0.2204582E+04  0.7818609E-02  0.8516523E-01
       -2   -1    0    0    0  501  0.00000000000E+00  0.00000000000E+00  0.71849154344E+03  0.71849154344E+03  0.25500000920E-02 0. -1.
        2   -1    0    0  501    0  0.00000000000E+00  0.00000000000E+00 -0.16911062636E+04  0.16911062636E+04  0.25500000920E-02 0.  1.
    10030    2    1    2    0    0  0.00000000000E+00  0.00000000000E+00 -0.97261472014E+03  0.24095978070E+04  0.22045820914E+04 0.  0.
        2    1    3    3  502    0 -0.10801777287E+04 -0.19307781023E+03 -0.60085088186E+03  0.12510334722E+04  0.25500000920E-02 0.  1.
       -2    1    3    3    0  502  0.10801777287E+04  0.19307781023E+03 -0.37176383828E+03  0.11585643348E+04  0.25500000920E-02 0. -1.
</event>
<event>
 5   0  0.2606154E-06  0.2201679E+04  0.7818609E-02  0.8517730E-01
        2   -1    0    0  501    0  0.00000000000E+00  0.00000000000E+00  0.14345453515E+04  0.14345453515E+04  0.25500000920E-02 0. -1.
       -2   -1    0    0    0  501  0.00000000000E+00  0.00000000000E+00 -0.84476044426E+03  0.84476044426E+03  0.25500000920E-02 0.  1.
    10030    2    1    2    0    0  0.00000000000E+00  0.00000000000E+00  0.58978490720E+03  0.22793057957E+04  0.22016786036E+04 0.  0.
        2    1    3    3  502    0  0.94344228088E+03 -0.47295524005E+03 -0.29322200266E+02  0.10557602890E+04  0.25500000920E-02 0.  1.
       -2    1    3    3    0  502 -0.94344228088E+03  0.47295524005E+03  0.61910710747E+03  0.12235455067E+04  0.25500000920E-02 0. -1.
</event>
<event>
 5   0  0.2524749E-06  0.2197727E+04  0.7818609E-02  0.8519375E-01
        2   -1    0    0  501    0  0.00000000000E+00  0.00000000000E+00  0.18567097852E+04  0.18567097852E+04  0.25500000920E-02 0. -1.
       -2   -1    0    0    0  501  0.00000000000E+00  0.00000000000E+00 -0.65034468805E+03  0.65034468805E+03  0.25500000920E-02 0.  1.
    10030    2    1    2    0    0  0.00000000000E+00  0.00000000000E+00  0.12063650971E+04  0.25070544732E+04  0.21977273225E+04 0.  0.
        4    1    3    3  502    0 -0.54012453587E+03  0.95686646531E+03  0.61813403660E+03  0.12607217166E+04  0.12699999809E+01 0. -1.
       -4    1    3    3    0  502  0.54012453587E+03 -0.95686646531E+03  0.58823106052E+03  0.12463327566E+04  0.12699999809E+01 0.  1.
</event>
<event>
 5   0  0.2556869E-06  0.2200306E+04  0.7818609E-02  0.8518301E-01
        2   -1    0    0  501    0  0.00000000000E+00  0.00000000000E+00  0.20502997088E+04  0.20502997088E+04  0.25500000920E-02 0. -1.
       -2   -1    0    0    0  501  0.00000000000E+00  0.00000000000E+00 -0.59032196581E+03  0.59032196582E+03  0.25500000920E-02 0.  1.
    10030    2    1    2    0    0  0.00000000000E+00  0.00000000000E+00  0.14599777430E+04  0.26406216746E+04  0.22003063010E+04 0.  0.
        5    1    3    3  502    0 -0.97523570326E+03  0.45622101036E+03  0.45871875929E+03  0.11703278504E+04  0.46999998093E+01 0. -1.
       -5    1    3    3    0  502  0.97523570326E+03 -0.45622101036E+03  0.10012589837E+04  0.14702938242E+04  0.46999998093E+01 0.  1.
</event>
<event>
 5   0  0.2556869E-06  0.2200068E+04  0.7818609E-02  0.8518400E-01
        2   -1    0    0  501    0  0.00000000000E+00  0.00000000000E+00  0.22050289927E+04  0.22050289927E+04  0.25500000920E-02 0.  1.
       -2   -1    0    0    0  501  0.00000000000E+00  0.00000000000E+00 -0.54877973383E+03  0.54877973384E+03  0.25500000920E-02 0. -1.
    10030    2    1    2    0    0  0.00000000000E+00  0.00000000000E+00  0.16562492588E+04  0.27538087265E+04  0.22000683841E+04 0.  0.
        5    1    3    3  502    0 -0.32215987093E+02  0.94480151320E+03  0.15321560750E+04  0.18003366622E+04  0.46999998093E+01 0. -1.
       -5    1    3    3    0  502  0.32215987093E+02 -0.94480151320E+03  0.12409318389E+03  0.95347206433E+03  0.46999998093E+01 0.  1.
</event>
<event>
 5   0  0.2532239E-06  0.2199794E+04  0.7818609E-02  0.8518514E-01
       -2   -1    0    0    0  501  0.00000000000E+00  0.00000000000E+00  0.74429431019E+03  0.74429431019E+03  0.25500000920E-02 0.  1.
        2   -1    0    0  501    0  0.00000000000E+00  0.00000000000E+00 -0.16253971028E+04  0.16253971028E+04  0.25500000920E-02 0. -1.
    10030    2    1    2    0    0  0.00000000000E+00  0.00000000000E+00 -0.88110279259E+03  0.23696914130E+04  0.21997943680E+04 0.  0.
        3    1    3    3  502    0 -0.79682163954E+02 -0.89134702813E+03  0.24830954042E+03  0.92871223201E+03  0.10100000352E+00 0.  1.
       -3    1    3    3    0  502  0.79682163954E+02  0.89134702813E+03 -0.11294123330E+04  0.14409791810E+04  0.10100000352E+00 0. -1.
</event>
<event>
 5   0  0.1107101E-06  0.2201115E+04  0.7818609E-02  0.8517964E-01
        1   -1    0    0  501    0  0.00000000000E+00  0.00000000000E+00  0.11671283255E+04  0.11671283255E+04  0.50400001928E-02 0. -1.
       -1   -1    0    0    0  501  0.00000000000E+00  0.00000000000E+00 -0.10377840024E+04  0.10377840024E+04  0.50400001928E-02 0.  1.
    10030    2    1    2    0    0  0.00000000000E+00  0.00000000000E+00  0.12934432310E+03  0.22049123279E+04  0.22011152673E+04 0.  0.
        1    1    3    3  502    0 -0.10892523913E+04 -0.10758003738E+03 -0.50342578221E+02  0.10957091820E+04  0.50400001928E-02 0. -1.
       -1    1    3    3    0  502  0.10892523913E+04  0.10758003738E+03  0.17968690132E+03  0.11092031459E+04  0.50400001928E-02 0.  1.
</event>
<event>
 5   0  0.1107101E-06  0.2200043E+04  0.7818609E-02  0.8518410E-01
       -1   -1    0    0    0  501  0.00000000000E+00  0.00000000000E+00  0.14361406276E+04  0.14361406276E+04  0.50400001928E-02 0. -1.
        1   -1    0    0  501    0  0.00000000000E+00  0.00000000000E+00 -0.84256894027E+03  0.84256894029E+03  0.50400001928E-02 0.  1.
    10030    2    1    2    0    0  0.00000000000E+00  0.00000000000E+00  0.59357168729E+03  0.22787095679E+04  0.22000431693E+04 0.  0.
        1    1    3    3  502    0 -0.10275105556E+04 -0.35923218648E+03  0.46127817237E+03  0.11822027144E+04  0.50400001928E-02 0. -1.
       -1    1    3    3    0  502  0.10275105556E+04  0.35923218648E+03  0.13229351492E+03  0.10965068535E+04  0.50400001928E-02 0.  1.
</event>
<event>
 5   0  0.2606154E-06  0.2199467E+04  0.7818609E-02  0.8518650E-01
       -2   -1    0    0    0  501  0.00000000000E+00  0.00000000000E+00  0.77111364930E+03  0.77111364931E+03  0.25500000920E-02 0.  1.
        2   -1    0    0  501    0  0.00000000000E+00  0.00000000000E+00 -0.15683993059E+04  0.15683993059E+04  0.25500000920E-02 0. -1.
    10030    2    1    2    0    0  0.00000000000E+00  0.00000000000E+00 -0.79728565662E+03  0.23395129552E+04  0.21994673104E+04 0.  0.
        2    1    3    3  502    0 -0.98291416806E+03  0.49154813070E+03 -0.44216622074E+03  0.11845888710E+04  0.25500000920E-02 0.  1.
       -2    1    3    3    0  502  0.98291416806E+03 -0.49154813070E+03 -0.35511943588E+03  0.11549240842E+04  0.25500000920E-02 0. -1.
</event>
<event>
 5   0  0.2524749E-06  0.2199958E+04  0.7818609E-02  0.8518446E-01
       -2   -1    0    0    0  501  0.00000000000E+00  0.00000000000E+00  0.90454955081E+03  0.90454955081E+03  0.25500000920E-02 0.  1.
        2   -1    0    0  501    0  0.00000000000E+00  0.00000000000E+00 -0.13376313819E+04  0.13376313819E+04  0.25500000920E-02 0. -1.
    10030    2    1    2    0    0  0.00000000000E+00  0.00000000000E+00 -0.43308183113E+03  0.22421809327E+04  0.21999580593E+04 0.  0.
        4    1    3    3  502    0  0.14283648634E+03 -0.41501495396E+03  0.81143623380E+03  0.92253457835E+03  0.12699999809E+01 0.  1.
       -4    1    3    3    0  502 -0.14283648634E+03  0.41501495396E+03 -0.12445180649E+04  0.13196463544E+04  0.12699999809E+01 0. -1.
</event>
<event>
 5   0  0.1137869E-06  0.2199835E+04  0.7818609E-02  0.8518497E-01
        1   -1    0    0  501    0  0.00000000000E+00  0.00000000000E+00  0.12777303287E+04  0.12777303287E+04  0.50400001928E-02 0. -1.
       -1   -1    0    0    0  501  0.00000000000E+00  0.00000000000E+00 -0.94684971342E+03  0.94684971343E+03  0.50400001928E-02 0.  1.
    10030    2    1    2    0    0  0.00000000000E+00  0.00000000000E+00  0.33088061530E+03  0.22245800422E+04  0.21998350807E+04 0.  0.
        5    1    3    3  502    0  0.64513488763E+03 -0.60788589645E+03  0.82397373484E+03  0.12102392706E+04  0.46999998093E+01 0. -1.
       -5    1    3    3    0  502 -0.64513488763E+03  0.60788589645E+03 -0.49309311954E+03  0.10143407716E+04  0.46999998093E+01 0.  1.
</event>
<event>
 5   0  0.2581058E-06  0.2200383E+04  0.7818609E-02  0.8518269E-01
       -2   -1    0    0    0  501  0.00000000000E+00  0.00000000000E+00  0.99510533935E+03  0.99510533935E+03  0.25500000920E-02 0.  1.
        2   -1    0    0  501    0  0.00000000000E+00  0.00000000000E+00 -0.12163750368E+04  0.12163750368E+04  0.25500000920E-02 0. -1.
    10030    2    1    2    0    0  0.00000000000E+00  0.00000000000E+00 -0.22126969743E+03  0.22114803761E+04  0.22003829610E+04 0.  0.
        1    1    3    3  502    0 -0.13430194340E+03  0.89081644854E+03  0.52408036659E+03  0.10422337491E+04  0.50400001928E-02 0.  1.
       -1    1    3    3    0  502  0.13430194340E+03 -0.89081644854E+03 -0.74535006402E+03  0.11692466271E+04  0.50400001928E-02 0. -1.
</event>
<event>
 5   0  0.1137869E-06  0.2199311E+04  0.7818609E-02  0.8518715E-01
        1   -1    0    0  501    0  0.00000000000E+00  0.00000000000E+00  0.15122842468E+04  0.15122842468E+04  0.50400001928E-02 0. -1.
       -1   -1    0    0    0  501  0.00000000000E+00  0.00000000000E+00 -0.79961290428E+03  0.79961290430E+03  0.50400001928E-02 0.  1.
    10030    2    1    2    0    0  0.00000000000E+00  0.00000000000E+00  0.71267134248E+03  0.23118971511E+04  0.21993107999E+04 0.  0.
        5    1    3    3  502    0 -0.22424056422E+03 -0.10173007642E+04  0.72655103396E+03  0.12700721123E+04  0.46999998093E+01 0. -1.
       -5    1    3    3    0  502  0.22424056422E+03  0.10173007642E+04 -0.13879691482E+02  0.10418250387E+04  0.46999998093E+01 0.  1.
</event>
<event>
 5   0  0.1146827E-06  0.2200006E+04  0.7818609E-02  0.8518426E-01
       -1   -1    0    0    0  501  0.00000000000E+00  0.00000000000E+00  0.16781892965E+04  0.16781892965E+04  0.50400001928E-02 0.  1.
        1   -1    0    0  501    0  0.00000000000E+00  0.00000000000E+00 -0.72101928982E+03  0.72101928984E+03  0.50400001928E-02 0. -1.
    10030    2    1    2    0    0  0.00000000000E+00  0.00000000000E+00  0.95717000668E+03  0.23992085863E+04  0.22000062316E+04 0.  0.
        4    1    3    3  502    0 -0.53355307598E+03 -0.76487092096E+03  0.11147566728E+04  0.14534065030E+04  0.12699999809E+01 0.  1.
       -4    1    3    3    0  502  0.53355307598E+03  0.76487092096E+03 -0.15758666608E+03  0.94580208334E+03  0.12699999809E+01 0. -1.
</event>
<event>
 5   0  0.1107101E-06  0.2199741E+04  0.7818609E-02  0.8518536E-01
       -1   -1    0    0    0  501  0.00000000000E+00  0.00000000000E+00  0.12319675965E+04  0.12319675965E+04  0.50400001928E-02 0. -1.
        1   -1    0    0  501    0  0.00000000000E+00  0.00000000000E+00 -0.98193767935E+03  0.98193767936E+03  0.50400001928E-02 0.  1.
    10030    2    1    2    0    0  0.00000000000E+00  0.00000000000E+00  0.25002991718E+03  0.22139052759E+04  0.21997412601E+04 0.  0.
        1    1    3    3  502    0  0.19629331426E+03 -0.23354066826E+03  0.11885324242E+04  0.12270621958E+04  0.50400001928E-02 0. -1.
       -1    1    3    3    0  502 -0.19629331426E+03  0.23354066826E+03 -0.93850250704E+03  0.98684308008E+03  0.50400001928E-02 0.  1.
</event>
<event>
 5   0  0.1107101E-06  0.2197934E+04  0.7818609E-02  0.8519289E-01
        1   -1    0    0  501    0  0.00000000000E+00  0.00000000000E+00  0.10656423539E+04  0.10656423539E+04  0.50400001928E-02 0.  1.
       -1   -1    0    0    0  501  0.00000000000E+00  0.00000000000E+00 -0.11333335074E+04  0.11333335074E+04  0.50400001928E-02 0. -1.
    10030    2    1    2    0    0  0.00000000000E+00  0.00000000000E+00 -0.67691153521E+02  0.21989758613E+04  0.21979337447E+04 0.  0.
        1    1    3    3  502    0  0.18129094625E+02 -0.82898619962E+03 -0.75542356443E+03  0.11217002920E+04  0.50400001928E-02 0. -1.
       -1    1    3    3    0  502 -0.18129094625E+02  0.82898619962E+03  0.68773241091E+03  0.10772755693E+04  0.50400001928E-02 0.  1.
</event>
<event>
 5   0  0.1107101E-06  0.2200419E+04  0.7818609E-02  0.8518254E-01
        1   -1    0    0  501    0  0.00000000000E+00  0.00000000000E+00  0.22042279462E+04  0.22042279462E+04  0.50400001928E-02 0.  1.
       -1   -1    0    0    0  501  0.00000000000E+00  0.00000000000E+00 -0.54915408600E+03  0.54915408602E+03  0.50400001928E-02 0. -1.
    10030    2    1    2    0    0  0.00000000000E+00  0.00000000000E+00  0.16550738602E+04  0.27533820322E+04  0.22004188539E+04 0.  0.
        1    1    3    3  502    0 -0.10011700998E+04 -0.40599005410E+03  0.56718465235E+03  0.12201917565E+04  0.50400001928E-02 0. -1.
       -1    1    3    3    0  502  0.10011700998E+04  0.40599005410E+03  0.10878892079E+04  0.15331902757E+04  0.50400001928E-02 0.  1.
</event>
<event>
 5   0  0.1082209E-06  0.2200017E+04  0.7818609E-02  0.8518421E-01
       -1   -1    0    0    0  501  0.00000000000E+00  0.00000000000E+00  0.49496621402E+03  0.49496621405E+03  0.50400001928E-02 0. -1.
        1   -1    0    0  501    0  0.00000000000E+00  0.00000000000E+00 -0.24446499977E+04  0.24446499977E+04  0.50400001928E-02 0.  1.
    10030    2    1    2    0    0  0.00000000000E+00  0.00000000000E+00 -0.19496837837E+04  0.29396162118E+04  0.22000174127E+04 0.  0.
        2    1    3    3  502    0 -0.21879706235E+03  0.18256925876E+03  0.44479079722E+03  0.52824477473E+03  0.25500000920E-02 0. -1.
       -2    1    3    3    0  502  0.21879706235E+03 -0.18256925876E+03 -0.23944745809E+04  0.24113714370E+04  0.25500000920E-02 0.  1.
</event>
<event>
 5   0  0.1137869E-06  0.2198719E+04  0.7818609E-02  0.8518962E-01
       -1   -1    0    0    0  501  0.00000000000E+00  0.00000000000E+00  0.11042076416E+04  0.11042076416E+04  0.50400001928E-02 0.  1.
        1   -1    0    0  501    0  0.00000000000E+00  0.00000000000E+00 -0.10945321593E+04  0.10945321593E+04  0.50400001928E-02 0. -1.
    10030    2    1    2    0    0  0.00000000000E+00  0.00000000000E+00  0.96754823706E+01  0.21987398009E+04  0.21987185125E+04 0.  0.
        5    1    3    3  502    0 -0.53820220437E+03  0.16996611037E+03  0.94825484278E+03  0.11035213765E+04  0.46999998093E+01 0.  1.
       -5    1    3    3    0  502  0.53820220437E+03 -0.16996611037E+03 -0.93857936041E+03  0.10952184244E+04  0.46999998093E+01 0. -1.
</event>
<event>
 5   0  0.2532239E-06  0.2199968E+04  0.7818609E-02  0.8518441E-01
       -2   -1    0    0    0  501  0.00000000000E+00  0.00000000000E+00  0.61214823453E+03  0.61214823454E+03  0.25500000920E-02 0. -1.
        2   -1    0    0  501    0  0.00000000000E+00  0.00000000000E+00 -0.19765880300E+04  0.19765880300E+04  0.25500000920E-02 0.  1.
    10030    2    1    2    0    0  0.00000000000E+00  0.00000000000E+00 -0.13644397955E+04  0.25887362645E+04  0.21999680661E+04 0.  0.
        3    1    3    3  502    0  0.29486491635E+03  0.10301767545E+04 -0.38979867127E+03  0.11402422895E+04  0.10100000352E+00 0. -1.
       -3    1    3    3    0  502 -0.29486491635E+03 -0.10301767545E+04 -0.97464112419E+03  0.14484939750E+04  0.10100000352E+00 0.  1.
</event>
<event>
 5   0  0.1144271E-06  0.2200376E+04  0.7818609E-02  0.8518271E-01
        1   -1    0    0  501    0  0.00000000000E+00  0.00000000000E+00  0.98679968049E+03  0.98679968051E+03  0.50400001928E-02 0. -1.
       -1   -1    0    0    0  501  0.00000000000E+00  0.00000000000E+00 -0.12266055893E+04  0.12266055894E+04  0.50400001928E-02 0.  1.
    10030    2    1    2    0    0  0.00000000000E+00  0.00000000000E+00 -0.23980590885E+03  0.22134052699E+04  0.22003763348E+04 0.  0.
        3    1    3    3  502    0 -0.87871428697E+02  0.12237321173E+03  0.97637462979E+03  0.98792915679E+03  0.10100000352E+00 0. -1.
       -3    1    3    3    0  502  0.87871428697E+02 -0.12237321173E+03 -0.12161805386E+04  0.12254761131E+04  0.10100000352E+00 0.  1.
</event>
<event>
 5   0  0.1082209E-06  0.2199047E+04  0.7818609E-02  0.8518825E-01
        1   -1    0    0  501    0  0.00000000000E+00  0.00000000000E+00  0.16054966647E+04  0.16054966648E+04  0.50400001928E-02 0.  1.
       -1   -1    0    0    0  501  0.00000000000E+00  0.00000000000E+00 -0.75300792972E+03  0.75300792973E+03  0.50400001928E-02 0. -1.
    10030    2    1    2    0    0  0.00000000000E+00  0.00000000000E+00  0.85248873503E+03  0.23585045945E+04  0.21990468114E+04 0.  0.
        2    1    3    3  502    0  0.47763136256E+03  0.66246315471E+03  0.12158075684E+04  0.14646423431E+04  0.25500000920E-02 0.  1.
       -2    1    3    3    0  502 -0.47763136256E+03 -0.66246315471E+03 -0.36331883333E+03  0.89386225141E+03  0.25500000920E-02 0. -1.
</event>
<event>
 5   0  0.2556869E-06  0.2200802E+04  0.7818609E-02  0.8518094E-01
       -2   -1    0    0    0  501  0.00000000000E+00  0.00000000000E+00  0.59554655978E+03  0.59554655978E+03  0.25500000920E-02 0.  1.
        2   -1    0    0  501    0  0.00000000000E+00  0.00000000000E+00 -0.20332282058E+04  0.20332282058E+04  0.25500000920E-02 0. -1.
    10030    2    1    2    0    0  0.00000000000E+00  0.00000000000E+00 -0.14376816460E+04  0.26287747655E+04  0.22008017295E+04 0.  0.
        5    1    3    3  502    0 -0.76058450211E+03 -0.28654844134E+03  0.16720645498E+03  0.82980653328E+03  0.46999998093E+01 0. -1.
       -5    1    3    3    0  502  0.76058450211E+03  0.28654844134E+03 -0.16048881010E+04  0.17989682323E+04  0.46999998093E+01 0.  1.
</event>
<event>
 5   0  0.2532239E-06  0.2199945E+04  0.7818609E-02  0.8518451E-01
       -2   -1    0    0    0  501  0.00000000000E+00  0.00000000000E+00  0.10383036319E+04  0.10383036319E+04  0.25500000920E-02 0. -1.
        2   -1    0    0  501    0  0.00000000000E+00  0.00000000000E+00 -0.11653040096E+04  0.11653040096E+04  0.25500000920E-02 0.  1.
    10030    2    1    2    0    0  0.00000000000E+00  0.00000000000E+00 -0.12700037766E+03  0.22036076416E+04  0.21999448952E+04 0.  0.
        3    1    3    3  502    0  0.10915425234E+04 -0.12202931656E+03 -0.35411860989E+01  0.10983482074E+04  0.10100000352E+00 0.  1.
       -3    1    3    3    0  502 -0.10915425234E+04  0.12202931656E+03 -0.12345919156E+03  0.11052594341E+04  0.10100000352E+00 0. -1.
</event>
<event>
 5   0  0.1107101E-06  0.2199564E+04  0.7818609E-02  0.8518610E-01
       -1   -1    0    0    0  501  0.00000000000E+00  0.00000000000E+00  0.11153486266E+04  0.11153486266E+04  0.50400001928E-02 0.  1.
        1   -1    0    0  501    0  0.00000000000E+00  0.00000000000E+00 -0.10844324521E+04  0.10844324521E+04  0.50400001928E-02 0. -1.
    10030    2    1    2    0    0  0.00000000000E+00  0.00000000000E+00  0.30916174439E+02  0.21997810787E+04  0.21995638169E+04 0.  0.
        1    1    3    3  502    0 -0.11160257734E+03 -0.13050971334E+03  0.11018583138E+04  0.11151590310E+04  0.50400001928E-02 0.  1.
       -1    1    3    3    0  502  0.11160257734E+03  0.13050971334E+03 -0.10709421394E+04  0.10846220478E+04  0.50400001928E-02 0. -1.
</event>
<event>
 5   0  0.2524749E-06  0.2203365E+04  0.7818609E-02  0.8517029E-01
       -2   -1    0    0    0  501  0.00000000000E+00  0.00000000000E+00  0.10164461170E+04  0.10164461170E+04  0.25500000920E-02 0.  1.
        2   -1    0    0  501    0  0.00000000000E+00  0.00000000000E+00 -0.11940662683E+04  0.11940662683E+04  0.25500000920E-02 0. -1.
    10030    2    1    2    0    0  0.00000000000E+00  0.00000000000E+00 -0.17762015127E+03  0.22105123854E+04  0.22033647196E+04 0.  0.
        4    1    3    3  502    0  0.59433277095E+03  0.41629773144E+03  0.74283450366E+03  0.10384314886E+04  0.12699999809E+01 0.  1.
       -4    1    3    3    0  502 -0.59433277095E+03 -0.41629773144E+03 -0.92045465494E+03  0.11720808967E+04  0.12699999809E+01 0. -1.
</event>
<event>
 5   0  0.2581058E-06  0.2197940E+04  0.7818609E-02  0.8519286E-01
       -2   -1    0    0    0  501  0.00000000000E+00  0.00000000000E+00  0.10715681556E+04  0.10715681556E+04  0.25500000920E-02 0.  1.
        2   -1    0    0  501    0  0.00000000000E+00  0.00000000000E+00 -0.11270725141E+04  0.11270725141E+04  0.25500000920E-02 0. -1.
    10030    2    1    2    0    0  0.00000000000E+00  0.00000000000E+00 -0.55504358521E+02  0.21986406697E+04  0.21979399583E+04 0.  0.
        1    1    3    3  502    0  0.79151672594E+02  0.13687940119E+03 -0.11156346626E+04  0.11267837672E+04  0.50400001928E-02 0. -1.
       -1    1    3    3    0  502 -0.79151672594E+02 -0.13687940119E+03  0.10601303040E+04  0.10718569024E+04  0.50400001928E-02 0.  1.
</event>
<event>
 5   0  0.2532239E-06  0.2198032E+04  0.7818609E-02  0.8519248E-01
       -2   -1    0    0    0  501  0.00000000000E+00  0.00000000000E+00  0.17182509433E+04  0.17182509433E+04  0.25500000920E-02 0.  1.
        2   -1    0    0  501    0  0.00000000000E+00  0.00000000000E+00 -0.70294506447E+03  0.70294506447E+03  0.25500000920E-02 0. -1.
    10030    2    1    2    0    0  0.00000000000E+00  0.00000000000E+00  0.10153058789E+04  0.24211960078E+04  0.21980318652E+04 0.  0.
        3    1    3    3  502    0  0.73513892596E+02  0.49363657167E+03  0.15862263439E+04  0.16628876636E+04  0.10100000352E+00 0.  1.
       -3    1    3    3    0  502 -0.73513892596E+02 -0.49363657167E+03 -0.57092046507E+03  0.75830834423E+03  0.10100000352E+00 0. -1.
</event>
<event>
 5   0  0.1137869E-06  0.2199760E+04  0.7818609E-02  0.8518528E-01
       -1   -1    0    0    0  501  0.00000000000E+00  0.00000000000E+00  0.13346105468E+04  0.13346105468E+04  0.50400001928E-02 0.  1.
        1   -1    0    0  501    0  0.00000000000E+00  0.00000000000E+00 -0.90643351591E+03  0.90643351592E+03  0.50400001928E-02 0. -1.
    10030    2    1    2    0    0  0.00000000000E+00  0.00000000000E+00  0.42817703091E+03  0.22410440628E+04  0.21997597417E+04 0.  0.
        5    1    3    3  502    0 -0.91231441704E+03 -0.59303452522E+03  0.37742876488E+03  0.11517300492E+04  0.46999998093E+01 0.  1.
       -5    1    3    3    0  502  0.91231441704E+03  0.59303452522E+03  0.50748266028E+02  0.10893140136E+04  0.46999998093E+01 0. -1.
</event>
<event>
 5   0  0.1082209E-06  0.2199641E+04  0.7818609E-02  0.8518577E-01
       -1   -1    0    0    0  501  0.00000000000E+00  0.00000000000E+00  0.55319098533E+03  0.55319098535E+03  0.50400001928E-02 0.  1.
        1   -1    0    0  501    0  0.00000000000E+00  0.00000000000E+00 -0.21865964048E+04  0.21865964048E+04  0.50400001928E-02 0. -1.
    10030    2    1    2    0    0  0.00000000000E+00  0.00000000000E+00 -0.16334054195E+04  0.27397873902E+04  0.21996412614E+04 0.  0.
        2    1    3    3  502    0 -0.53982182202E+03  0.56507320754E+03 -0.17806173317E+04  0.19445599532E+04  0.25500000920E-02 0. -1.
       -2    1    3    3    0  502  0.53982182202E+03 -0.56507320754E+03  0.14721191226E+03  0.79522743698E+03  0.25500000920E-02 0.  1.
</event>
<event>
 5   0  0.1107101E-06  0.2199784E+04  0.7818609E-02  0.8518518E-01
        1   -1    0    0  501    0  0.00000000000E+00  0.00000000000E+00  0.94667229198E+03  0.94667229200E+03  0.50400001928E-02 0. -1.
       -1   -1    0    0    0  501  0.00000000000E+00  0.00000000000E+00 -0.12779105112E+04  0.12779105112E+04  0.50400001928E-02 0.  1.
    10030    2    1    2    0    0  0.00000000000E+00  0.00000000000E+00 -0.33123821923E+03  0.22245828032E+04  0.21997840554E+04 0.  0.
        1    1    3    3  502    0  0.71647684295E+03 -0.57635849930E+03 -0.77594098753E+03  0.12031677366E+04  0.50400001928E-02 0.  1.
       -1    1    3    3    0  502 -0.71647684295E+03  0.57635849930E+03  0.44470276830E+03  0.10214150666E+04  0.50400001928E-02 0. -1.
</event>
<event>
 5   0  0.2606154E-06  0.2200257E+04  0.7818609E-02  0.8518321E-01
       -2   -1    0    0    0  501  0.00000000000E+00  0.00000000000E+00  0.92448270785E+03  0.92448270785E+03  0.25500000920E-02 0. -1.
        2   -1    0    0  501    0  0.00000000000E+00  0.00000000000E+00 -0.13091463112E+04  0.13091463112E+04  0.25500000920E-02 0.  1.
    10030    2    1    2    0    0  0.00000000000E+00  0.00000000000E+00 -0.38466360336E+03  0.22336290191E+04  0.22002573729E+04 0.  0.
        2    1    3    3  502    0 -0.69781919658E+03 -0.26040474943E+02 -0.10553154767E+04  0.12654329270E+04  0.25500000920E-02 0.  1.
       -2    1    3    3    0  502  0.69781919658E+03  0.26040474943E+02  0.67065187332E+03  0.96819609204E+03  0.25500000920E-02 0. -1.
</event>
<event>
 5   0  0.2524749E-06  0.2200571E+04  0.7818609E-02  0.8518191E-01
        2   -1    0    0  501    0  0.00000000000E+00  0.00000000000E+00  0.90222277864E+03  0.90222277865E+03  0.25500000920E-02 0. -1.
       -2   -1    0    0    0  501  0.00000000000E+00  0.00000000000E+00 -0.13418279838E+04  0.13418279838E+04  0.25500000920E-02 0.  1.
    10030    2    1    2    0    0  0.00000000000E+00  0.00000000000E+00 -0.43960520513E+03  0.22440507624E+04  0.22005706278E+04 0.  0.
        4    1    3    3  502    0 -0.64563254104E+03 -0.30882603457E+02  0.68820124526E+03  0.94414918319E+03  0.12699999809E+01 0. -1.
       -4    1    3    3    0  502  0.64563254104E+03  0.30882603457E+02 -0.11278064504E+04  0.12999015792E+04  0.12699999809E+01 0.  1.
</event>
<event>
 5   0  0.1082209E-06  0.2200491E+04  0.7818609E-02  0.8518224E-01
        1   -1    0    0  501    0  0.00000000000E+00  0.00000000000E+00  0.14161659512E+04  0.14161659512E+04  0.50400001928E-02 0.  1.
       -1   -1    0    0    0  501  0.00000000000E+00  0.00000000000E+00 -0.85480118236E+03  0.85480118238E+03  0.50400001928E-02 0. -1.
    10030    2    1    2    0    0  0.00000000000E+00  0.00000000000E+00  0.56136476886E+03  0.22709671336E+04  0.22004911539E+04 0.  0.
        2    1    3    3  502    0 -0.70469874436E+03 -0.19516679012E+03 -0.56774828579E+03  0.92575834444E+03  0.25500000920E-02 0. -1.
       -2    1    3    3    0  502  0.70469874436E+03  0.19516679012E+03  0.11291130546E+04  0.13452087892E+04  0.25500000920E-02 0.  1.
</event>
<event>
 5   0  0.1137869E-06  0.2206909E+04  0.7818609E-02  0.8515558E-01
        1   -1    0    0  501    0  0.00000000000E+00  0.00000000000E+00  0.17537117668E+04  0.17537117668E+04  0.50400001928E-02 0. -1.
       -1   -1    0    0    0  501  0.00000000000E+00  0.00000000000E+00 -0.69430554741E+03  0.69430554742E+03  0.50400001928E-02 0.  1.
    10030    2    1    2    0    0  0.00000000000E+00  0.00000000000E+00  0.10594062194E+04  0.24480173142E+04  0.22069089771E+04 0.  0.
        5    1    3    3  502    0  0.42617956580E+03  0.50672212933E+03  0.15088609164E+04  0.16477498881E+04  0.46999998093E+01 0. -1.
       -5    1    3    3    0  502 -0.42617956580E+03 -0.50672212933E+03 -0.44945469701E+03  0.80026742613E+03  0.46999998093E+01 0.  1.
</event>
<event>
 5   0  0.1082209E-06  0.2199300E+04  0.7818609E-02  0.8518719E-01
       -1   -1    0    0    0  501  0.00000000000E+00  0.00000000000E+00  0.92288279749E+03  0.92288279750E+03  0.50400001928E-02 0. -1.
        1   -1    0    0  501    0  0.00000000000E+00  0.00000000000E+00 -0.13102749767E+04  0.13102749768E+04  0.50400001928E-02 0.  1.
    10030    2    1    2    0    0  0.00000000000E+00  0.00000000000E+00 -0.38739217926E+03  0.22331577743E+04  0.21993001033E+04 0.  0.
        2    1    3    3  502    0 -0.48646425345E+03 -0.46676406183E+03  0.68842080104E+03  0.96355558149E+03  0.25500000920E-02 0. -1.
       -2    1    3    3    0  502  0.48646425345E+03  0.46676406183E+03 -0.10758129803E+04  0.12696021928E+04  0.25500000920E-02 0.  1.
</event>
<event>
 5   0  0.8905000E-07  0.2200774E+04  0.7818609E-02  0.8518106E-01
        3   -1    0    0  501    0  0.00000000000E+00  0.00000000000E+00  0.13603095433E+04  0.13603095470E+04  0.10100000352E+00 0.  1.
       -3   -1    0    0    0  501  0.00000000000E+00  0.00000000000E+00 -0.89012930312E+03  0.89012930885E+03  0.10100000352E+00 0. -1.
    10030    2    1    2    0    0  0.00000000000E+00  0.00000000000E+00  0.47018024014E+03  0.22504388559E+04  0.22007738607E+04 0.  0.
        5    1    3    3  502    0  0.69678972907E+03 -0.54657763202E+03  0.90294953905E+03  0.12647541241E+04  0.46999998093E+01 0.  1.
       -5    1    3    3    0  502 -0.69678972907E+03  0.54657763202E+03 -0.43276929890E+03  0.98568473176E+03  0.46999998093E+01 0. -1.
</event>
<event>
 5   0  0.2606154E-06  0.2199243E+04  0.7818609E-02  0.8518743E-01
       -2   -1    0    0    0  501  0.00000000000E+00  0.00000000000E+00  0.12754174027E+04  0.12754174027E+04  0.25500000920E-02 0. -1.
        2   -1    0    0  501    0  0.00000000000E+00  0.00000000000E+00 -0.94805621277E+03  0.94805621277E+03  0.25500000920E-02 0.  1.
    10030    2    1    2    0    0  0.00000000000E+00  0.00000000000E+00  0.32736118994E+03  0.22234736155E+04  0.21992429539E+04 0.  0.
        2    1    3    3  502    0  0.63695181856E+03 -0.17861122325E+03 -0.72438082895E+03  0.98098785599E+03  0.25500000920E-02 0.  1.
       -2    1    3    3    0  502 -0.63695181856E+03  0.17861122325E+03  0.10517420189E+04  0.12424857595E+04  0.25500000920E-02 0. -1.
</event>
<event>
 5   0  0.2532239E-06  0.2201181E+04  0.7818609E-02  0.8517937E-01
        2   -1    0    0  501    0  0.00000000000E+00  0.00000000000E+00  0.11644122771E+04  0.11644122771E+04  0.25500000920E-02 0. -1.
       -2   -1    0    0    0  501  0.00000000000E+00  0.00000000000E+00 -0.10402671622E+04  0.10402671622E+04  0.25500000920E-02 0.  1.
    10030    2    1    2    0    0  0.00000000000E+00  0.00000000000E+00  0.12414511485E+03  0.22046794393E+04  0.22011813693E+04 0.  0.
        3    1    3    3  502    0  0.10325630346E+04 -0.36652435279E+03 -0.41887012212E+02  0.10964857744E+04  0.10100000352E+00 0.  1.
       -3    1    3    3    0  502 -0.10325630346E+04  0.36652435279E+03  0.16603212706E+03  0.11081936649E+04  0.10100000352E+00 0. -1.
</event>
<event>
 5   0  0.2606154E-06  0.2198729E+04  0.7818609E-02  0.8518957E-01
       -2   -1    0    0    0  501  0.00000000000E+00  0.00000000000E+00  0.75207250274E+03  0.75207250275E+03  0.25500000920E-02 0. -1.
        2   -1    0    0  501    0  0.00000000000E+00  0.00000000000E+00 -0.16070294842E+04  0.16070294842E+04  0.25500000920E-02 0.  1.
    10030    2    1    2    0    0  0.00000000000E+00  0.00000000000E+00 -0.85495698142E+03  0.23591019869E+04  0.21987293477E+04 0.  0.
        2    1    3    3  502    0 -0.32320567594E+03 -0.95713630930E+03 -0.89273184441E+03  0.13481624418E+04  0.25500000920E-02 0.  1.
       -2    1    3    3    0  502  0.32320567594E+03  0.95713630930E+03  0.37774862989E+02  0.10109395451E+04  0.25500000920E-02 0. -1.
</event>
<event>
 5   0  0.1144271E-06  0.2199210E+04  0.7818609E-02  0.8518757E-01
       -1   -1    0    0    0  501  0.00000000000E+00  0.00000000000E+00  0.60234975904E+03  0.60234975906E+03  0.50400001928E-02 0.  1.
        1   -1    0    0  501    0  0.00000000000E+00  0.00000000000E+00 -0.20073579239E+04  0.20073579239E+04  0.50400001928E-02 0. -1.
    10030    2    1    2    0    0  0.00000000000E+00  0.00000000000E+00 -0.14050081649E+04  0.26097076830E+04  0.21992103690E+04 0.  0.
        3    1    3    3  502    0 -0.84641895797E+03 -0.94892161115E+02  0.12280005218E+03  0.86052858039E+03  0.10100000352E+00 0.  1.
       -3    1    3    3    0  502  0.84641895797E+03  0.94892161115E+02 -0.15278082171E+04  0.17491791026E+04  0.10100000352E+00 0. -1.
</event>
<event>
 5   0  0.1137869E-06  0.2199781E+04  0.7818609E-02  0.8518519E-01
        1   -1    0    0  501    0  0.00000000000E+00  0.00000000000E+00  0.14488172599E+04  0.14488172599E+04  0.50400001928E-02 0. -1.
       -1   -1    0    0    0  501  0.00000000000E+00  0.00000000000E+00 -0.83499806762E+03  0.83499806764E+03  0.50400001928E-02 0.  1.
    10030    2    1    2    0    0  0.00000000000E+00  0.00000000000E+00  0.61381919226E+03  0.22838153275E+04  0.21997814549E+04 0.  0.
        5    1    3    3  502    0 -0.13765233069E+03 -0.10765685737E+04  0.12180250685E+03  0.10921565816E+04  0.46999998093E+01 0.  1.
       -5    1    3    3    0  502  0.13765233069E+03  0.10765685737E+04  0.49201668541E+03  0.11916587459E+04  0.46999998093E+01 0. -1.
</event>
<event>
 5   0  0.2556869E-06  0.2198893E+04  0.7818609E-02  0.8518889E-01
       -2   -1    0    0    0  501  0.00000000000E+00  0.00000000000E+00  0.98342693174E+03  0.98342693174E+03  0.25500000920E-02 0. -1.
        2   -1    0    0  501    0  0.00000000000E+00  0.00000000000E+00 -0.12291533396E+04  0.12291533396E+04  0.25500000920E-02 0.  1.
    10030    2    1    2    0    0  0.00000000000E+00  0.00000000000E+00 -0.24572640787E+03  0.22125802713E+04  0.21988929009E+04 0.  0.
        5    1    3    3  502    0 -0.40429358088E+03 -0.98978338623E+03 -0.38065308539E+03  0.11349199587E+04  0.46999998093E+01 0.  1.
       -5    1    3    3    0  502  0.40429358088E+03  0.98978338623E+03  0.13492667752E+03  0.10776603127E+04  0.46999998093E+01 0. -1.
</event>
<event>
 5   0  0.1137869E-06  0.2198563E+04  0.7818609E-02  0.8519026E-01
        1   -1    0    0  501    0  0.00000000000E+00  0.00000000000E+00  0.13926496862E+04  0.13926496862E+04  0.50400001928E-02 0. -1.
       -1   -1    0    0    0  501  0.00000000000E+00  0.00000000000E+00 -0.86771268218E+03  0.86771268220E+03  0.50400001928E-02 0.  1.
    10030    2    1    2    0    0  0.00000000000E+00  0.00000000000E+00  0.52493700403E+03  0.22603623684E+04  0.21985629803E+04 0.  0.
        5    1    3    3  502    0  0.52036928250E+03  0.68768025615E+03 -0.43838924230E+03  0.96741694353E+03  0.46999998093E+01 0.  1.
       -5    1    3    3    0  502 -0.52036928250E+03 -0.68768025615E+03  0.96332624633E+03  0.12929454249E+04  0.46999998093E+01 0. -1.
</event>
<event>
 5   0  0.1082209E-06  0.2198618E+04  0.7818609E-02  0.8519003E-01
        1   -1    0    0  501    0  0.00000000000E+00  0.00000000000E+00  0.17384661827E+04  0.17384661827E+04  0.50400001928E-02 0. -1.
       -1   -1    0    0    0  501  0.00000000000E+00  0.00000000000E+00 -0.69514185777E+03  0.69514185779E+03  0.50400001928E-02 0.  1.
    10030    2    1    2    0    0  0.00000000000E+00  0.00000000000E+00  0.10433243249E+04  0.24336080405E+04  0.21986183042E+04 0.  0.
        2    1    3    3  502    0 -0.32961196167E+02  0.78805549355E+03  0.13692485324E+04  0.15801770296E+04  0.25500000920E-02 0.  1.
       -2    1    3    3    0  502  0.32961196167E+02 -0.78805549355E+03 -0.32592420746E+03  0.85343101091E+03  0.25500000920E-02 0. -1.
</event>
<event>
 5   0  0.2556869E-06  0.2199550E+04  0.7818609E-02  0.8518616E-01
        2   -1    0    0  501    0  0.00000000000E+00  0.00000000000E+00  0.89743035221E+03  0.89743035221E+03  0.25500000920E-02 0. -1.
       -2   -1    0    0    0  501  0.00000000000E+00  0.00000000000E+00 -0.13477419429E+04  0.13477419429E+04  0.25500000920E-02 0.  1.
    10030    2    1    2    0    0  0.00000000000E+00  0.00000000000E+00 -0.45031159071E+03  0.22451722951E+04  0.21995495234E+04 0.  0.
        5    1    3    3  502    0  0.72573652804E+03  0.40847909546E+02 -0.10675742385E+04  0.12915490330E+04  0.46999998093E+01 0.  1.
       -5    1    3    3    0  502 -0.72573652804E+03 -0.40847909546E+02  0.61726264777E+03  0.95362326218E+03  0.46999998093E+01 0. -1.
</event>
<event>
 5   0  0.1107101E-06  0.2198872E+04  0.7818609E-02  0.8518898E-01
        1   -1    0    0  501    0  0.00000000000E+00  0.00000000000E+00  0.15404425160E+04  0.15404425160E+04  0.50400001928E-02 0. -1.
       -1   -1    0    0    0  501  0.00000000000E+00  0.00000000000E+00 -0.78468351613E+03  0.78468351615E+03  0.50400001928E-02 0.  1.
    10030    2    1    2    0    0  0.00000000000E+00  0.00000000000E+00  0.75575899985E+03  0.23251260321E+04  0.21988723018E+04 0.  0.
        1    1    3    3  502    0  0.92810668511E+03 -0.52476382084E+03  0.94143109265E+02  0.10703373355E+04  0.50400001928E-02 0.  1.
       -1    1    3    3    0  502 -0.92810668511E+03  0.52476382084E+03  0.66161589058E+03  0.12547886967E+04  0.50400001928E-02 0. -1.
</event>
<event>
 5   0  0.2532239E-06  0.2199813E+04  0.7818609E-02  0.8518506E-01
       -2   -1    0    0    0  501  0.00000000000E+00  0.00000000000E+00  0.47880336394E+03  0.47880336394E+03  0.25500000920E-02 0.  1.
        2   -1    0    0  501    0  0.00000000000E+00  0.00000000000E+00 -0.25267027256E+04  0.25267027256E+04  0.25500000920E-02 0. -1.
    10030    2    1    2    0    0  0.00000000000E+00  0.00000000000E+00 -0.20478993617E+04  0.30055060895E+04  0.21998125054E+04 0.  0.
        3    1    3    3  502    0 -0.34243306480E+03 -0.10283652838E+04 -0.12795460977E+04  0.16769119795E+04  0.10100000352E+00 0.  1.
       -3    1    3    3    0  502  0.34243306480E+03  0.10283652838E+04 -0.76835326398E+03  0.13285941100E+04  0.10100000352E+00 0. -1.
</event>
<event>
 5   0  0.2581058E-06  0.2200634E+04  0.7818609E-02  0.8518164E-01
       -2   -1    0    0    0  501  0.00000000000E+00  0.00000000000E+00  0.94534753411E+03  0.94534753411E+03  0.25500000920E-02 0. -1.
        2   -1    0    0  501    0  0.00000000000E+00  0.00000000000E+00 -0.12806899733E+04  0.12806899733E+04  0.25500000920E-02 0.  1.
    10030    2    1    2    0    0  0.00000000000E+00  0.00000000000E+00 -0.33534243919E+03  0.22260375074E+04  0.22006336435E+04 0.  0.
        1    1    3    3  502    0 -0.72917037899E+03 -0.68549288092E+03  0.29488997801E+03  0.10433360104E+04  0.50400001928E-02 0.  1.
       -1    1    3    3    0  502  0.72917037899E+03  0.68549288092E+03 -0.63023241719E+03  0.11827014970E+04  0.50400001928E-02 0. -1.
</event>
<event>
 5   0  0.2532239E-06  0.2201468E+04  0.7818609E-02  0.8517817E-01
        2   -1    0    0  501    0  0.00000000000E+00  0.00000000000E+00  0.55924514763E+03  0.55924514763E+03  0.25500000920E-02 0.  1.
       -2   -1    0    0    0  501  0.00000000000E+00  0.00000000000E+00 -0.21665193542E+04  0.21665193542E+04  0.25500000920E-02 0. -1.
    10030    2    1    2    0    0  0.00000000000E+00  0.00000000000E+00 -0.16072742066E+04  0.27257645019E+04  0.22014680884E+04 0.  0.
        3    1    3    3  502    0  0.49779962315E+03  0.76209862427E+03 -0.37361916873E+02  0.91104044968E+03  0.10100000352E+00 0.  1.
       -3    1    3    3    0  502 -0.49779962315E+03 -0.76209862427E+03 -0.15699122897E+04  0.18147240522E+04  0.10100000352E+00 0. -1.
</event>
<event>
 5   0  0.1082209E-06  0.2199524E+04  0.7818609E-02  0.8518626E-01
        1   -1    0    0  501    0  0.00000000000E+00  0.00000000000E+00  0.20470685794E+04  0.20470685794E+04  0.50400001928E-02 0. -1.
       -1   -1    0    0    0  501  0.00000000000E+00  0.00000000000E+00 -0.59083312020E+03  0.59083312022E+03  0.50400001928E-02 0.  1.
    10030    2    1    2    0    0  0.00000000000E+00  0.00000000000E+00  0.14562354592E+04  0.26379016997E+04  0.21995235085E+04 0.  0.
        2    1    3    3  502    0 -0.94477780654E+03 -0.56257137169E+03  0.70460814741E+03  0.13059725469E+04  0.25500000920E-02 0. -1.
       -2    1    3    3    0  502  0.94477780654E+03  0.56257137169E+03  0.75162731183E+03  0.13319291527E+04  0.25500000920E-02 0.  1.
</event>
<event>
 5   0  0.2524749E-06  0.2198905E+04  0.7818609E-02  0.8518884E-01
       -2   -1    0    0    0  501  0.00000000000E+00  0.00000000000E+00  0.75461680870E+03  0.75461680871E+03  0.25500000920E-02 0. -1.
        2   -1    0    0  501    0  0.00000000000E+00  0.00000000000E+00 -0.16018664495E+04  0.16018664495E+04  0.25500000920E-02 0.  1.
    10030    2    1    2    0    0  0.00000000000E+00  0.00000000000E+00 -0.84724964076E+03  0.23564832582E+04  0.21989045892E+04 0.  0.
        4    1    3    3  502    0  0.10101075021E+03  0.28627108344E+03 -0.15560628688E+04  0.15853982369E+04  0.12699999809E+01 0.  1.
       -4    1    3    3    0  502 -0.10101075021E+03 -0.28627108344E+03  0.70881322807E+03  0.77108502129E+03  0.12699999809E+01 0. -1.
</event>
<event>
 5   0  0.1137869E-06  0.2199000E+04  0.7818609E-02  0.8518844E-01
        1   -1    0    0  501    0  0.00000000000E+00  0.00000000000E+00  0.12807551375E+04  0.12807551375E+04  0.50400001928E-02 0. -1.
       -1   -1    0    0    0  501  0.00000000000E+00  0.00000000000E+00 -0.94389673273E+03  0.94389673274E+03  0.50400001928E-02 0.  1.
    10030    2    1    2    0    0  0.00000000000E+00  0.00000000000E+00  0.33685840473E+03  0.22246518702E+04  0.21990003090E+04 0.  0.
        5    1    3    3  502    0  0.38562633545E+03 -0.41447598127E+02  0.12092418057E+04  0.12699265368E+04  0.46999998093E+01 0. -1.
       -5    1    3    3    0  502 -0.38562633545E+03  0.41447598127E+02 -0.87238340101E+03  0.95472533346E+03  0.46999998093E+01 0.  1.
</event>
<event>
 5   0  0.1082209E-06  0.2199973E+04  0.7818609E-02  0.8518439E-01
        1   -1    0    0  501    0  0.00000000000E+00  0.00000000000E+00  0.15063353543E+04  0.15063353543E+04  0.50400001928E-02 0.  1.
       -1   -1    0    0    0  501  0.00000000000E+00  0.00000000000E+00 -0.80325431679E+03  0.80325431681E+03  0.50400001928E-02 0. -1.
    10030    2    1    2    0    0  0.00000000000E+00  0.00000000000E+00  0.70308103748E+03  0.23095896711E+04  0.21999730688E+04 0.  0.
        2    1    3    3  502    0  0.27300511621E+03 -0.70628815312E+02  0.14677434860E+04  0.14945872888E+04  0.25500000920E-02 0.  1.
       -2    1    3    3    0  502 -0.27300511621E+03  0.70628815312E+02 -0.76466244851E+03  0.81500238233E+03  0.25500000920E-02 0. -1.
</event>
<event>
 5   0  0.8905000E-07  0.2198580E+04  0.7818609E-02  0.8519019E-01
        3   -1    0    0  501    0  0.00000000000E+00  0.00000000000E+00  0.15032079532E+04  0.15032079566E+04  0.10100000352E+00 0.  1.
       -3   -1    0    0    0  501  0.00000000000E+00  0.00000000000E+00 -0.80390634006E+03  0.80390634640E+03  0.10100000352E+00 0. -1.
    10030    2    1    2    0    0  0.00000000000E+00  0.00000000000E+00  0.69930161310E+03  0.23071143030E+04  0.21985799191E+04 0.  0.
        3    1    3    3  502    0 -0.11262122300E+03  0.97285213262E+03 -0.17431124459E+03  0.99474078633E+03  0.10100000352E+00 0. -1.
       -3    1    3    3    0  502  0.11262122300E+03 -0.97285213262E+03  0.87361285769E+03  0.13123735166E+04  0.10100000352E+00 0.  1.
</event>
<event>
 5   0  0.1082209E-06  0.2204521E+04  0.7818609E-02  0.8516549E-01
       -1   -1    0    0    0  501  0.00000000000E+00  0.00000000000E+00  0.13957837491E+04  0.13957837491E+04  0.50400001928E-02 0. -1.
        1   -1    0    0  501    0  0.00000000000E+00  0.00000000000E+00 -0.87046297242E+03  0.87046297244E+03  0.50400001928E-02 0.  1.
    10030    2    1    2    0    0  0.00000000000E+00  0.00000000000E+00  0.52532077668E+03  0.22662467215E+04  0.22045208741E+04 0.  0.
        2    1    3    3  502    0 -0.42343659113E+03  0.64960909531E+03 -0.54265617025E+03  0.94644928155E+03  0.25500000920E-02 0.  1.
       -2    1    3    3    0  502  0.42343659113E+03 -0.64960909531E+03  0.10679769469E+04  0.13197974400E+04  0.25500000920E-02 0. -1.
</event>
<event>
 5   0  0.1144271E-06  0.2199734E+04  0.7818609E-02  0.8518539E-01
        1   -1    0    0  501    0  0.00000000000E+00  0.00000000000E+00  0.22450271412E+04  0.22450271412E+04  0.50400001928E-02 0.  1.
       -1   -1    0    0    0  501  0.00000000000E+00  0.00000000000E+00 -0.53883886864E+03  0.53883886866E+03  0.50400001928E-02 0. -1.
    10030    2    1    2    0    0  0.00000000000E+00  0.00000000000E+00  0.17061882726E+04  0.27838660099E+04  0.21997344248E+04 0.  0.
        3    1    3    3  502    0 -0.77491592138E+03  0.74056073828E+03  0.54108372947E+03  0.12007066689E+04  0.10100000352E+00 0.  1.
       -3    1    3    3    0  502  0.77491592138E+03 -0.74056073828E+03  0.11651045431E+04  0.15831593410E+04  0.10100000352E+00 0. -1.
</event>
<event>
 5   0  0.1137869E-06  0.2202792E+04  0.7818609E-02  0.8517267E-01
        1   -1    0    0  501    0  0.00000000000E+00  0.00000000000E+00  0.13459633660E+04  0.13459633660E+04  0.50400001928E-02 0. -1.
       -1   -1    0    0    0  501  0.00000000000E+00  0.00000000000E+00 -0.90126727228E+03  0.90126727230E+03  0.50400001928E-02 0.  1.
    10030    2    1    2    0    0  0.00000000000E+00  0.00000000000E+00  0.44469609368E+03  0.22472306383E+04  0.22027916211E+04 0.  0.
        5    1    3    3  502    0 -0.13046761819E+03 -0.10842163988E+04  0.76268388982E+02  0.10947081602E+04  0.46999998093E+01 0. -1.
       -5    1    3    3    0  502  0.13046761819E+03  0.10842163988E+04  0.36842770470E+03  0.11525224781E+04  0.46999998093E+01 0.  1.
</event>
<event>
 5   0  0.2556869E-06  0.2205199E+04  0.7818609E-02  0.8516267E-01
       -2   -1    0    0    0  501  0.00000000000E+00  0.00000000000E+00  0.11736015407E+04  0.11736015407E+04  0.25500000920E-02 0. -1.
        2   -1    0    0  501    0  0.00000000000E+00  0.00000000000E+00 -0.10358927522E+04  0.10358927522E+04  0.25500000920E-02 0.  1.
    10030    2    1    2    0    0  0.00000000000E+00  0.00000000000E+00  0.13770878846E+03  0.22094942929E+04  0.22051987030E+04 0.  0.
        5    1    3    3  502    0 -0.73303031491E+03 -0.45609689178E+03 -0.61829887444E+03  0.10619196794E+04  0.46999998093E+01 0.  1.
       -5    1    3    3    0  502  0.73303031491E+03  0.45609689178E+03  0.75600766290E+03  0.11475746135E+04  0.46999998093E+01 0. -1.
</event>
<event>
 5   0  0.1107101E-06  0.2199083E+04  0.7818609E-02  0.8518810E-01
        1   -1    0    0  501    0  0.00000000000E+00  0.00000000000E+00  0.25397494384E+04  0.25397494384E+04  0.50400001928E-02 0. -1.
       -1   -1    0    0    0  501  0.00000000000E+00  0.00000000000E+00 -0.47602775556E+03  0.47602775559E+03  0.50400001928E-02 0.  1.
    10030    2    1    2    0    0  0.00000000000E+00  0.00000000000E+00  0.20637216828E+04  0.30157771940E+04  0.21990827405E+04 0.  0.
        1    1    3    3  502    0 -0.19815275992E+03  0.76804861526E+03 -0.12395898315E+02  0.79329493254E+03  0.50400001928E-02 0.  1.
       -1    1    3    3    0  502  0.19815275992E+03 -0.76804861526E+03  0.20761175811E+04  0.22224822614E+04  0.50400001928E-02 0. -1.
</event>
<event>
 5   0  0.1137869E-06  0.2193524E+04  0.7818609E-02  0.8521128E-01
       -1   -1    0    0    0  501  0.00000000000E+00  0.00000000000E+00  0.66755656734E+03  0.66755656735E+03  0.50400001928E-02 0.  1.
        1   -1    0    0  501    0  0.00000000000E+00  0.00000000000E+00 -0.18019253998E+04  0.18019253998E+04  0.50400001928E-02 0. -1.
    10030    2    1    2    0    0  0.00000000000E+00  0.00000000000E+00 -0.11343688325E+04  0.24694819672E+04  0.21935242278E+04 0.  0.
        5    1    3    3  502    0  0.34883598897E+03 -0.11988190286E+03 -0.17299878796E+04  0.17688805419E+04  0.46999998093E+01 0. -1.
       -5    1    3    3    0  502 -0.34883598897E+03  0.11988190286E+03  0.59561904713E+03  0.70060142530E+03  0.46999998093E+01 0.  1.
</event>
<event>
 5   0  0.1146827E-06  0.2200132E+04  0.7818609E-02  0.8518373E-01
       -1   -1    0    0    0  501  0.00000000000E+00  0.00000000000E+00  0.12006046358E+04  0.12006046358E+04  0.50400001928E-02 0. -1.
        1   -1    0    0  501    0  0.00000000000E+00  0.00000000000E+00 -0.10079460973E+04  0.10079460973E+04  0.50400001928E-02 0.  1.
    10030    2    1    2    0    0  0.00000000000E+00  0.00000000000E+00  0.19265853853E+03  0.22085507332E+04  0.22001315934E+04 0.  0.
        4    1    3    3  502    0 -0.66561002423E+03 -0.58832868032E+03 -0.55498004643E+03  0.10474596915E+04  0.12699999809E+01 0.  1.
       -4    1    3    3    0  502  0.66561002423E+03  0.58832868032E+03  0.74763858496E+03  0.11610910417E+04  0.12699999809E+01 0. -1.
</event>
<event>
 5   0  0.1082209E-06  0.2199368E+04  0.7818609E-02  0.8518691E-01
       -1   -1    0    0    0  501  0.00000000000E+00  0.00000000000E+00  0.10237382464E+04  0.10237382464E+04  0.50400001928E-02 0. -1.
        1   -1    0    0  501    0  0.00000000000E+00  0.00000000000E+00 -0.11812636358E+04  0.11812636358E+04  0.50400001928E-02 0.  1.
    10030    2    1    2    0    0  0.00000000000E+00  0.00000000000E+00 -0.15752538937E+03  0.22050018822E+04  0.21993678756E+04 0.  0.
        2    1    3    3  502    0  0.72401099854E+03 -0.43660335339E+03  0.62623873384E+03  0.10521356215E+04  0.25500000920E-02 0. -1.
       -2    1    3    3    0  502 -0.72401099854E+03  0.43660335339E+03 -0.78376412322E+03  0.11528662607E+04  0.25500000920E-02 0.  1.
</event>
<event>
 5   0  0.2606154E-06  0.2200067E+04  0.7818609E-02  0.8518400E-01
        2   -1    0    0  501    0  0.00000000000E+00  0.00000000000E+00  0.17233224632E+04  0.17233224633E+04  0.25500000920E-02 0. -1.
       -2   -1    0    0    0  501  0.00000000000E+00  0.00000000000E+00 -0.70217455085E+03  0.70217455085E+03  0.25500000920E-02 0.  1.
    10030    2    1    2    0    0  0.00000000000E+00  0.00000000000E+00  0.10211479124E+04  0.24254970141E+04  0.22000665232E+04 0.  0.
        2    1    3    3  502    0  0.16008673889E+03 -0.10429651449E+04  0.85334869809E+03  0.13570586052E+04  0.25500000920E-02 0. -1.
       -2    1    3    3    0  502 -0.16008673889E+03  0.10429651449E+04  0.16779921432E+03  0.10684384089E+04  0.25500000920E-02 0.  1.
</event>
<event>
 5   0  0.2532239E-06  0.2200374E+04  0.7818609E-02  0.8518273E-01
       -2   -1    0    0    0  501  0.00000000000E+00  0.00000000000E+00  0.11121734643E+04  0.11121734643E+04  0.25500000920E-02 0.  1.
        2   -1    0    0  501    0  0.00000000000E+00  0.00000000000E+00 -0.10883293302E+04  0.10883293302E+04  0.25500000920E-02 0. -1.
    10030    2    1    2    0    0  0.00000000000E+00  0.00000000000E+00  0.23844134134E+02  0.22005027946E+04  0.22003736060E+04 0.  0.
        3    1    3    3  502    0 -0.98123236682E+03  0.17256271764E+03 -0.45481310382E+03  0.10951939640E+04  0.10100000352E+00 0. -1.
       -3    1    3    3    0  502  0.98123236682E+03 -0.17256271764E+03  0.47865723795E+03  0.11053088305E+04  0.10100000352E+00 0.  1.
</event>
<event>
 5   0  0.2524749E-06  0.2199518E+04  0.7818609E-02  0.8518629E-01
        2   -1    0    0  501    0  0.00000000000E+00  0.00000000000E+00  0.18349678970E+04  0.18349678970E+04  0.25500000920E-02 0.  1.
       -2   -1    0    0    0  501  0.00000000000E+00  0.00000000000E+00 -0.65912292232E+03  0.65912292233E+03  0.25500000920E-02 0. -1.
    10030    2    1    2    0    0  0.00000000000E+00  0.00000000000E+00  0.11758449747E+04  0.24940908193E+04  0.21995175859E+04 0.  0.
        4    1    3    3  502    0  0.14201146295E+03 -0.29307023180E+03  0.17790365617E+04  0.18085989376E+04  0.12699999809E+01 0.  1.
       -4    1    3    3    0  502 -0.14201146295E+03  0.29307023180E+03 -0.60319158701E+03  0.68549188173E+03  0.12699999809E+01 0. -1.
</event>
<event>
 5   0  0.1137869E-06  0.2200454E+04  0.7818609E-02  0.8518239E-01
        1   -1    0    0  501    0  0.00000000000E+00  0.00000000000E+00  0.11953338536E+04  0.11953338537E+04  0.50400001928E-02 0.  1.
       -1   -1    0    0    0  501  0.00000000000E+00  0.00000000000E+00 -0.10126875136E+04  0.10126875136E+04  0.50400001928E-02 0. -1.
    10030    2    1    2    0    0  0.00000000000E+00  0.00000000000E+00  0.18264634005E+03  0.22080213673E+04  0.22004541969E+04 0.  0.
        5    1    3    3  502    0 -0.98472790871E+03 -0.48287658925E+03  0.37377037932E+01  0.10967656610E+04  0.46999998093E+01 0.  1.
       -5    1    3    3    0  502  0.98472790871E+03  0.48287658925E+03  0.17890863626E+03  0.11112557063E+04  0.46999998093E+01 0. -1.
</event>
<event>
 5   0  0.2581058E-06  0.2199794E+04  0.7818609E-02  0.8518514E-01
       -2   -1    0    0    0  501  0.00000000000E+00  0.00000000000E+00  0.10976467609E+04  0.10976467609E+04  0.25500000920E-02 0.  1.
        2   -1    0    0  501    0  0.00000000000E+00  0.00000000000E+00 -0.11021514053E+04  0.11021514053E+04  0.25500000920E-02 0. -1.
    10030    2    1    2    0    0  0.00000000000E+00  0.00000000000E+00 -0.45046443179E+01  0.21997981662E+04  0.21997935540E+04 0.  0.
        1    1    3    3  502    0 -0.37174043671E+03 -0.79045408350E+03  0.66615338026E+03  0.10985303530E+04  0.50400001928E-02 0.  1.
       -1    1    3    3    0  502  0.37174043671E+03  0.79045408350E+03 -0.67065802458E+03  0.11012678132E+04  0.50400001928E-02 0. -1.
</event>
<event>
 5   0  0.2556869E-06  0.2200408E+04  0.7818609E-02  0.8518258E-01
       -2   -1    0    0    0  501  0.00000000000E+00  0.00000000000E+00  0.81507043904E+03  0.81507043904E+03  0.25500000920E-02 0. -1.
        2   -1    0    0  501    0  0.00000000000E+00  0.00000000000E+00 -0.14850854858E+04  0.14850854859E+04  0.25500000920E-02 0.  1.
    10030    2    1    2    0    0  0.00000000000E+00  0.00000000000E+00 -0.67001504681E+03  0.23001559249E+04  0.22004083975E+04 0.  0.
        5    1    3    3  502    0 -0.77532668334E+03 -0.20748271600E+03  0.45159766162E+03  0.92094683957E+03  0.46999998093E+01 0. -1.
       -5    1    3    3    0  502  0.77532668334E+03  0.20748271600E+03 -0.11216127084E+04  0.13792090853E+04  0.46999998093E+01 0.  1.
</event>
<event>
 5   0  0.1146827E-06  0.2200044E+04  0.7818609E-02  0.8518410E-01
        1   -1    0    0  501    0  0.00000000000E+00  0.00000000000E+00  0.12267781243E+04  0.12267781243E+04  0.50400001928E-02 0.  1.
       -1   -1    0    0    0  501  0.00000000000E+00  0.00000000000E+00 -0.98636261792E+03  0.98636261794E+03  0.50400001928E-02 0. -1.
    10030    2    1    2    0    0  0.00000000000E+00  0.00000000000E+00  0.24041550639E+03  0.22131407423E+04  0.22000437108E+04 0.  0.
        4    1    3    3  502    0  0.18373015606E+03  0.92965383652E+03  0.68213267735E+03  0.11676127904E+04  0.12699999809E+01 0.  1.
       -4    1    3    3    0  502 -0.18373015606E+03 -0.92965383652E+03 -0.44171717096E+03  0.10455279518E+04  0.12699999809E+01 0. -1.
</event>
<event>
 5   0  0.1082209E-06  0.2199936E+04  0.7818609E-02  0.8518455E-01
       -1   -1    0    0    0  501  0.00000000000E+00  0.00000000000E+00  0.13093663808E+04  0.13093663808E+04  0.50400001928E-02 0.  1.
        1   -1    0    0  501    0  0.00000000000E+00  0.00000000000E+00 -0.92405727494E+03  0.92405727495E+03  0.50400001928E-02 0. -1.
    10030    2    1    2    0    0  0.00000000000E+00  0.00000000000E+00  0.38530910589E+03  0.22334236558E+04  0.21999359352E+04 0.  0.
        2    1    3    3  502    0 -0.95386157747E+03  0.37445580177E+03  0.59856630490E+03  0.11867395156E+04  0.25500000920E-02 0. -1.
       -2    1    3    3    0  502  0.95386157747E+03 -0.37445580177E+03 -0.21325719901E+03  0.10466841402E+04  0.25500000920E-02 0.  1.
</event>
<event>
 5   0  0.1082209E-06  0.2199946E+04  0.7818609E-02  0.8518451E-01
        1   -1    0    0  501    0  0.00000000000E+00  0.00000000000E+00  0.12267548793E+04  0.12267548793E+04  0.50400001928E-02 0.  1.
       -1   -1    0    0    0  501  0.00000000000E+00  0.00000000000E+00 -0.98629387428E+03  0.98629387429E+03  0.50400001928E-02 0. -1.
    10030    2    1    2    0    0  0.00000000000E+00  0.00000000000E+00  0.24046100506E+03  0.22130487536E+04  0.21999462018E+04 0.  0.
        2    1    3    3  502    0  0.21748592967E+03 -0.89969372060E+03 -0.47760856229E+03  0.10415655809E+04  0.25500000920E-02 0. -1.
       -2    1    3    3    0  502 -0.21748592967E+03  0.89969372060E+03  0.71806956735E+03  0.11714831728E+04  0.25500000920E-02 0.  1.
</event>
<event>
 5   0  0.1144271E-06  0.2200188E+04  0.7818609E-02  0.8518350E-01
       -1   -1    0    0    0  501  0.00000000000E+00  0.00000000000E+00  0.51874545399E+03  0.51874545402E+03  0.50400001928E-02 0. -1.
        1   -1    0    0  501    0  0.00000000000E+00  0.00000000000E+00 -0.23329494912E+04  0.23329494912E+04  0.50400001928E-02 0.  1.
    10030    2    1    2    0    0  0.00000000000E+00  0.00000000000E+00 -0.18142040372E+04  0.28516949452E+04  0.22001881220E+04 0.  0.
        3    1    3    3  502    0  0.85255862278E+03 -0.66553133917E+03 -0.64652580747E+03  0.12600729338E+04  0.10100000352E+00 0.  1.
       -3    1    3    3    0  502 -0.85255862278E+03  0.66553133917E+03 -0.11676782298E+04  0.15916220114E+04  0.10100000352E+00 0. -1.
</event>
<event>
 5   0  0.1082209E-06  0.2199751E+04  0.7818609E-02  0.8518532E-01
       -1   -1    0    0    0  501  0.00000000000E+00  0.00000000000E+00  0.73373327236E+03  0.73373327238E+03  0.50400001928E-02 0.  1.
        1   -1    0    0  501    0  0.00000000000E+00  0.00000000000E+00 -0.16487276587E+04  0.16487276587E+04  0.50400001928E-02 0. -1.
    10030    2    1    2    0    0  0.00000000000E+00  0.00000000000E+00 -0.91499438633E+03  0.23824609311E+04  0.21997512044E+04 0.  0.
        2    1    3    3  502    0  0.10837656112E+04 -0.10421426690E+03 -0.62639134232E+03  0.12560949913E+04  0.25500000920E-02 0.  1.
       -2    1    3    3    0  502 -0.10837656112E+04  0.10421426690E+03 -0.28860304401E+03  0.11263659398E+04  0.25500000920E-02 0. -1.
</event>
<event>
 5   0  0.2606154E-06  0.2198485E+04  0.7818609E-02  0.8519059E-01
        2   -1    0    0  501    0  0.00000000000E+00  0.00000000000E+00  0.12408229164E+04  0.12408229164E+04  0.25500000920E-02 0. -1.
       -2   -1    0    0    0  501  0.00000000000E+00  0.00000000000E+00 -0.97381673352E+03  0.97381673352E+03  0.25500000920E-02 0.  1.
    10030    2    1    2    0    0  0.00000000000E+00  0.00000000000E+00  0.26700618284E+03  0.22146396499E+04  0.21984850414E+04 0.  0.
        2    1    3    3  502    0 -0.25485096672E+03 -0.65886297186E+03 -0.71487578850E+03  0.10050357327E+04  0.25500000920E-02 0.  1.
       -2    1    3    3    0  502  0.25485096672E+03  0.65886297186E+03  0.98188197134E+03  0.12096039172E+04  0.25500000920E-02 0. -1.
</event>
<event>
 5   0  0.2606154E-06  0.2202310E+04  0.7818609E-02  0.8517467E-01
        2   -1    0    0  501    0  0.00000000000E+00  0.00000000000E+00  0.99257834806E+03  0.99257834806E+03  0.25500000920E-02 0.  1.
       -2   -1    0    0    0  501  0.00000000000E+00  0.00000000000E+00 -0.12216092387E+04  0.12216092387E+04  0.25500000920E-02 0. -1.
    10030    2    1    2    0    0  0.00000000000E+00  0.00000000000E+00 -0.22903089069E+03  0.22141875868E+04  0.22023104960E+04 0.  0.
        2    1    3    3  502    0 -0.94742943643E+02 -0.40507346167E+03 -0.11395638644E+04  0.12131226384E+04  0.25500000920E-02 0. -1.
       -2    1    3    3    0  502  0.94742943643E+02  0.40507346167E+03  0.91053297372E+03  0.10010649484E+04  0.25500000920E-02 0.  1.
</event>
<event>
 5   0  0.2532239E-06  0.2195117E+04  0.7818609E-02  0.8520463E-01
       -2   -1    0    0    0  501  0.00000000000E+00  0.00000000000E+00  0.11202151672E+04  0.11202151672E+04  0.25500000920E-02 0.  1.
        2   -1    0    0  501    0  0.00000000000E+00  0.00000000000E+00 -0.10753603298E+04  0.10753603298E+04  0.25500000920E-02 0. -1.
    10030    2    1    2    0    0  0.00000000000E+00  0.00000000000E+00  0.44854837454E+02  0.21955754970E+04  0.21951172649E+04 0.  0.
        3    1    3    3  502    0 -0.47510283440E+03 -0.55976797493E+03 -0.79356887942E+03  0.10811172303E+04  0.10100000352E+00 0. -1.
       -3    1    3    3    0  502  0.47510283440E+03  0.55976797493E+03  0.83842371687E+03  0.11144582667E+04  0.10100000352E+00 0.  1.
</event>
<event>
 5   0  0.1107101E-06  0.2200057E+04  0.7818609E-02  0.8518404E-01
        1   -1    0    0  501    0  0.00000000000E+00  0.00000000000E+00  0.15704805525E+04  0.15704805525E+04  0.50400001928E-02 0.  1.
       -1   -1    0    0    0  501  0.00000000000E+00  0.00000000000E+00 -0.77050475342E+03  0.77050475344E+03  0.50400001928E-02 0. -1.
    10030    2    1    2    0    0  0.00000000000E+00  0.00000000000E+00  0.79997579909E+03  0.23409853060E+04  0.22000570274E+04 0.  0.
        1    1    3    3  502    0 -0.10621521872E+03  0.96405114423E+03 -0.15228358851E+03  0.98176706643E+03  0.50400001928E-02 0. -1.
       -1    1    3    3    0  502  0.10621521872E+03 -0.96405114423E+03  0.95225938760E+03  0.13592182395E+04  0.50400001928E-02 0.  1.
</event>
<event>
 5   0  0.1082209E-06  0.2195533E+04  0.7818609E-02  0.8520290E-01
       -1   -1    0    0    0  501  0.00000000000E+00  0.00000000000E+00  0.10384098454E+04  0.10384098454E+04  0.50400001928E-02 0.  1.
        1   -1    0    0  501    0  0.00000000000E+00  0.00000000000E+00 -0.11605159936E+04  0.11605159936E+04  0.50400001928E-02 0. -1.
    10030    2    1    2    0    0  0.00000000000E+00  0.00000000000E+00 -0.12210614824E+03  0.21989258390E+04  0.21955329498E+04 0.  0.
        2    1    3    3  502    0 -0.35357524080E+03 -0.79604814564E+03 -0.73020465919E+03  0.11366208450E+04  0.25500000920E-02 0. -1.
       -2    1    3    3    0  502  0.35357524080E+03  0.79604814564E+03  0.60809851095E+03  0.10623049939E+04  0.25500000920E-02 0.  1.
</event>
<event>
 5   0  0.1082209E-06  0.2199623E+04  0.7818609E-02  0.8518585E-01
       -1   -1    0    0    0  501  0.00000000000E+00  0.00000000000E+00  0.94321801889E+03  0.94321801890E+03  0.50400001928E-02 0. -1.
        1   -1    0    0  501    0  0.00000000000E+00  0.00000000000E+00 -0.12824022560E+04  0.12824022560E+04  0.50400001928E-02 0.  1.
    10030    2    1    2    0    0  0.00000000000E+00  0.00000000000E+00 -0.33918423714E+03  0.22256202749E+04  0.21996226180E+04 0.  0.
        2    1    3    3  502    0  0.88485840996E+03  0.51438843850E+03 -0.57686037733E+03  0.11748777665E+04  0.25500000920E-02 0.  1.
       -2    1    3    3    0  502 -0.88485840996E+03 -0.51438843850E+03  0.23767614019E+03  0.10507425084E+04  0.25500000920E-02 0. -1.
</event>
<event>
 5   0  0.2532239E-06  0.2201884E+04  0.7818609E-02  0.8517644E-01
       -2   -1    0    0    0  501  0.00000000000E+00  0.00000000000E+00  0.71923175921E+03  0.71923175921E+03  0.25500000920E-02 0.  1.
        2   -1    0    0  501    0  0.00000000000E+00  0.00000000000E+00 -0.16852336910E+04  0.16852336910E+04  0.25500000920E-02 0. -1.
    10030    2    1    2    0    0  0.00000000000E+00  0.00000000000E+00 -0.96600193177E+03  0.24044654502E+04  0.22018842769E+04 0.  0.
        3    1    3    3  502    0  0.92253989191E+03 -0.37770805466E+03  0.27246799682E+02  0.99723900095E+03  0.10100000352E+00 0.  1.
       -3    1    3    3    0  502 -0.92253989191E+03  0.37770805466E+03 -0.99324873145E+03  0.14072264492E+04  0.10100000352E+00 0. -1.
</event>
<event>
 5   0  0.2606154E-06  0.2199756E+04  0.7818609E-02  0.8518530E-01
        2   -1    0    0  501    0  0.00000000000E+00  0.00000000000E+00  0.12416683593E+04  0.12416683593E+04  0.25500000920E-02 0.  1.
       -2   -1    0    0    0  501  0.00000000000E+00  0.00000000000E+00 -0.97427899210E+03  0.97427899210E+03  0.25500000920E-02 0. -1.
    10030    2    1    2    0    0  0.00000000000E+00  0.00000000000E+00  0.26738936716E+03  0.22159473514E+04  0.21997558024E+04 0.  0.
        2    1    3    3  502    0 -0.81760069308E+03 -0.28964196520E+03  0.81496249664E+03  0.11901794958E+04  0.25500000920E-02 0.  1.
       -2    1    3    3    0  502  0.81760069308E+03  0.28964196520E+03 -0.54757312949E+03  0.10257678555E+04  0.25500000920E-02 0. -1.
</event>
<event>
 5   0  0.2606154E-06  0.2199266E+04  0.7818609E-02  0.8518734E-01
        2   -1    0    0  501    0  0.00000000000E+00  0.00000000000E+00  0.10774872743E+04  0.10774872743E+04  0.25500000920E-02 0.  1.
       -2   -1    0    0    0  501  0.00000000000E+00  0.00000000000E+00 -0.11222335571E+04  0.11222335571E+04  0.25500000920E-02 0. -1.
    10030    2    1    2    0    0  0.00000000000E+00  0.00000000000E+00 -0.44746282854E+02  0.21997208314E+04  0.21992656743E+04 0.  0.
        2    1    3    3  502    0 -0.29542359675E+03  0.30632349828E+03  0.99178107512E+03  0.10792306927E+04  0.25500000920E-02 0.  1.
       -2    1    3    3    0  502  0.29542359675E+03 -0.30632349828E+03 -0.10365273580E+04  0.11204901387E+04  0.25500000920E-02 0. -1.
</event>
<event>
 5   0  0.1146827E-06  0.2199439E+04  0.7818609E-02  0.8518662E-01
        1   -1    0    0  501    0  0.00000000000E+00  0.00000000000E+00  0.16564512249E+04  0.16564512249E+04  0.50400001928E-02 0. -1.
       -1   -1    0    0    0  501  0.00000000000E+00  0.00000000000E+00 -0.73010496751E+03  0.73010496753E+03  0.50400001928E-02 0.  1.
    10030    2    1    2    0    0  0.00000000000E+00  0.00000000000E+00  0.92634625734E+03  0.23865561924E+04  0.21994392628E+04 0.  0.
        4    1    3    3  502    0  0.62094037946E+03  0.23286179934E+03 -0.48872269659E+03  0.82379794823E+03  0.12699999809E+01 0.  1.
       -4    1    3    3    0  502 -0.62094037946E+03 -0.23286179934E+03  0.14150689539E+04  0.15627582442E+04  0.12699999809E+01 0. -1.
</event>
<event>
 5   0  0.8905000E-07  0.2209679E+04  0.7818609E-02  0.8514410E-01
        3   -1    0    0  501    0  0.00000000000E+00  0.00000000000E+00  0.97774066500E+03  0.97774067021E+03  0.10100000352E+00 0.  1.
       -3   -1    0    0    0  501  0.00000000000E+00  0.00000000000E+00 -0.12484602917E+04  0.12484602958E+04  0.10100000352E+00 0. -1.
    10030    2    1    2    0    0  0.00000000000E+00  0.00000000000E+00 -0.27071962667E+03  0.22262009660E+04  0.22096790773E+04 0.  0.
        2    1    3    3  502    0  0.41775050164E+03  0.10216241402E+04 -0.85603900993E+02  0.11070498603E+04  0.25500000920E-02 0.  1.
       -2    1    3    3    0  502 -0.41775050164E+03 -0.10216241402E+04 -0.18511572568E+03  0.11191511056E+04  0.25500000920E-02 0. -1.
</event>
<event>
 5   0  0.2581058E-06  0.2207438E+04  0.7818609E-02  0.8515339E-01
        2   -1    0    0  501    0  0.00000000000E+00  0.00000000000E+00  0.12478641751E+04  0.12478641751E+04  0.25500000920E-02 0. -1.
       -2   -1    0    0    0  501  0.00000000000E+00  0.00000000000E+00 -0.97622444619E+03  0.97622444619E+03  0.25500000920E-02 0.  1.
    10030    2    1    2    0    0  0.00000000000E+00  0.00000000000E+00  0.27163972890E+03  0.22240886213E+04  0.22074378933E+04 0.  0.
        1    1    3    3  502    0 -0.51892828123E+03  0.34961067057E+02  0.11166549261E+04  0.12318388942E+04  0.50400001928E-02 0. -1.
       -1    1    3    3    0  502  0.51892828123E+03 -0.34961067057E+02 -0.84501519722E+03  0.99224972705E+03  0.50400001928E-02 0.  1.
</event>
<event>
 5   0  0.2532239E-06  0.2199021E+04  0.7818609E-02  0.8518836E-01
       -2   -1    0    0    0  501  0.00000000000E+00  0.00000000000E+00  0.11411903829E+04  0.11411903829E+04  0.25500000920E-02 0. -1.
        2   -1    0    0  501    0  0.00000000000E+00  0.00000000000E+00 -0.10593527950E+04  0.10593527950E+04  0.25500000920E-02 0.  1.
    10030    2    1    2    0    0  0.00000000000E+00  0.00000000000E+00  0.81837587908E+02  0.22005431780E+04  0.21990208929E+04 0.  0.
        3    1    3    3  502    0  0.88012251629E+03 -0.14052502248E+03 -0.60339048601E+03  0.10763099063E+04  0.10100000352E+00 0.  1.
       -3    1    3    3    0  502 -0.88012251629E+03  0.14052502248E+03  0.68522807392E+03  0.11242332717E+04  0.10100000352E+00 0. -1.
</event>
<event>
 5   0  0.1082209E-06  0.2199956E+04  0.7818609E-02  0.8518447E-01
       -1   -1    0    0    0  501  0.00000000000E+00  0.00000000000E+00  0.89530252580E+03  0.89530252581E+03  0.50400001928E-02 0.  1.
        1   -1    0    0  501    0  0.00000000000E+00  0.00000000000E+00 -0.13514441691E+04  0.13514441691E+04  0.50400001928E-02 0. -1.
    10030    2    1    2    0    0  0.00000000000E+00  0.00000000000E+00 -0.45614164334E+03  0.22467466950E+04  0.21999557979E+04 0.  0.
        2    1    3    3  502    0 -0.99676780324E+03 -0.45786333199E+03 -0.14406255971E+03  0.11063177236E+04  0.25500000920E-02 0. -1.
       -2    1    3    3    0  502  0.99676780324E+03  0.45786333199E+03 -0.31207908363E+03  0.11404289714E+04  0.25500000920E-02 0.  1.
</event>
<event>
 5   0  0.2532239E-06  0.2199977E+04  0.7818609E-02  0.8518437E-01
       -2   -1    0    0    0  501  0.00000000000E+00  0.00000000000E+00  0.79960757957E+03  0.79960757958E+03  0.25500000920E-02 0. -1.
        2   -1    0    0  501    0  0.00000000000E+00  0.00000000000E+00 -0.15132112528E+04  0.15132112528E+04  0.25500000920E-02 0.  1.
    10030    2    1    2    0    0  0.00000000000E+00  0.00000000000E+00 -0.71360367325E+03  0.23128188324E+04  0.21999774428E+04 0.  0.
        3    1    3    3  502    0  0.10640479842E+04 -0.20565738713E+03 -0.55483050462E+03  0.12175097423E+04  0.10100000352E+00 0. -1.
       -3    1    3    3    0  502 -0.10640479842E+04  0.20565738713E+03 -0.15877316863E+03  0.10953090901E+04  0.10100000352E+00 0.  1.
</event>
<event>
 5   0  0.2606154E-06  0.2200582E+04  0.7818609E-02  0.8518186E-01
        2   -1    0    0  501    0  0.00000000000E+00  0.00000000000E+00  0.23219955923E+04  0.23219955923E+04  0.25500000920E-02 0. -1.
       -2   -1    0    0    0  501  0.00000000000E+00  0.00000000000E+00 -0.52137903704E+03  0.52137903705E+03  0.25500000920E-02 0.  1.
    10030    2    1    2    0    0  0.00000000000E+00  0.00000000000E+00  0.18006165552E+04  0.28433746293E+04  0.22005815831E+04 0.  0.
        2    1    3    3  502    0  0.94293522840E+03 -0.56419988034E+03  0.97330315790E+03  0.14679125952E+04  0.25500000920E-02 0.  1.
       -2    1    3    3    0  502 -0.94293522840E+03  0.56419988034E+03  0.82731339733E+03  0.13754620341E+04  0.25500000920E-02 0. -1.
</event>
<event>
 5   0  0.2556869E-06  0.2210003E+04  0.7818609E-02  0.8514276E-01
        2   -1    0    0  501    0  0.00000000000E+00  0.00000000000E+00  0.11791052045E+04  0.11791052045E+04  0.25500000920E-02 0.  1.
       -2   -1    0    0    0  501  0.00000000000E+00  0.00000000000E+00 -0.10355545740E+04  0.10355545740E+04  0.25500000920E-02 0. -1.
    10030    2    1    2    0    0  0.00000000000E+00  0.00000000000E+00  0.14355063047E+03  0.22146597785E+04  0.22100025228E+04 0.  0.
        5    1    3    3  502    0  0.96495114527E+03  0.45166362675E+03  0.36543714844E+03  0.11263645697E+04  0.46999998093E+01 0.  1.
       -5    1    3    3    0  502 -0.96495114527E+03 -0.45166362675E+03 -0.22188651797E+03  0.10882952087E+04  0.46999998093E+01 0. -1.
</event>
<event>
 5   0  0.1137869E-06  0.2200431E+04  0.7818609E-02  0.8518249E-01
       -1   -1    0    0    0  501  0.00000000000E+00  0.00000000000E+00  0.11087562904E+04  0.11087562905E+04  0.50400001928E-02 0. -1.
        1   -1    0    0  501    0  0.00000000000E+00  0.00000000000E+00 -0.10917408816E+04  0.10917408816E+04  0.50400001928E-02 0.  1.
    10030    2    1    2    0    0  0.00000000000E+00  0.00000000000E+00  0.17015408841E+02  0.22004971721E+04  0.22004313850E+04 0.  0.
        5    1    3    3  502    0  0.23286885078E+02  0.96984503976E+03  0.52747485511E+03  0.11042615147E+04  0.46999998093E+01 0.  1.
       -5    1    3    3    0  502 -0.23286885078E+02 -0.96984503976E+03 -0.51045944627E+03  0.10962356573E+04  0.46999998093E+01 0. -1.
</event>
<event>
 5   0  0.1137869E-06  0.2200141E+04  0.7818609E-02  0.8518370E-01
        1   -1    0    0  501    0  0.00000000000E+00  0.00000000000E+00  0.13871392633E+04  0.13871392633E+04  0.50400001928E-02 0.  1.
       -1   -1    0    0    0  501  0.00000000000E+00  0.00000000000E+00 -0.87241049941E+03  0.87241049942E+03  0.50400001928E-02 0. -1.
    10030    2    1    2    0    0  0.00000000000E+00  0.00000000000E+00  0.51472876389E+03  0.22595497627E+04  0.22001407750E+04 0.  0.
        5    1    3    3  502    0  0.10197594331E+04 -0.12843547255E+03  0.66003286638E+03  0.12215033552E+04  0.46999998093E+01 0.  1.
       -5    1    3    3    0  502 -0.10197594331E+04  0.12843547255E+03 -0.14530410249E+03  0.10380464075E+04  0.46999998093E+01 0. -1.
</event>
<event>
 5   0  0.2581058E-06  0.2197399E+04  0.7818609E-02  0.8519512E-01
        2   -1    0    0  501    0  0.00000000000E+00  0.00000000000E+00  0.83861056324E+03  0.83861056324E+03  0.25500000920E-02 0.  1.
       -2   -1    0    0    0  501  0.00000000000E+00  0.00000000000E+00 -0.14394526378E+04  0.14394526378E+04  0.25500000920E-02 0. -1.
    10030    2    1    2    0    0  0.00000000000E+00  0.00000000000E+00 -0.60084207455E+03  0.22780632010E+04  0.21973986323E+04 0.  0.
        1    1    3    3  502    0 -0.10254456078E+04 -0.31315926592E+03 -0.54908597273E+03  0.12046172944E+04  0.50400001928E-02 0. -1.
       -1    1    3    3    0  502  0.10254456078E+04  0.31315926592E+03 -0.51756101816E+02  0.10734459067E+04  0.50400001928E-02 0.  1.
</event>
<event>
 5   0  0.1146827E-06  0.2200165E+04  0.7818609E-02  0.8518359E-01
        1   -1    0    0  501    0  0.00000000000E+00  0.00000000000E+00  0.11454377085E+04  0.11454377085E+04  0.50400001928E-02 0. -1.
       -1   -1    0    0    0  501  0.00000000000E+00  0.00000000000E+00 -0.10565231590E+04  0.10565231590E+04  0.50400001928E-02 0.  1.
    10030    2    1    2    0    0  0.00000000000E+00  0.00000000000E+00  0.88914549449E+02  0.22019608675E+04  0.22001649631E+04 0.  0.
        4    1    3    3  502    0  0.64845355554E+01  0.55581838905E+03  0.99454966720E+03  0.11393448926E+04  0.12699999809E+01 0. -1.
       -4    1    3    3    0  502 -0.64845355554E+01 -0.55581838905E+03 -0.90563511775E+03  0.10626159749E+04  0.12699999809E+01 0.  1.
</event>
<event>
 5   0  0.2606154E-06  0.2200455E+04  0.7818609E-02  0.8518239E-01
        2   -1    0    0  501    0  0.00000000000E+00  0.00000000000E+00  0.12210898819E+04  0.12210898819E+04  0.25500000920E-02 0. -1.
       -2   -1    0    0    0  501  0.00000000000E+00  0.00000000000E+00 -0.99132783557E+03  0.99132783558E+03  0.25500000920E-02 0.  1.
    10030    2    1    2    0    0  0.00000000000E+00  0.00000000000E+00  0.22976204633E+03  0.22124177175E+04  0.22004548527E+04 0.  0.
        2    1    3    3  502    0  0.83250673027E+03  0.27942810498E+03  0.78132154853E+03  0.11754194502E+04  0.25500000920E-02 0. -1.
       -2    1    3    3    0  502 -0.83250673027E+03 -0.27942810498E+03 -0.55155950219E+03  0.10369982672E+04  0.25500000920E-02 0.  1.
</event>
<event>
 5   0  0.1107101E-06  0.2200119E+04  0.7818609E-02  0.8518379E-01
        1   -1    0    0  501    0  0.00000000000E+00  0.00000000000E+00  0.96418311622E+03  0.96418311623E+03  0.50400001928E-02 0. -1.
       -1   -1    0    0    0  501  0.00000000000E+00  0.00000000000E+00 -0.12550838669E+04  0.12550838669E+04  0.50400001928E-02 0.  1.
    10030    2    1    2    0    0  0.00000000000E+00  0.00000000000E+00 -0.29090075070E+03  0.22192669832E+04  0.22001187913E+04 0.  0.
        1    1    3    3  502    0  0.66607917113E+03  0.34405366113E+03  0.66660040746E+03  0.10031901551E+04  0.50400001928E-02 0. -1.
       -1    1    3    3    0  502 -0.66607917113E+03 -0.34405366113E+03 -0.95750115816E+03  0.12160768281E+04  0.50400001928E-02 0.  1.
</event>
<event>
 5   0  0.2524749E-06  0.2200303E+04  0.7818609E-02  0.8518302E-01
        2   -1    0    0  501    0  0.00000000000E+00  0.00000000000E+00  0.14826955217E+04  0.14826955217E+04  0.25500000920E-02 0. -1.
       -2   -1    0    0    0  501  0.00000000000E+00  0.00000000000E+00 -0.81630615079E+03  0.81630615079E+03  0.25500000920E-02 0.  1.
    10030    2    1    2    0    0  0.00000000000E+00  0.00000000000E+00  0.66638937095E+03  0.22990016725E+04  0.22003031374E+04 0.  0.
        4    1    3    3  502    0  0.29189488246E+00 -0.60214077220E+03  0.12952339239E+04  0.14283578421E+04  0.12699999809E+01 0. -1.
       -4    1    3    3    0  502 -0.29189488246E+00  0.60214077220E+03 -0.62884455293E+03  0.87064383039E+03  0.12699999809E+01 0.  1.
</event>
<event>
 5   0  0.1146827E-06  0.2199547E+04  0.7818609E-02  0.8518617E-01
        1   -1    0    0  501    0  0.00000000000E+00  0.00000000000E+00  0.17569105939E+04  0.17569105939E+04  0.50400001928E-02 0.  1.
       -1   -1    0    0    0  501  0.00000000000E+00  0.00000000000E+00 -0.68842558397E+03  0.68842558399E+03  0.50400001928E-02 0. -1.
    10030    2    1    2    0    0  0.00000000000E+00  0.00000000000E+00  0.10684850099E+04  0.24453361779E+04  0.21995474095E+04 0.  0.
        4    1    3    3  502    0 -0.10544776329E+04  0.25923955896E+03  0.34049124920E+03  0.11380088448E+04  0.12699999809E+01 0. -1.
       -4    1    3    3    0  502  0.10544776329E+04 -0.25923955896E+03  0.72799376073E+03  0.13073273331E+04  0.12699999809E+01 0.  1.
</event>
<event>
 5   0  0.2556869E-06  0.2199880E+04  0.7818609E-02  0.8518478E-01
       -2   -1    0    0    0  501  0.00000000000E+00  0.00000000000E+00  0.13343283656E+04  0.13343283656E+04  0.25500000920E-02 0. -1.
        2   -1    0    0  501    0  0.00000000000E+00  0.00000000000E+00 -0.90672469003E+03  0.90672469003E+03  0.25500000920E-02 0.  1.
    10030    2    1    2    0    0  0.00000000000E+00  0.00000000000E+00  0.42760367558E+03  0.22410530556E+04  0.21998804274E+04 0.  0.
        5    1    3    3  502    0 -0.80141678467E+03 -0.59790962329E+03  0.68072678055E+03  0.12096180472E+04  0.46999998093E+01 0. -1.
       -5    1    3    3    0  502  0.80141678467E+03  0.59790962329E+03 -0.25312310497E+03  0.10314350084E+04  0.46999998093E+01 0.  1.
</event>
<event>
 5   0  0.1146827E-06  0.2199840E+04  0.7818609E-02  0.8518495E-01
       -1   -1    0    0    0  501  0.00000000000E+00  0.00000000000E+00  0.68125455091E+03  0.68125455093E+03  0.50400001928E-02 0. -1.
        1   -1    0    0  501    0  0.00000000000E+00  0.00000000000E+00 -0.17758760768E+04  0.17758760768E+04  0.50400001928E-02 0.  1.
    10030    2    1    2    0    0  0.00000000000E+00  0.00000000000E+00 -0.10946215259E+04  0.24571306277E+04  0.21998396843E+04 0.  0.
        4    1    3    3  502    0  0.22632820793E+03 -0.45861614143E+03 -0.16349952868E+04  0.17131154146E+04  0.12699999809E+01 0.  1.
       -4    1    3    3    0  502 -0.22632820793E+03  0.45861614143E+03  0.54037376098E+03  0.74401521310E+03  0.12699999809E+01 0. -1.
</event>
<event>
 5   0  0.1137869E-06  0.2200394E+04  0.7818609E-02  0.8518264E-01
        1   -1    0    0  501    0  0.00000000000E+00  0.00000000000E+00  0.10896530034E+04  0.10896530034E+04  0.50400001928E-02 0. -1.
       -1   -1    0    0    0  501  0.00000000000E+00  0.00000000000E+00 -0.11108429902E+04  0.11108429902E+04  0.50400001928E-02 0.  1.
    10030    2    1    2    0    0  0.00000000000E+00  0.00000000000E+00 -0.21189986780E+02  0.22004959936E+04  0.22003939653E+04 0.  0.
        5    1    3    3  502    0 -0.25321834116E+03 -0.40492136967E+03  0.98057682151E+03  0.10907033679E+04  0.46999998093E+01 0. -1.
       -5    1    3    3    0  502  0.25321834116E+03  0.40492136967E+03 -0.10017668083E+04  0.11097926257E+04  0.46999998093E+01 0.  1.
</event>
<event>
 5   0  0.2581058E-06  0.2199224E+04  0.7818609E-02  0.8518751E-01
        2   -1    0    0  501    0  0.00000000000E+00  0.00000000000E+00  0.11675174842E+04  0.11675174842E+04  0.25500000920E-02 0.  1.
       -2   -1    0    0    0  501  0.00000000000E+00  0.00000000000E+00 -0.10356556069E+04  0.10356556069E+04  0.25500000920E-02 0. -1.
    10030    2    1    2    0    0  0.00000000000E+00  0.00000000000E+00  0.13186187731E+03  0.22031730912E+04  0.21992235255E+04 0.  0.
        1    1    3    3  502    0  0.21213564139E+03  0.35588082108E+03 -0.95447247940E+03  0.10405144896E+04  0.50400001928E-02 0. -1.
       -1    1    3    3    0  502 -0.21213564139E+03 -0.35588082108E+03  0.10863343567E+04  0.11626586015E+04  0.50400001928E-02 0.  1.
</event>
<event>
 5   0  0.1144271E-06  0.2199662E+04  0.7818609E-02  0.8518569E-01
        1   -1    0    0  501    0  0.00000000000E+00  0.00000000000E+00  0.10031838620E+04  0.10031838621E+04  0.50400001928E-02 0. -1.
       -1   -1    0    0    0  501  0.00000000000E+00  0.00000000000E+00 -0.12057893689E+04  0.12057893689E+04  0.50400001928E-02 0.  1.
    10030    2    1    2    0    0  0.00000000000E+00  0.00000000000E+00 -0.20260550682E+03  0.22089732309E+04  0.21996621885E+04 0.  0.
        3    1    3    3  502    0  0.80631917959E+03  0.67431484180E+03 -0.42636614771E+03  0.11343012066E+04  0.10100000352E+00 0.  1.
       -3    1    3    3    0  502 -0.80631917959E+03 -0.67431484180E+03  0.22376064089E+03  0.10746720243E+04  0.10100000352E+00 0. -1.
</event>
<event>
 5   0  0.2581058E-06  0.2203944E+04  0.7818609E-02  0.8516788E-01
        2   -1    0    0  501    0  0.00000000000E+00  0.00000000000E+00  0.12062451998E+04  0.12062451998E+04  0.25500000920E-02 0. -1.
       -2   -1    0    0    0  501  0.00000000000E+00  0.00000000000E+00 -0.10067124210E+04  0.10067124210E+04  0.25500000920E-02 0.  1.
    10030    2    1    2    0    0  0.00000000000E+00  0.00000000000E+00  0.19953277874E+03  0.22129576208E+04  0.22039437610E+04 0.  0.
        1    1    3    3  502    0  0.28813177445E+03 -0.86171517427E+03 -0.52629718806E+03  0.10500293764E+04  0.50400001928E-02 0. -1.
       -1    1    3    3    0  502 -0.28813177445E+03  0.86171517427E+03  0.72582996680E+03  0.11629282445E+04  0.50400001928E-02 0.  1.
</event>
<event>
 5   0  0.1144271E-06  0.2196262E+04  0.7818609E-02  0.8519985E-01
       -1   -1    0    0    0  501  0.00000000000E+00  0.00000000000E+00  0.55699351544E+03  0.55699351547E+03  0.50400001928E-02 0.  1.
        1   -1    0    0  501    0  0.00000000000E+00  0.00000000000E+00 -0.21650016892E+04  0.21650016892E+04  0.50400001928E-02 0. -1.
    10030    2    1    2    0    0  0.00000000000E+00  0.00000000000E+00 -0.16080081738E+04  0.27219952047E+04  0.21962621901E+04 0.  0.
        3    1    3    3  502    0  0.66769807339E+01  0.12604690526E+03  0.54797277402E+03  0.56232248369E+03  0.10100000352E+00 0.  1.
       -3    1    3    3    0  502 -0.66769807339E+01 -0.12604690526E+03 -0.21559809478E+04  0.21596727210E+04  0.10100000352E+00 0. -1.
</event>
<event>
 5   0  0.1137869E-06  0.2198914E+04  0.7818609E-02  0.8518880E-01
       -1   -1    0    0    0  501  0.00000000000E+00  0.00000000000E+00  0.11567845526E+04  0.11567845526E+04  0.50400001928E-02 0.  1.
        1   -1    0    0  501    0  0.00000000000E+00  0.00000000000E+00 -0.10449703718E+04  0.10449703718E+04  0.50400001928E-02 0. -1.
    10030    2    1    2    0    0  0.00000000000E+00  0.00000000000E+00  0.11181418083E+03  0.22017549244E+04  0.21989138992E+04 0.  0.
        5    1    3    3  502    0 -0.13306809021E+03 -0.90347540765E+03  0.66891419139E+03  0.11320084869E+04  0.46999998093E+01 0.  1.
       -5    1    3    3    0  502  0.13306809021E+03  0.90347540765E+03 -0.55710001056E+03  0.10697464375E+04  0.46999998093E+01 0. -1.
</event>
<event>
 5   0  0.2524749E-06  0.2198973E+04  0.7818609E-02  0.8518856E-01
       -2   -1    0    0    0  501  0.00000000000E+00  0.00000000000E+00  0.96224633132E+03  0.96224633133E+03  0.25500000920E-02 0.  1.
        2   -1    0    0  501    0  0.00000000000E+00  0.00000000000E+00 -0.12563004938E+04  0.12563004938E+04  0.25500000920E-02 0. -1.
    10030    2    1    2    0    0  0.00000000000E+00  0.00000000000E+00 -0.29405416245E+03  0.22185468251E+04  0.21989729795E+04 0.  0.
        4    1    3    3  502    0 -0.71442698175E+03  0.77874688755E+03  0.15901496173E+03  0.10687095013E+04  0.12699999809E+01 0.  1.
       -4    1    3    3    0  502  0.71442698175E+03 -0.77874688755E+03 -0.45306912418E+03  0.11498373238E+04  0.12699999809E+01 0. -1.
</event>
<event>
 5   0  0.2606154E-06  0.2199414E+04  0.7818609E-02  0.8518672E-01
        2   -1    0    0  501    0  0.00000000000E+00  0.00000000000E+00  0.24275110601E+04  0.24275110601E+04  0.25500000920E-02 0. -1.
       -2   -1    0    0    0  501  0.00000000000E+00  0.00000000000E+00 -0.49818728733E+03  0.49818728734E+03  0.25500000920E-02 0.  1.
    10030    2    1    2    0    0  0.00000000000E+00  0.00000000000E+00  0.19293237728E+04  0.29256983474E+04  0.21994136946E+04 0.  0.
        2    1    3    3  502    0  0.36504256739E+03 -0.43349754265E+03 -0.28897817119E+03  0.63614823659E+03  0.25500000920E-02 0.  1.
       -2    1    3    3    0  502 -0.36504256739E+03  0.43349754265E+03  0.22183019440E+04  0.22895501108E+04  0.25500000920E-02 0. -1.
</event>
<event>
 5   0  0.1146827E-06  0.2200632E+04  0.7818609E-02  0.8518165E-01
        1   -1    0    0  501    0  0.00000000000E+00  0.00000000000E+00  0.10749930276E+04  0.10749930276E+04  0.50400001928E-02 0.  1.
       -1   -1    0    0    0  501  0.00000000000E+00  0.00000000000E+00 -0.11262357633E+04  0.11262357633E+04  0.50400001928E-02 0. -1.
    10030    2    1    2    0    0  0.00000000000E+00  0.00000000000E+00 -0.51242735687E+02  0.22012287910E+04  0.22006322665E+04 0.  0.
        4    1    3    3  502    0 -0.82120537596E+03  0.62268788428E+03  0.35993805551E+03  0.10916388997E+04  0.12699999809E+01 0.  1.
       -4    1    3    3    0  502  0.82120537596E+03 -0.62268788428E+03 -0.41118079120E+03  0.11095898912E+04  0.12699999809E+01 0. -1.
</event>
<event>
 5   0  0.2556869E-06  0.2200964E+04  0.7818609E-02  0.8518027E-01
        2   -1    0    0  501    0  0.00000000000E+00  0.00000000000E+00  0.17551326444E+04  0.17551326444E+04  0.25500000920E-02 0.  1.
       -2   -1    0    0    0  501  0.00000000000E+00  0.00000000000E+00 -0.69001095954E+03  0.69001095954E+03  0.25500000920E-02 0. -1.
    10030    2    1    2    0    0  0.00000000000E+00  0.00000000000E+00  0.10651216848E+04  0.24451436039E+04  0.22009641161E+04 0.  0.
        5    1    3    3  502    0  0.16836256339E+03 -0.10833366878E+04  0.63838842834E+03  0.12686710398E+04  0.46999998093E+01 0.  1.
       -5    1    3    3    0  502 -0.16836256339E+03  0.10833366878E+04  0.42673325647E+03  0.11764725641E+04  0.46999998093E+01 0. -1.
</event>
<event>
 5   0  0.1107101E-06  0.2201028E+04  0.7818609E-02  0.8518000E-01
        1   -1    0    0  501    0  0.00000000000E+00  0.00000000000E+00  0.14669445942E+04  0.14669445942E+04  0.50400001928E-02 0. -1.
       -1   -1    0    0    0  501  0.00000000000E+00  0.00000000000E+00 -0.82561493415E+03  0.82561493417E+03  0.50400001928E-02 0.  1.
    10030    2    1    2    0    0  0.00000000000E+00  0.00000000000E+00  0.64132966008E+03  0.22925595284E+04  0.22010282730E+04 0.  0.
        1    1    3    3  502    0 -0.50918701043E+03  0.34574723789E+03  0.12709191495E+04  0.14121076619E+04  0.50400001928E-02 0. -1.
       -1    1    3    3    0  502  0.50918701043E+03 -0.34574723789E+03 -0.62958948942E+03  0.88045186655E+03  0.50400001928E-02 0.  1.
</event>
<event>
 5   0  0.2524749E-06  0.2198220E+04  0.7818609E-02  0.8519169E-01
        2   -1    0    0  501    0  0.00000000000E+00  0.00000000000E+00  0.10921045922E+04  0.10921045922E+04  0.25500000920E-02 0.  1.
       -2   -1    0    0    0  501  0.00000000000E+00  0.00000000000E+00 -0.11061601388E+04  0.11061601388E+04  0.25500000920E-02 0. -1.
    10030    2    1    2    0    0  0.00000000000E+00  0.00000000000E+00 -0.14055546617E+02  0.21982647311E+04  0.21982197955E+04 0.  0.
        4    1    3    3  502    0 -0.15860062518E+03  0.10869973729E+04 -0.43408558052E+02  0.10993649816E+04  0.12699999809E+01 0.  1.
       -4    1    3    3    0  502  0.15860062518E+03 -0.10869973729E+04  0.29353011435E+02  0.10988997494E+04  0.12699999809E+01 0. -1.
</event>
<event>
 5   0  0.1082209E-06  0.2200069E+04  0.7818609E-02  0.8518400E-01
       -1   -1    0    0    0  501  0.00000000000E+00  0.00000000000E+00  0.20241997670E+04  0.20241997670E+04  0.50400001928E-02 0. -1.
        1   -1    0    0  501    0  0.00000000000E+00  0.00000000000E+00 -0.59780432695E+03  0.59780432697E+03  0.50400001928E-02 0.  1.
    10030    2    1    2    0    0  0.00000000000E+00  0.00000000000E+00  0.14263954400E+04  0.26220040939E+04  0.22000685256E+04 0.  0.
        2    1    3    3  502    0  0.39916364241E+03 -0.47142412878E+03 -0.37158863796E+03  0.72086783705E+03  0.25500000920E-02 0.  1.
       -2    1    3    3    0  502 -0.39916364241E+03  0.47142412878E+03  0.17979840780E+04  0.19011362569E+04  0.25500000920E-02 0. -1.
</event>
<event>
 5   0  0.1082209E-06  0.2200265E+04  0.7818609E-02  0.8518318E-01
        1   -1    0    0  501    0  0.00000000000E+00  0.00000000000E+00  0.28632405299E+04  0.28632405299E+04  0.50400001928E-02 0. -1.
       -1   -1    0    0    0  501  0.00000000000E+00  0.00000000000E+00 -0.42269991506E+03  0.42269991509E+03  0.50400001928E-02 0.  1.
    10030    2    1    2    0    0  0.00000000000E+00  0.00000000000E+00  0.24405406148E+04  0.32859404450E+04  0.22002650103E+04 0.  0.
        2    1    3    3  502    0  0.68313288968E+03 -0.78783797219E+03  0.69664850315E+03  0.12540647321E+04  0.25500000920E-02 0.  1.
       -2    1    3    3    0  502 -0.68313288968E+03  0.78783797219E+03  0.17438921117E+04  0.20318757129E+04  0.25500000920E-02 0. -1.
</event>
<event>
 5   0  0.2606154E-06  0.2199447E+04  0.7818609E-02  0.8518658E-01
        2   -1    0    0  501    0  0.00000000000E+00  0.00000000000E+00  0.12229427842E+04  0.12229427842E+04  0.25500000920E-02 0.  1.
       -2   -1    0    0    0  501  0.00000000000E+00  0.00000000000E+00 -0.98891935534E+03  0.98891935535E+03  0.25500000920E-02 0. -1.
    10030    2    1    2    0    0  0.00000000000E+00  0.00000000000E+00  0.23402342881E+03  0.22118621395E+04  0.21994470121E+04 0.  0.
        2    1    3    3  502    0 -0.31460987513E+02  0.16037740946E+03 -0.97663833343E+03  0.99021873418E+03  0.25500000920E-02 0. -1.
       -2    1    3    3    0  502  0.31460987513E+02 -0.16037740946E+03  0.12106617622E+04  0.12216434053E+04  0.25500000920E-02 0.  1.
</event>
<event>
 5   0  0.1137869E-06  0.2201188E+04  0.7818609E-02  0.8517934E-01
       -1   -1    0    0    0  501  0.00000000000E+00  0.00000000000E+00  0.64437445103E+03  0.64437445105E+03  0.50400001928E-02 0. -1.
        1   -1    0    0  501    0  0.00000000000E+00  0.00000000000E+00 -0.18798185063E+04  0.18798185063E+04  0.50400001928E-02 0.  1.
    10030    2    1    2    0    0  0.00000000000E+00  0.00000000000E+00 -0.12354440552E+04  0.25241929573E+04  0.22011878775E+04 0.  0.
        5    1    3    3  502    0 -0.94857007364E+03 -0.40990363051E+02 -0.12560146669E+04  0.15745032003E+04  0.46999998093E+01 0.  1.
       -5    1    3    3    0  502  0.94857007364E+03  0.40990363051E+02  0.20570611632E+02  0.94968975699E+03  0.46999998093E+01 0. -1.
</event>
<event>
 5   0  0.1146827E-06  0.2200085E+04  0.7818609E-02  0.8518393E-01
       -1   -1    0    0    0  501  0.00000000000E+00  0.00000000000E+00  0.81860213034E+03  0.81860213036E+03  0.50400001928E-02 0. -1.
        1   -1    0    0  501    0  0.00000000000E+00  0.00000000000E+00 -0.14782440282E+04  0.14782440283E+04  0.50400001928E-02 0.  1.
    10030    2    1    2    0    0  0.00000000000E+00  0.00000000000E+00 -0.65964189790E+03  0.22968461586E+04  0.22000851899E+04 0.  0.
        4    1    3    3  502    0  0.56015251796E+03  0.63321521169E+03 -0.10645932355E+04  0.13594457391E+04  0.12699999809E+01 0.  1.
       -4    1    3    3    0  502 -0.56015251796E+03 -0.63321521169E+03  0.40495133760E+03  0.93740041947E+03  0.12699999809E+01 0. -1.
</event>
<event>
 5   0  0.1137869E-06  0.2199757E+04  0.7818609E-02  0.8518529E-01
        1   -1    0    0  501    0  0.00000000000E+00  0.00000000000E+00  0.17427065927E+04  0.17427065927E+04  0.50400001928E-02 0.  1.
       -1   -1    0    0    0  501  0.00000000000E+00  0.00000000000E+00 -0.69416884045E+03  0.69416884047E+03  0.50400001928E-02 0. -1.
    10030    2    1    2    0    0  0.00000000000E+00  0.00000000000E+00  0.10485377522E+04  0.24368754332E+04  0.21997569090E+04 0.  0.
        5    1    3    3  502    0  0.73169818608E+03 -0.31893856626E+03 -0.31400661472E+03  0.85774488552E+03  0.46999998093E+01 0. -1.
       -5    1    3    3    0  502 -0.73169818608E+03  0.31893856626E+03  0.13625443670E+04  0.15791305476E+04  0.46999998093E+01 0.  1.
</event>
<event>
 5   0  0.2606154E-06  0.2200010E+04  0.7818609E-02  0.8518424E-01
       -2   -1    0    0    0  501  0.00000000000E+00  0.00000000000E+00  0.55552493109E+03  0.55552493110E+03  0.25500000920E-02 0.  1.
        2   -1    0    0  501    0  0.00000000000E+00  0.00000000000E+00 -0.21781397631E+04  0.21781397631E+04  0.25500000920E-02 0. -1.
    10030    2    1    2    0    0  0.00000000000E+00  0.00000000000E+00 -0.16226148321E+04  0.27336646942E+04  0.22000099471E+04 0.  0.
        2    1    3    3  502    0  0.10295353993E+04  0.39010651701E+02 -0.33240057605E+03  0.10825687564E+04  0.25500000920E-02 0.  1.
       -2    1    3    3    0  502 -0.10295353993E+04 -0.39010651701E+02 -0.12902142560E+04  0.16510959378E+04  0.25500000920E-02 0. -1.
</event>
<event>
 5   0  0.2606154E-06  0.2198873E+04  0.7818609E-02  0.8518897E-01
        2   -1    0    0  501    0  0.00000000000E+00  0.00000000000E+00  0.15339548930E+04  0.15339548930E+04  0.25500000920E-02 0.  1.
       -2   -1    0    0    0  501  0.00000000000E+00  0.00000000000E+00 -0.78800260228E+03  0.78800260229E+03  0.25500000920E-02 0. -1.
    10030    2    1    2    0    0  0.00000000000E+00  0.00000000000E+00  0.74595229072E+03  0.23219574953E+04  0.21988728453E+04 0.  0.
        2    1    3    3  502    0  0.55825639811E+03  0.12990844080E+03 -0.61774909781E+03  0.84269825969E+03  0.25500000920E-02 0. -1.
       -2    1    3    3    0  502 -0.55825639811E+03 -0.12990844080E+03  0.13637013885E+04  0.14792592356E+04  0.25500000920E-02 0.  1.
</event>
<event>
 5   0  0.1107101E-06  0.2185386E+04  0.7818609E-02  0.8524536E-01
        1   -1    0    0  501    0  0.00000000000E+00  0.00000000000E+00  0.15590636288E+04  0.15590636288E+04  0.50400001928E-02 0. -1.
       -1   -1    0    0    0  501  0.00000000000E+00  0.00000000000E+00 -0.76582991319E+03  0.76582991321E+03  0.50400001928E-02 0.  1.
    10030    2    1    2    0    0  0.00000000000E+00  0.00000000000E+00  0.79323371559E+03  0.23248935420E+04  0.21853856076E+04 0.  0.
        1    1    3    3  502    0  0.68238874554E+03  0.12737965651E+03 -0.50111109772E+03  0.85614970024E+03  0.50400001928E-02 0.  1.
       -1    1    3    3    0  502 -0.68238874554E+03 -0.12737965651E+03  0.12943448133E+04  0.14687438418E+04  0.50400001928E-02 0. -1.
</event>
<event>
 5   0  0.2532239E-06  0.2200367E+04  0.7818609E-02  0.8518275E-01
        2   -1    0    0  501    0  0.00000000000E+00  0.00000000000E+00  0.67830234573E+03  0.67830234573E+03  0.25500000920E-02 0.  1.
       -2   -1    0    0    0  501  0.00000000000E+00  0.00000000000E+00 -0.17844610042E+04  0.17844610042E+04  0.25500000920E-02 0. -1.
    10030    2    1    2    0    0  0.00000000000E+00  0.00000000000E+00 -0.11061586585E+04  0.24627633500E+04  0.22003673194E+04 0.  0.
        3    1    3    3  502    0  0.69170701501E+03 -0.37795056211E+03 -0.14121355447E+04  0.16172297391E+04  0.10100000352E+00 0. -1.
       -3    1    3    3    0  502 -0.69170701501E+03  0.37795056211E+03  0.30597688625E+03  0.84553361089E+03  0.10100000352E+00 0.  1.
</event>
<event>
 5   0  0.2532239E-06  0.2200440E+04  0.7818609E-02  0.8518245E-01
       -2   -1    0    0    0  501  0.00000000000E+00  0.00000000000E+00  0.14204820851E+04  0.14204820851E+04  0.25500000920E-02 0. -1.
        2   -1    0    0  501    0  0.00000000000E+00  0.00000000000E+00 -0.85216430857E+03  0.85216430858E+03  0.25500000920E-02 0.  1.
    10030    2    1    2    0    0  0.00000000000E+00  0.00000000000E+00  0.56831777656E+03  0.22726463937E+04  0.22004400777E+04 0.  0.
        3    1    3    3  502    0  0.10907466931E+04 -0.14066189408E+03  0.25199195148E+03  0.11282792521E+04  0.10100000352E+00 0. -1.
       -3    1    3    3    0  502 -0.10907466931E+04  0.14066189408E+03  0.31632582508E+03  0.11443671416E+04  0.10100000352E+00 0.  1.
</event>
<event>
 5   0  0.2524749E-06  0.2202336E+04  0.7818609E-02  0.8517457E-01
        2   -1    0    0  501    0  0.00000000000E+00  0.00000000000E+00  0.10094702086E+04  0.10094702086E+04  0.25500000920E-02 0. -1.
       -2   -1    0    0    0  501  0.00000000000E+00  0.00000000000E+00 -0.12011951779E+04  0.12011951779E+04  0.25500000920E-02 0.  1.
    10030    2    1    2    0    0  0.00000000000E+00  0.00000000000E+00 -0.19172496925E+03  0.22106653865E+04  0.22023358026E+04 0.  0.
        4    1    3    3  502    0 -0.30711736271E+03  0.10365287747E+04 -0.30607315978E+03  0.11235636908E+04  0.12699999809E+01 0.  1.
       -4    1    3    3    0  502  0.30711736271E+03 -0.10365287747E+04  0.11434819053E+03  0.10871016957E+04  0.12699999809E+01 0. -1.
</event>
<event>
 5   0  0.1146827E-06  0.2201683E+04  0.7818609E-02  0.8517728E-01
       -1   -1    0    0    0  501  0.00000000000E+00  0.00000000000E+00  0.62524917336E+03  0.62524917338E+03  0.50400001928E-02 0. -1.
        1   -1    0    0  501    0  0.00000000000E+00  0.00000000000E+00 -0.19381913043E+04  0.19381913043E+04  0.50400001928E-02 0.  1.
    10030    2    1    2    0    0  0.00000000000E+00  0.00000000000E+00 -0.13129421309E+04  0.25634404777E+04  0.22016834567E+04 0.  0.
        4    1    3    3  502    0 -0.66744145466E+03  0.39942214515E+03 -0.15634633248E+04  0.17462632466E+04  0.12699999809E+01 0.  1.
       -4    1    3    3    0  502  0.66744145466E+03 -0.39942214515E+03  0.25052119393E+03  0.81717723105E+03  0.12699999809E+01 0. -1.
</event>
<event>
 5   0  0.1146827E-06  0.2200552E+04  0.7818609E-02  0.8518198E-01
       -1   -1    0    0    0  501  0.00000000000E+00  0.00000000000E+00  0.19695529034E+04  0.19695529034E+04  0.50400001928E-02 0. -1.
        1   -1    0    0  501    0  0.00000000000E+00  0.00000000000E+00 -0.61466105571E+03  0.61466105573E+03  0.50400001928E-02 0.  1.
    10030    2    1    2    0    0  0.00000000000E+00  0.00000000000E+00  0.13548918477E+04  0.25842139591E+04  0.22005521734E+04 0.  0.
        4    1    3    3  502    0 -0.45746417524E+03 -0.63829964634E+03 -0.22756877767E+03  0.81761180985E+03  0.12699999809E+01 0.  1.
       -4    1    3    3    0  502  0.45746417524E+03  0.63829964634E+03  0.15824606254E+04  0.17666021493E+04  0.12699999809E+01 0. -1.
</event>
<event>
 5   0  0.2556869E-06  0.2200607E+04  0.7818609E-02  0.8518176E-01
       -2   -1    0    0    0  501  0.00000000000E+00  0.00000000000E+00  0.77752920678E+03  0.77752920679E+03  0.25500000920E-02 0.  1.
        2   -1    0    0  501    0  0.00000000000E+00  0.00000000000E+00 -0.15570700938E+04  0.15570700938E+04  0.25500000920E-02 0. -1.
    10030    2    1    2    0    0  0.00000000000E+00  0.00000000000E+00 -0.77954088705E+03  0.23345993006E+04  0.22006067118E+04 0.  0.
        5    1    3    3  502    0 -0.88560154452E+03 -0.36313602341E+03  0.18593901357E+03  0.97506577928E+03  0.46999998093E+01 0.  1.
       -5    1    3    3    0  502  0.88560154452E+03  0.36313602341E+03 -0.96547990062E+03  0.13595335213E+04  0.46999998093E+01 0. -1.
</event>
<event>
 5   0  0.1146827E-06  0.2199964E+04  0.7818609E-02  0.8518443E-01
       -1   -1    0    0    0  501  0.00000000000E+00  0.00000000000E+00  0.10933213710E+04  0.10933213710E+04  0.50400001928E-02 0.  1.
        1   -1    0    0  501    0  0.00000000000E+00  0.00000000000E+00 -0.11066832981E+04  0.11066832981E+04  0.50400001928E-02 0. -1.
    10030    2    1    2    0    0  0.00000000000E+00  0.00000000000E+00 -0.13361927065E+02  0.22000046691E+04  0.21999640913E+04 0.  0.
        4    1    3    3  502    0 -0.43815172622E+03  0.55051769975E+03  0.83885944826E+03  0.10948668685E+04  0.12699999809E+01 0.  1.
       -4    1    3    3    0  502  0.43815172622E+03 -0.55051769975E+03 -0.85222137532E+03  0.11051378006E+04  0.12699999809E+01 0. -1.
</event>
<event>
 5   0  0.2532239E-06  0.2201238E+04  0.7818609E-02  0.8517913E-01
       -2   -1    0    0    0  501  0.00000000000E+00  0.00000000000E+00  0.67123098051E+03  0.67123098051E+03  0.25500000920E-02 0.  1.
        2   -1    0    0  501    0  0.00000000000E+00  0.00000000000E+00 -0.18046882263E+04  0.18046882263E+04  0.25500000920E-02 0. -1.
    10030    2    1    2    0    0  0.00000000000E+00  0.00000000000E+00 -0.11334572458E+04  0.24759192068E+04  0.22012384220E+04 0.  0.
        3    1    3    3  502    0 -0.19564094389E+03  0.23411616887E+03  0.62271553296E+03  0.69344098858E+03  0.10100000352E+00 0.  1.
       -3    1    3    3    0  502  0.19564094389E+03 -0.23411616887E+03 -0.17561727787E+04  0.17824782182E+04  0.10100000352E+00 0. -1.
</event>
<event>
 5   0  0.2532239E-06  0.2199660E+04  0.7818609E-02  0.8518570E-01
        2   -1    0    0  501    0  0.00000000000E+00  0.00000000000E+00  0.91453060622E+03  0.91453060622E+03  0.25500000920E-02 0. -1.
       -2   -1    0    0    0  501  0.00000000000E+00  0.00000000000E+00 -0.13226741140E+04  0.13226741140E+04  0.25500000920E-02 0.  1.
    10030    2    1    2    0    0  0.00000000000E+00  0.00000000000E+00 -0.40814350780E+03  0.22372047202E+04  0.21996599367E+04 0.  0.
        3    1    3    3  502    0 -0.50435720727E+02  0.70050437201E+03 -0.10649081862E+04  0.12756486948E+04  0.10100000352E+00 0.  1.
       -3    1    3    3    0  502  0.50435720727E+02 -0.70050437201E+03  0.65676467843E+03  0.96155602549E+03  0.10100000352E+00 0. -1.
</event>
<event>
 5   0  0.1146827E-06  0.2200896E+04  0.7818609E-02  0.8518055E-01
       -1   -1    0    0    0  501  0.00000000000E+00  0.00000000000E+00  0.78305563527E+03  0.78305563528E+03  0.50400001928E-02 0.  1.
        1   -1    0    0  501    0  0.00000000000E+00  0.00000000000E+00 -0.15464870409E+04  0.15464870409E+04  0.50400001928E-02 0. -1.
    10030    2    1    2    0    0  0.00000000000E+00  0.00000000000E+00 -0.76343140563E+03  0.23295426762E+04  0.22008956288E+04 0.  0.
        4    1    3    3  502    0  0.53094455020E+03  0.91981977311E+03 -0.76754263363E+02  0.10648302025E+04  0.12699999809E+01 0.  1.
       -4    1    3    3    0  502 -0.53094455020E+03 -0.91981977311E+03 -0.68667714227E+03  0.12647124737E+04  0.12699999809E+01 0. -1.
</event>
<event>
 5   0  0.1144271E-06  0.2200960E+04  0.7818609E-02  0.8518029E-01
       -1   -1    0    0    0  501  0.00000000000E+00  0.00000000000E+00  0.80767595587E+03  0.80767595589E+03  0.50400001928E-02 0. -1.
        1   -1    0    0  501    0  0.00000000000E+00  0.00000000000E+00 -0.14994334513E+04  0.14994334513E+04  0.50400001928E-02 0.  1.
    10030    2    1    2    0    0  0.00000000000E+00  0.00000000000E+00 -0.69175749539E+03  0.23071094072E+04  0.22009601051E+04 0.  0.
        3    1    3    3  502    0 -0.12616089339E+03  0.33450245064E+03 -0.14368666691E+04  0.14806735951E+04  0.10100000352E+00 0.  1.
       -3    1    3    3    0  502  0.12616089339E+03 -0.33450245064E+03  0.74510917367E+03  0.82643581202E+03  0.10100000352E+00 0. -1.
</event>
<event>
 5   0  0.1146827E-06  0.2198654E+04  0.7818609E-02  0.8518989E-01
       -1   -1    0    0    0  501  0.00000000000E+00  0.00000000000E+00  0.61589477953E+03  0.61589477955E+03  0.50400001928E-02 0. -1.
        1   -1    0    0  501    0  0.00000000000E+00  0.00000000000E+00 -0.19622171789E+04  0.19622171789E+04  0.50400001928E-02 0.  1.
    10030    2    1    2    0    0  0.00000000000E+00  0.00000000000E+00 -0.13463223994E+04  0.25781119585E+04  0.21986535123E+04 0.  0.
        4    1    3    3  502    0 -0.61203453969E+02  0.10880248405E+04 -0.84297907908E+03  0.13777370057E+04  0.12699999809E+01 0. -1.
       -4    1    3    3    0  502  0.61203453969E+02 -0.10880248405E+04 -0.50334332030E+03  0.12003749528E+04  0.12699999809E+01 0.  1.
</event>
<event>
 5   0  0.2556869E-06  0.2199548E+04  0.7818609E-02  0.8518616E-01
        2   -1    0    0  501    0  0.00000000000E+00  0.00000000000E+00  0.13836835983E+04  0.13836835983E+04  0.25500000920E-02 0.  1.
       -2   -1    0    0    0  501  0.00000000000E+00  0.00000000000E+00 -0.87411785171E+03  0.87411785171E+03  0.25500000920E-02 0. -1.
    10030    2    1    2    0    0  0.00000000000E+00  0.00000000000E+00  0.50956574658E+03  0.22578014500E+04  0.21995477120E+04 0.  0.
        5    1    3    3  502    0  0.11090738636E+02  0.50200089678E+03 -0.74957458145E+03  0.90222616234E+03  0.46999998093E+01 0. -1.
       -5    1    3    3    0  502 -0.11090738636E+02 -0.50200089678E+03  0.12591403280E+04  0.13555752877E+04  0.46999998093E+01 0.  1.
</event>
<event>
 5   0  0.1146827E-06  0.2204722E+04  0.7818609E-02  0.8516465E-01
        1   -1    0    0  501    0  0.00000000000E+00  0.00000000000E+00  0.64037883667E+03  0.64037883669E+03  0.50400001928E-02 0. -1.
       -1   -1    0    0    0  501  0.00000000000E+00  0.00000000000E+00 -0.18976266998E+04  0.18976266998E+04  0.50400001928E-02 0.  1.
    10030    2    1    2    0    0  0.00000000000E+00  0.00000000000E+00 -0.12572478631E+04  0.25380055365E+04  0.22047221852E+04 0.  0.
        4    1    3    3  502    0 -0.66779664566E+03 -0.80019914965E+03 -0.10419674971E+04  0.14737601287E+04  0.12699999809E+01 0.  1.
       -4    1    3    3    0  502  0.66779664566E+03  0.80019914965E+03 -0.21528036598E+03  0.10642454078E+04  0.12699999809E+01 0. -1.
</event>
<event>
 5   0  0.1082209E-06  0.2199474E+04  0.7818609E-02  0.8518647E-01
        1   -1    0    0  501    0  0.00000000000E+00  0.00000000000E+00  0.58382725417E+03  0.58382725419E+03  0.50400001928E-02 0. -1.
       -1   -1    0    0    0  501  0.00000000000E+00  0.00000000000E+00 -0.20715405694E+04  0.20715405695E+04  0.50400001928E-02 0.  1.
    10030    2    1    2    0    0  0.00000000000E+00  0.00000000000E+00 -0.14877133153E+04  0.26553678236E+04  0.21994743396E+04 0.  0.
        2    1    3    3  502    0  0.41570962341E+03 -0.80326714534E+03 -0.14991212691E+04  0.17508332808E+04  0.25500000920E-02 0.  1.
       -2    1    3    3    0  502 -0.41570962341E+03  0.80326714534E+03  0.11407953800E+02  0.90453454284E+03  0.25500000920E-02 0. -1.
</event>
<event>
 5   0  0.1137869E-06  0.2198667E+04  0.7818609E-02  0.8518983E-01
       -1   -1    0    0    0  501  0.00000000000E+00  0.00000000000E+00  0.13243941973E+04  0.13243941973E+04  0.50400001928E-02 0. -1.
        1   -1    0    0  501    0  0.00000000000E+00  0.00000000000E+00 -0.91251865640E+03  0.91251865641E+03  0.50400001928E-02 0.  1.
    10030    2    1    2    0    0  0.00000000000E+00  0.00000000000E+00  0.41187554088E+03  0.22369128537E+04  0.21986672449E+04 0.  0.
        5    1    3    3  502    0  0.79619742242E+03 -0.59274496446E+03  0.68663441018E+03  0.12069655470E+04  0.46999998093E+01 0. -1.
       -5    1    3    3    0  502 -0.79619742242E+03  0.59274496446E+03 -0.27475886930E+03  0.10299473067E+04  0.46999998093E+01 0.  1.
</event>
<event>
 5   0  0.2606154E-06  0.2202373E+04  0.7818609E-02  0.8517441E-01
        2   -1    0    0  501    0  0.00000000000E+00  0.00000000000E+00  0.92505156505E+03  0.92505156506E+03  0.25500000920E-02 0. -1.
       -2   -1    0    0    0  501  0.00000000000E+00  0.00000000000E+00 -0.13108585871E+04  0.13108585871E+04  0.25500000920E-02 0.  1.
    10030    2    1    2    0    0  0.00000000000E+00  0.00000000000E+00 -0.38580702203E+03  0.22359101521E+04  0.22023730724E+04 0.  0.
        2    1    3    3  502    0 -0.45135245458E+03  0.26914823552E+03  0.78953689232E+03  0.94843466579E+03  0.25500000920E-02 0. -1.
       -2    1    3    3    0  502  0.45135245458E+03 -0.26914823552E+03 -0.11753439144E+04  0.12874754864E+04  0.25500000920E-02 0.  1.
</event>
<event>
 5   0  0.2524749E-06  0.2202953E+04  0.7818609E-02  0.8517200E-01
        2   -1    0    0  501    0  0.00000000000E+00  0.00000000000E+00  0.15758079411E+04  0.15758079411E+04  0.25500000920E-02 0.  1.
       -2   -1    0    0    0  501  0.00000000000E+00  0.00000000000E+00 -0.76992312269E+03  0.76992312269E+03  0.25500000920E-02 0. -1.
    10030    2    1    2    0    0  0.00000000000E+00  0.00000000000E+00  0.80588481841E+03  0.23457310638E+04  0.22029534455E+04 0.  0.
        4    1    3    3  502    0 -0.11615644680E+03 -0.10412461820E+04  0.40963635697E+02  0.10485063491E+04  0.12699999809E+01 0. -1.
       -4    1    3    3    0  502  0.11615644680E+03  0.10412461820E+04  0.76492118271E+03  0.12972247147E+04  0.12699999809E+01 0.  1.
</event>
<event>
 5   0  0.2532239E-06  0.2198288E+04  0.7818609E-02  0.8519141E-01
       -2   -1    0    0    0  501  0.00000000000E+00  0.00000000000E+00  0.51864044398E+03  0.51864044399E+03  0.25500000920E-02 0.  1.
        2   -1    0    0  501    0  0.00000000000E+00  0.00000000000E+00 -0.23293940340E+04  0.23293940340E+04  0.25500000920E-02 0. -1.
    10030    2    1    2    0    0  0.00000000000E+00  0.00000000000E+00 -0.18107535900E+04  0.28480344780E+04  0.21982883851E+04 0.  0.
        3    1    3    3  502    0  0.73313338943E+02 -0.71406135353E+03 -0.19837849419E+04  0.21096590171E+04  0.10100000352E+00 0. -1.
       -3    1    3    3    0  502 -0.73313338943E+02  0.71406135353E+03  0.17303135196E+03  0.73837546088E+03  0.10100000352E+00 0.  1.
</event>
<event>
 5   0  0.1107101E-06  0.2197163E+04  0.7818609E-02  0.8519610E-01
        1   -1    0    0  501    0  0.00000000000E+00  0.00000000000E+00  0.11254913940E+04  0.11254913940E+04  0.50400001928E-02 0.  1.
       -1   -1    0    0    0  501  0.00000000000E+00  0.00000000000E+00 -0.10723145988E+04  0.10723145988E+04  0.50400001928E-02 0. -1.
    10030    2    1    2    0    0  0.00000000000E+00  0.00000000000E+00  0.53176795218E+02  0.21978059929E+04  0.21971625818E+04 0.  0.
        1    1    3    3  502    0 -0.10471082650E+04 -0.33213748625E+03  0.37985776178E+02  0.10991787606E+04  0.50400001928E-02 0. -1.
       -1    1    3    3    0  502  0.10471082650E+04  0.33213748625E+03  0.15191019040E+02  0.10986272323E+04  0.50400001928E-02 0.  1.
</event>
<event>
 5   0  0.1144271E-06  0.2200230E+04  0.7818609E-02  0.8518332E-01
        1   -1    0    0  501    0  0.00000000000E+00  0.00000000000E+00  0.12656038638E+04  0.12656038638E+04  0.50400001928E-02 0.  1.
       -1   -1    0    0    0  501  0.00000000000E+00  0.00000000000E+00 -0.95626559282E+03  0.95626559284E+03  0.50400001928E-02 0. -1.
    10030    2    1    2    0    0  0.00000000000E+00  0.00000000000E+00  0.30933827098E+03  0.22218694567E+04  0.22002303781E+04 0.  0.
        3    1    3    3  502    0  0.93543238569E+03 -0.57315947858E+03  0.23737629714E+03  0.11224495769E+04  0.10100000352E+00 0.  1.
       -3    1    3    3    0  502 -0.93543238569E+03  0.57315947858E+03  0.71961973846E+02  0.10994198797E+04  0.10100000352E+00 0. -1.
</event>
<event>
 5   0  0.1137869E-06  0.2200027E+04  0.7818609E-02  0.8518417E-01
       -1   -1    0    0    0  501  0.00000000000E+00  0.00000000000E+00  0.17632545475E+04  0.17632545475E+04  0.50400001928E-02 0.  1.
        1   -1    0    0  501    0  0.00000000000E+00  0.00000000000E+00 -0.68624819163E+03  0.68624819165E+03  0.50400001928E-02 0. -1.
    10030    2    1    2    0    0  0.00000000000E+00  0.00000000000E+00  0.10770063559E+04  0.24495027392E+04  0.22000274950E+04 0.  0.
        5    1    3    3  502    0  0.97963776162E+03  0.40272599235E+03  0.20797295383E+03  0.10794226273E+04  0.46999998093E+01 0. -1.
       -5    1    3    3    0  502 -0.97963776162E+03 -0.40272599235E+03  0.86903340206E+03  0.13700801118E+04  0.46999998093E+01 0.  1.
</event>
<event>
 5   0  0.1137869E-06  0.2212822E+04  0.7818609E-02  0.8513110E-01
       -1   -1    0    0    0  501  0.00000000000E+00  0.00000000000E+00  0.69682086869E+03  0.69682086871E+03  0.50400001928E-02 0.  1.
        1   -1    0    0  501    0  0.00000000000E+00  0.00000000000E+00 -0.17567570840E+04  0.17567570840E+04  0.50400001928E-02 0. -1.
    10030    2    1    2    0    0  0.00000000000E+00  0.00000000000E+00 -0.10599362153E+04  0.24535779527E+04  0.22128217256E+04 0.  0.
        5    1    3    3  502    0 -0.71288573869E+03  0.22523619450E+03 -0.14342936898E+04  0.16174541410E+04  0.46999998093E+01 0. -1.
       -5    1    3    3    0  502  0.71288573869E+03 -0.22523619450E+03  0.37435747450E+03  0.83612381167E+03  0.46999998093E+01 0.  1.
</event>
<event>
 5   0  0.2606154E-06  0.2199229E+04  0.7818609E-02  0.8518749E-01
        2   -1    0    0  501    0  0.00000000000E+00  0.00000000000E+00  0.24204092890E+04  0.24204092890E+04  0.25500000920E-02 0. -1.
       -2   -1    0    0    0  501  0.00000000000E+00  0.00000000000E+00 -0.49956518529E+03  0.49956518530E+03  0.25500000920E-02 0.  1.
    10030    2    1    2    0    0  0.00000000000E+00  0.00000000000E+00  0.19208441037E+04  0.29199744743E+04  0.21992291513E+04 0.  0.
        2    1    3    3  502    0 -0.66769275456E+03 -0.19819489589E+03  0.20902051278E+04  0.22031913915E+04  0.25500000920E-02 0. -1.
       -2    1    3    3    0  502  0.66769275456E+03  0.19819489589E+03 -0.16936102414E+03  0.71678308277E+03  0.25500000920E-02 0.  1.
</event>
<event>
 5   0  0.2606154E-06  0.2200306E+04  0.7818609E-02  0.8518301E-01
       -2   -1    0    0    0  501  0.00000000000E+00  0.00000000000E+00  0.57561527706E+03  0.57561527707E+03  0.25500000920E-02 0. -1.
        2   -1    0    0  501    0  0.00000000000E+00  0.00000000000E+00 -0.21026823587E+04  0.21026823587E+04  0.25500000920E-02 0.  1.
    10030    2    1    2    0    0  0.00000000000E+00  0.00000000000E+00 -0.15270670816E+04  0.26782976357E+04  0.22003055138E+04 0.  0.
        2    1    3    3  502    0  0.37864087992E+03 -0.61531730325E+03 -0.17734398225E+04  0.19149603400E+04  0.25500000920E-02 0.  1.
       -2    1    3    3    0  502 -0.37864087992E+03  0.61531730325E+03  0.24637274090E+03  0.76333729576E+03  0.25500000920E-02 0. -1.
</event>
<event>
 5   0  0.1144271E-06  0.2201058E+04  0.7818609E-02  0.8517988E-01
        1   -1    0    0  501    0  0.00000000000E+00  0.00000000000E+00  0.17064937668E+04  0.17064937669E+04  0.50400001928E-02 0. -1.
       -1   -1    0    0    0  501  0.00000000000E+00  0.00000000000E+00 -0.70973843542E+03  0.70973843544E+03  0.50400001928E-02 0.  1.
    10030    2    1    2    0    0  0.00000000000E+00  0.00000000000E+00  0.99675533143E+03  0.24162322023E+04  0.22010581239E+04 0.  0.
        3    1    3    3  502    0 -0.92203390945E+03 -0.51605757109E+03  0.83619919722E+03  0.13474758085E+04  0.10100000352E+00 0. -1.
       -3    1    3    3    0  502  0.92203390945E+03  0.51605757109E+03  0.16055613420E+03  0.10687563938E+04  0.10100000352E+00 0.  1.
</event>
<event>
 5   0  0.1107101E-06  0.2200551E+04  0.7818609E-02  0.8518199E-01
       -1   -1    0    0    0  501  0.00000000000E+00  0.00000000000E+00  0.10275605293E+04  0.10275605293E+04  0.50400001928E-02 0.  1.
        1   -1    0    0  501    0  0.00000000000E+00  0.00000000000E+00 -0.11781365596E+04  0.11781365596E+04  0.50400001928E-02 0. -1.
    10030    2    1    2    0    0  0.00000000000E+00  0.00000000000E+00 -0.15057603030E+03  0.22056970889E+04  0.22005514098E+04 0.  0.
        1    1    3    3  502    0 -0.12895282127E+03 -0.10917669173E+04 -0.12036867666E+03  0.11059260600E+04  0.50400001928E-02 0.  1.
       -1    1    3    3    0  502  0.12895282127E+03  0.10917669173E+04 -0.30207353640E+02  0.10997710289E+04  0.50400001928E-02 0. -1.
</event>
<event>
 5   0  0.2581058E-06  0.2199712E+04  0.7818609E-02  0.8518548E-01
        2   -1    0    0  501    0  0.00000000000E+00  0.00000000000E+00  0.11773773278E+04  0.11773773278E+04  0.25500000920E-02 0. -1.
       -2   -1    0    0    0  501  0.00000000000E+00  0.00000000000E+00 -0.10274387599E+04  0.10274387600E+04  0.25500000920E-02 0.  1.
    10030    2    1    2    0    0  0.00000000000E+00  0.00000000000E+00  0.14993856783E+03  0.22048160877E+04  0.21997118917E+04 0.  0.
        1    1    3    3  502    0 -0.10977769442E+04  0.63843709680E+01  0.75218189148E+01  0.10978212775E+04  0.50400001928E-02 0.  1.
       -1    1    3    3    0  502  0.10977769442E+04 -0.63843709680E+01  0.14241674891E+03  0.11069948102E+04  0.50400001928E-02 0. -1.
</event>
<event>
 5   0  0.2556869E-06  0.2200068E+04  0.7818609E-02  0.8518400E-01
       -2   -1    0    0    0  501  0.00000000000E+00  0.00000000000E+00  0.64174471998E+03  0.64174471998E+03  0.25500000920E-02 0.  1.
        2   -1    0    0  501    0  0.00000000000E+00  0.00000000000E+00 -0.18856012937E+04  0.18856012937E+04  0.25500000920E-02 0. -1.
    10030    2    1    2    0    0  0.00000000000E+00  0.00000000000E+00 -0.12438565737E+04  0.25273460137E+04  0.22000678846E+04 0.  0.
        5    1    3    3  502    0  0.98509551168E+03  0.33117891764E+03 -0.20780144867E+03  0.10598566765E+04  0.46999998093E+01 0.  1.
       -5    1    3    3    0  502 -0.98509551168E+03 -0.33117891764E+03 -0.10360551250E+04  0.14674893372E+04  0.46999998093E+01 0. -1.
</event>
<event>
 5   0  0.1082209E-06  0.2212626E+04  0.7818609E-02  0.8513191E-01
       -1   -1    0    0    0  501  0.00000000000E+00  0.00000000000E+00  0.73948905104E+03  0.73948905105E+03  0.50400001928E-02 0.  1.
        1   -1    0    0  501    0  0.00000000000E+00  0.00000000000E+00 -0.16551003322E+04  0.16551003322E+04  0.50400001928E-02 0. -1.
    10030    2    1    2    0    0  0.00000000000E+00  0.00000000000E+00 -0.91561128117E+03  0.23945893833E+04  0.22126261086E+04 0.  0.
        2    1    3    3  502    0  0.10949187787E+04 -0.12354062765E+02 -0.62867880987E+03  0.12626309044E+04  0.25500000920E-02 0. -1.
       -2    1    3    3    0  502 -0.10949187787E+04  0.12354062765E+02 -0.28693247130E+03  0.11319584789E+04  0.25500000920E-02 0.  1.
</event>
<event>
 5   0  0.1082209E-06  0.2202435E+04  0.7818609E-02  0.8517415E-01
        1   -1    0    0  501    0  0.00000000000E+00  0.00000000000E+00  0.12654965031E+04  0.12654965031E+04  0.50400001928E-02 0. -1.
       -1   -1    0    0    0  501  0.00000000000E+00  0.00000000000E+00 -0.95826444256E+03  0.95826444258E+03  0.50400001928E-02 0.  1.
    10030    2    1    2    0    0  0.00000000000E+00  0.00000000000E+00  0.30723206049E+03  0.22237609456E+04  0.22024352895E+04 0.  0.
        2    1    3    3  502    0 -0.70957564960E+03  0.80520665893E+03 -0.95399118662E+02  0.10774768480E+04  0.25500000920E-02 0.  1.
       -2    1    3    3    0  502  0.70957564960E+03 -0.80520665893E+03  0.40263117915E+03  0.11462840977E+04  0.25500000920E-02 0. -1.
</event>
<event>
 5   0  0.1144271E-06  0.2199475E+04  0.7818609E-02  0.8518647E-01
       -1   -1    0    0    0  501  0.00000000000E+00  0.00000000000E+00  0.11439570444E+04  0.11439570444E+04  0.50400001928E-02 0. -1.
        1   -1    0    0  501    0  0.00000000000E+00  0.00000000000E+00 -0.10572272404E+04  0.10572272404E+04  0.50400001928E-02 0.  1.
    10030    2    1    2    0    0  0.00000000000E+00  0.00000000000E+00  0.86729803974E+02  0.22011842848E+04  0.21994749821E+04 0.  0.
        3    1    3    3  502    0  0.75103211580E+03 -0.24322878789E+03  0.80960543308E+03  0.11307831135E+04  0.10100000352E+00 0. -1.
       -3    1    3    3    0  502 -0.75103211580E+03  0.24322878789E+03 -0.72287562911E+03  0.10704011713E+04  0.10100000352E+00 0.  1.
</event>
<event>
 5   0  0.2532239E-06  0.2200521E+04  0.7818609E-02  0.8518211E-01
        2   -1    0    0  501    0  0.00000000000E+00  0.00000000000E+00  0.10299286151E+04  0.10299286151E+04  0.25500000920E-02 0. -1.
       -2   -1    0    0    0  501  0.00000000000E+00  0.00000000000E+00 -0.11753951794E+04  0.11753951794E+04  0.25500000920E-02 0.  1.
    10030    2    1    2    0    0  0.00000000000E+00  0.00000000000E+00 -0.14546656423E+03  0.22053237945E+04  0.22005209650E+04 0.  0.
        3    1    3    3  502    0  0.10178413946E+04 -0.35442637298E+03 -0.29447161117E+03  0.11172881000E+04  0.10100000352E+00 0.  1.
       -3    1    3    3    0  502 -0.10178413946E+04  0.35442637298E+03  0.14900504694E+03  0.10880356945E+04  0.10100000352E+00 0. -1.
</event>
<event>
 5   0  0.1137869E-06  0.2199865E+04  0.7818609E-02  0.8518484E-01
        1   -1    0    0  501    0  0.00000000000E+00  0.00000000000E+00  0.17054090966E+04  0.17054090966E+04  0.50400001928E-02 0.  1.
       -1   -1    0    0    0  501  0.00000000000E+00  0.00000000000E+00 -0.70941983625E+03  0.70941983627E+03  0.50400001928E-02 0. -1.
    10030    2    1    2    0    0  0.00000000000E+00  0.00000000000E+00  0.99598926035E+03  0.24148289329E+04  0.21998645795E+04 0.  0.
        5    1    3    3  502    0  0.55781607648E+03  0.87608051584E+03  0.10045565418E+03  0.10434506571E+04  0.46999998093E+01 0. -1.
       -5    1    3    3    0  502 -0.55781607648E+03 -0.87608051584E+03  0.89553360618E+03  0.13713782758E+04  0.46999998093E+01 0.  1.
</event>
<event>
 5   0  0.1082209E-06  0.2200007E+04  0.7818609E-02  0.8518425E-01
       -1   -1    0    0    0  501  0.00000000000E+00  0.00000000000E+00  0.77347827089E+03  0.77347827091E+03  0.50400001928E-02 0.  1.
        1   -1    0    0  501    0  0.00000000000E+00  0.00000000000E+00 -0.15643725711E+04  0.15643725711E+04  0.50400001928E-02 0. -1.
    10030    2    1    2    0    0  0.00000000000E+00  0.00000000000E+00 -0.79089430021E+03  0.23378508420E+04  0.22000074467E+04 0.  0.
        2    1    3    3  502    0  0.59871488465E+03 -0.92003256818E+03 -0.47125222483E+03  0.11945702571E+04  0.25500000920E-02 0.  1.
       -2    1    3    3    0  502 -0.59871488465E+03  0.92003256818E+03 -0.31964207538E+03  0.11432805850E+04  0.25500000920E-02 0. -1.
</event>
<event>
 5   0  0.2532239E-06  0.2199972E+04  0.7818609E-02  0.8518440E-01
        2   -1    0    0  501    0  0.00000000000E+00  0.00000000000E+00  0.12669261323E+04  0.12669261323E+04  0.25500000920E-02 0.  1.
       -2   -1    0    0    0  501  0.00000000000E+00  0.00000000000E+00 -0.95504303811E+03  0.95504303812E+03  0.25500000920E-02 0. -1.
    10030    2    1    2    0    0  0.00000000000E+00  0.00000000000E+00  0.31188309418E+03  0.22219691704E+04  0.21999718020E+04 0.  0.
        3    1    3    3  502    0 -0.97227401204E+03 -0.46607823981E+03 -0.64004805477E+02  0.10801121726E+04  0.10100000352E+00 0. -1.
       -3    1    3    3    0  502  0.97227401204E+03  0.46607823981E+03  0.37588789965E+03  0.11418569978E+04  0.10100000352E+00 0.  1.
</event>
<event>
 5   0  0.2556869E-06  0.2200465E+04  0.7818609E-02  0.8518235E-01
       -2   -1    0    0    0  501  0.00000000000E+00  0.00000000000E+00  0.11835770498E+04  0.11835770499E+04  0.25500000920E-02 0.  1.
        2   -1    0    0  501    0  0.00000000000E+00  0.00000000000E+00 -0.10227565793E+04  0.10227565793E+04  0.25500000920E-02 0. -1.
    10030    2    1    2    0    0  0.00000000000E+00  0.00000000000E+00  0.16082047050E+03  0.22063336292E+04  0.22004646917E+04 0.  0.
        5    1    3    3  502    0  0.17439963983E+03  0.83376064077E+03  0.77862740281E+03  0.11540601210E+04  0.46999998093E+01 0.  1.
       -5    1    3    3    0  502 -0.17439963983E+03 -0.83376064077E+03 -0.61780693230E+03  0.10522735082E+04  0.46999998093E+01 0. -1.
</event>
<event>
 5   0  0.2556869E-06  0.2198099E+04  0.7818609E-02  0.8519220E-01
       -2   -1    0    0    0  501  0.00000000000E+00  0.00000000000E+00  0.51322372845E+03  0.51322372846E+03  0.25500000920E-02 0.  1.
        2   -1    0    0  501    0  0.00000000000E+00  0.00000000000E+00 -0.23535741370E+04  0.23535741370E+04  0.25500000920E-02 0. -1.
    10030    2    1    2    0    0  0.00000000000E+00  0.00000000000E+00 -0.18403504085E+04  0.28667978654E+04  0.21980992642E+04 0.  0.
        5    1    3    3  502    0  0.10638266542E+03  0.28558059709E+03  0.45700261802E+03  0.54931505697E+03  0.46999998093E+01 0.  1.
       -5    1    3    3    0  502 -0.10638266542E+03 -0.28558059709E+03 -0.22973530265E+04  0.23174828084E+04  0.46999998093E+01 0. -1.
</event>
<event>
 5   0  0.2556869E-06  0.2198674E+04  0.7818609E-02  0.8518980E-01
       -2   -1    0    0    0  501  0.00000000000E+00  0.00000000000E+00  0.90569100830E+03  0.90569100830E+03  0.25500000920E-02 0. -1.
        2   -1    0    0  501    0  0.00000000000E+00  0.00000000000E+00 -0.13343862840E+04  0.13343862840E+04  0.25500000920E-02 0.  1.
    10030    2    1    2    0    0  0.00000000000E+00  0.00000000000E+00 -0.42869527566E+03  0.22400772923E+04  0.21986738357E+04 0.  0.
        5    1    3    3  502    0  0.75270415052E+03 -0.60188896211E+03  0.32446445287E+03  0.10169233659E+04  0.46999998093E+01 0. -1.
       -5    1    3    3    0  502 -0.75270415052E+03  0.60188896211E+03 -0.75315972853E+03  0.12231539264E+04  0.46999998093E+01 0.  1.
</event>
<event>
 5   0  0.2606154E-06  0.2198451E+04  0.7818609E-02  0.8519073E-01
       -2   -1    0    0    0  501  0.00000000000E+00  0.00000000000E+00  0.68350729968E+03  0.68350729969E+03  0.25500000920E-02 0.  1.
        2   -1    0    0  501    0  0.00000000000E+00  0.00000000000E+00 -0.17677897011E+04  0.17677897011E+04  0.25500000920E-02 0. -1.
    10030    2    1    2    0    0  0.00000000000E+00  0.00000000000E+00 -0.10842824014E+04  0.24512970008E+04  0.21984514232E+04 0.  0.
        2    1    3    3  502    0 -0.56245650400E+03  0.43274928830E+03  0.39384900440E+03  0.81163187696E+03  0.25500000920E-02 0.  1.
       -2    1    3    3    0  502  0.56245650400E+03 -0.43274928830E+03 -0.14781314058E+04  0.16396651238E+04  0.25500000920E-02 0. -1.
</event>
<event>
 5   0  0.2524749E-06  0.2198938E+04  0.7818609E-02  0.8518870E-01
       -2   -1    0    0    0  501  0.00000000000E+00  0.00000000000E+00  0.87797313792E+03  0.87797313792E+03  0.25500000920E-02 0. -1.
        2   -1    0    0  501    0  0.00000000000E+00  0.00000000000E+00 -0.13768440374E+04  0.13768440374E+04  0.25500000920E-02 0.  1.
    10030    2    1    2    0    0  0.00000000000E+00  0.00000000000E+00 -0.49887089946E+03  0.22548171753E+04  0.21989379981E+04 0.  0.
        4    1    3    3  502    0 -0.10085928253E+04  0.37286966870E+03 -0.14396392712E+02  0.10754069677E+04  0.12699999809E+01 0. -1.
       -4    1    3    3    0  502  0.10085928253E+04 -0.37286966870E+03 -0.48447450675E+03  0.11794102076E+04  0.12699999809E+01 0.  1.
</event>
<event>
 5   0  0.2532239E-06  0.2201900E+04  0.7818609E-02  0.8517638E-01
       -2   -1    0    0    0  501  0.00000000000E+00  0.00000000000E+00  0.11586070669E+04  0.11586070669E+04  0.25500000920E-02 0. -1.
        2   -1    0    0  501    0  0.00000000000E+00  0.00000000000E+00 -0.10461620980E+04  0.10461620980E+04  0.25500000920E-02 0.  1.
    10030    2    1    2    0    0  0.00000000000E+00  0.00000000000E+00  0.11244496884E+03  0.22047691649E+04  0.22018999068E+04 0.  0.
        3    1    3    3  502    0 -0.42025834237E+03  0.89042570673E+03 -0.43697979156E+03  0.10772308768E+04  0.10100000352E+00 0.  1.
       -3    1    3    3    0  502  0.42025834237E+03 -0.89042570673E+03  0.54942476039E+03  0.11275382881E+04  0.10100000352E+00 0. -1.
</event>
<event>
 5   0  0.2556869E-06  0.2199628E+04  0.7818609E-02  0.8518583E-01
        2   -1    0    0  501    0  0.00000000000E+00  0.00000000000E+00  0.11199465839E+04  0.11199465839E+04  0.25500000920E-02 0. -1.
       -2   -1    0    0    0  501  0.00000000000E+00  0.00000000000E+00 -0.10800430008E+04  0.10800430008E+04  0.25500000920E-02 0.  1.
    10030    2    1    2    0    0  0.00000000000E+00  0.00000000000E+00  0.39903583134E+02  0.21999895847E+04  0.21996276678E+04 0.  0.
        5    1    3    3  502    0 -0.93133214025E+03 -0.34039987501E+02 -0.56412212108E+03  0.10894008141E+04  0.46999998093E+01 0.  1.
       -5    1    3    3    0  502  0.93133214025E+03  0.34039987501E+02  0.60402570421E+03  0.11105887707E+04  0.46999998093E+01 0. -1.
</event>
<event>
 5   0  0.2581058E-06  0.2200559E+04  0.7818609E-02  0.8518196E-01
        2   -1    0    0  501    0  0.00000000000E+00  0.00000000000E+00  0.16756780500E+04  0.16756780500E+04  0.25500000920E-02 0.  1.
       -2   -1    0    0    0  501  0.00000000000E+00  0.00000000000E+00 -0.72246265154E+03  0.72246265154E+03  0.25500000920E-02 0. -1.
    10030    2    1    2    0    0  0.00000000000E+00  0.00000000000E+00  0.95321539850E+03  0.23981407016E+04  0.22005588446E+04 0.  0.
        1    1    3    3  502    0  0.57463668039E+03 -0.65364001896E+03  0.12102232365E+04  0.14906685986E+04  0.50400001928E-02 0.  1.
       -1    1    3    3    0  502 -0.57463668039E+03  0.65364001896E+03 -0.25700783797E+03  0.90747210295E+03  0.50400001928E-02 0. -1.
</event>
<event>
 5   0  0.8905000E-07  0.2185815E+04  0.7818609E-02  0.8524355E-01
       -3   -1    0    0    0  501  0.00000000000E+00  0.00000000000E+00  0.17577367333E+04  0.17577367362E+04  0.10100000352E+00 0. -1.
        3   -1    0    0  501    0  0.00000000000E+00  0.00000000000E+00 -0.67953695186E+03  0.67953695937E+03  0.10100000352E+00 0.  1.
    10030    2    1    2    0    0  0.00000000000E+00  0.00000000000E+00  0.10781997814E+04  0.24372736955E+04  0.21858152480E+04 0.  0.
        1    1    3    3  502    0 -0.50333162643E+03 -0.14306634312E+03 -0.53077972742E+03  0.74534409755E+03  0.50400001928E-02 0.  1.
       -1    1    3    3    0  502  0.50333162643E+03  0.14306634312E+03  0.16089795088E+04  0.16919295980E+04  0.50400001928E-02 0. -1.
</event>
<event>
 5   0  0.2581058E-06  0.2199635E+04  0.7818609E-02  0.8518580E-01
        2   -1    0    0  501    0  0.00000000000E+00  0.00000000000E+00  0.59525036426E+03  0.59525036426E+03  0.25500000920E-02 0. -1.
       -2   -1    0    0    0  501  0.00000000000E+00  0.00000000000E+00 -0.20320841287E+04  0.20320841287E+04  0.25500000920E-02 0.  1.
    10030    2    1    2    0    0  0.00000000000E+00  0.00000000000E+00 -0.14368337644E+04  0.26273344929E+04  0.21996352587E+04 0.  0.
        1    1    3    3  502    0  0.10709644329E+03  0.69845866548E+03  0.28823871657E+03  0.76314855258E+03  0.50400001928E-02 0. -1.
       -1    1    3    3    0  502 -0.10709644329E+03 -0.69845866548E+03 -0.17250724810E+04  0.18641859403E+04  0.50400001928E-02 0.  1.
</event>
<event>
 5   0  0.1082209E-06  0.2193371E+04  0.7818609E-02  0.8521192E-01
        1   -1    0    0  501    0  0.00000000000E+00  0.00000000000E+00  0.12946177632E+04  0.12946177632E+04  0.50400001928E-02 0.  1.
       -1   -1    0    0    0  501  0.00000000000E+00  0.00000000000E+00 -0.92901478308E+03  0.92901478309E+03  0.50400001928E-02 0. -1.
    10030    2    1    2    0    0  0.00000000000E+00  0.00000000000E+00  0.36560298014E+03  0.22236325463E+04  0.21933709586E+04 0.  0.
        2    1    3    3  502    0  0.79962674529E+02 -0.77458111268E+02 -0.92327142232E+03  0.92995908921E+03  0.25500000920E-02 0. -1.
       -2    1    3    3    0  502 -0.79962674529E+02  0.77458111268E+02  0.12888744025E+04  0.12936734571E+04  0.25500000920E-02 0.  1.
</event>
<event>
 5   0  0.2532239E-06  0.2199449E+04  0.7818609E-02  0.8518658E-01
       -2   -1    0    0    0  501  0.00000000000E+00  0.00000000000E+00  0.67421121251E+03  0.67421121251E+03  0.25500000920E-02 0.  1.
        2   -1    0    0  501    0  0.00000000000E+00  0.00000000000E+00 -0.17937908656E+04  0.17937908656E+04  0.25500000920E-02 0. -1.
    10030    2    1    2    0    0  0.00000000000E+00  0.00000000000E+00 -0.11195796531E+04  0.24680020781E+04  0.21994489442E+04 0.  0.
        3    1    3    3  502    0 -0.11636230427E+03  0.90282560540E+03 -0.12521898793E+04  0.15481000497E+04  0.10100000352E+00 0. -1.
       -3    1    3    3    0  502  0.11636230427E+03 -0.90282560540E+03  0.13261022627E+03  0.91990202844E+03  0.10100000352E+00 0.  1.
</event>
<event>
 5   0  0.1146827E-06  0.2201019E+04  0.7818609E-02  0.8518004E-01
       -1   -1    0    0    0  501  0.00000000000E+00  0.00000000000E+00  0.13709702218E+04  0.13709702218E+04  0.50400001928E-02 0.  1.
        1   -1    0    0  501    0  0.00000000000E+00  0.00000000000E+00 -0.88340414765E+03  0.88340414766E+03  0.50400001928E-02 0. -1.
    10030    2    1    2    0    0  0.00000000000E+00  0.00000000000E+00  0.48756607416E+03  0.22543743695E+04  0.22010186553E+04 0.  0.
        4    1    3    3  502    0  0.70084142803E+03  0.35561061642E+03  0.10328355834E+04  0.12978399643E+04  0.12699999809E+01 0.  1.
       -4    1    3    3    0  502 -0.70084142803E+03 -0.35561061642E+03 -0.54526950920E+03  0.95653440519E+03  0.12699999809E+01 0. -1.
</event>
<event>
 5   0  0.1107101E-06  0.2200812E+04  0.7818609E-02  0.8518090E-01
       -1   -1    0    0    0  501  0.00000000000E+00  0.00000000000E+00  0.53004470055E+03  0.53004470057E+03  0.50400001928E-02 0. -1.
        1   -1    0    0  501    0  0.00000000000E+00  0.00000000000E+00 -0.22845115060E+04  0.22845115060E+04  0.50400001928E-02 0.  1.
    10030    2    1    2    0    0  0.00000000000E+00  0.00000000000E+00 -0.17544668054E+04  0.28145562065E+04  0.22008118658E+04 0.  0.
        1    1    3    3  502    0  0.64439149536E+03 -0.96859727249E+02 -0.20112336232E+04  0.21141624567E+04  0.50400001928E-02 0.  1.
       -1    1    3    3    0  502 -0.64439149536E+03  0.96859727249E+02  0.25676681782E+03  0.70039374984E+03  0.50400001928E-02 0. -1.
</event>
<event>
 5   0  0.1137869E-06  0.2200573E+04  0.7818609E-02  0.8518190E-01
       -1   -1    0    0    0  501  0.00000000000E+00  0.00000000000E+00  0.20738707425E+04  0.20738707425E+04  0.50400001928E-02 0. -1.
        1   -1    0    0  501    0  0.00000000000E+00  0.00000000000E+00 -0.58375410668E+03  0.58375410671E+03  0.50400001928E-02 0.  1.
    10030    2    1    2    0    0  0.00000000000E+00  0.00000000000E+00  0.14901166358E+04  0.26576248492E+04  0.22005731642E+04 0.  0.
        5    1    3    3  502    0  0.33587839897E+03 -0.90683761426E+03  0.11123072215E+03  0.97342853927E+03  0.46999998093E+01 0.  1.
       -5    1    3    3    0  502 -0.33587839897E+03  0.90683761426E+03  0.13788859137E+04  0.16841963100E+04  0.46999998093E+01 0. -1.
</event>
<event>
 5   0  0.2524749E-06  0.2207218E+04  0.7818609E-02  0.8515430E-01
        2   -1    0    0  501    0  0.00000000000E+00  0.00000000000E+00  0.12243466591E+04  0.12243466591E+04  0.25500000920E-02 0.  1.
       -2   -1    0    0    0  501  0.00000000000E+00  0.00000000000E+00 -0.99477757763E+03  0.99477757763E+03  0.25500000920E-02 0. -1.
    10030    2    1    2    0    0  0.00000000000E+00  0.00000000000E+00  0.22956908145E+03  0.22191242367E+04  0.22072177996E+04 0.  0.
        4    1    3    3  502    0  0.24291398782E+03 -0.92716341087E+02  0.11931127012E+04  0.12211154966E+04  0.12699999809E+01 0.  1.
       -4    1    3    3    0  502 -0.24291398782E+03  0.92716341087E+02 -0.96354361972E+03  0.99800874014E+03  0.12699999809E+01 0. -1.
</event>
<event>
 5   0  0.1082209E-06  0.2200469E+04  0.7818609E-02  0.8518233E-01
       -1   -1    0    0    0  501  0.00000000000E+00  0.00000000000E+00  0.60945423533E+03  0.60945423535E+03  0.50400001928E-02 0.  1.
        1   -1    0    0  501    0  0.00000000000E+00  0.00000000000E+00 -0.19862289076E+04  0.19862289076E+04  0.50400001928E-02 0. -1.
    10030    2    1    2    0    0  0.00000000000E+00  0.00000000000E+00 -0.13767746723E+04  0.25956831430E+04  0.22004686957E+04 0.  0.
        2    1    3    3  502    0  0.73223604518E+03  0.28183394004E+03  0.22145086962E+03  0.81525485787E+03  0.25500000920E-02 0.  1.
       -2    1    3    3    0  502 -0.73223604518E+03 -0.28183394004E+03 -0.15982255419E+04  0.17804282851E+04  0.25500000920E-02 0. -1.
</event>
<event>
 5   0  0.2606154E-06  0.2198817E+04  0.7818609E-02  0.8518921E-01
        2   -1    0    0  501    0  0.00000000000E+00  0.00000000000E+00  0.16008326162E+04  0.16008326162E+04  0.25500000920E-02 0.  1.
       -2   -1    0    0    0  501  0.00000000000E+00  0.00000000000E+00 -0.75504404069E+03  0.75504404069E+03  0.25500000920E-02 0. -1.
    10030    2    1    2    0    0  0.00000000000E+00  0.00000000000E+00  0.84578857551E+03  0.23558766569E+04  0.21988170702E+04 0.  0.
        2    1    3    3  502    0 -0.37659470534E+03 -0.16294451517E+02  0.15294321634E+04  0.15751989791E+04  0.25500000920E-02 0.  1.
       -2    1    3    3    0  502  0.37659470534E+03  0.16294451517E+02 -0.68364358794E+03  0.78067767777E+03  0.25500000920E-02 0. -1.
</event>
<event>
 5   0  0.2581058E-06  0.2199351E+04  0.7818609E-02  0.8518698E-01
       -2   -1    0    0    0  501  0.00000000000E+00  0.00000000000E+00  0.97456145169E+03  0.97456145169E+03  0.25500000920E-02 0.  1.
        2   -1    0    0  501    0  0.00000000000E+00  0.00000000000E+00 -0.12408519378E+04  0.12408519378E+04  0.25500000920E-02 0. -1.
    10030    2    1    2    0    0  0.00000000000E+00  0.00000000000E+00 -0.26629048616E+03  0.22154133895E+04  0.21993512370E+04 0.  0.
        1    1    3    3  502    0 -0.10004306889E+04  0.44677815815E+03 -0.22771475342E+03  0.11190738559E+04  0.50400001928E-02 0.  1.
       -1    1    3    3    0  502  0.10004306889E+04 -0.44677815815E+03 -0.38575732736E+02  0.10963395337E+04  0.50400001928E-02 0. -1.
</event>
<event>
 5   0  0.2556869E-06  0.2198540E+04  0.7818609E-02  0.8519036E-01
        2   -1    0    0  501    0  0.00000000000E+00  0.00000000000E+00  0.12994554431E+04  0.12994554431E+04  0.25500000920E-02 0.  1.
       -2   -1    0    0    0  501  0.00000000000E+00  0.00000000000E+00 -0.92992402168E+03  0.92992402168E+03  0.25500000920E-02 0. -1.
    10030    2    1    2    0    0  0.00000000000E+00  0.00000000000E+00  0.36953142141E+03  0.22293794648E+04  0.21985402718E+04 0.  0.
        5    1    3    3  502    0 -0.28139115661E+02  0.10242417718E+04 -0.21895174464E+03  0.10477714318E+04  0.46999998093E+01 0. -1.
       -5    1    3    3    0  502  0.28139115661E+02 -0.10242417718E+04  0.58848316605E+03  0.11816080330E+04  0.46999998093E+01 0.  1.
</event>
<event>
 5   0  0.1082209E-06  0.2200670E+04  0.7818609E-02  0.8518149E-01
       -1   -1    0    0    0  501  0.00000000000E+00  0.00000000000E+00  0.58812202308E+03  0.58812202311E+03  0.50400001928E-02 0. -1.
        1   -1    0    0  501    0  0.00000000000E+00  0.00000000000E+00 -0.20586499846E+04  0.20586499846E+04  0.50400001928E-02 0.  1.
    10030    2    1    2    0    0  0.00000000000E+00  0.00000000000E+00 -0.14705279615E+04  0.26467720077E+04  0.22006702559E+04 0.  0.
        2    1    3    3  502    0  0.45895185114E+03  0.97787209781E+03 -0.48336332319E+03  0.11834317655E+04  0.25500000920E-02 0.  1.
       -2    1    3    3    0  502 -0.45895185114E+03 -0.97787209781E+03 -0.98716463829E+03  0.14633402422E+04  0.25500000920E-02 0. -1.
</event>
<event>
 5   0  0.1146827E-06  0.2208683E+04  0.7818609E-02  0.8514823E-01
       -1   -1    0    0    0  501  0.00000000000E+00  0.00000000000E+00  0.76132515440E+03  0.76132515442E+03  0.50400001928E-02 0. -1.
        1   -1    0    0  501    0  0.00000000000E+00  0.00000000000E+00 -0.16019039716E+04  0.16019039716E+04  0.50400001928E-02 0.  1.
    10030    2    1    2    0    0  0.00000000000E+00  0.00000000000E+00 -0.84057881721E+03  0.23632291260E+04  0.22086826739E+04 0.  0.
        4    1    3    3  502    0  0.73412622416E+03 -0.81839403420E+03 -0.30879610771E+03  0.11419574236E+04  0.12699999809E+01 0. -1.
       -4    1    3    3    0  502 -0.73412622416E+03  0.81839403420E+03 -0.53178270950E+03  0.12212717025E+04  0.12699999809E+01 0.  1.
</event>
<event>
 5   0  0.2524749E-06  0.2199892E+04  0.7818609E-02  0.8518473E-01
        2   -1    0    0  501    0  0.00000000000E+00  0.00000000000E+00  0.23546221548E+04  0.23546221548E+04  0.25500000920E-02 0. -1.
       -2   -1    0    0    0  501  0.00000000000E+00  0.00000000000E+00 -0.51383253834E+03  0.51383253835E+03  0.25500000920E-02 0.  1.
    10030    2    1    2    0    0  0.00000000000E+00  0.00000000000E+00  0.18407896165E+04  0.28684546932E+04  0.21998922507E+04 0.  0.
        4    1    3    3  502    0 -0.44091298844E+03 -0.19377580622E+03 -0.36904092379E+03  0.60675047819E+03  0.12699999809E+01 0.  1.
       -4    1    3    3    0  502  0.44091298844E+03  0.19377580622E+03  0.22098305403E+04  0.22617042150E+04  0.12699999809E+01 0. -1.
</event>
<event>
 5   0  0.2532239E-06  0.2214270E+04  0.7818609E-02  0.8512512E-01
       -2   -1    0    0    0  501  0.00000000000E+00  0.00000000000E+00  0.94153170108E+03  0.94153170108E+03  0.25500000920E-02 0.  1.
        2   -1    0    0  501    0  0.00000000000E+00  0.00000000000E+00 -0.13018654363E+04  0.13018654363E+04  0.25500000920E-02 0. -1.
    10030    2    1    2    0    0  0.00000000000E+00  0.00000000000E+00 -0.36033373525E+03  0.22433971374E+04  0.22142697025E+04 0.  0.
        3    1    3    3  502    0  0.98769591830E+02  0.72119160503E+03  0.66499754137E+03  0.98594852993E+03  0.10100000352E+00 0.  1.
       -3    1    3    3    0  502 -0.98769591830E+02 -0.72119160503E+03 -0.10253312766E+04  0.12574486075E+04  0.10100000352E+00 0. -1.
</event>
<event>
 5   0  0.1107101E-06  0.2200377E+04  0.7818609E-02  0.8518271E-01
        1   -1    0    0  501    0  0.00000000000E+00  0.00000000000E+00  0.17251217838E+04  0.17251217838E+04  0.50400001928E-02 0.  1.
       -1   -1    0    0    0  501  0.00000000000E+00  0.00000000000E+00 -0.70164045526E+03  0.70164045528E+03  0.50400001928E-02 0. -1.
    10030    2    1    2    0    0  0.00000000000E+00  0.00000000000E+00  0.10234813286E+04  0.24267622391E+04  0.22003774529E+04 0.  0.
        1    1    3    3  502    0  0.23020101155E+03  0.10551481502E+04  0.74330730876E+03  0.13110438131E+04  0.50400001928E-02 0. -1.
       -1    1    3    3    0  502 -0.23020101155E+03 -0.10551481502E+04  0.28017401981E+03  0.11157184260E+04  0.50400001928E-02 0.  1.
</event>
<event>
 5   0  0.1144271E-06  0.2199127E+04  0.7818609E-02  0.8518792E-01
        1   -1    0    0  501    0  0.00000000000E+00  0.00000000000E+00  0.23711493468E+04  0.23711493468E+04  0.50400001928E-02 0.  1.
       -1   -1    0    0    0  501  0.00000000000E+00  0.00000000000E+00 -0.50989610983E+03  0.50989610986E+03  0.50400001928E-02 0. -1.
    10030    2    1    2    0    0  0.00000000000E+00  0.00000000000E+00  0.18612532370E+04  0.28810454567E+04  0.21991269430E+04 0.  0.
        3    1    3    3  502    0 -0.80816112720E+03 -0.28614890755E+03  0.28630528636E+02  0.85780261259E+03  0.10100000352E+00 0. -1.
       -3    1    3    3    0  502  0.80816112720E+03  0.28614890755E+03  0.18326227084E+04  0.20232428441E+04  0.10100000352E+00 0.  1.
</event>
<event>
 5   0  0.1082209E-06  0.2199656E+04  0.7818609E-02  0.8518571E-01
       -1   -1    0    0    0  501  0.00000000000E+00  0.00000000000E+00  0.12071636015E+04  0.12071636015E+04  0.50400001928E-02 0.  1.
        1   -1    0    0  501    0  0.00000000000E+00  0.00000000000E+00 -0.10020365478E+04  0.10020365479E+04  0.50400001928E-02 0. -1.
    10030    2    1    2    0    0  0.00000000000E+00  0.00000000000E+00  0.20512705365E+03  0.22092001494E+04  0.21996563804E+04 0.  0.
        2    1    3    3  502    0  0.83256841680E+03  0.71715162061E+03  0.56043748727E+02  0.11002806539E+04  0.25500000920E-02 0.  1.
       -2    1    3    3    0  502 -0.83256841680E+03 -0.71715162061E+03  0.14908330492E+03  0.11089194955E+04  0.25500000920E-02 0. -1.
</event>
<event>
 5   0  0.1082209E-06  0.2200245E+04  0.7818609E-02  0.8518326E-01
       -1   -1    0    0    0  501  0.00000000000E+00  0.00000000000E+00  0.91459526369E+03  0.91459526370E+03  0.50400001928E-02 0.  1.
        1   -1    0    0  501    0  0.00000000000E+00  0.00000000000E+00 -0.13232846546E+04  0.13232846546E+04  0.50400001928E-02 0. -1.
    10030    2    1    2    0    0  0.00000000000E+00  0.00000000000E+00 -0.40868939086E+03  0.22378799183E+04  0.22002453296E+04 0.  0.
        2    1    3    3  502    0 -0.55101591778E+03 -0.73817048669E+03 -0.81609380213E+03  0.12306597023E+04  0.25500000920E-02 0. -1.
       -2    1    3    3    0  502  0.55101591778E+03  0.73817048669E+03  0.40740441127E+03  0.10072202159E+04  0.25500000920E-02 0.  1.
</event>
<event>
 5   0  0.2556869E-06  0.2199749E+04  0.7818609E-02  0.8518532E-01
       -2   -1    0    0    0  501  0.00000000000E+00  0.00000000000E+00  0.66165164559E+03  0.66165164560E+03  0.25500000920E-02 0.  1.
        2   -1    0    0  501    0  0.00000000000E+00  0.00000000000E+00 -0.18283403348E+04  0.18283403348E+04  0.25500000920E-02 0. -1.
    10030    2    1    2    0    0  0.00000000000E+00  0.00000000000E+00 -0.11666886893E+04  0.24899919804E+04  0.21997494323E+04 0.  0.
        5    1    3    3  502    0  0.41191315599E+02  0.37865946338E+02  0.66002830469E+03  0.66241226390E+03  0.46999998093E+01 0.  1.
       -5    1    3    3    0  502 -0.41191315599E+02 -0.37865946338E+02 -0.18267169939E+04  0.18275797165E+04  0.46999998093E+01 0. -1.
</event>
<event>
 5   0  0.1137869E-06  0.2199601E+04  0.7818609E-02  0.8518594E-01
       -1   -1    0    0    0  501  0.00000000000E+00  0.00000000000E+00  0.10285353607E+04  0.10285353607E+04  0.50400001928E-02 0.  1.
        1   -1    0    0  501    0  0.00000000000E+00  0.00000000000E+00 -0.11760031848E+04  0.11760031849E+04  0.50400001928E-02 0. -1.
    10030    2    1    2    0    0  0.00000000000E+00  0.00000000000E+00 -0.14746782419E+03  0.22045385455E+04  0.21996007455E+04 0.  0.
        5    1    3    3  502    0  0.91230763183E+03 -0.59370466336E+03  0.83935252199E+02  0.10917223360E+04  0.46999998093E+01 0.  1.
       -5    1    3    3    0  502 -0.91230763183E+03  0.59370466336E+03 -0.23140307639E+03  0.11128162095E+04  0.46999998093E+01 0. -1.
</event>
<event>
 5   0  0.1144271E-06  0.2201195E+04  0.7818609E-02  0.8517931E-01
       -1   -1    0    0    0  501  0.00000000000E+00  0.00000000000E+00  0.29309548817E+04  0.29309548817E+04  0.50400001928E-02 0.  1.
        1   -1    0    0  501    0  0.00000000000E+00  0.00000000000E+00 -0.41328330570E+03  0.41328330573E+03  0.50400001928E-02 0. -1.
    10030    2    1    2    0    0  0.00000000000E+00  0.00000000000E+00  0.25176715760E+04  0.33442381874E+04  0.22011948777E+04 0.  0.
        3    1    3    3  502    0 -0.52428311645E+03 -0.74902461944E+03  0.32796761354E+03  0.97132560578E+03  0.10100000352E+00 0.  1.
       -3    1    3    3    0  502  0.52428311645E+03  0.74902461944E+03  0.21897039624E+04  0.23729125816E+04  0.10100000352E+00 0. -1.
</event>
<event>
 5   0  0.1137869E-06  0.2200033E+04  0.7818609E-02  0.8518414E-01
       -1   -1    0    0    0  501  0.00000000000E+00  0.00000000000E+00  0.12172697709E+04  0.12172697710E+04  0.50400001928E-02 0.  1.
        1   -1    0    0  501    0  0.00000000000E+00  0.00000000000E+00 -0.99405781098E+03  0.99405781099E+03  0.50400001928E-02 0. -1.
    10030    2    1    2    0    0  0.00000000000E+00  0.00000000000E+00  0.22321195996E+03  0.22113275819E+04  0.22000332033E+04 0.  0.
        5    1    3    3  502    0  0.51378567165E+03 -0.62041586380E+03  0.86453291518E+03  0.11816644244E+04  0.46999998093E+01 0.  1.
       -5    1    3    3    0  502 -0.51378567165E+03  0.62041586380E+03 -0.64132095521E+03  0.10296631576E+04  0.46999998093E+01 0. -1.
</event>
<event>
 5   0  0.1107101E-06  0.2200485E+04  0.7818609E-02  0.8518226E-01
       -1   -1    0    0    0  501  0.00000000000E+00  0.00000000000E+00  0.59239357899E+03  0.59239357902E+03  0.50400001928E-02 0.  1.
        1   -1    0    0  501    0  0.00000000000E+00  0.00000000000E+00 -0.20434624500E+04  0.20434624500E+04  0.50400001928E-02 0. -1.
    10030    2    1    2    0    0  0.00000000000E+00  0.00000000000E+00 -0.14510688710E+04  0.26358560290E+04  0.22004854322E+04 0.  0.
        1    1    3    3  502    0  0.10883461595E+04  0.92595262373E+02 -0.88382680746E+03  0.14050697745E+04  0.50400001928E-02 0.  1.
       -1    1    3    3    0  502 -0.10883461595E+04 -0.92595262373E+02 -0.56724206350E+03  0.12307862545E+04  0.50400001928E-02 0. -1.
</event>
<event>
 5   0  0.2606154E-06  0.2200346E+04  0.7818609E-02  0.8518284E-01
        2   -1    0    0  501    0  0.00000000000E+00  0.00000000000E+00  0.15088987508E+04  0.15088987508E+04  0.25500000920E-02 0. -1.
       -2   -1    0    0    0  501  0.00000000000E+00  0.00000000000E+00 -0.80216194090E+03  0.80216194091E+03  0.25500000920E-02 0.  1.
    10030    2    1    2    0    0  0.00000000000E+00  0.00000000000E+00  0.70673680989E+03  0.23110606917E+04  0.22003464732E+04 0.  0.
        2    1    3    3  502    0  0.38017214431E+03  0.10268361297E+04  0.24094106842E+03  0.11211493634E+04  0.25500000920E-02 0. -1.
       -2    1    3    3    0  502 -0.38017214431E+03 -0.10268361297E+04  0.46579574148E+03  0.11899113283E+04  0.25500000920E-02 0.  1.
</event>
<event>
 5   0  0.2581058E-06  0.2200054E+04  0.7818609E-02  0.8518406E-01
       -2   -1    0    0    0  501  0.00000000000E+00  0.00000000000E+00  0.57664515146E+03  0.57664515147E+03  0.25500000920E-02 0.  1.
        2   -1    0    0  501    0  0.00000000000E+00  0.00000000000E+00 -0.20984463807E+04  0.20984463807E+04  0.25500000920E-02 0. -1.
    10030    2    1    2    0    0  0.00000000000E+00  0.00000000000E+00 -0.15218012293E+04  0.26750915322E+04  0.22000535730E+04 0.  0.
        1    1    3    3  502    0  0.76568845742E+03  0.78967989555E+03 -0.74432748209E+03  0.13281176725E+04  0.50400001928E-02 0.  1.
       -1    1    3    3    0  502 -0.76568845742E+03 -0.78967989555E+03 -0.77747374718E+03  0.13469738597E+04  0.50400001928E-02 0. -1.
</event>
<event>
 5   0  0.1137869E-06  0.2200275E+04  0.7818609E-02  0.8518314E-01
       -1   -1    0    0    0  501  0.00000000000E+00  0.00000000000E+00  0.87179448594E+03  0.87179448595E+03  0.50400001928E-02 0. -1.
        1   -1    0    0  501    0  0.00000000000E+00  0.00000000000E+00 -0.13882889401E+04  0.13882889401E+04  0.50400001928E-02 0.  1.
    10030    2    1    2    0    0  0.00000000000E+00  0.00000000000E+00 -0.51649445412E+03  0.22600834260E+04  0.22002751127E+04 0.  0.
        5    1    3    3  502    0 -0.10665749673E+04  0.23052997295E+03 -0.11460938165E+03  0.10972163094E+04  0.46999998093E+01 0. -1.
       -5    1    3    3    0  502  0.10665749673E+04 -0.23052997295E+03 -0.40188507247E+03  0.11628671166E+04  0.46999998093E+01 0.  1.
</event>
<event>
 5   0  0.1082209E-06  0.2199756E+04  0.7818609E-02  0.8518529E-01
        1   -1    0    0  501    0  0.00000000000E+00  0.00000000000E+00  0.12652560086E+04  0.12652560086E+04  0.50400001928E-02 0. -1.
       -1   -1    0    0    0  501  0.00000000000E+00  0.00000000000E+00 -0.95611651116E+03  0.95611651117E+03  0.50400001928E-02 0.  1.
    10030    2    1    2    0    0  0.00000000000E+00  0.00000000000E+00  0.30913949746E+03  0.22213725198E+04  0.21997564963E+04 0.  0.
        2    1    3    3  502    0 -0.47957315401E+03 -0.85159471275E+03  0.66403519698E+03  0.11815865214E+04  0.25500000920E-02 0. -1.
       -2    1    3    3    0  502  0.47957315401E+03  0.85159471275E+03 -0.35489569952E+03  0.10397859984E+04  0.25500000920E-02 0.  1.
</event>
<event>
 5   0  0.1144271E-06  0.2200851E+04  0.7818609E-02  0.8518074E-01
        1   -1    0    0  501    0  0.00000000000E+00  0.00000000000E+00  0.23293509921E+04  0.23293509921E+04  0.50400001928E-02 0. -1.
       -1   -1    0    0    0  501  0.00000000000E+00  0.00000000000E+00 -0.51985992544E+03  0.51985992547E+03  0.50400001928E-02 0.  1.
    10030    2    1    2    0    0  0.00000000000E+00  0.00000000000E+00  0.18094910667E+04  0.28492109176E+04  0.22008509565E+04 0.  0.
        3    1    3    3  502    0 -0.31667311542E+03 -0.10228190121E+04  0.57597028853E+03  0.12158052381E+04  0.10100000352E+00 0. -1.
       -3    1    3    3    0  502  0.31667311542E+03  0.10228190121E+04  0.12335207782E+04  0.16334056795E+04  0.10100000352E+00 0.  1.
</event>
<event>
 5   0  0.2606154E-06  0.2196987E+04  0.7818609E-02  0.8519683E-01
        2   -1    0    0  501    0  0.00000000000E+00  0.00000000000E+00  0.10429301431E+04  0.10429301431E+04  0.25500000920E-02 0.  1.
       -2   -1    0    0    0  501  0.00000000000E+00  0.00000000000E+00 -0.11570166007E+04  0.11570166007E+04  0.25500000920E-02 0. -1.
    10030    2    1    2    0    0  0.00000000000E+00  0.00000000000E+00 -0.11408645765E+03  0.21999467438E+04  0.21969865625E+04 0.  0.
        2    1    3    3  502    0 -0.30490556590E+02 -0.49286710484E+03 -0.10396093625E+04  0.11509280097E+04  0.25500000920E-02 0. -1.
       -2    1    3    3    0  502  0.30490556590E+02  0.49286710484E+03  0.92552290481E+03  0.10490187341E+04  0.25500000920E-02 0.  1.
</event>
<event>
 5   0  0.2581058E-06  0.2200577E+04  0.7818609E-02  0.8518188E-01
       -2   -1    0    0    0  501  0.00000000000E+00  0.00000000000E+00  0.16448077209E+04  0.16448077210E+04  0.25500000920E-02 0. -1.
        2   -1    0    0  501    0  0.00000000000E+00  0.00000000000E+00 -0.73603446509E+03  0.73603446509E+03  0.25500000920E-02 0.  1.
    10030    2    1    2    0    0  0.00000000000E+00  0.00000000000E+00  0.90877325586E+03  0.23808421860E+04  0.22005773525E+04 0.  0.
        1    1    3    3  502    0  0.98905763665E+03  0.31239461986E+03  0.57145099543E+02  0.10387930350E+04  0.50400001928E-02 0.  1.
       -1    1    3    3    0  502 -0.98905763665E+03 -0.31239461986E+03  0.85162815632E+03  0.13420491510E+04  0.50400001928E-02 0. -1.
</event>
<event>
 5   0  0.1107101E-06  0.2199516E+04  0.7818609E-02  0.8518630E-01
        1   -1    0    0  501    0  0.00000000000E+00  0.00000000000E+00  0.16667144185E+04  0.16667144185E+04  0.50400001928E-02 0.  1.
       -1   -1    0    0    0  501  0.00000000000E+00  0.00000000000E+00 -0.72565983872E+03  0.72565983874E+03  0.50400001928E-02 0. -1.
    10030    2    1    2    0    0  0.00000000000E+00  0.00000000000E+00  0.94105457979E+03  0.23923742573E+04  0.21995160524E+04 0.  0.
        1    1    3    3  502    0 -0.43189583854E+03  0.68494050769E+03  0.12799485708E+04  0.15145777822E+04  0.50400001928E-02 0.  1.
       -1    1    3    3    0  502  0.43189583854E+03 -0.68494050769E+03 -0.33889399102E+03  0.87779647504E+03  0.50400001928E-02 0. -1.
</event>
<event>
 5   0  0.2606154E-06  0.2200219E+04  0.7818609E-02  0.8518337E-01
        2   -1    0    0  501    0  0.00000000000E+00  0.00000000000E+00  0.10378471780E+04  0.10378471780E+04  0.25500000920E-02 0. -1.
       -2   -1    0    0    0  501  0.00000000000E+00  0.00000000000E+00 -0.11661072530E+04  0.11661072530E+04  0.25500000920E-02 0.  1.
    10030    2    1    2    0    0  0.00000000000E+00  0.00000000000E+00 -0.12826007500E+03  0.22039544311E+04  0.22002191908E+04 0.  0.
        2    1    3    3  502    0 -0.49721571641E+03 -0.79567383872E+03  0.51123240304E+03  0.10684937511E+04  0.25500000920E-02 0. -1.
       -2    1    3    3    0  502  0.49721571641E+03  0.79567383872E+03 -0.63949247804E+03  0.11354606800E+04  0.25500000920E-02 0.  1.
</event>
<event>
 5   0  0.1146827E-06  0.2200076E+04  0.7818609E-02  0.8518397E-01
        1   -1    0    0  501    0  0.00000000000E+00  0.00000000000E+00  0.12122394002E+04  0.12122394002E+04  0.50400001928E-02 0. -1.
       -1   -1    0    0    0  501  0.00000000000E+00  0.00000000000E+00 -0.99822147764E+03  0.99822147765E+03  0.50400001928E-02 0.  1.
    10030    2    1    2    0    0  0.00000000000E+00  0.00000000000E+00  0.21401792258E+03  0.22104608779E+04  0.22000758218E+04 0.  0.
        4    1    3    3  502    0 -0.40531711765E+03 -0.67790446909E+03  0.87628976051E+03  0.11797125889E+04  0.12699999809E+01 0. -1.
       -4    1    3    3    0  502  0.40531711765E+03  0.67790446909E+03 -0.66227183793E+03  0.10307482890E+04  0.12699999809E+01 0.  1.
</event>
<event>
 5   0  0.1144271E-06  0.2199709E+04  0.7818609E-02  0.8518549E-01
        1   -1    0    0  501    0  0.00000000000E+00  0.00000000000E+00  0.11024473159E+04  0.11024473160E+04  0.50400001928E-02 0.  1.
       -1   -1    0    0    0  501  0.00000000000E+00  0.00000000000E+00 -0.10972678987E+04  0.10972678987E+04  0.50400001928E-02 0. -1.
    10030    2    1    2    0    0  0.00000000000E+00  0.00000000000E+00  0.51794172905E+01  0.21997152146E+04  0.21997091169E+04 0.  0.
        3    1    3    3  502    0 -0.69985483102E+03 -0.72419067294E+03 -0.43948744276E+03  0.10988166989E+04  0.10100000352E+00 0. -1.
       -3    1    3    3    0  502  0.69985483102E+03  0.72419067294E+03  0.44466686005E+03  0.11008985157E+04  0.10100000352E+00 0.  1.
</event>
<event>
 5   0  0.2556869E-06  0.2200896E+04  0.7818609E-02  0.8518055E-01
        2   -1    0    0  501    0  0.00000000000E+00  0.00000000000E+00  0.94184403719E+03  0.94184403720E+03  0.25500000920E-02 0. -1.
       -2   -1    0    0    0  501  0.00000000000E+00  0.00000000000E+00 -0.12857603251E+04  0.12857603251E+04  0.25500000920E-02 0.  1.
    10030    2    1    2    0    0  0.00000000000E+00  0.00000000000E+00 -0.34391628787E+03  0.22276043623E+04  0.22008959043E+04 0.  0.
        5    1    3    3  502    0  0.50556349441E+03  0.10636703106E+03 -0.11553741099E+04  0.12656302051E+04  0.46999998093E+01 0.  1.
       -5    1    3    3    0  502 -0.50556349441E+03 -0.10636703106E+03  0.81145782202E+03  0.96197415719E+03  0.46999998093E+01 0. -1.
</event>
<event>
 5   0  0.2606154E-06  0.2210892E+04  0.7818609E-02  0.8513908E-01
        2   -1    0    0  501    0  0.00000000000E+00  0.00000000000E+00  0.12926004756E+04  0.12926004756E+04  0.25500000920E-02 0.  1.
       -2   -1    0    0    0  501  0.00000000000E+00  0.00000000000E+00 -0.94538938630E+03  0.94538938630E+03  0.25500000920E-02 0. -1.
    10030    2    1    2    0    0  0.00000000000E+00  0.00000000000E+00  0.34721108933E+03  0.22379898619E+04  0.22108919199E+04 0.  0.
        2    1    3    3  502    0 -0.27908434004E+03  0.10693023972E+04  0.20067437048E+03  0.11231945016E+04  0.25500000920E-02 0.  1.
       -2    1    3    3    0  502  0.27908434004E+03 -0.10693023972E+04  0.14653671885E+03  0.11147953603E+04  0.25500000920E-02 0. -1.
</event>
<event>
 5   0  0.8905000E-07  0.2202158E+04  0.7818609E-02  0.8517530E-01
        3   -1    0    0  501    0  0.00000000000E+00  0.00000000000E+00  0.18001186545E+04  0.18001186573E+04  0.10100000352E+00 0.  1.
       -3   -1    0    0    0  501  0.00000000000E+00  0.00000000000E+00 -0.67349752802E+03  0.67349753559E+03  0.10100000352E+00 0. -1.
    10030    2    1    2    0    0  0.00000000000E+00  0.00000000000E+00  0.11266211264E+04  0.24736161929E+04  0.22021584655E+04 0.  0.
        4    1    3    3  502    0 -0.68611727424E+03  0.62861301087E+03 -0.97857623341E+02  0.93567566966E+03  0.12699999809E+01 0.  1.
       -4    1    3    3    0  502  0.68611727424E+03 -0.62861301087E+03  0.12244787498E+04  0.15379405232E+04  0.12699999809E+01 0. -1.
</event>
<event>
 5   0  0.1137869E-06  0.2200418E+04  0.7818609E-02  0.8518254E-01
        1   -1    0    0  501    0  0.00000000000E+00  0.00000000000E+00  0.16946392626E+04  0.16946392626E+04  0.50400001928E-02 0. -1.
       -1   -1    0    0    0  501  0.00000000000E+00  0.00000000000E+00 -0.71428771241E+03  0.71428771243E+03  0.50400001928E-02 0.  1.
    10030    2    1    2    0    0  0.00000000000E+00  0.00000000000E+00  0.98035155014E+03  0.24089269750E+04  0.22004181441E+04 0.  0.
        5    1    3    3  502    0  0.53705400271E+03 -0.14347444043E+03  0.15295775558E+04  0.16274647480E+04  0.46999998093E+01 0. -1.
       -5    1    3    3    0  502 -0.53705400271E+03  0.14347444043E+03 -0.54922600566E+03  0.78146222696E+03  0.46999998093E+01 0.  1.
</event>
<event>
 5   0  0.1082209E-06  0.2200018E+04  0.7818609E-02  0.8518420E-01
       -1   -1    0    0    0  501  0.00000000000E+00  0.00000000000E+00  0.74851591863E+03  0.74851591865E+03  0.50400001928E-02 0. -1.
        1   -1    0    0  501    0  0.00000000000E+00  0.00000000000E+00 -0.16165591644E+04  0.16165591644E+04  0.50400001928E-02 0.  1.
    10030    2    1    2    0    0  0.00000000000E+00  0.00000000000E+00 -0.86804324574E+03  0.23650750830E+04  0.22000184253E+04 0.  0.
        2    1    3    3  502    0  0.39218931827E+03  0.38982956110E+02  0.67000779285E+03  0.77733041541E+03  0.25500000920E-02 0. -1.
       -2    1    3    3    0  502 -0.39218931827E+03 -0.38982956110E+02 -0.15380510386E+04  0.15877446676E+04  0.25500000920E-02 0.  1.
</event>
<event>
 5   0  0.1107101E-06  0.2200195E+04  0.7818609E-02  0.8518347E-01
       -1   -1    0    0    0  501  0.00000000000E+00  0.00000000000E+00  0.80708900638E+03  0.80708900640E+03  0.50400001928E-02 0. -1.
        1   -1    0    0  501    0  0.00000000000E+00  0.00000000000E+00 -0.14994811426E+04  0.14994811426E+04  0.50400001928E-02 0.  1.
    10030    2    1    2    0    0  0.00000000000E+00  0.00000000000E+00 -0.69239213625E+03  0.23065701490E+04  0.22001952145E+04 0.  0.
        1    1    3    3  502    0  0.17216413783E+03  0.98509682346E+03  0.13439858545E+03  0.10090189402E+04  0.50400001928E-02 0. -1.
       -1    1    3    3    0  502 -0.17216413783E+03 -0.98509682346E+03 -0.82679072170E+03  0.12975512088E+04  0.50400001928E-02 0.  1.
</event>
<event>
 5   0  0.2606154E-06  0.2200388E+04  0.7818609E-02  0.8518267E-01
       -2   -1    0    0    0  501  0.00000000000E+00  0.00000000000E+00  0.12389819346E+04  0.12389819346E+04  0.25500000920E-02 0. -1.
        2   -1    0    0  501    0  0.00000000000E+00  0.00000000000E+00 -0.97695266525E+03  0.97695266525E+03  0.25500000920E-02 0.  1.
    10030    2    1    2    0    0  0.00000000000E+00  0.00000000000E+00  0.26202926934E+03  0.22159345998E+04  0.22003878778E+04 0.  0.
        2    1    3    3  502    0 -0.92109298759E+03  0.54303794460E+03  0.39192856279E+03  0.11388197835E+04  0.25500000920E-02 0. -1.
       -2    1    3    3    0  502  0.92109298759E+03 -0.54303794460E+03 -0.12989929345E+03  0.10771148163E+04  0.25500000920E-02 0.  1.
</event>
<event>
 5   0  0.1107101E-06  0.2200327E+04  0.7818609E-02  0.8518292E-01
        1   -1    0    0  501    0  0.00000000000E+00  0.00000000000E+00  0.92731980562E+03  0.92731980563E+03  0.50400001928E-02 0. -1.
       -1   -1    0    0    0  501  0.00000000000E+00  0.00000000000E+00 -0.13052237531E+04  0.13052237531E+04  0.50400001928E-02 0.  1.
    10030    2    1    2    0    0  0.00000000000E+00  0.00000000000E+00 -0.37790394751E+03  0.22325435588E+04  0.22003271003E+04 0.  0.
        1    1    3    3  502    0  0.99438036965E+03 -0.48854499468E+02 -0.66397416967E+03  0.11966790629E+04  0.50400001928E-02 0.  1.
       -1    1    3    3    0  502 -0.99438036965E+03  0.48854499468E+02  0.28607022216E+03  0.10358644958E+04  0.50400001928E-02 0. -1.
</event>
<event>
 5   0  0.2556869E-06  0.2202832E+04  0.7818609E-02  0.8517250E-01
       -2   -1    0    0    0  501  0.00000000000E+00  0.00000000000E+00  0.11587167480E+04  0.11587167480E+04  0.25500000920E-02 0.  1.
        2   -1    0    0  501    0  0.00000000000E+00  0.00000000000E+00 -0.10469486707E+04  0.10469486707E+04  0.25500000920E-02 0. -1.
    10030    2    1    2    0    0  0.00000000000E+00  0.00000000000E+00  0.11176807729E+03  0.22056654187E+04  0.22028317767E+04 0.  0.
        5    1    3    3  502    0  0.77566551787E+03  0.36118318719E+03  0.75030668841E+03  0.11380213122E+04  0.46999998093E+01 0.  1.
       -5    1    3    3    0  502 -0.77566551787E+03 -0.36118318719E+03 -0.63853861111E+03  0.10676441065E+04  0.46999998093E+01 0. -1.
</event>
<event>
 5   0  0.1144271E-06  0.2200429E+04  0.7818609E-02  0.8518249E-01
        1   -1    0    0  501    0  0.00000000000E+00  0.00000000000E+00  0.18997934223E+04  0.18997934223E+04  0.50400001928E-02 0.  1.
       -1   -1    0    0    0  501  0.00000000000E+00  0.00000000000E+00 -0.63716001069E+03  0.63716001071E+03  0.50400001928E-02 0. -1.
    10030    2    1    2    0    0  0.00000000000E+00  0.00000000000E+00  0.12626334116E+04  0.25369534330E+04  0.22004294102E+04 0.  0.
        3    1    3    3  502    0 -0.75407223545E+03  0.64924133205E+03  0.11725007329E+04  0.15378222336E+04  0.10100000352E+00 0.  1.
       -3    1    3    3    0  502  0.75407223545E+03 -0.64924133205E+03  0.90132678696E+02  0.99913119933E+03  0.10100000352E+00 0. -1.
</event>
<event>
 5   0  0.8905000E-07  0.2201406E+04  0.7818609E-02  0.8517843E-01
        3   -1    0    0  501    0  0.00000000000E+00  0.00000000000E+00  0.24814918995E+04  0.24814919016E+04  0.10100000352E+00 0. -1.
       -3   -1    0    0    0  501  0.00000000000E+00  0.00000000000E+00 -0.48823312276E+03  0.48823313320E+03  0.10100000352E+00 0.  1.
    10030    2    1    2    0    0  0.00000000000E+00  0.00000000000E+00  0.19932587768E+04  0.29697250348E+04  0.22014055126E+04 0.  0.
        2    1    3    3  502    0 -0.10623844015E+03 -0.60290728653E+03 -0.23737686668E+03  0.65660610655E+03  0.25500000920E-02 0.  1.
       -2    1    3    3    0  502  0.10623844015E+03  0.60290728653E+03  0.22306356435E+04  0.23131189282E+04  0.25500000920E-02 0. -1.
</event>
<event>
 5   0  0.1137869E-06  0.2200488E+04  0.7818609E-02  0.8518225E-01
       -1   -1    0    0    0  501  0.00000000000E+00  0.00000000000E+00  0.56320489125E+03  0.56320489128E+03  0.50400001928E-02 0. -1.
        1   -1    0    0  501    0  0.00000000000E+00  0.00000000000E+00 -0.21493726288E+04  0.21493726288E+04  0.50400001928E-02 0.  1.
    10030    2    1    2    0    0  0.00000000000E+00  0.00000000000E+00 -0.15861677376E+04  0.27125775201E+04  0.22004882892E+04 0.  0.
        5    1    3    3  502    0 -0.10238594383E+04  0.35553823796E+03 -0.10263882286E+04  0.14927124552E+04  0.46999998093E+01 0.  1.
       -5    1    3    3    0  502  0.10238594383E+04 -0.35553823796E+03 -0.55977950898E+03  0.12198650649E+04  0.46999998093E+01 0. -1.
</event>
<event>
 5   0  0.2606154E-06  0.2200282E+04  0.7818609E-02  0.8518311E-01
       -2   -1    0    0    0  501  0.00000000000E+00  0.00000000000E+00  0.90501214775E+03  0.90501214776E+03  0.25500000920E-02 0. -1.
        2   -1    0    0  501    0  0.00000000000E+00  0.00000000000E+00 -0.13373415607E+04  0.13373415607E+04  0.25500000920E-02 0.  1.
    10030    2    1    2    0    0  0.00000000000E+00  0.00000000000E+00 -0.43232941294E+03  0.22423537085E+04  0.22002821257E+04 0.  0.
        2    1    3    3  502    0 -0.70835675923E+03 -0.77898601676E+03 -0.54120175353E+03  0.11838445213E+04  0.25500000920E-02 0.  1.
       -2    1    3    3    0  502  0.70835675923E+03  0.77898601676E+03  0.10887234059E+03  0.10585091871E+04  0.25500000920E-02 0. -1.
</event>
<event>
 5   0  0.8905000E-07  0.2200549E+04  0.7818609E-02  0.8518200E-01
       -3   -1    0    0    0  501  0.00000000000E+00  0.00000000000E+00  0.91027314808E+03  0.91027315369E+03  0.10100000352E+00 0.  1.
        3   -1    0    0  501    0  0.00000000000E+00  0.00000000000E+00 -0.13299349167E+04  0.13299349205E+04  0.10100000352E+00 0. -1.
    10030    2    1    2    0    0  0.00000000000E+00  0.00000000000E+00 -0.41966176860E+03  0.22402080742E+04  0.22005490714E+04 0.  0.
        4    1    3    3  502    0  0.43356271955E+03  0.47326381177E+03  0.69994575300E+03  0.94967412167E+03  0.12699999809E+01 0.  1.
       -4    1    3    3    0  502 -0.43356271955E+03 -0.47326381177E+03 -0.11196075216E+04  0.12905339525E+04  0.12699999809E+01 0. -1.
</event>
<event>
 5   0  0.1107101E-06  0.2200148E+04  0.7818609E-02  0.8518366E-01
        1   -1    0    0  501    0  0.00000000000E+00  0.00000000000E+00  0.15610393838E+04  0.15610393838E+04  0.50400001928E-02 0.  1.
       -1   -1    0    0    0  501  0.00000000000E+00  0.00000000000E+00 -0.77522895978E+03  0.77522895980E+03  0.50400001928E-02 0. -1.
    10030    2    1    2    0    0  0.00000000000E+00  0.00000000000E+00  0.78581042402E+03  0.23362683436E+04  0.22001481202E+04 0.  0.
        1    1    3    3  502    0  0.98050517109E+03 -0.96500412667E+01 -0.13662498453E+03  0.99002520183E+03  0.50400001928E-02 0. -1.
       -1    1    3    3    0  502 -0.98050517109E+03  0.96500412667E+01  0.92243540856E+03  0.13462431418E+04  0.50400001928E-02 0.  1.
</event>
<event>
 5   0  0.2606154E-06  0.2204173E+04  0.7818609E-02  0.8516693E-01
        2   -1    0    0  501    0  0.00000000000E+00  0.00000000000E+00  0.54448653075E+03  0.54448653076E+03  0.25500000920E-02 0.  1.
       -2   -1    0    0    0  501  0.00000000000E+00  0.00000000000E+00 -0.22307163299E+04  0.22307163299E+04  0.25500000920E-02 0. -1.
    10030    2    1    2    0    0  0.00000000000E+00  0.00000000000E+00 -0.16862297992E+04  0.27752028607E+04  0.22041733104E+04 0.  0.
        2    1    3    3  502    0 -0.80948800808E+03  0.38206010924E+03 -0.16526024801E+04  0.18794509091E+04  0.25500000920E-02 0. -1.
       -2    1    3    3    0  502  0.80948800808E+03 -0.38206010924E+03 -0.33627319089E+02  0.89575195165E+03  0.25500000920E-02 0.  1.
</event>
<event>
 5   0  0.1082209E-06  0.2199401E+04  0.7818609E-02  0.8518677E-01
        1   -1    0    0  501    0  0.00000000000E+00  0.00000000000E+00  0.19295226991E+04  0.19295226991E+04  0.50400001928E-02 0. -1.
       -1   -1    0    0    0  501  0.00000000000E+00  0.00000000000E+00 -0.62675674417E+03  0.62675674419E+03  0.50400001928E-02 0.  1.
    10030    2    1    2    0    0  0.00000000000E+00  0.00000000000E+00  0.13027659549E+04  0.25562794433E+04  0.21994011592E+04 0.  0.
        2    1    3    3  502    0  0.53865095483E+03  0.21510155728E+03 -0.43452506264E+03  0.72472447257E+03  0.25500000920E-02 0.  1.
       -2    1    3    3    0  502 -0.53865095483E+03 -0.21510155728E+03  0.17372910176E+04  0.18315549707E+04  0.25500000920E-02 0. -1.
</event>
<event>
 5   0  0.1082209E-06  0.2198463E+04  0.7818609E-02  0.8519068E-01
       -1   -1    0    0    0  501  0.00000000000E+00  0.00000000000E+00  0.13317983178E+04  0.13317983178E+04  0.50400001928E-02 0. -1.
        1   -1    0    0  501    0  0.00000000000E+00  0.00000000000E+00 -0.90727699716E+03  0.90727699718E+03  0.50400001928E-02 0.  1.
    10030    2    1    2    0    0  0.00000000000E+00  0.00000000000E+00  0.42452132061E+03  0.22390753150E+04  0.21984630801E+04 0.  0.
        2    1    3    3  502    0  0.73681988862E+03  0.65517716440E+03  0.70718962315E+03  0.12133745622E+04  0.25500000920E-02 0. -1.
       -2    1    3    3    0  502 -0.73681988862E+03 -0.65517716440E+03 -0.28266830253E+03  0.10257007528E+04  0.25500000920E-02 0.  1.
</event>
<event>
 5   0  0.1146827E-06  0.2201968E+04  0.7818609E-02  0.8517609E-01
        1   -1    0    0  501    0  0.00000000000E+00  0.00000000000E+00  0.73745652407E+03  0.73745652408E+03  0.50400001928E-02 0. -1.
       -1   -1    0    0    0  501  0.00000000000E+00  0.00000000000E+00 -0.16437121899E+04  0.16437121899E+04  0.50400001928E-02 0.  1.
    10030    2    1    2    0    0  0.00000000000E+00  0.00000000000E+00 -0.90625566585E+03  0.23811687140E+04  0.22019684631E+04 0.  0.
        4    1    3    3  502    0  0.15334824078E+02  0.80211509602E+03 -0.12685075843E+04  0.15009120188E+04  0.12699999809E+01 0.  1.
       -4    1    3    3    0  502 -0.15334824078E+02 -0.80211509602E+03  0.36225191841E+03  0.88025669516E+03  0.12699999809E+01 0. -1.
</event>
<event>
 5   0  0.1146827E-06  0.2201209E+04  0.7818609E-02  0.8517925E-01
        1   -1    0    0  501    0  0.00000000000E+00  0.00000000000E+00  0.98542888740E+03  0.98542888741E+03  0.50400001928E-02 0.  1.
       -1   -1    0    0    0  501  0.00000000000E+00  0.00000000000E+00 -0.12292415265E+04  0.12292415265E+04  0.50400001928E-02 0. -1.
    10030    2    1    2    0    0  0.00000000000E+00  0.00000000000E+00 -0.24381263910E+03  0.22146704139E+04  0.22012088586E+04 0.  0.
        4    1    3    3  502    0  0.96904028306E+01 -0.10836097790E+04 -0.31550041213E+03  0.11286479433E+04  0.12699999809E+01 0.  1.
       -4    1    3    3    0  502 -0.96904028306E+01  0.10836097790E+04  0.71687773027E+02  0.10860224706E+04  0.12699999809E+01 0. -1.
</event>
<event>
 5   0  0.1137869E-06  0.2199307E+04  0.7818609E-02  0.8518717E-01
        1   -1    0    0  501    0  0.00000000000E+00  0.00000000000E+00  0.76603681698E+03  0.76603681699E+03  0.50400001928E-02 0.  1.
       -1   -1    0    0    0  501  0.00000000000E+00  0.00000000000E+00 -0.15785634849E+04  0.15785634849E+04  0.50400001928E-02 0. -1.
    10030    2    1    2    0    0  0.00000000000E+00  0.00000000000E+00 -0.81252666795E+03  0.23446003019E+04  0.21993069339E+04 0.  0.
        5    1    3    3  502    0 -0.21139581579E+02  0.76006986245E+03  0.44061142186E+03  0.87881374180E+03  0.46999998093E+01 0.  1.
       -5    1    3    3    0  502  0.21139581579E+02 -0.76006986245E+03 -0.12531380898E+04  0.14657865601E+04  0.46999998093E+01 0. -1.
</event>
<event>
 5   0  0.1144271E-06  0.2202693E+04  0.7818609E-02  0.8517308E-01
       -1   -1    0    0    0  501  0.00000000000E+00  0.00000000000E+00  0.53850182445E+03  0.53850182447E+03  0.50400001928E-02 0. -1.
        1   -1    0    0  501    0  0.00000000000E+00  0.00000000000E+00 -0.22524781885E+04  0.22524781885E+04  0.50400001928E-02 0.  1.
    10030    2    1    2    0    0  0.00000000000E+00  0.00000000000E+00 -0.17139763641E+04  0.27909800130E+04  0.22026925469E+04 0.  0.
        3    1    3    3  502    0 -0.56914213600E+03 -0.11938135777E+02  0.33762935321E+03  0.66186016681E+03  0.10100000352E+00 0. -1.
       -3    1    3    3    0  502  0.56914213600E+03  0.11938135777E+02 -0.20516057173E+04  0.21291198462E+04  0.10100000352E+00 0.  1.
</event>
<event>
 5   0  0.2556869E-06  0.2199930E+04  0.7818609E-02  0.8518457E-01
       -2   -1    0    0    0  501  0.00000000000E+00  0.00000000000E+00  0.87976099969E+03  0.87976099969E+03  0.25500000920E-02 0. -1.
        2   -1    0    0  501    0  0.00000000000E+00  0.00000000000E+00 -0.13752865830E+04  0.13752865830E+04  0.25500000920E-02 0.  1.
    10030    2    1    2    0    0  0.00000000000E+00  0.00000000000E+00 -0.49552558329E+03  0.22550475827E+04  0.21999304526E+04 0.  0.
        5    1    3    3  502    0 -0.15776650416E+03  0.91269442579E+03  0.36039756291E+03  0.99388625005E+03  0.46999998093E+01 0. -1.
       -5    1    3    3    0  502  0.15776650416E+03 -0.91269442579E+03 -0.85592314620E+03  0.12611613326E+04  0.46999998093E+01 0.  1.
</event>
<event>
 5   0  0.1137869E-06  0.2200898E+04  0.7818609E-02  0.8518054E-01
       -1   -1    0    0    0  501  0.00000000000E+00  0.00000000000E+00  0.19592176401E+04  0.19592176401E+04  0.50400001928E-02 0.  1.
        1   -1    0    0  501    0  0.00000000000E+00  0.00000000000E+00 -0.61809791485E+03  0.61809791487E+03  0.50400001928E-02 0. -1.
    10030    2    1    2    0    0  0.00000000000E+00  0.00000000000E+00  0.13411197253E+04  0.25773155550E+04  0.22008983058E+04 0.  0.
        5    1    3    3  502    0  0.30090603593E+03  0.88919939558E+03 -0.18863396555E+01  0.93874685397E+03  0.46999998093E+01 0. -1.
       -5    1    3    3    0  502 -0.30090603593E+03 -0.88919939558E+03  0.13430060649E+04  0.16385687010E+04  0.46999998093E+01 0.  1.
</event>
<event>
 5   0  0.2581058E-06  0.2198583E+04  0.7818609E-02  0.8519018E-01
        2   -1    0    0  501    0  0.00000000000E+00  0.00000000000E+00  0.96470023919E+03  0.96470023919E+03  0.25500000920E-02 0. -1.
       -2   -1    0    0    0  501  0.00000000000E+00  0.00000000000E+00 -0.12526602274E+04  0.12526602274E+04  0.25500000920E-02 0.  1.
    10030    2    1    2    0    0  0.00000000000E+00  0.00000000000E+00 -0.28795998824E+03  0.22173604666E+04  0.21985828354E+04 0.  0.
        1    1    3    3  502    0 -0.71688459429E+03  0.55980820230E+03  0.47865234404E+03  0.10278213908E+04  0.50400001928E-02 0. -1.
       -1    1    3    3    0  502  0.71688459429E+03 -0.55980820230E+03 -0.76661233228E+03  0.11895390758E+04  0.50400001928E-02 0.  1.
</event>
<event>
 5   0  0.1144271E-06  0.2199707E+04  0.7818609E-02  0.8518550E-01
        1   -1    0    0  501    0  0.00000000000E+00  0.00000000000E+00  0.20885166163E+04  0.20885166163E+04  0.50400001928E-02 0.  1.
       -1   -1    0    0    0  501  0.00000000000E+00  0.00000000000E+00 -0.57920427940E+03  0.57920427943E+03  0.50400001928E-02 0. -1.
    10030    2    1    2    0    0  0.00000000000E+00  0.00000000000E+00  0.15093123369E+04  0.26677208958E+04  0.21997070367E+04 0.  0.
        3    1    3    3  502    0 -0.85578832344E+03  0.30311109201E+03  0.17392715583E+01  0.90788381630E+03  0.10100000352E+00 0. -1.
       -3    1    3    3    0  502  0.85578832344E+03 -0.30311109201E+03  0.15075730654E+04  0.17598370795E+04  0.10100000352E+00 0.  1.
</event>
<event>
 5   0  0.1146827E-06  0.2199985E+04  0.7818609E-02  0.8518434E-01
       -1   -1    0    0    0  501  0.00000000000E+00  0.00000000000E+00  0.94736945714E+03  0.94736945715E+03  0.50400001928E-02 0.  1.
        1   -1    0    0  501    0  0.00000000000E+00  0.00000000000E+00 -0.12772038841E+04  0.12772038841E+04  0.50400001928E-02 0. -1.
    10030    2    1    2    0    0  0.00000000000E+00  0.00000000000E+00 -0.32983442699E+03  0.22245733413E+04  0.21999854094E+04 0.  0.
        4    1    3    3  502    0 -0.66242335665E+03 -0.39450613115E+03  0.62841660214E+03  0.99466015789E+03  0.12699999809E+01 0.  1.
       -4    1    3    3    0  502  0.66242335665E+03  0.39450613115E+03 -0.95825102913E+03  0.12299131834E+04  0.12699999809E+01 0. -1.
</event>
<event>
 5   0  0.2581058E-06  0.2199944E+04  0.7818609E-02  0.8518452E-01
        2   -1    0    0  501    0  0.00000000000E+00  0.00000000000E+00  0.11129477510E+04  0.11129477510E+04  0.25500000920E-02 0. -1.
       -2   -1    0    0    0  501  0.00000000000E+00  0.00000000000E+00 -0.10871471761E+04  0.10871471762E+04  0.25500000920E-02 0.  1.
    10030    2    1    2    0    0  0.00000000000E+00  0.00000000000E+00  0.25800574824E+02  0.22000949271E+04  0.21999436399E+04 0.  0.
        1    1    3    3  502    0 -0.86415807409E+03  0.66529594103E+03 -0.13046276568E+03  0.10983662410E+04  0.50400001928E-02 0. -1.
       -1    1    3    3    0  502  0.86415807409E+03 -0.66529594103E+03  0.15626334051E+03  0.11017286861E+04  0.50400001928E-02 0.  1.
</event>
<event>
 5   0  0.2532239E-06  0.2198998E+04  0.7818609E-02  0.8518845E-01
        2   -1    0    0  501    0  0.00000000000E+00  0.00000000000E+00  0.21398849176E+04  0.21398849176E+04  0.25500000920E-02 0. -1.
       -2   -1    0    0    0  501  0.00000000000E+00  0.00000000000E+00 -0.56493615169E+03  0.56493615170E+03  0.25500000920E-02 0.  1.
    10030    2    1    2    0    0  0.00000000000E+00  0.00000000000E+00  0.15749487659E+04  0.27048210693E+04  0.21989982723E+04 0.  0.
        3    1    3    3  502    0 -0.48265417449E+03 -0.39718592648E+03 -0.32512762966E+03  0.70457057710E+03  0.10100000352E+00 0.  1.
       -3    1    3    3    0  502  0.48265417449E+03  0.39718592648E+03  0.19000763956E+04  0.20002504922E+04  0.10100000352E+00 0. -1.
</event>
<event>
 5   0  0.2581058E-06  0.2200339E+04  0.7818609E-02  0.8518287E-01
        2   -1    0    0  501    0  0.00000000000E+00  0.00000000000E+00  0.90624770020E+03  0.90624770020E+03  0.25500000920E-02 0.  1.
       -2   -1    0    0    0  501  0.00000000000E+00  0.00000000000E+00 -0.13355872226E+04  0.13355872226E+04  0.25500000920E-02 0. -1.
    10030    2    1    2    0    0  0.00000000000E+00  0.00000000000E+00 -0.42933952238E+03  0.22418349228E+04  0.22003389274E+04 0.  0.
        1    1    3    3  502    0  0.24097131235E+03  0.51896035869E+03 -0.11720642277E+04  0.13042705169E+04  0.50400001928E-02 0. -1.
       -1    1    3    3    0  502 -0.24097131235E+03 -0.51896035869E+03  0.74272470534E+03  0.93756440591E+03  0.50400001928E-02 0.  1.
</event>
<event>
 5   0  0.2532239E-06  0.2199717E+04  0.7818609E-02  0.8518546E-01
       -2   -1    0    0    0  501  0.00000000000E+00  0.00000000000E+00  0.14822380259E+04  0.14822380259E+04  0.25500000920E-02 0. -1.
        2   -1    0    0  501    0  0.00000000000E+00  0.00000000000E+00 -0.81612294224E+03  0.81612294225E+03  0.25500000920E-02 0.  1.
    10030    2    1    2    0    0  0.00000000000E+00  0.00000000000E+00  0.66611508369E+03  0.22983609682E+04  0.21997167625E+04 0.  0.
        3    1    3    3  502    0  0.69273928089E+03 -0.25691023240E+03  0.11843316034E+04  0.13958982541E+04  0.10100000352E+00 0. -1.
       -3    1    3    3    0  502 -0.69273928089E+03  0.25691023240E+03 -0.51821651971E+03  0.90246271408E+03  0.10100000352E+00 0.  1.
</event>
<event>
 5   0  0.2606154E-06  0.2200950E+04  0.7818609E-02  0.8518033E-01
       -2   -1    0    0    0  501  0.00000000000E+00  0.00000000000E+00  0.60334509902E+03  0.60334509902E+03  0.25500000920E-02 0.  1.
        2   -1    0    0  501    0  0.00000000000E+00  0.00000000000E+00 -0.20072184403E+04  0.20072184403E+04  0.25500000920E-02 0. -1.
    10030    2    1    2    0    0  0.00000000000E+00  0.00000000000E+00 -0.14038733413E+04  0.26105635393E+04  0.22009501663E+04 0.  0.
        2    1    3    3  502    0 -0.45559846270E+03  0.79179271434E+03  0.25892523802E+02  0.91387968820E+03  0.25500000920E-02 0. -1.
       -2    1    3    3    0  502  0.45559846270E+03 -0.79179271434E+03 -0.14297658651E+04  0.16966838511E+04  0.25500000920E-02 0.  1.
</event>
<event>
 5   0  0.2581058E-06  0.2200872E+04  0.7818609E-02  0.8518065E-01
        2   -1    0    0  501    0  0.00000000000E+00  0.00000000000E+00  0.11339104622E+04  0.11339104622E+04  0.25500000920E-02 0.  1.
       -2   -1    0    0    0  501  0.00000000000E+00  0.00000000000E+00 -0.10679497856E+04  0.10679497856E+04  0.25500000920E-02 0. -1.
    10030    2    1    2    0    0  0.00000000000E+00  0.00000000000E+00  0.65960676661E+02  0.22018602478E+04  0.22008720408E+04 0.  0.
        1    1    3    3  502    0  0.10163214445E+04  0.41520243886E+03 -0.42267070418E+02  0.10986759527E+04  0.50400001928E-02 0. -1.
       -1    1    3    3    0  502 -0.10163214445E+04 -0.41520243886E+03  0.10822774708E+03  0.11031842951E+04  0.50400001928E-02 0.  1.
</event>
<event>
 5   0  0.1137869E-06  0.2199618E+04  0.7818609E-02  0.8518587E-01
       -1   -1    0    0    0  501  0.00000000000E+00  0.00000000000E+00  0.62861316044E+03  0.62861316046E+03  0.50400001928E-02 0. -1.
        1   -1    0    0  501    0  0.00000000000E+00  0.00000000000E+00 -0.19242045466E+04  0.19242045466E+04  0.50400001928E-02 0.  1.
    10030    2    1    2    0    0  0.00000000000E+00  0.00000000000E+00 -0.12955913862E+04  0.25528177071E+04  0.21996184228E+04 0.  0.
        5    1    3    3  502    0  0.60588192242E+03  0.25364691235E+03  0.37596424483E+03  0.75683608757E+03  0.46999998093E+01 0. -1.
       -5    1    3    3    0  502 -0.60588192242E+03 -0.25364691235E+03 -0.16715556310E+04  0.17959816195E+04  0.46999998093E+01 0.  1.
</event>
<event>
 5   0  0.1137869E-06  0.2200280E+04  0.7818609E-02  0.8518312E-01
        1   -1    0    0  501    0  0.00000000000E+00  0.00000000000E+00  0.17983497575E+04  0.17983497575E+04  0.50400001928E-02 0.  1.
       -1   -1    0    0    0  501  0.00000000000E+00  0.00000000000E+00 -0.67301030025E+03  0.67301030026E+03  0.50400001928E-02 0. -1.
    10030    2    1    2    0    0  0.00000000000E+00  0.00000000000E+00  0.11253394572E+04  0.24713600577E+04  0.22002799006E+04 0.  0.
        5    1    3    3  502    0  0.63556388166E+03 -0.73147344231E+03 -0.22357076893E+02  0.96928673433E+03  0.46999998093E+01 0. -1.
       -5    1    3    3    0  502 -0.63556388166E+03  0.73147344231E+03  0.11476965341E+04  0.15020733234E+04  0.46999998093E+01 0.  1.
</event>
<event>
 5   0  0.2606154E-06  0.2200153E+04  0.7818609E-02  0.8518365E-01
        2   -1    0    0  501    0  0.00000000000E+00  0.00000000000E+00  0.22874155847E+04  0.22874155847E+04  0.25500000920E-02 0.  1.
       -2   -1    0    0    0  501  0.00000000000E+00  0.00000000000E+00 -0.52905473962E+03  0.52905473963E+03  0.25500000920E-02 0. -1.
    10030    2    1    2    0    0  0.00000000000E+00  0.00000000000E+00  0.17583608451E+04  0.28164703244E+04  0.22001527734E+04 0.  0.
        2    1    3    3  502    0 -0.24699842933E+03  0.74096468563E+03 -0.11250843223E+03  0.78911028176E+03  0.25500000920E-02 0. -1.
       -2    1    3    3    0  502  0.24699842933E+03 -0.74096468563E+03  0.18708692774E+04  0.20273600426E+04  0.25500000920E-02 0.  1.
</event>
<event>
 5   0  0.1144271E-06  0.2200471E+04  0.7818609E-02  0.8518232E-01
       -1   -1    0    0    0  501  0.00000000000E+00  0.00000000000E+00  0.97716751081E+03  0.97716751082E+03  0.50400001928E-02 0. -1.
        1   -1    0    0  501    0  0.00000000000E+00  0.00000000000E+00 -0.12388029449E+04  0.12388029449E+04  0.50400001928E-02 0.  1.
    10030    2    1    2    0    0  0.00000000000E+00  0.00000000000E+00 -0.26163543406E+03  0.22159704557E+04  0.22004708497E+04 0.  0.
        3    1    3    3  502    0  0.34617471962E+03  0.82475721246E+03  0.51436386234E+03  0.10318098609E+04  0.10100000352E+00 0. -1.
       -3    1    3    3    0  502 -0.34617471962E+03 -0.82475721246E+03 -0.77599929640E+03  0.11841605948E+04  0.10100000352E+00 0.  1.
</event>
<event>
 5   0  0.1137869E-06  0.2199589E+04  0.7818609E-02  0.8518599E-01
        1   -1    0    0  501    0  0.00000000000E+00  0.00000000000E+00  0.21641744679E+04  0.21641744679E+04  0.50400001928E-02 0. -1.
       -1   -1    0    0    0  501  0.00000000000E+00  0.00000000000E+00 -0.55889591104E+03  0.55889591106E+03  0.50400001928E-02 0.  1.
    10030    2    1    2    0    0  0.00000000000E+00  0.00000000000E+00  0.16052785568E+04  0.27230703789E+04  0.21995892897E+04 0.  0.
        5    1    3    3  502    0 -0.10880928997E+04 -0.61906729910E+02  0.98520642621E+03  0.14691604384E+04  0.46999998093E+01 0. -1.
       -5    1    3    3    0  502  0.10880928997E+04  0.61906729910E+02  0.62007213061E+03  0.12539099405E+04  0.46999998093E+01 0.  1.
</event>
<event>
 5   0  0.8905000E-07  0.2204700E+04  0.7818609E-02  0.8516475E-01
       -4   -1    0    0    0  501  0.00000000000E+00  0.00000000000E+00  0.10159893573E+04  0.10159901510E+04  0.12699999809E+01 0. -1.
        4   -1    0    0  501    0  0.00000000000E+00  0.00000000000E+00 -0.11960494964E+04  0.11960501706E+04  0.12699999809E+01 0.  1.
    10030    2    1    2    0    0  0.00000000000E+00  0.00000000000E+00 -0.18006013910E+03  0.22120403216E+04  0.22046996918E+04 0.  0.
        4    1    3    3  502    0 -0.87298305494E+03  0.66315719863E+03  0.25665118522E+02  0.10966025695E+04  0.12699999809E+01 0. -1.
       -4    1    3    3    0  502  0.87298305494E+03 -0.66315719863E+03 -0.20572525762E+03  0.11154377521E+04  0.12699999809E+01 0.  1.
</event>
<event>
 5   0  0.2532239E-06  0.2193401E+04  0.7818609E-02  0.8521180E-01
       -2   -1    0    0    0  501  0.00000000000E+00  0.00000000000E+00  0.59623706587E+03  0.59623706587E+03  0.25500000920E-02 0.  1.
        2   -1    0    0  501    0  0.00000000000E+00  0.00000000000E+00 -0.20172377514E+04  0.20172377514E+04  0.25500000920E-02 0. -1.
    10030    2    1    2    0    0  0.00000000000E+00  0.00000000000E+00 -0.14210006856E+04  0.26134748173E+04  0.21934009374E+04 0.  0.
        3    1    3    3  502    0 -0.82754253508E+03 -0.69023156140E+03 -0.46775331782E+03  0.11747507958E+04  0.10100000352E+00 0.  1.
       -3    1    3    3    0  502  0.82754253508E+03  0.69023156140E+03 -0.95324736775E+03  0.14387240215E+04  0.10100000352E+00 0. -1.
</event>
<event>
 5   0  0.1137869E-06  0.2199795E+04  0.7818609E-02  0.8518513E-01
       -1   -1    0    0    0  501  0.00000000000E+00  0.00000000000E+00  0.10305793669E+04  0.10305793669E+04  0.50400001928E-02 0.  1.
        1   -1    0    0  501    0  0.00000000000E+00  0.00000000000E+00 -0.11738779858E+04  0.11738779858E+04  0.50400001928E-02 0. -1.
    10030    2    1    2    0    0  0.00000000000E+00  0.00000000000E+00 -0.14329861888E+03  0.22044573527E+04  0.21997949281E+04 0.  0.
        5    1    3    3  502    0  0.34504570169E+03  0.68417697373E+03 -0.86237027100E+03  0.11536287279E+04  0.46999998093E+01 0. -1.
       -5    1    3    3    0  502 -0.34504570169E+03 -0.68417697373E+03  0.71907165212E+03  0.10508286247E+04  0.46999998093E+01 0.  1.
</event>
<event>
 5   0  0.2606154E-06  0.2199682E+04  0.7818609E-02  0.8518561E-01
       -2   -1    0    0    0  501  0.00000000000E+00  0.00000000000E+00  0.54388438882E+03  0.54388438883E+03  0.25500000920E-02 0. -1.
        2   -1    0    0  501    0  0.00000000000E+00  0.00000000000E+00 -0.22240941469E+04  0.22240941469E+04  0.25500000920E-02 0.  1.
    10030    2    1    2    0    0  0.00000000000E+00  0.00000000000E+00 -0.16802097580E+04  0.27679785357E+04  0.21996818731E+04 0.  0.
        2    1    3    3  502    0  0.47245773517E+03 -0.88555082207E+03 -0.27421828166E+03  0.10404865381E+04  0.25500000920E-02 0. -1.
       -2    1    3    3    0  502 -0.47245773517E+03  0.88555082207E+03 -0.14059914764E+04  0.17274919976E+04  0.25500000920E-02 0.  1.
</event>
<event>
 5   0  0.1107101E-06  0.2203859E+04  0.7818609E-02  0.8516824E-01
        1   -1    0    0  501    0  0.00000000000E+00  0.00000000000E+00  0.17640466864E+04  0.17640466864E+04  0.50400001928E-02 0.  1.
       -1   -1    0    0    0  501  0.00000000000E+00  0.00000000000E+00 -0.68833151911E+03  0.68833151913E+03  0.50400001928E-02 0. -1.
    10030    2    1    2    0    0  0.00000000000E+00  0.00000000000E+00  0.10757151673E+04  0.24523782055E+04  0.22038592836E+04 0.  0.
        1    1    3    3  502    0 -0.43094687265E+03 -0.33507610204E+03 -0.52729644254E+03  0.75896820720E+03  0.50400001928E-02 0. -1.
       -1    1    3    3    0  502  0.43094687265E+03  0.33507610204E+03  0.16030116098E+04  0.16934099983E+04  0.50400001928E-02 0.  1.
</event>
<event>
 5   0  0.8905000E-07  0.2200703E+04  0.7818609E-02  0.8518135E-01
       -3   -1    0    0    0  501  0.00000000000E+00  0.00000000000E+00  0.15487391098E+04  0.15487391131E+04  0.10100000352E+00 0. -1.
        3   -1    0    0  501    0  0.00000000000E+00  0.00000000000E+00 -0.78178034264E+03  0.78178034917E+03  0.10100000352E+00 0.  1.
    10030    2    1    2    0    0  0.00000000000E+00  0.00000000000E+00  0.76695876718E+03  0.23305194623E+04  0.22007033452E+04 0.  0.
        5    1    3    3  502    0  0.14353214080E+03  0.62673605804E+02  0.15368642925E+04  0.15448311881E+04  0.46999998093E+01 0. -1.
       -5    1    3    3    0  502 -0.14353214080E+03 -0.62673605804E+02 -0.76990552529E+03  0.78568827417E+03  0.46999998093E+01 0.  1.
</event>
<event>
 5   0  0.2532239E-06  0.2201323E+04  0.7818609E-02  0.8517878E-01
        2   -1    0    0  501    0  0.00000000000E+00  0.00000000000E+00  0.15892716762E+04  0.15892716762E+04  0.25500000920E-02 0.  1.
       -2   -1    0    0    0  501  0.00000000000E+00  0.00000000000E+00 -0.76227114325E+03  0.76227114325E+03  0.25500000920E-02 0. -1.
    10030    2    1    2    0    0  0.00000000000E+00  0.00000000000E+00  0.82700053297E+03  0.23515428195E+04  0.22013231817E+04 0.  0.
        3    1    3    3  502    0 -0.10616436776E+04 -0.27814613816E+03  0.50289710424E+03  0.12072108681E+04  0.10100000352E+00 0. -1.
       -3    1    3    3    0  502  0.10616436776E+04  0.27814613816E+03  0.32410342873E+03  0.11443319514E+04  0.10100000352E+00 0.  1.
</event>
<event>
 5   0  0.1082209E-06  0.2201045E+04  0.7818609E-02  0.8517993E-01
       -1   -1    0    0    0  501  0.00000000000E+00  0.00000000000E+00  0.11523614497E+04  0.11523614497E+04  0.50400001928E-02 0.  1.
        1   -1    0    0  501    0  0.00000000000E+00  0.00000000000E+00 -0.10510150652E+04  0.10510150652E+04  0.50400001928E-02 0. -1.
    10030    2    1    2    0    0  0.00000000000E+00  0.00000000000E+00  0.10134638449E+03  0.22033765149E+04  0.22010445195E+04 0.  0.
        2    1    3    3  502    0 -0.87367285115E+03  0.49494324215E+02  0.71875970856E+03  0.11324175280E+04  0.25500000920E-02 0.  1.
       -2    1    3    3    0  502  0.87367285115E+03 -0.49494324215E+02 -0.61741332407E+03  0.10709589869E+04  0.25500000920E-02 0. -1.
</event>
<event>
 5   0  0.1144271E-06  0.2197838E+04  0.7818609E-02  0.8519328E-01
        1   -1    0    0  501    0  0.00000000000E+00  0.00000000000E+00  0.17530606638E+04  0.17530606638E+04  0.50400001928E-02 0.  1.
       -1   -1    0    0    0  501  0.00000000000E+00  0.00000000000E+00 -0.68886565113E+03  0.68886565114E+03  0.50400001928E-02 0. -1.
    10030    2    1    2    0    0  0.00000000000E+00  0.00000000000E+00  0.10641950127E+04  0.24419263149E+04  0.21978382795E+04 0.  0.
        3    1    3    3  502    0 -0.73019364288E+03 -0.16724932243E+03  0.14254243745E+04  0.16102762960E+04  0.10100000352E+00 0.  1.
       -3    1    3    3    0  502  0.73019364288E+03  0.16724932243E+03 -0.36122936180E+03  0.83165001893E+03  0.10100000352E+00 0. -1.
</event>
<event>
 5   0  0.1137869E-06  0.2198806E+04  0.7818609E-02  0.8518925E-01
        1   -1    0    0  501    0  0.00000000000E+00  0.00000000000E+00  0.58728047195E+03  0.58728047197E+03  0.50400001928E-02 0. -1.
       -1   -1    0    0    0  501  0.00000000000E+00  0.00000000000E+00 -0.20581082267E+04  0.20581082267E+04  0.50400001928E-02 0.  1.
    10030    2    1    2    0    0  0.00000000000E+00  0.00000000000E+00 -0.14708277548E+04  0.26453886987E+04  0.21988058311E+04 0.  0.
        5    1    3    3  502    0 -0.42806359774E+03 -0.40947439455E+03  0.37884149958E+03  0.70317188176E+03  0.46999998093E+01 0. -1.
       -5    1    3    3    0  502  0.42806359774E+03  0.40947439455E+03 -0.18496692544E+04  0.19422168170E+04  0.46999998093E+01 0.  1.
</event>
<event>
 5   0  0.1082209E-06  0.2198866E+04  0.7818609E-02  0.8518900E-01
       -1   -1    0    0    0  501  0.00000000000E+00  0.00000000000E+00  0.46672641440E+03  0.46672641443E+03  0.50400001928E-02 0.  1.
        1   -1    0    0  501    0  0.00000000000E+00  0.00000000000E+00 -0.25898528270E+04  0.25898528270E+04  0.50400001928E-02 0. -1.
    10030    2    1    2    0    0  0.00000000000E+00  0.00000000000E+00 -0.21231264126E+04  0.30565792414E+04  0.21988658202E+04 0.  0.
        2    1    3    3  502    0 -0.25366722871E+03  0.69144267665E+03 -0.21962499253E+04  0.23164528427E+04  0.25500000920E-02 0. -1.
       -2    1    3    3    0  502  0.25366722871E+03 -0.69144267665E+03  0.73123512692E+02  0.74012639875E+03  0.25500000920E-02 0.  1.
</event>
<event>
 5   0  0.2524749E-06  0.2200635E+04  0.7818609E-02  0.8518164E-01
       -2   -1    0    0    0  501  0.00000000000E+00  0.00000000000E+00  0.58782287074E+03  0.58782287075E+03  0.25500000920E-02 0.  1.
        2   -1    0    0  501    0  0.00000000000E+00  0.00000000000E+00 -0.20596321707E+04  0.20596321707E+04  0.25500000920E-02 0. -1.
    10030    2    1    2    0    0  0.00000000000E+00  0.00000000000E+00 -0.14718092999E+04  0.26474550414E+04  0.22006352676E+04 0.  0.
        4    1    3    3  502    0  0.39451067420E+03  0.59749740053E+03 -0.17410421851E+04  0.18825172825E+04  0.12699999809E+01 0. -1.
       -4    1    3    3    0  502 -0.39451067420E+03 -0.59749740053E+03  0.26923288516E+03  0.76493775894E+03  0.12699999809E+01 0.  1.
</event>
<event>
 5   0  0.1146827E-06  0.2200633E+04  0.7818609E-02  0.8518165E-01
        1   -1    0    0  501    0  0.00000000000E+00  0.00000000000E+00  0.13290164537E+04  0.13290164537E+04  0.50400001928E-02 0.  1.
       -1   -1    0    0    0  501  0.00000000000E+00  0.00000000000E+00 -0.91097190674E+03  0.91097190675E+03  0.50400001928E-02 0. -1.
    10030    2    1    2    0    0  0.00000000000E+00  0.00000000000E+00  0.41804454699E+03  0.22399883605E+04  0.22006332297E+04 0.  0.
        4    1    3    3  502    0 -0.14050954922E+03  0.94939692348E+03 -0.33874434902E+03  0.10177655912E+04  0.12699999809E+01 0. -1.
       -4    1    3    3    0  502  0.14050954922E+03 -0.94939692348E+03  0.75678889601E+03  0.12222227693E+04  0.12699999809E+01 0.  1.
</event>
<event>
 5   0  0.1137869E-06  0.2203105E+04  0.7818609E-02  0.8517137E-01
       -1   -1    0    0    0  501  0.00000000000E+00  0.00000000000E+00  0.56675638752E+03  0.56675638754E+03  0.50400001928E-02 0. -1.
        1   -1    0    0  501    0  0.00000000000E+00  0.00000000000E+00 -0.21409868053E+04  0.21409868053E+04  0.50400001928E-02 0.  1.
    10030    2    1    2    0    0  0.00000000000E+00  0.00000000000E+00 -0.15742304178E+04  0.27077431928E+04  0.22031050338E+04 0.  0.
        5    1    3    3  502    0  0.79797469640E+03  0.65831390152E+03 -0.32192856410E+03  0.10834209244E+04  0.46999998093E+01 0. -1.
       -5    1    3    3    0  502 -0.79797469640E+03 -0.65831390152E+03 -0.12523018537E+04  0.16243222684E+04  0.46999998093E+01 0.  1.
</event>
<event>
 5   0  0.1082209E-06  0.2201033E+04  0.7818609E-02  0.8517998E-01
        1   -1    0    0  501    0  0.00000000000E+00  0.00000000000E+00  0.11533621817E+04  0.11533621817E+04  0.50400001928E-02 0.  1.
       -1   -1    0    0    0  501  0.00000000000E+00  0.00000000000E+00 -0.10500921478E+04  0.10500921478E+04  0.50400001928E-02 0. -1.
    10030    2    1    2    0    0  0.00000000000E+00  0.00000000000E+00  0.10327003389E+03  0.22034543294E+04  0.22010330034E+04 0.  0.
        2    1    3    3  502    0  0.13311518052E+02  0.46504806436E+03 -0.94680344604E+03  0.10549330140E+04  0.25500000920E-02 0. -1.
       -2    1    3    3    0  502 -0.13311518052E+02 -0.46504806436E+03  0.10500734799E+04  0.11485213154E+04  0.25500000920E-02 0.  1.
</event>
<event>
 5   0  0.2581058E-06  0.2200438E+04  0.7818609E-02  0.8518246E-01
        2   -1    0    0  501    0  0.00000000000E+00  0.00000000000E+00  0.19272168752E+04  0.19272168752E+04  0.25500000920E-02 0.  1.
       -2   -1    0    0    0  501  0.00000000000E+00  0.00000000000E+00 -0.62809820375E+03  0.62809820376E+03  0.25500000920E-02 0. -1.
    10030    2    1    2    0    0  0.00000000000E+00  0.00000000000E+00  0.12991186715E+04  0.25553150790E+04  0.22004376452E+04 0.  0.
        1    1    3    3  502    0 -0.61989176914E+03 -0.22674698777E+03  0.16717469291E+04  0.17973363060E+04  0.50400001928E-02 0.  1.
       -1    1    3    3    0  502  0.61989176914E+03  0.22674698777E+03 -0.37262825761E+03  0.75797877299E+03  0.50400001928E-02 0. -1.
</event>
<event>
 5   0  0.2532239E-06  0.2200702E+04  0.7818609E-02  0.8518136E-01
       -2   -1    0    0    0  501  0.00000000000E+00  0.00000000000E+00  0.77304371016E+03  0.77304371016E+03  0.25500000920E-02 0. -1.
        2   -1    0    0  501    0  0.00000000000E+00  0.00000000000E+00 -0.15662403305E+04  0.15662403305E+04  0.25500000920E-02 0.  1.
    10030    2    1    2    0    0  0.00000000000E+00  0.00000000000E+00 -0.79319662029E+03  0.23392840406E+04  0.22007019208E+04 0.  0.
        3    1    3    3  502    0  0.36779987066E+03  0.50668194627E+03 -0.13584373506E+04  0.14957791900E+04  0.10100000352E+00 0.  1.
       -3    1    3    3    0  502 -0.36779987066E+03 -0.50668194627E+03  0.56524073034E+03  0.84350485059E+03  0.10100000352E+00 0. -1.
</event>
<event>
 5   0  0.2532239E-06  0.2199330E+04  0.7818609E-02  0.8518707E-01
       -2   -1    0    0    0  501  0.00000000000E+00  0.00000000000E+00  0.10914093380E+04  0.10914093380E+04  0.25500000920E-02 0. -1.
        2   -1    0    0  501    0  0.00000000000E+00  0.00000000000E+00 -0.11079826362E+04  0.11079826362E+04  0.25500000920E-02 0.  1.
    10030    2    1    2    0    0  0.00000000000E+00  0.00000000000E+00 -0.16573298206E+02  0.21993919742E+04  0.21993295301E+04 0.  0.
        3    1    3    3  502    0  0.79433105675E+02 -0.30116050524E+03 -0.10629517510E+04  0.11076433105E+04  0.10100000352E+00 0.  1.
       -3    1    3    3    0  502 -0.79433105675E+02  0.30116050524E+03  0.10463784527E+04  0.10917486637E+04  0.10100000352E+00 0. -1.
</event>
<event>
 5   0  0.1146827E-06  0.2199238E+04  0.7818609E-02  0.8518745E-01
       -1   -1    0    0    0  501  0.00000000000E+00  0.00000000000E+00  0.13114198177E+04  0.13114198177E+04  0.50400001928E-02 0.  1.
        1   -1    0    0  501    0  0.00000000000E+00  0.00000000000E+00 -0.92202539528E+03  0.92202539530E+03  0.50400001928E-02 0. -1.
    10030    2    1    2    0    0  0.00000000000E+00  0.00000000000E+00  0.38939442238E+03  0.22334452130E+04  0.21992383916E+04 0.  0.
        4    1    3    3  502    0 -0.59917337596E+03 -0.77497566037E+03  0.70203197296E+03  0.12051748888E+04  0.12699999809E+01 0.  1.
       -4    1    3    3    0  502  0.59917337596E+03  0.77497566037E+03 -0.31263755058E+03  0.10282703242E+04  0.12699999809E+01 0. -1.
</event>
<event>
 5   0  0.2581058E-06  0.2199546E+04  0.7818609E-02  0.8518617E-01
       -2   -1    0    0    0  501  0.00000000000E+00  0.00000000000E+00  0.78921851630E+03  0.78921851631E+03  0.25500000920E-02 0. -1.
        2   -1    0    0  501    0  0.00000000000E+00  0.00000000000E+00 -0.15325288935E+04  0.15325288935E+04  0.25500000920E-02 0.  1.
    10030    2    1    2    0    0  0.00000000000E+00  0.00000000000E+00 -0.74331037716E+03  0.23217474098E+04  0.21995455708E+04 0.  0.
        1    1    3    3  502    0  0.20545840719E+03  0.54486388060E+03  0.61313572935E+03  0.84559164382E+03  0.50400001928E-02 0. -1.
       -1    1    3    3    0  502 -0.20545840719E+03 -0.54486388060E+03 -0.13564461065E+04  0.14761557660E+04  0.50400001928E-02 0.  1.
</event>
<event>
 5   0  0.1082209E-06  0.2198371E+04  0.7818609E-02  0.8519106E-01
       -1   -1    0    0    0  501  0.00000000000E+00  0.00000000000E+00  0.74841458182E+03  0.74841458184E+03  0.50400001928E-02 0. -1.
        1   -1    0    0  501    0  0.00000000000E+00  0.00000000000E+00 -0.16143574155E+04  0.16143574155E+04  0.50400001928E-02 0.  1.
    10030    2    1    2    0    0  0.00000000000E+00  0.00000000000E+00 -0.86594283366E+03  0.23627719973E+04  0.21983708787E+04 0.  0.
        2    1    3    3  502    0  0.70465530641E+03 -0.81682654247E+03 -0.20633757065E+03  0.10983259509E+04  0.25500000920E-02 0. -1.
       -2    1    3    3    0  502 -0.70465530641E+03  0.81682654247E+03 -0.65960526301E+03  0.12644460464E+04  0.25500000920E-02 0.  1.
</event>
<event>
 5   0  0.1107101E-06  0.2200407E+04  0.7818609E-02  0.8518259E-01
       -1   -1    0    0    0  501  0.00000000000E+00  0.00000000000E+00  0.82095366931E+03  0.82095366933E+03  0.50400001928E-02 0. -1.
        1   -1    0    0  501    0  0.00000000000E+00  0.00000000000E+00 -0.14744408729E+04  0.14744408729E+04  0.50400001928E-02 0.  1.
    10030    2    1    2    0    0  0.00000000000E+00  0.00000000000E+00 -0.65348720356E+03  0.22953945422E+04  0.22004069122E+04 0.  0.
        1    1    3    3  502    0 -0.68295788979E+03  0.69816125586E+03 -0.85515440852E+03  0.12981331522E+04  0.50400001928E-02 0.  1.
       -1    1    3    3    0  502  0.68295788979E+03 -0.69816125586E+03  0.20166720497E+03  0.99726139000E+03  0.50400001928E-02 0. -1.
</event>
<event>
 5   0  0.1137869E-06  0.2198957E+04  0.7818609E-02  0.8518862E-01
        1   -1    0    0  501    0  0.00000000000E+00  0.00000000000E+00  0.79738563867E+03  0.79738563869E+03  0.50400001928E-02 0.  1.
       -1   -1    0    0    0  501  0.00000000000E+00  0.00000000000E+00 -0.15160210675E+04  0.15160210675E+04  0.50400001928E-02 0. -1.
    10030    2    1    2    0    0  0.00000000000E+00  0.00000000000E+00 -0.71863542882E+03  0.23134067062E+04  0.21989574140E+04 0.  0.
        5    1    3    3  502    0 -0.95406879953E+03 -0.51277813411E+03 -0.55793642261E+03  0.12184021630E+04  0.46999998093E+01 0.  1.
       -5    1    3    3    0  502  0.95406879953E+03  0.51277813411E+03 -0.16069900621E+03  0.10950045432E+04  0.46999998093E+01 0. -1.
</event>
<event>
 5   0  0.2606154E-06  0.2199465E+04  0.7818609E-02  0.8518651E-01
        2   -1    0    0  501    0  0.00000000000E+00  0.00000000000E+00  0.15698946463E+04  0.15698946463E+04  0.25500000920E-02 0. -1.
       -2   -1    0    0    0  501  0.00000000000E+00  0.00000000000E+00 -0.77037767873E+03  0.77037767874E+03  0.25500000920E-02 0.  1.
    10030    2    1    2    0    0  0.00000000000E+00  0.00000000000E+00  0.79951696752E+03  0.23402723250E+04  0.21994652018E+04 0.  0.
        2    1    3    3  502    0 -0.58403159774E+03 -0.46103556755E+03  0.12613937155E+04  0.14645001902E+04  0.25500000920E-02 0. -1.
       -2    1    3    3    0  502  0.58403159774E+03  0.46103556755E+03 -0.46187674796E+03  0.87577213476E+03  0.25500000920E-02 0.  1.
</event>
<event>
 5   0  0.2581058E-06  0.2199856E+04  0.7818609E-02  0.8518488E-01
       -2   -1    0    0    0  501  0.00000000000E+00  0.00000000000E+00  0.70988301857E+03  0.70988301858E+03  0.25500000920E-02 0. -1.
        2   -1    0    0  501    0  0.00000000000E+00  0.00000000000E+00 -0.17042835801E+04  0.17042835801E+04  0.25500000920E-02 0.  1.
    10030    2    1    2    0    0  0.00000000000E+00  0.00000000000E+00 -0.99440056149E+03  0.24141665986E+04  0.21998563338E+04 0.  0.
        1    1    3    3  502    0  0.16038973945E+03 -0.74853873723E+03  0.36955798468E+03  0.85006365275E+03  0.50400001928E-02 0. -1.
       -1    1    3    3    0  502 -0.16038973945E+03  0.74853873723E+03 -0.13639585462E+04  0.15641029459E+04  0.50400001928E-02 0.  1.
</event>
<event>
 5   0  0.2556869E-06  0.2199434E+04  0.7818609E-02  0.8518664E-01
       -2   -1    0    0    0  501  0.00000000000E+00  0.00000000000E+00  0.64230270268E+03  0.64230270268E+03  0.25500000920E-02 0. -1.
        2   -1    0    0  501    0  0.00000000000E+00  0.00000000000E+00 -0.18828785852E+04  0.18828785852E+04  0.25500000920E-02 0.  1.
    10030    2    1    2    0    0  0.00000000000E+00  0.00000000000E+00 -0.12405758825E+04  0.25251812879E+04  0.21994344765E+04 0.  0.
        5    1    3    3  502    0 -0.82365308480E+03 -0.31018033906E+03 -0.13772884448E+04  0.16344912961E+04  0.46999998093E+01 0.  1.
       -5    1    3    3    0  502  0.82365308480E+03  0.31018033906E+03  0.13671256225E+03  0.89068999181E+03  0.46999998093E+01 0. -1.
</event>
<event>
 5   0  0.8905000E-07  0.2201779E+04  0.7818609E-02  0.8517688E-01
       -3   -1    0    0    0  501  0.00000000000E+00  0.00000000000E+00  0.60909140805E+03  0.60909141643E+03  0.10100000352E+00 0. -1.
        3   -1    0    0  501    0  0.00000000000E+00  0.00000000000E+00 -0.19897792715E+04  0.19897792741E+04  0.10100000352E+00 0.  1.
    10030    2    1    2    0    0  0.00000000000E+00  0.00000000000E+00 -0.13806878635E+04  0.25988706905E+04  0.22017788013E+04 0.  0.
        1    1    3    3  502    0 -0.51862365953E+03  0.16864110822E+03 -0.18191362241E+04  0.18991226726E+04  0.50400001928E-02 0.  1.
       -1    1    3    3    0  502  0.51862365953E+03 -0.16864110822E+03  0.43844836065E+03  0.69974801792E+03  0.50400001928E-02 0. -1.
</event>
<event>
 5   0  0.1082209E-06  0.2198890E+04  0.7818609E-02  0.8518890E-01
        1   -1    0    0  501    0  0.00000000000E+00  0.00000000000E+00  0.24102988355E+04  0.24102988355E+04  0.50400001928E-02 0.  1.
       -1   -1    0    0    0  501  0.00000000000E+00  0.00000000000E+00 -0.50150603596E+03  0.50150603599E+03  0.50400001928E-02 0. -1.
    10030    2    1    2    0    0  0.00000000000E+00  0.00000000000E+00  0.19087927995E+04  0.29118048715E+04  0.21988900969E+04 0.  0.
        2    1    3    3  502    0 -0.63135645562E+03  0.37646778334E+02  0.21452714687E+04  0.22365638664E+04  0.25500000920E-02 0.  1.
       -2    1    3    3    0  502  0.63135645562E+03 -0.37646778334E+02 -0.23647866919E+03  0.67524100509E+03  0.25500000920E-02 0. -1.
</event>
<event>
 5   0  0.2524749E-06  0.2201238E+04  0.7818609E-02  0.8517913E-01
       -2   -1    0    0    0  501  0.00000000000E+00  0.00000000000E+00  0.62910934191E+03  0.62910934191E+03  0.25500000920E-02 0. -1.
        2   -1    0    0  501    0  0.00000000000E+00  0.00000000000E+00 -0.19255191225E+04  0.19255191225E+04  0.25500000920E-02 0.  1.
    10030    2    1    2    0    0  0.00000000000E+00  0.00000000000E+00 -0.12964097806E+04  0.25546284644E+04  0.22012378954E+04 0.  0.
        4    1    3    3  502    0 -0.69832483349E+01  0.84907499924E+02  0.62527613428E+03  0.63105459851E+03  0.12699999809E+01 0. -1.
       -4    1    3    3    0  502  0.69832483349E+01 -0.84907499924E+02 -0.19216859149E+04  0.19235738659E+04  0.12699999809E+01 0.  1.
</event>
<event>
 5   0  0.2581058E-06  0.2200431E+04  0.7818609E-02  0.8518249E-01
        2   -1    0    0  501    0  0.00000000000E+00  0.00000000000E+00  0.19039393146E+04  0.19039393146E+04  0.25500000920E-02 0. -1.
       -2   -1    0    0    0  501  0.00000000000E+00  0.00000000000E+00 -0.63577327040E+03  0.63577327040E+03  0.25500000920E-02 0.  1.
    10030    2    1    2    0    0  0.00000000000E+00  0.00000000000E+00  0.12681660442E+04  0.25397125850E+04  0.22004306167E+04 0.  0.
        1    1    3    3  502    0  0.49179230572E+03 -0.83711476117E+03  0.36738215650E+02  0.97158143861E+03  0.50400001928E-02 0.  1.
       -1    1    3    3    0  502 -0.49179230572E+03  0.83711476117E+03  0.12314278286E+04  0.15681311464E+04  0.50400001928E-02 0. -1.
</event>
<event>
 5   0  0.1107101E-06  0.2200232E+04  0.7818609E-02  0.8518331E-01
        1   -1    0    0  501    0  0.00000000000E+00  0.00000000000E+00  0.67874264020E+03  0.67874264021E+03  0.50400001928E-02 0. -1.
       -1   -1    0    0    0  501  0.00000000000E+00  0.00000000000E+00 -0.17830846452E+04  0.17830846452E+04  0.50400001928E-02 0.  1.
    10030    2    1    2    0    0  0.00000000000E+00  0.00000000000E+00 -0.11043420050E+04  0.24618272855E+04  0.22002323330E+04 0.  0.
        1    1    3    3  502    0 -0.20046539865E+02 -0.10391248588E+04 -0.95570768945E+03  0.14119346740E+04  0.50400001928E-02 0. -1.
       -1    1    3    3    0  502  0.20046539865E+02  0.10391248588E+04 -0.14863431558E+03  0.10498926115E+04  0.50400001928E-02 0.  1.
</event>
<event>
 5   0  0.1137869E-06  0.2199240E+04  0.7818609E-02  0.8518745E-01
       -1   -1    0    0    0  501  0.00000000000E+00  0.00000000000E+00  0.89224809128E+03  0.89224809129E+03  0.50400001928E-02 0. -1.
        1   -1    0    0  501    0  0.00000000000E+00  0.00000000000E+00 -0.13551880751E+04  0.13551880751E+04  0.50400001928E-02 0.  1.
    10030    2    1    2    0    0  0.00000000000E+00  0.00000000000E+00 -0.46293998380E+03  0.22474361664E+04  0.21992398444E+04 0.  0.
        5    1    3    3  502    0 -0.96664742983E+03  0.13440887066E+03 -0.74919766890E+03  0.12303626438E+04  0.46999998093E+01 0.  1.
       -5    1    3    3    0  502  0.96664742983E+03 -0.13440887066E+03  0.28625768511E+03  0.10170735226E+04  0.46999998093E+01 0. -1.
</event>
<event>
 5   0  0.2556869E-06  0.2199513E+04  0.7818609E-02  0.8518631E-01
        2   -1    0    0  501    0  0.00000000000E+00  0.00000000000E+00  0.12009082295E+04  0.12009082295E+04  0.25500000920E-02 0.  1.
       -2   -1    0    0    0  501  0.00000000000E+00  0.00000000000E+00 -0.10071242826E+04  0.10071242826E+04  0.25500000920E-02 0. -1.
    10030    2    1    2    0    0  0.00000000000E+00  0.00000000000E+00  0.19378394687E+03  0.22080325121E+04  0.21995125270E+04 0.  0.
        5    1    3    3  502    0  0.62287029261E+03 -0.49589953874E+03  0.85848607117E+03  0.11708561732E+04  0.46999998093E+01 0.  1.
       -5    1    3    3    0  502 -0.62287029261E+03  0.49589953874E+03 -0.66470212430E+03  0.10371763389E+04  0.46999998093E+01 0. -1.
</event>
<event>
 5   0  0.2556869E-06  0.2200655E+04  0.7818609E-02  0.8518156E-01
       -2   -1    0    0    0  501  0.00000000000E+00  0.00000000000E+00  0.66790074571E+03  0.66790074572E+03  0.25500000920E-02 0.  1.
        2   -1    0    0  501    0  0.00000000000E+00  0.00000000000E+00 -0.18127247304E+04  0.18127247304E+04  0.25500000920E-02 0. -1.
    10030    2    1    2    0    0  0.00000000000E+00  0.00000000000E+00 -0.11448239847E+04  0.24806254761E+04  0.22006546292E+04 0.  0.
        5    1    3    3  502    0 -0.99706391747E+03 -0.26374022498E+03 -0.14022465760E+03  0.10408556126E+04  0.46999998093E+01 0.  1.
       -5    1    3    3    0  502  0.99706391747E+03  0.26374022498E+03 -0.10045993271E+04  0.14397698635E+04  0.46999998093E+01 0. -1.
</event>
<event>
 5   0  0.2556869E-06  0.2199883E+04  0.7818609E-02  0.8518477E-01
       -2   -1    0    0    0  501  0.00000000000E+00  0.00000000000E+00  0.12317283068E+04  0.12317283068E+04  0.25500000920E-02 0. -1.
        2   -1    0    0  501    0  0.00000000000E+00  0.00000000000E+00 -0.98225510637E+03  0.98225510637E+03  0.25500000920E-02 0.  1.
    10030    2    1    2    0    0  0.00000000000E+00  0.00000000000E+00  0.24947320043E+03  0.22139834132E+04  0.21998831051E+04 0.  0.
        5    1    3    3  502    0 -0.34384500783E+03  0.74449940790E+03  0.86247021896E+03  0.11901200470E+04  0.46999998093E+01 0. -1.
       -5    1    3    3    0  502  0.34384500783E+03 -0.74449940790E+03 -0.61299701854E+03  0.10238633661E+04  0.46999998093E+01 0.  1.
</event>
<event>
 5   0  0.2524749E-06  0.2208923E+04  0.7818609E-02  0.8514723E-01
        2   -1    0    0  501    0  0.00000000000E+00  0.00000000000E+00  0.82938874393E+03  0.82938874393E+03  0.25500000920E-02 0.  1.
       -2   -1    0    0    0  501  0.00000000000E+00  0.00000000000E+00 -0.14707640584E+04  0.14707640584E+04  0.25500000920E-02 0. -1.
    10030    2    1    2    0    0  0.00000000000E+00  0.00000000000E+00 -0.64137531448E+03  0.23001528023E+04  0.22089229548E+04 0.  0.
        4    1    3    3  502    0 -0.10334031154E+04 -0.55245149011E+02  0.81070239534E+02  0.10380501057E+04  0.12699999809E+01 0.  1.
       -4    1    3    3    0  502  0.10334031154E+04  0.55245149011E+02 -0.72244555401E+03  0.12621026966E+04  0.12699999809E+01 0. -1.
</event>
<event>
 5   0  0.2524749E-06  0.2200307E+04  0.7818609E-02  0.8518300E-01
       -2   -1    0    0    0  501  0.00000000000E+00  0.00000000000E+00  0.65252526953E+03  0.65252526954E+03  0.25500000920E-02 0. -1.
        2   -1    0    0  501    0  0.00000000000E+00  0.00000000000E+00 -0.18548514200E+04  0.18548514200E+04  0.25500000920E-02 0.  1.
    10030    2    1    2    0    0  0.00000000000E+00  0.00000000000E+00 -0.12023261505E+04  0.25073766896E+04  0.22003067266E+04 0.  0.
        4    1    3    3  502    0  0.78400875189E+03  0.32858236787E+03  0.19465281800E+03  0.87208223693E+03  0.12699999809E+01 0. -1.
       -4    1    3    3    0  502 -0.78400875189E+03 -0.32858236787E+03 -0.13969789685E+04  0.16352944526E+04  0.12699999809E+01 0.  1.
</event>
<event>
 5   0  0.1137869E-06  0.2200208E+04  0.7818609E-02  0.8518342E-01
        1   -1    0    0  501    0  0.00000000000E+00  0.00000000000E+00  0.19744034512E+04  0.19744034512E+04  0.50400001928E-02 0.  1.
       -1   -1    0    0    0  501  0.00000000000E+00  0.00000000000E+00 -0.61295909992E+03  0.61295909994E+03  0.50400001928E-02 0. -1.
    10030    2    1    2    0    0  0.00000000000E+00  0.00000000000E+00  0.13614443512E+04  0.25873625511E+04  0.22002077741E+04 0.  0.
        5    1    3    3  502    0 -0.44792557579E+01 -0.73007131490E+03 -0.28699040477E+03  0.78448057401E+03  0.46999998093E+01 0. -1.
       -5    1    3    3    0  502  0.44792557579E+01  0.73007131490E+03  0.16484347560E+04  0.18028819771E+04  0.46999998093E+01 0.  1.
</event>
<event>
 5   0  0.2532239E-06  0.2199087E+04  0.7818609E-02  0.8518808E-01
       -2   -1    0    0    0  501  0.00000000000E+00  0.00000000000E+00  0.57068874999E+03  0.57068875000E+03  0.25500000920E-02 0.  1.
        2   -1    0    0  501    0  0.00000000000E+00  0.00000000000E+00 -0.21184848609E+04  0.21184848609E+04  0.25500000920E-02 0. -1.
    10030    2    1    2    0    0  0.00000000000E+00  0.00000000000E+00 -0.15477961109E+04  0.26891736109E+04  0.21990866078E+04 0.  0.
        3    1    3    3  502    0  0.93523968478E+03  0.69626415427E+01 -0.66884688559E+02  0.93765415700E+03  0.10100000352E+00 0.  1.
       -3    1    3    3    0  502 -0.93523968478E+03 -0.69626415427E+01 -0.14809114224E+04  0.17515194539E+04  0.10100000352E+00 0. -1.
</event>
<event>
 5   0  0.2606154E-06  0.2203414E+04  0.7818609E-02  0.8517009E-01
       -2   -1    0    0    0  501  0.00000000000E+00  0.00000000000E+00  0.65496930989E+03  0.65496930989E+03  0.25500000920E-02 0.  1.
        2   -1    0    0  501    0  0.00000000000E+00  0.00000000000E+00 -0.18531522684E+04  0.18531522684E+04  0.25500000920E-02 0. -1.
    10030    2    1    2    0    0  0.00000000000E+00  0.00000000000E+00 -0.11981829585E+04  0.25081215783E+04  0.22034135902E+04 0.  0.
        2    1    3    3  502    0  0.69343945476E+02  0.17590882779E+03  0.63636142550E+03  0.66385869155E+03  0.25500000920E-02 0.  1.
       -2    1    3    3    0  502 -0.69343945476E+02 -0.17590882779E+03 -0.18345443840E+04  0.18442628867E+04  0.25500000920E-02 0. -1.
</event>
<event>
 5   0  0.1144271E-06  0.2200204E+04  0.7818609E-02  0.8518343E-01
        1   -1    0    0  501    0  0.00000000000E+00  0.00000000000E+00  0.11468752348E+04  0.11468752348E+04  0.50400001928E-02 0. -1.
       -1   -1    0    0    0  501  0.00000000000E+00  0.00000000000E+00 -0.10552366575E+04  0.10552366575E+04  0.50400001928E-02 0.  1.
    10030    2    1    2    0    0  0.00000000000E+00  0.00000000000E+00  0.91638577384E+02  0.22021118923E+04  0.22002043445E+04 0.  0.
        3    1    3    3  502    0  0.42310914066E+02 -0.24845866413E+03 -0.10259512427E+04  0.10564553393E+04  0.10100000352E+00 0.  1.
       -3    1    3    3    0  502 -0.42310914066E+02  0.24845866413E+03  0.11175898201E+04  0.11456565530E+04  0.10100000352E+00 0. -1.
</event>
<event>
 5   0  0.2556869E-06  0.2199763E+04  0.7818609E-02  0.8518527E-01
       -2   -1    0    0    0  501  0.00000000000E+00  0.00000000000E+00  0.56002923899E+03  0.56002923899E+03  0.25500000920E-02 0. -1.
        2   -1    0    0  501    0  0.00000000000E+00  0.00000000000E+00 -0.21601366469E+04  0.21601366469E+04  0.25500000920E-02 0.  1.
    10030    2    1    2    0    0  0.00000000000E+00  0.00000000000E+00 -0.16001074079E+04  0.27201658859E+04  0.21997633350E+04 0.  0.
        5    1    3    3  502    0 -0.80801325779E+03 -0.69225660284E+03 -0.11445515922E+04  0.15627300042E+04  0.46999998093E+01 0.  1.
       -5    1    3    3    0  502  0.80801325779E+03  0.69225660284E+03 -0.45555581573E+03  0.11574358817E+04  0.46999998093E+01 0. -1.
</event>
<event>
 5   0  0.2606154E-06  0.2200109E+04  0.7818609E-02  0.8518383E-01
        2   -1    0    0  501    0  0.00000000000E+00  0.00000000000E+00  0.22687062639E+04  0.22687062639E+04  0.25500000920E-02 0.  1.
       -2   -1    0    0    0  501  0.00000000000E+00  0.00000000000E+00 -0.53339645258E+03  0.53339645259E+03  0.25500000920E-02 0. -1.
    10030    2    1    2    0    0  0.00000000000E+00  0.00000000000E+00  0.17353098113E+04  0.28021027165E+04  0.22001089729E+04 0.  0.
        2    1    3    3  502    0  0.64373588328E+02  0.10789488899E+04  0.11281878940E+04  0.15623964254E+04  0.25500000920E-02 0.  1.
       -2    1    3    3    0  502 -0.64373588328E+02 -0.10789488899E+04  0.60712191732E+03  0.12397062911E+04  0.25500000920E-02 0. -1.
</event>
<event>
 5   0  0.1107101E-06  0.2200319E+04  0.7818609E-02  0.8518295E-01
        1   -1    0    0  501    0  0.00000000000E+00  0.00000000000E+00  0.92348025230E+03  0.92348025231E+03  0.50400001928E-02 0. -1.
       -1   -1    0    0    0  501  0.00000000000E+00  0.00000000000E+00 -0.13106405713E+04  0.13106405713E+04  0.50400001928E-02 0.  1.
    10030    2    1    2    0    0  0.00000000000E+00  0.00000000000E+00 -0.38716031898E+03  0.22341208236E+04  0.22003187819E+04 0.  0.
        1    1    3    3  502    0  0.34910114786E+03  0.25966483845E+03 -0.12195751627E+04  0.12948594585E+04  0.50400001928E-02 0.  1.
       -1    1    3    3    0  502 -0.34910114786E+03 -0.25966483845E+03  0.83241484376E+03  0.93926136506E+03  0.50400001928E-02 0. -1.
</event>
<event>
 5   0  0.2556869E-06  0.2200077E+04  0.7818609E-02  0.8518396E-01
       -2   -1    0    0    0  501  0.00000000000E+00  0.00000000000E+00  0.70454124118E+03  0.70454124119E+03  0.25500000920E-02 0. -1.
        2   -1    0    0  501    0  0.00000000000E+00  0.00000000000E+00 -0.17175504645E+04  0.17175504645E+04  0.25500000920E-02 0.  1.
    10030    2    1    2    0    0  0.00000000000E+00  0.00000000000E+00 -0.10130092233E+04  0.24220917056E+04  0.22000773950E+04 0.  0.
        5    1    3    3  502    0  0.65148609142E+03  0.51676011870E+03  0.28629570079E+03  0.87946714883E+03  0.46999998093E+01 0. -1.
       -5    1    3    3    0  502 -0.65148609142E+03 -0.51676011870E+03 -0.12993049241E+04  0.15426245568E+04  0.46999998093E+01 0.  1.
</event>
<event>
 5   0  0.8905000E-07  0.2200758E+04  0.7818609E-02  0.8518112E-01
       -4   -1    0    0    0  501  0.00000000000E+00  0.00000000000E+00  0.85014391708E+03  0.85014486569E+03  0.12699999809E+01 0. -1.
        4   -1    0    0  501    0  0.00000000000E+00  0.00000000000E+00 -0.14242679416E+04  0.14242685078E+04  0.12699999809E+01 0.  1.
    10030    2    1    2    0    0  0.00000000000E+00  0.00000000000E+00 -0.57412402454E+03  0.22744133735E+04  0.22007584597E+04 0.  0.
        4    1    3    3  502    0  0.52000095288E+03  0.23086067940E+03 -0.12604633177E+04  0.13829197491E+04  0.12699999809E+01 0.  1.
       -4    1    3    3    0  502 -0.52000095288E+03 -0.23086067940E+03  0.68633929312E+03  0.89149362447E+03  0.12699999809E+01 0. -1.
</event>
<event>
 5   0  0.2532239E-06  0.2201441E+04  0.7818609E-02  0.8517829E-01
        2   -1    0    0  501    0  0.00000000000E+00  0.00000000000E+00  0.71134707298E+03  0.71134707299E+03  0.25500000920E-02 0.  1.
       -2   -1    0    0    0  501  0.00000000000E+00  0.00000000000E+00 -0.17032273693E+04  0.17032273693E+04  0.25500000920E-02 0. -1.
    10030    2    1    2    0    0  0.00000000000E+00  0.00000000000E+00 -0.99188029636E+03  0.24145744423E+04  0.22014411678E+04 0.  0.
        3    1    3    3  502    0  0.71922598026E+03 -0.27316628065E+03 -0.13593504848E+04  0.15619665740E+04  0.10100000352E+00 0. -1.
       -3    1    3    3    0  502 -0.71922598026E+03  0.27316628065E+03  0.36747018844E+03  0.85260786834E+03  0.10100000352E+00 0.  1.
</event>
<event>
 5   0  0.1082209E-06  0.2200063E+04  0.7818609E-02  0.8518402E-01
       -1   -1    0    0    0  501  0.00000000000E+00  0.00000000000E+00  0.14125051892E+04  0.14125051892E+04  0.50400001928E-02 0. -1.
        1   -1    0    0  501    0  0.00000000000E+00  0.00000000000E+00 -0.85668292804E+03  0.85668292806E+03  0.50400001928E-02 0.  1.
    10030    2    1    2    0    0  0.00000000000E+00  0.00000000000E+00  0.55582226119E+03  0.22691881173E+04  0.22000628004E+04 0.  0.
        2    1    3    3  502    0 -0.52741938338E+03 -0.12462767195E+03  0.12652582501E+04  0.13764380487E+04  0.25500000920E-02 0. -1.
       -2    1    3    3    0  502  0.52741938338E+03  0.12462767195E+03 -0.70943598889E+03  0.89275006857E+03  0.25500000920E-02 0.  1.
</event>
<event>
 5   0  0.1137869E-06  0.2199711E+04  0.7818609E-02  0.8518549E-01
        1   -1    0    0  501    0  0.00000000000E+00  0.00000000000E+00  0.11620846365E+04  0.11620846365E+04  0.50400001928E-02 0.  1.
       -1   -1    0    0    0  501  0.00000000000E+00  0.00000000000E+00 -0.10409583342E+04  0.10409583342E+04  0.50400001928E-02 0. -1.
    10030    2    1    2    0    0  0.00000000000E+00  0.00000000000E+00  0.12112630236E+03  0.22030429707E+04  0.21997106059E+04 0.  0.
        5    1    3    3  502    0 -0.10337045409E+04 -0.20611116542E+03 -0.25397106454E+03  0.10842279659E+04  0.46999998093E+01 0.  1.
       -5    1    3    3    0  502  0.10337045409E+04  0.20611116542E+03  0.37509736690E+03  0.11188150048E+04  0.46999998093E+01 0. -1.
</event>
<event>
 5   0  0.2606154E-06  0.2200249E+04  0.7818609E-02  0.8518324E-01
       -2   -1    0    0    0  501  0.00000000000E+00  0.00000000000E+00  0.76706347387E+03  0.76706347388E+03  0.25500000920E-02 0.  1.
        2   -1    0    0  501    0  0.00000000000E+00  0.00000000000E+00 -0.15778018128E+04  0.15778018128E+04  0.25500000920E-02 0. -1.
    10030    2    1    2    0    0  0.00000000000E+00  0.00000000000E+00 -0.81073833897E+03  0.23448652867E+04  0.22002492037E+04 0.  0.
        2    1    3    3  502    0  0.68666535200E+03 -0.35370040623E+03 -0.12402225997E+04  0.14610836320E+04  0.25500000920E-02 0. -1.
       -2    1    3    3    0  502 -0.68666535200E+03  0.35370040623E+03  0.42948426070E+03  0.88378165471E+03  0.25500000920E-02 0.  1.
</event>
<event>
 5   0  0.2581058E-06  0.2201334E+04  0.7818609E-02  0.8517873E-01
       -2   -1    0    0    0  501  0.00000000000E+00  0.00000000000E+00  0.88504012291E+03  0.88504012291E+03  0.25500000920E-02 0. -1.
        2   -1    0    0  501    0  0.00000000000E+00  0.00000000000E+00 -0.13688277359E+04  0.13688277359E+04  0.25500000920E-02 0.  1.
    10030    2    1    2    0    0  0.00000000000E+00  0.00000000000E+00 -0.48378761298E+03  0.22538678588E+04  0.22013336572E+04 0.  0.
        1    1    3    3  502    0 -0.33393626963E+03 -0.58063477097E+03  0.65234362121E+03  0.93498789809E+03  0.50400001928E-02 0. -1.
       -1    1    3    3    0  502  0.33393626963E+03  0.58063477097E+03 -0.11361312342E+04  0.13188799607E+04  0.50400001928E-02 0.  1.
</event>
<event>
 5   0  0.1082209E-06  0.2199711E+04  0.7818609E-02  0.8518548E-01
       -1   -1    0    0    0  501  0.00000000000E+00  0.00000000000E+00  0.14092161402E+04  0.14092161403E+04  0.50400001928E-02 0. -1.
        1   -1    0    0  501    0  0.00000000000E+00  0.00000000000E+00 -0.85840766955E+03  0.85840766957E+03  0.50400001928E-02 0.  1.
    10030    2    1    2    0    0  0.00000000000E+00  0.00000000000E+00  0.55080847069E+03  0.22676238098E+04  0.21997108381E+04 0.  0.
        2    1    3    3  502    0  0.81200441175E+03 -0.50466651226E+03 -0.28511282950E+03  0.99766165549E+03  0.25500000920E-02 0.  1.
       -2    1    3    3    0  502 -0.81200441175E+03  0.50466651226E+03  0.83592130019E+03  0.12699621543E+04  0.25500000920E-02 0. -1.
</event>
<event>
 5   0  0.1144271E-06  0.2198745E+04  0.7818609E-02  0.8518950E-01
       -1   -1    0    0    0  501  0.00000000000E+00  0.00000000000E+00  0.76760054723E+03  0.76760054724E+03  0.50400001928E-02 0.  1.
        1   -1    0    0  501    0  0.00000000000E+00  0.00000000000E+00 -0.15745433638E+04  0.15745433638E+04  0.50400001928E-02 0. -1.
    10030    2    1    2    0    0  0.00000000000E+00  0.00000000000E+00 -0.80694281654E+03  0.23421439110E+04  0.21987454129E+04 0.  0.
        3    1    3    3  502    0  0.51628169328E+03  0.66007996119E+03 -0.11614758567E+04  0.14322285145E+04  0.10100000352E+00 0. -1.
       -3    1    3    3    0  502 -0.51628169328E+03 -0.66007996119E+03  0.35453304015E+03  0.90991539647E+03  0.10100000352E+00 0.  1.
</event>
<event>
 5   0  0.2606154E-06  0.2200174E+04  0.7818609E-02  0.8518356E-01
        2   -1    0    0  501    0  0.00000000000E+00  0.00000000000E+00  0.95504612258E+03  0.95504612258E+03  0.25500000920E-02 0.  1.
       -2   -1    0    0    0  501  0.00000000000E+00  0.00000000000E+00 -0.12671544766E+04  0.12671544766E+04  0.25500000920E-02 0. -1.
    10030    2    1    2    0    0  0.00000000000E+00  0.00000000000E+00 -0.31210835400E+03  0.22222005992E+04  0.22001736019E+04 0.  0.
        2    1    3    3  502    0  0.24279971464E+03  0.36752206565E+03  0.86208889731E+03  0.96810197658E+03  0.25500000920E-02 0.  1.
       -2    1    3    3    0  502 -0.24279971464E+03 -0.36752206565E+03 -0.11741972513E+04  0.12540986226E+04  0.25500000920E-02 0. -1.
</event>
<event>
 5   0  0.1107101E-06  0.2197079E+04  0.7818609E-02  0.8519645E-01
       -1   -1    0    0    0  501  0.00000000000E+00  0.00000000000E+00  0.73636238210E+03  0.73636238211E+03  0.50400001928E-02 0.  1.
        1   -1    0    0  501    0  0.00000000000E+00  0.00000000000E+00 -0.16388518854E+04  0.16388518854E+04  0.50400001928E-02 0. -1.
    10030    2    1    2    0    0  0.00000000000E+00  0.00000000000E+00 -0.90248950326E+03  0.23752142675E+04  0.21970788591E+04 0.  0.
        1    1    3    3  502    0  0.57353586228E+03  0.66559238695E+03 -0.11641273771E+04  0.14584749436E+04  0.50400001928E-02 0. -1.
       -1    1    3    3    0  502 -0.57353586228E+03 -0.66559238695E+03  0.26163787387E+03  0.91673932388E+03  0.50400001928E-02 0.  1.
</event>
<event>
 5   0  0.1107101E-06  0.2200219E+04  0.7818609E-02  0.8518337E-01
        1   -1    0    0  501    0  0.00000000000E+00  0.00000000000E+00  0.11735302473E+04  0.11735302473E+04  0.50400001928E-02 0. -1.
       -1   -1    0    0    0  501  0.00000000000E+00  0.00000000000E+00 -0.10312826957E+04  0.10312826957E+04  0.50400001928E-02 0.  1.
    10030    2    1    2    0    0  0.00000000000E+00  0.00000000000E+00  0.14224755154E+03  0.22048129430E+04  0.22002194772E+04 0.  0.
        1    1    3    3  502    0  0.30271262418E+03 -0.49022561474E+03  0.10102491271E+04  0.11629958663E+04  0.50400001928E-02 0. -1.
       -1    1    3    3    0  502 -0.30271262418E+03  0.49022561474E+03 -0.86800157556E+03  0.10418170767E+04  0.50400001928E-02 0.  1.
</event>
<event>
 5   0  0.1082209E-06  0.2199601E+04  0.7818609E-02  0.8518594E-01
        1   -1    0    0  501    0  0.00000000000E+00  0.00000000000E+00  0.20335997114E+04  0.20335997114E+04  0.50400001928E-02 0. -1.
       -1   -1    0    0    0  501  0.00000000000E+00  0.00000000000E+00 -0.59478795585E+03  0.59478795587E+03  0.50400001928E-02 0.  1.
    10030    2    1    2    0    0  0.00000000000E+00  0.00000000000E+00  0.14388117555E+04  0.26283876672E+04  0.21996005232E+04 0.  0.
        2    1    3    3  502    0 -0.89251756397E+02  0.44091984211E+03 -0.47981756223E+03  0.65772416423E+03  0.25500000920E-02 0.  1.
       -2    1    3    3    0  502  0.89251756397E+02 -0.44091984211E+03  0.19186293177E+04  0.19706635030E+04  0.25500000920E-02 0. -1.
</event>
<event>
 5   0  0.2524749E-06  0.2199900E+04  0.7818609E-02  0.8518470E-01
        2   -1    0    0  501    0  0.00000000000E+00  0.00000000000E+00  0.13025901573E+04  0.13025901573E+04  0.25500000920E-02 0.  1.
       -2   -1    0    0    0  501  0.00000000000E+00  0.00000000000E+00 -0.92883359604E+03  0.92883359605E+03  0.25500000920E-02 0. -1.
    10030    2    1    2    0    0  0.00000000000E+00  0.00000000000E+00  0.37375656121E+03  0.22314237533E+04  0.21998995431E+04 0.  0.
        4    1    3    3  502    0 -0.62705727177E+03  0.59621856338E+02  0.11015385367E+04  0.12689146341E+04  0.12699999809E+01 0.  1.
       -4    1    3    3    0  502  0.62705727177E+03 -0.59621856338E+02 -0.72778197550E+03  0.96250911922E+03  0.12699999809E+01 0. -1.
</event>
<event>
 5   0  0.8905000E-07  0.2200333E+04  0.7818609E-02  0.8518290E-01
       -4   -1    0    0    0  501  0.00000000000E+00  0.00000000000E+00  0.68451357546E+03  0.68451475359E+03  0.12699999809E+01 0.  1.
        4   -1    0    0  501    0  0.00000000000E+00  0.00000000000E+00 -0.17682100786E+04  0.17682105347E+04  0.12699999809E+01 0. -1.
    10030    2    1    2    0    0  0.00000000000E+00  0.00000000000E+00 -0.10836965031E+04  0.24527252882E+04  0.22003325269E+04 0.  0.
        1    1    3    3  502    0 -0.37672076942E+01  0.71500088599E+03  0.39019939525E+03  0.81455265447E+03  0.50400001928E-02 0.  1.
       -1    1    3    3    0  502  0.37672076942E+01 -0.71500088599E+03 -0.14738958984E+04  0.16381726338E+04  0.50400001928E-02 0. -1.
</event>
<event>
 5   0  0.2524749E-06  0.2199773E+04  0.7818609E-02  0.8518522E-01
        2   -1    0    0  501    0  0.00000000000E+00  0.00000000000E+00  0.28934543542E+04  0.28934543542E+04  0.25500000920E-02 0. -1.
       -2   -1    0    0    0  501  0.00000000000E+00  0.00000000000E+00 -0.41809913733E+03  0.41809913734E+03  0.25500000920E-02 0.  1.
    10030    2    1    2    0    0  0.00000000000E+00  0.00000000000E+00  0.24753552169E+04  0.33115534916E+04  0.21997734151E+04 0.  0.
        4    1    3    3  502    0  0.38148784268E+03  0.26353037806E+03 -0.26378565815E+03  0.53344701763E+03  0.12699999809E+01 0.  1.
       -4    1    3    3    0  502 -0.38148784268E+03 -0.26353037806E+03  0.27391408751E+04  0.27781064739E+04  0.12699999809E+01 0. -1.
</event>
<event>
 5   0  0.2581058E-06  0.2202487E+04  0.7818609E-02  0.8517394E-01
       -2   -1    0    0    0  501  0.00000000000E+00  0.00000000000E+00  0.15052416141E+04  0.15052416141E+04  0.25500000920E-02 0. -1.
        2   -1    0    0  501    0  0.00000000000E+00  0.00000000000E+00 -0.80567612917E+03  0.80567612918E+03  0.25500000920E-02 0.  1.
    10030    2    1    2    0    0  0.00000000000E+00  0.00000000000E+00  0.69956548495E+03  0.23109177433E+04  0.22024869917E+04 0.  0.
        1    1    3    3  502    0  0.66021309170E+03  0.10716100808E+03 -0.56814298392E+03  0.87758262193E+03  0.50400001928E-02 0.  1.
       -1    1    3    3    0  502 -0.66021309170E+03 -0.10716100808E+03  0.12677084689E+04  0.14333351214E+04  0.50400001928E-02 0. -1.
</event>
<event>
 5   0  0.2556869E-06  0.2200025E+04  0.7818609E-02  0.8518418E-01
       -2   -1    0    0    0  501  0.00000000000E+00  0.00000000000E+00  0.75082622964E+03  0.75082622964E+03  0.25500000920E-02 0. -1.
        2   -1    0    0  501    0  0.00000000000E+00  0.00000000000E+00 -0.16115945306E+04  0.16115945306E+04  0.25500000920E-02 0.  1.
    10030    2    1    2    0    0  0.00000000000E+00  0.00000000000E+00 -0.86076830093E+03  0.23624207602E+04  0.22000249499E+04 0.  0.
        5    1    3    3  502    0  0.10399803849E+04  0.15134011744E+03 -0.81530743668E+02  0.10541026441E+04  0.46999998093E+01 0. -1.
       -5    1    3    3    0  502 -0.10399803849E+04 -0.15134011744E+03 -0.77923755727E+03  0.13083181161E+04  0.46999998093E+01 0.  1.
</event>
<event>
 5   0  0.2532239E-06  0.2196724E+04  0.7818609E-02  0.8519793E-01
        2   -1    0    0  501    0  0.00000000000E+00  0.00000000000E+00  0.10200578032E+04  0.10200578033E+04  0.25500000920E-02 0. -1.
       -2   -1    0    0    0  501  0.00000000000E+00  0.00000000000E+00 -0.11826774195E+04  0.11826774195E+04  0.25500000920E-02 0.  1.
    10030    2    1    2    0    0  0.00000000000E+00  0.00000000000E+00 -0.16261961621E+03  0.22027352227E+04  0.21967242252E+04 0.  0.
        3    1    3    3  502    0 -0.28800461319E+03  0.50189671873E+03  0.85481444116E+03  0.10322570961E+04  0.10100000352E+00 0. -1.
       -3    1    3    3    0  502  0.28800461319E+03 -0.50189671873E+03 -0.10174340574E+04  0.11704781266E+04  0.10100000352E+00 0.  1.
</event>
<event>
 5   0  0.2524749E-06  0.2200014E+04  0.7818609E-02  0.8518422E-01
        2   -1    0    0  501    0  0.00000000000E+00  0.00000000000E+00  0.10809216726E+04  0.10809216726E+04  0.25500000920E-02 0. -1.
       -2   -1    0    0    0  501  0.00000000000E+00  0.00000000000E+00 -0.11194297103E+04  0.11194297103E+04  0.25500000920E-02 0.  1.
    10030    2    1    2    0    0  0.00000000000E+00  0.00000000000E+00 -0.38508037622E+02  0.22003513829E+04  0.22000143953E+04 0.  0.
        4    1    3    3  502    0 -0.32919719108E+03 -0.37443069312E+03 -0.99993727503E+03  0.11173384901E+04  0.12699999809E+01 0.  1.
       -4    1    3    3    0  502  0.32919719108E+03  0.37443069312E+03  0.96142923741E+03  0.10830128928E+04  0.12699999809E+01 0. -1.
</event>
<event>
 5   0  0.1144271E-06  0.2200227E+04  0.7818609E-02  0.8518333E-01
        1   -1    0    0  501    0  0.00000000000E+00  0.00000000000E+00  0.93195473524E+03  0.93195473526E+03  0.50400001928E-02 0. -1.
       -1   -1    0    0    0  501  0.00000000000E+00  0.00000000000E+00 -0.12986147174E+04  0.12986147174E+04  0.50400001928E-02 0.  1.
    10030    2    1    2    0    0  0.00000000000E+00  0.00000000000E+00 -0.36665998215E+03  0.22305694527E+04  0.22002273838E+04 0.  0.
        3    1    3    3  502    0 -0.35360662946E+03  0.50478616481E+03 -0.11071614461E+04  0.12671437166E+04  0.10100000352E+00 0.  1.
       -3    1    3    3    0  502  0.35360662946E+03 -0.50478616481E+03  0.74050146396E+03  0.96342573606E+03  0.10100000352E+00 0. -1.
</event>
<event>
 5   0  0.1082209E-06  0.2198332E+04  0.7818609E-02  0.8519123E-01
        1   -1    0    0  501    0  0.00000000000E+00  0.00000000000E+00  0.10496876790E+04  0.10496876790E+04  0.50400001928E-02 0.  1.
       -1   -1    0    0    0  501  0.00000000000E+00  0.00000000000E+00 -0.11509767494E+04  0.11509767494E+04  0.50400001928E-02 0. -1.
    10030    2    1    2    0    0  0.00000000000E+00  0.00000000000E+00 -0.10128907035E+03  0.22006644284E+04  0.21983321975E+04 0.  0.
        2    1    3    3  502    0  0.50061560903E+03  0.90201354751E+03  0.32912805785E+03  0.10828525783E+04  0.25500000920E-02 0. -1.
       -2    1    3    3    0  502 -0.50061560903E+03 -0.90201354751E+03 -0.43041712820E+03  0.11178118501E+04  0.25500000920E-02 0.  1.
</event>
<event>
 5   0  0.1137869E-06  0.2200685E+04  0.7818609E-02  0.8518143E-01
        1   -1    0    0  501    0  0.00000000000E+00  0.00000000000E+00  0.11829887489E+04  0.11829887489E+04  0.50400001928E-02 0. -1.
       -1   -1    0    0    0  501  0.00000000000E+00  0.00000000000E+00 -0.10234697910E+04  0.10234697910E+04  0.50400001928E-02 0.  1.
    10030    2    1    2    0    0  0.00000000000E+00  0.00000000000E+00  0.15951895795E+03  0.22064585399E+04  0.22006846640E+04 0.  0.
        5    1    3    3  502    0 -0.79105231826E+03  0.38744698077E+03  0.74092287599E+03  0.11510289880E+04  0.46999998093E+01 0. -1.
       -5    1    3    3    0  502  0.79105231826E+03 -0.38744698077E+03 -0.58140391804E+03  0.10554295519E+04  0.46999998093E+01 0.  1.
</event>
<event>
 5   0  0.2524749E-06  0.2200301E+04  0.7818609E-02  0.8518303E-01
       -2   -1    0    0    0  501  0.00000000000E+00  0.00000000000E+00  0.74340394530E+03  0.74340394531E+03  0.25500000920E-02 0. -1.
        2   -1    0    0  501    0  0.00000000000E+00  0.00000000000E+00 -0.16280932626E+04  0.16280932626E+04  0.25500000920E-02 0.  1.
    10030    2    1    2    0    0  0.00000000000E+00  0.00000000000E+00 -0.88468931733E+03  0.23714972079E+04  0.22003008474E+04 0.  0.
        4    1    3    3  502    0 -0.64734122139E+03  0.86876154603E+03 -0.23633971655E+03  0.11088982619E+04  0.12699999809E+01 0. -1.
       -4    1    3    3    0  502  0.64734122139E+03 -0.86876154603E+03 -0.64834960078E+03  0.12625989460E+04  0.12699999809E+01 0.  1.
</event>
<event>
 5   0  0.1107101E-06  0.2200658E+04  0.7818609E-02  0.8518154E-01
       -1   -1    0    0    0  501  0.00000000000E+00  0.00000000000E+00  0.49176238100E+03  0.49176238102E+03  0.50400001928E-02 0.  1.
        1   -1    0    0  501    0  0.00000000000E+00  0.00000000000E+00 -0.24620104868E+04  0.24620104868E+04  0.50400001928E-02 0. -1.
    10030    2    1    2    0    0  0.00000000000E+00  0.00000000000E+00 -0.19702481058E+04  0.29537728678E+04  0.22006582098E+04 0.  0.
        1    1    3    3  502    0  0.10468252752E+04 -0.51928747452E+02 -0.53556089728E+03  0.11770153892E+04  0.50400001928E-02 0. -1.
       -1    1    3    3    0  502 -0.10468252752E+04  0.51928747452E+02 -0.14346872085E+04  0.17767574786E+04  0.50400001928E-02 0.  1.
</event>
<event>
 5   0  0.1137869E-06  0.2199592E+04  0.7818609E-02  0.8518598E-01
       -1   -1    0    0    0  501  0.00000000000E+00  0.00000000000E+00  0.10963476819E+04  0.10963476819E+04  0.50400001928E-02 0.  1.
        1   -1    0    0  501    0  0.00000000000E+00  0.00000000000E+00 -0.11032546826E+04  0.11032546826E+04  0.50400001928E-02 0. -1.
    10030    2    1    2    0    0  0.00000000000E+00  0.00000000000E+00 -0.69070006974E+01  0.21996023645E+04  0.21995915201E+04 0.  0.
        5    1    3    3  502    0 -0.98499429023E+02 -0.10280202012E+03 -0.10939900460E+04  0.11032255906E+04  0.46999998093E+01 0. -1.
       -5    1    3    3    0  502  0.98499429023E+02  0.10280202012E+03  0.10870830453E+04  0.10963767739E+04  0.46999998093E+01 0.  1.
</event>
<event>
 5   0  0.1107101E-06  0.2199917E+04  0.7818609E-02  0.8518463E-01
        1   -1    0    0  501    0  0.00000000000E+00  0.00000000000E+00  0.12419363129E+04  0.12419363130E+04  0.50400001928E-02 0.  1.
       -1   -1    0    0    0  501  0.00000000000E+00  0.00000000000E+00 -0.97421143975E+03  0.97421143976E+03  0.50400001928E-02 0. -1.
    10030    2    1    2    0    0  0.00000000000E+00  0.00000000000E+00  0.26772487320E+03  0.22161477527E+04  0.21999168744E+04 0.  0.
        1    1    3    3  502    0 -0.99343577031E+03 -0.47151248331E+03  0.10778882012E+03  0.11049240161E+04  0.50400001928E-02 0. -1.
       -1    1    3    3    0  502  0.99343577031E+03  0.47151248331E+03  0.15993605308E+03  0.11112237366E+04  0.50400001928E-02 0.  1.
</event>
<event>
 5   0  0.1082209E-06  0.2198611E+04  0.7818609E-02  0.8519007E-01
       -1   -1    0    0    0  501  0.00000000000E+00  0.00000000000E+00  0.81258893813E+03  0.81258893814E+03  0.50400001928E-02 0.  1.
        1   -1    0    0  501    0  0.00000000000E+00  0.00000000000E+00 -0.14871876344E+04  0.14871876344E+04  0.50400001928E-02 0. -1.
    10030    2    1    2    0    0  0.00000000000E+00  0.00000000000E+00 -0.67459869629E+03  0.22997765726E+04  0.21986106710E+04 0.  0.
        2    1    3    3  502    0  0.10575103183E+04  0.76886191687E+02 -0.33716260111E+02  0.10608375681E+04  0.25500000920E-02 0.  1.
       -2    1    3    3    0  502 -0.10575103183E+04 -0.76886191687E+02 -0.64088243618E+03  0.12389390045E+04  0.25500000920E-02 0. -1.
</event>
<event>
 5   0  0.2556869E-06  0.2200421E+04  0.7818609E-02  0.8518253E-01
        2   -1    0    0  501    0  0.00000000000E+00  0.00000000000E+00  0.11518912446E+04  0.11518912446E+04  0.25500000920E-02 0. -1.
       -2   -1    0    0    0  501  0.00000000000E+00  0.00000000000E+00 -0.10508488326E+04  0.10508488326E+04  0.25500000920E-02 0.  1.
    10030    2    1    2    0    0  0.00000000000E+00  0.00000000000E+00  0.10104241201E+03  0.22027400771E+04  0.22004213865E+04 0.  0.
        5    1    3    3  502    0  0.84696491638E+03  0.11467254140E+03 -0.64298735753E+03  0.10695579429E+04  0.46999998093E+01 0.  1.
       -5    1    3    3    0  502 -0.84696491638E+03 -0.11467254140E+03  0.74402976954E+03  0.11331821342E+04  0.46999998093E+01 0. -1.
</event>
<event>
 5   0  0.2524749E-06  0.2195782E+04  0.7818609E-02  0.8520186E-01
       -2   -1    0    0    0  501  0.00000000000E+00  0.00000000000E+00  0.14605155834E+04  0.14605155834E+04  0.25500000920E-02 0.  1.
        2   -1    0    0  501    0  0.00000000000E+00  0.00000000000E+00 -0.82530096843E+03  0.82530096844E+03  0.25500000920E-02 0. -1.
    10030    2    1    2    0    0  0.00000000000E+00  0.00000000000E+00  0.63521461498E+03  0.22858165518E+04  0.21957822528E+04 0.  0.
        4    1    3    3  502    0  0.10487900410E+04 -0.10217186427E+03 -0.31901025607E+01  0.10537606131E+04  0.12699999809E+01 0.  1.
       -4    1    3    3    0  502 -0.10487900410E+04  0.10217186427E+03  0.63840471754E+03  0.12320559388E+04  0.12699999809E+01 0. -1.
</event>
<event>
 5   0  0.1144271E-06  0.2200006E+04  0.7818609E-02  0.8518426E-01
        1   -1    0    0  501    0  0.00000000000E+00  0.00000000000E+00  0.15775417613E+04  0.15775417613E+04  0.50400001928E-02 0. -1.
       -1   -1    0    0    0  501  0.00000000000E+00  0.00000000000E+00 -0.76702013360E+03  0.76702013362E+03  0.50400001928E-02 0.  1.
    10030    2    1    2    0    0  0.00000000000E+00  0.00000000000E+00  0.81052162767E+03  0.23445618949E+04  0.22000057205E+04 0.  0.
        3    1    3    3  502    0  0.10259618159E+04  0.12872146976E+03  0.53160614869E+01  0.10340189240E+04  0.10100000352E+00 0.  1.
       -3    1    3    3    0  502 -0.10259618159E+04 -0.12872146976E+03  0.80520556619E+03  0.13105429709E+04  0.10100000352E+00 0. -1.
</event>
<event>
 5   0  0.1082209E-06  0.2200020E+04  0.7818609E-02  0.8518420E-01
        1   -1    0    0  501    0  0.00000000000E+00  0.00000000000E+00  0.13643924413E+04  0.13643924413E+04  0.50400001928E-02 0. -1.
       -1   -1    0    0    0  501  0.00000000000E+00  0.00000000000E+00 -0.88685810001E+03  0.88685810002E+03  0.50400001928E-02 0.  1.
    10030    2    1    2    0    0  0.00000000000E+00  0.00000000000E+00  0.47753434125E+03  0.22512505413E+04  0.22000204437E+04 0.  0.
        2    1    3    3  502    0  0.21008403867E+03  0.17896431358E+03  0.13283910987E+04  0.13567558513E+04  0.25500000920E-02 0. -1.
       -2    1    3    3    0  502 -0.21008403867E+03 -0.17896431358E+03 -0.85085675743E+03  0.89449469004E+03  0.25500000920E-02 0.  1.
</event>
<event>
 5   0  0.2524749E-06  0.2199906E+04  0.7818609E-02  0.8518467E-01
        2   -1    0    0  501    0  0.00000000000E+00  0.00000000000E+00  0.14173544179E+04  0.14173544179E+04  0.25500000920E-02 0. -1.
       -2   -1    0    0    0  501  0.00000000000E+00  0.00000000000E+00 -0.85363034716E+03  0.85363034716E+03  0.25500000920E-02 0.  1.
    10030    2    1    2    0    0  0.00000000000E+00  0.00000000000E+00  0.56372407069E+03  0.22709847650E+04  0.21999061287E+04 0.  0.
        4    1    3    3  502    0  0.20987210896E+03  0.10738806200E+04  0.39787291707E+03  0.11642896371E+04  0.12699999809E+01 0.  1.
       -4    1    3    3    0  502 -0.20987210896E+03 -0.10738806200E+04  0.16585115362E+03  0.11066951279E+04  0.12699999809E+01 0. -1.
</event>
<event>
 5   0  0.1107101E-06  0.2199965E+04  0.7818609E-02  0.8518443E-01
       -1   -1    0    0    0  501  0.00000000000E+00  0.00000000000E+00  0.94997657426E+03  0.94997657427E+03  0.50400001928E-02 0.  1.
        1   -1    0    0  501    0  0.00000000000E+00  0.00000000000E+00 -0.12736750665E+04  0.12736750665E+04  0.50400001928E-02 0. -1.
    10030    2    1    2    0    0  0.00000000000E+00  0.00000000000E+00 -0.32369849221E+03  0.22236516408E+04  0.21999649783E+04 0.  0.
        1    1    3    3  502    0 -0.59007622196E+03  0.22847924939E+03  0.74759871763E+03  0.97943685746E+03  0.50400001928E-02 0.  1.
       -1    1    3    3    0  502  0.59007622196E+03 -0.22847924939E+03 -0.10712972098E+04  0.12442147833E+04  0.50400001928E-02 0. -1.
</event>
<event>
 5   0  0.2581058E-06  0.2200434E+04  0.7818609E-02  0.8518247E-01
        2   -1    0    0  501    0  0.00000000000E+00  0.00000000000E+00  0.24815064625E+04  0.24815064625E+04  0.25500000920E-02 0. -1.
       -2   -1    0    0    0  501  0.00000000000E+00  0.00000000000E+00 -0.48779963893E+03  0.48779963894E+03  0.25500000920E-02 0.  1.
    10030    2    1    2    0    0  0.00000000000E+00  0.00000000000E+00  0.19937068236E+04  0.29693061014E+04  0.22004344629E+04 0.  0.
        1    1    3    3  502    0 -0.97159698149E+03  0.46568442504E+03  0.69627744821E+03  0.12828347372E+04  0.50400001928E-02 0.  1.
       -1    1    3    3    0  502  0.97159698149E+03 -0.46568442504E+03  0.12974293754E+04  0.16864713642E+04  0.50400001928E-02 0. -1.
</event>
<event>
 5   0  0.1107101E-06  0.2197055E+04  0.7818609E-02  0.8519655E-01
        1   -1    0    0  501    0  0.00000000000E+00  0.00000000000E+00  0.17212484035E+04  0.17212484035E+04  0.50400001928E-02 0. -1.
       -1   -1    0    0    0  501  0.00000000000E+00  0.00000000000E+00 -0.70109742827E+03  0.70109742828E+03  0.50400001928E-02 0.  1.
    10030    2    1    2    0    0  0.00000000000E+00  0.00000000000E+00  0.10201509752E+04  0.24223458318E+04  0.21970551464E+04 0.  0.
        1    1    3    3  502    0 -0.50912918868E+03 -0.76097349503E+03 -0.15918632039E+03  0.92931882340E+03  0.50400001928E-02 0.  1.
       -1    1    3    3    0  502  0.50912918868E+03  0.76097349503E+03  0.11793372956E+04  0.14930270084E+04  0.50400001928E-02 0. -1.
</event>
<event>
 5   0  0.1107101E-06  0.2200145E+04  0.7818609E-02  0.8518368E-01
        1   -1    0    0  501    0  0.00000000000E+00  0.00000000000E+00  0.13779778329E+04  0.13779778329E+04  0.50400001928E-02 0.  1.
       -1   -1    0    0    0  501  0.00000000000E+00  0.00000000000E+00 -0.87821374984E+03  0.87821374985E+03  0.50400001928E-02 0. -1.
    10030    2    1    2    0    0  0.00000000000E+00  0.00000000000E+00  0.49976408307E+03  0.22561915828E+04  0.22001446133E+04 0.  0.
        1    1    3    3  502    0  0.36569448760E+02 -0.29430771415E+03  0.13362095912E+04  0.13687258407E+04  0.50400001928E-02 0.  1.
       -1    1    3    3    0  502 -0.36569448760E+02  0.29430771415E+03 -0.83644550818E+03  0.88746574208E+03  0.50400001928E-02 0. -1.
</event>
<event>
 5   0  0.2532239E-06  0.2199734E+04  0.7818609E-02  0.8518539E-01
        2   -1    0    0  501    0  0.00000000000E+00  0.00000000000E+00  0.19122217625E+04  0.19122217625E+04  0.25500000920E-02 0. -1.
       -2   -1    0    0    0  501  0.00000000000E+00  0.00000000000E+00 -0.63261894655E+03  0.63261894655E+03  0.25500000920E-02 0.  1.
    10030    2    1    2    0    0  0.00000000000E+00  0.00000000000E+00  0.12796028159E+04  0.25448407090E+04  0.21997342721E+04 0.  0.
        3    1    3    3  502    0  0.83013483221E+03 -0.29663723445E+03  0.14007034150E+04  0.16550188989E+04  0.10100000352E+00 0. -1.
       -3    1    3    3    0  502 -0.83013483221E+03  0.29663723445E+03 -0.12110059912E+03  0.88982181015E+03  0.10100000352E+00 0.  1.
</event>
<event>
 5   0  0.1137869E-06  0.2200551E+04  0.7818609E-02  0.8518199E-01
       -1   -1    0    0    0  501  0.00000000000E+00  0.00000000000E+00  0.63042149072E+03  0.63042149074E+03  0.50400001928E-02 0.  1.
        1   -1    0    0  501    0  0.00000000000E+00  0.00000000000E+00 -0.19203129616E+04  0.19203129616E+04  0.50400001928E-02 0. -1.
    10030    2    1    2    0    0  0.00000000000E+00  0.00000000000E+00 -0.12898914709E+04  0.25507344524E+04  0.22005513491E+04 0.  0.
        5    1    3    3  502    0  0.54218245734E+03  0.87973268225E+02  0.46011924544E+03  0.71654233858E+03  0.46999998093E+01 0.  1.
       -5    1    3    3    0  502 -0.54218245734E+03 -0.87973268225E+02 -0.17500107164E+04  0.18341921138E+04  0.46999998093E+01 0. -1.
</event>
<event>
 5   0  0.2532239E-06  0.2200146E+04  0.7818609E-02  0.8518367E-01
       -2   -1    0    0    0  501  0.00000000000E+00  0.00000000000E+00  0.58447599716E+03  0.58447599717E+03  0.25500000920E-02 0.  1.
        2   -1    0    0  501    0  0.00000000000E+00  0.00000000000E+00 -0.20705061215E+04  0.20705061215E+04  0.25500000920E-02 0. -1.
    10030    2    1    2    0    0  0.00000000000E+00  0.00000000000E+00 -0.14860301244E+04  0.26549821187E+04  0.22001464770E+04 0.  0.
        3    1    3    3  502    0  0.10329749095E+04 -0.28336530621E+03 -0.10454882112E+04  0.14967894543E+04  0.10100000352E+00 0. -1.
       -3    1    3    3    0  502 -0.10329749095E+04  0.28336530621E+03 -0.44054191318E+03  0.11581926644E+04  0.10100000352E+00 0.  1.
</event>
<event>
 5   0  0.2524749E-06  0.2199173E+04  0.7818609E-02  0.8518772E-01
        2   -1    0    0  501    0  0.00000000000E+00  0.00000000000E+00  0.18128501808E+04  0.18128501808E+04  0.25500000920E-02 0. -1.
       -2   -1    0    0    0  501  0.00000000000E+00  0.00000000000E+00 -0.66695569766E+03  0.66695569766E+03  0.25500000920E-02 0.  1.
    10030    2    1    2    0    0  0.00000000000E+00  0.00000000000E+00  0.11458944832E+04  0.24798058785E+04  0.21991732602E+04 0.  0.
        4    1    3    3  502    0  0.53588304718E+03 -0.86448912953E+03  0.10440892325E+04  0.14576131289E+04  0.12699999809E+01 0. -1.
       -4    1    3    3    0  502 -0.53588304718E+03  0.86448912953E+03  0.10180525071E+03  0.10221927496E+04  0.12699999809E+01 0.  1.
</event>
<event>
 5   0  0.2532239E-06  0.2198370E+04  0.7818609E-02  0.8519107E-01
       -2   -1    0    0    0  501  0.00000000000E+00  0.00000000000E+00  0.60789729091E+03  0.60789729092E+03  0.25500000920E-02 0. -1.
        2   -1    0    0  501    0  0.00000000000E+00  0.00000000000E+00 -0.19875194010E+04  0.19875194010E+04  0.25500000920E-02 0.  1.
    10030    2    1    2    0    0  0.00000000000E+00  0.00000000000E+00 -0.13796221101E+04  0.25954166919E+04  0.21983699957E+04 0.  0.
        3    1    3    3  502    0  0.10266620761E+04 -0.38781708782E+03 -0.76230603220E+03  0.13362438434E+04  0.10100000352E+00 0.  1.
       -3    1    3    3    0  502 -0.10266620761E+04  0.38781708782E+03 -0.61731607787E+03  0.12591728485E+04  0.10100000352E+00 0. -1.
</event>
<event>
 5   0  0.2581058E-06  0.2201028E+04  0.7818609E-02  0.8518000E-01
       -2   -1    0    0    0  501  0.00000000000E+00  0.00000000000E+00  0.92793283669E+03  0.92793283669E+03  0.25500000920E-02 0.  1.
        2   -1    0    0  501    0  0.00000000000E+00  0.00000000000E+00 -0.13051929046E+04  0.13051929046E+04  0.25500000920E-02 0. -1.
    10030    2    1    2    0    0  0.00000000000E+00  0.00000000000E+00 -0.37726006788E+03  0.22331257413E+04  0.22010282637E+04 0.  0.
        1    1    3    3  502    0 -0.92723304290E+03 -0.32878457187E+03  0.31178768428E+03  0.10320232413E+04  0.50400001928E-02 0. -1.
       -1    1    3    3    0  502  0.92723304290E+03  0.32878457187E+03 -0.68904775217E+03  0.12011024999E+04  0.50400001928E-02 0.  1.
</event>
<event>
 5   0  0.1082209E-06  0.2200650E+04  0.7818609E-02  0.8518158E-01
        1   -1    0    0  501    0  0.00000000000E+00  0.00000000000E+00  0.22964330555E+04  0.22964330555E+04  0.50400001928E-02 0. -1.
       -1   -1    0    0    0  501  0.00000000000E+00  0.00000000000E+00 -0.52721542822E+03  0.52721542825E+03  0.50400001928E-02 0.  1.
    10030    2    1    2    0    0  0.00000000000E+00  0.00000000000E+00  0.17692176273E+04  0.28236484837E+04  0.22006498465E+04 0.  0.
        2    1    3    3  502    0 -0.44670412383E+03 -0.61467172819E+03 -0.13652166477E+03  0.77201300030E+03  0.25500000920E-02 0.  1.
       -2    1    3    3    0  502  0.44670412383E+03  0.61467172819E+03  0.19057392920E+04  0.20516354834E+04  0.25500000920E-02 0. -1.
</event>
<event>
 5   0  0.1146827E-06  0.2197980E+04  0.7818609E-02  0.8519269E-01
        1   -1    0    0  501    0  0.00000000000E+00  0.00000000000E+00  0.17957990961E+04  0.17957990961E+04  0.50400001928E-02 0.  1.
       -1   -1    0    0    0  501  0.00000000000E+00  0.00000000000E+00 -0.67255789119E+03  0.67255789121E+03  0.50400001928E-02 0. -1.
    10030    2    1    2    0    0  0.00000000000E+00  0.00000000000E+00  0.11232412049E+04  0.24683569873E+04  0.21979798480E+04 0.  0.
        4    1    3    3  502    0 -0.60639267527E+03  0.69942064984E+03 -0.10359288278E+03  0.93146895832E+03  0.12699999809E+01 0. -1.
       -4    1    3    3    0  502  0.60639267527E+03 -0.69942064984E+03  0.12268340877E+04  0.15368880290E+04  0.12699999809E+01 0.  1.
</event>
<event>
 5   0  0.2556869E-06  0.2200611E+04  0.7818609E-02  0.8518174E-01
       -2   -1    0    0    0  501  0.00000000000E+00  0.00000000000E+00  0.12901845221E+04  0.12901845221E+04  0.25500000920E-02 0. -1.
        2   -1    0    0  501    0  0.00000000000E+00  0.00000000000E+00 -0.93837123470E+03  0.93837123471E+03  0.25500000920E-02 0.  1.
    10030    2    1    2    0    0  0.00000000000E+00  0.00000000000E+00  0.35181328736E+03  0.22285557568E+04  0.22006108633E+04 0.  0.
        5    1    3    3  502    0 -0.70761607018E+02  0.39521955463E+03  0.12133393565E+04  0.12780532796E+04  0.46999998093E+01 0. -1.
       -5    1    3    3    0  502  0.70761607018E+02 -0.39521955463E+03 -0.86152606913E+03  0.95050247721E+03  0.46999998093E+01 0.  1.
</event>
<event>
 5   0  0.1107101E-06  0.2200341E+04  0.7818609E-02  0.8518286E-01
        1   -1    0    0  501    0  0.00000000000E+00  0.00000000000E+00  0.10201284754E+04  0.10201284754E+04  0.50400001928E-02 0. -1.
       -1   -1    0    0    0  501  0.00000000000E+00  0.00000000000E+00 -0.11864926771E+04  0.11864926771E+04  0.50400001928E-02 0.  1.
    10030    2    1    2    0    0  0.00000000000E+00  0.00000000000E+00 -0.16636420164E+03  0.22066211525E+04  0.22003408516E+04 0.  0.
        1    1    3    3  502    0  0.13828187996E+03 -0.77374130735E+01 -0.11777152556E+04  0.11858309193E+04  0.50400001928E-02 0.  1.
       -1    1    3    3    0  502 -0.13828187996E+03  0.77374130735E+01  0.10113510539E+04  0.10207902332E+04  0.50400001928E-02 0. -1.
</event>
<event>
 5   0  0.1146827E-06  0.2200482E+04  0.7818609E-02  0.8518227E-01
       -1   -1    0    0    0  501  0.00000000000E+00  0.00000000000E+00  0.87894577921E+03  0.87894577923E+03  0.50400001928E-02 0.  1.
        1   -1    0    0  501    0  0.00000000000E+00  0.00000000000E+00 -0.13772526672E+04  0.13772526672E+04  0.50400001928E-02 0. -1.
    10030    2    1    2    0    0  0.00000000000E+00  0.00000000000E+00 -0.49830688803E+03  0.22561984465E+04  0.22004821461E+04 0.  0.
        4    1    3    3  502    0  0.10852067717E+04 -0.33088491080E+00 -0.63304579477E+02  0.10870524042E+04  0.12699999809E+01 0.  1.
       -4    1    3    3    0  502 -0.10852067717E+04  0.33088491080E+00 -0.43500230855E+03  0.11691460423E+04  0.12699999809E+01 0. -1.
</event>
<event>
 5   0  0.1137869E-06  0.2200364E+04  0.7818609E-02  0.8518277E-01
       -1   -1    0    0    0  501  0.00000000000E+00  0.00000000000E+00  0.52511551935E+03  0.52511551938E+03  0.50400001928E-02 0.  1.
        1   -1    0    0  501    0  0.00000000000E+00  0.00000000000E+00 -0.23050166104E+04  0.23050166105E+04  0.50400001928E-02 0. -1.
    10030    2    1    2    0    0  0.00000000000E+00  0.00000000000E+00 -0.17799010911E+04  0.28301321298E+04  0.22003636014E+04 0.  0.
        5    1    3    3  502    0  0.42459350144E+03  0.99998170497E+03 -0.11132289896E+04  0.15554883236E+04  0.46999998093E+01 0.  1.
       -5    1    3    3    0  502 -0.42459350144E+03 -0.99998170497E+03 -0.66667210151E+03  0.12746438062E+04  0.46999998093E+01 0. -1.
</event>
<event>
 5   0  0.2524749E-06  0.2199611E+04  0.7818609E-02  0.8518590E-01
        2   -1    0    0  501    0  0.00000000000E+00  0.00000000000E+00  0.11374423506E+04  0.11374423506E+04  0.25500000920E-02 0.  1.
       -2   -1    0    0    0  501  0.00000000000E+00  0.00000000000E+00 -0.10634143946E+04  0.10634143946E+04  0.25500000920E-02 0. -1.
    10030    2    1    2    0    0  0.00000000000E+00  0.00000000000E+00  0.74027955989E+02  0.22008567451E+04  0.21996113917E+04 0.  0.
        4    1    3    3  502    0 -0.76888413191E+03  0.67506744269E+03 -0.36654066193E+03  0.10868544200E+04  0.12699999809E+01 0.  1.
       -4    1    3    3    0  502  0.76888413191E+03 -0.67506744269E+03  0.44056861792E+03  0.11140023252E+04  0.12699999809E+01 0. -1.
</event>
<event>
 5   0  0.1107101E-06  0.2199840E+04  0.7818609E-02  0.8518495E-01
       -1   -1    0    0    0  501  0.00000000000E+00  0.00000000000E+00  0.13654789438E+04  0.13654789438E+04  0.50400001928E-02 0. -1.
        1   -1    0    0  501    0  0.00000000000E+00  0.00000000000E+00 -0.88600668097E+03  0.88600668099E+03  0.50400001928E-02 0.  1.
    10030    2    1    2    0    0  0.00000000000E+00  0.00000000000E+00  0.47947226282E+03  0.22514856248E+04  0.21998395096E+04 0.  0.
        1    1    3    3  502    0  0.40050617976E+03  0.71473455204E+03 -0.51136840237E+03  0.96578896394E+03  0.50400001928E-02 0.  1.
       -1    1    3    3    0  502 -0.40050617976E+03 -0.71473455204E+03  0.99084066519E+03  0.12856966608E+04  0.50400001928E-02 0. -1.
</event>
<event>
 5   0  0.2606154E-06  0.2199357E+04  0.7818609E-02  0.8518696E-01
       -2   -1    0    0    0  501  0.00000000000E+00  0.00000000000E+00  0.23067367899E+04  0.23067367899E+04  0.25500000920E-02 0.  1.
        2   -1    0    0  501    0  0.00000000000E+00  0.00000000000E+00 -0.52424409450E+03  0.52424409451E+03  0.25500000920E-02 0. -1.
    10030    2    1    2    0    0  0.00000000000E+00  0.00000000000E+00  0.17824926954E+04  0.28309808844E+04  0.21993573059E+04 0.  0.
        2    1    3    3  502    0 -0.30173956188E+03  0.95057184621E+02 -0.46440538747E+03  0.56192080889E+03  0.25500000920E-02 0. -1.
       -2    1    3    3    0  502  0.30173956188E+03 -0.95057184621E+02  0.22468980829E+04  0.22690600756E+04  0.25500000920E-02 0.  1.
</event>
<event>
 5   0  0.2556869E-06  0.2199445E+04  0.7818609E-02  0.8518659E-01
        2   -1    0    0  501    0  0.00000000000E+00  0.00000000000E+00  0.11220822100E+04  0.11220822100E+04  0.25500000920E-02 0.  1.
       -2   -1    0    0    0  501  0.00000000000E+00  0.00000000000E+00 -0.10778079938E+04  0.10778079938E+04  0.25500000920E-02 0. -1.
    10030    2    1    2    0    0  0.00000000000E+00  0.00000000000E+00  0.44274216166E+02  0.21998902038E+04  0.21994446350E+04 0.  0.
        5    1    3    3  502    0  0.10624537950E+04  0.18192918878E+03  0.24003621469E+03  0.11043304626E+04  0.46999998093E+01 0.  1.
       -5    1    3    3    0  502 -0.10624537950E+04 -0.18192918878E+03 -0.19576199852E+03  0.10955597411E+04  0.46999998093E+01 0. -1.
</event>
<event>
 5   0  0.1144271E-06  0.2198998E+04  0.7818609E-02  0.8518845E-01
       -1   -1    0    0    0  501  0.00000000000E+00  0.00000000000E+00  0.93059467219E+03  0.93059467220E+03  0.50400001928E-02 0. -1.
        1   -1    0    0  501    0  0.00000000000E+00  0.00000000000E+00 -0.12990602782E+04  0.12990602782E+04  0.50400001928E-02 0.  1.
    10030    2    1    2    0    0  0.00000000000E+00  0.00000000000E+00 -0.36846560599E+03  0.22296549504E+04  0.21989984754E+04 0.  0.
        3    1    3    3  502    0  0.95245388284E+03  0.41737706630E+03  0.17785428217E+03  0.10549901281E+04  0.10100000352E+00 0.  1.
       -3    1    3    3    0  502 -0.95245388284E+03 -0.41737706630E+03 -0.54631988816E+03  0.11746648223E+04  0.10100000352E+00 0. -1.
</event>
<event>
 5   0  0.1137869E-06  0.2203975E+04  0.7818609E-02  0.8516775E-01
       -1   -1    0    0    0  501  0.00000000000E+00  0.00000000000E+00  0.52623998755E+03  0.52623998757E+03  0.50400001928E-02 0.  1.
        1   -1    0    0  501    0  0.00000000000E+00  0.00000000000E+00 -0.23076480092E+04  0.23076480092E+04  0.50400001928E-02 0. -1.
    10030    2    1    2    0    0  0.00000000000E+00  0.00000000000E+00 -0.17814080216E+04  0.28338879967E+04  0.22039751901E+04 0.  0.
        5    1    3    3  502    0  0.10204623929E+04 -0.39368817727E+03 -0.71809568944E+03  0.13084408223E+04  0.46999998093E+01 0. -1.
       -5    1    3    3    0  502 -0.10204623929E+04  0.39368817727E+03 -0.10633123322E+04  0.15254471744E+04  0.46999998093E+01 0.  1.
</event>
<event>
 5   0  0.2606154E-06  0.2200596E+04  0.7818609E-02  0.8518180E-01
       -2   -1    0    0    0  501  0.00000000000E+00  0.00000000000E+00  0.12106455547E+04  0.12106455547E+04  0.25500000920E-02 0. -1.
        2   -1    0    0  501    0  0.00000000000E+00  0.00000000000E+00 -0.10000085627E+04  0.10000085627E+04  0.25500000920E-02 0.  1.
    10030    2    1    2    0    0  0.00000000000E+00  0.00000000000E+00  0.21063699198E+03  0.22106541175E+04  0.22005962112E+04 0.  0.
        2    1    3    3  502    0  0.43423954125E+03 -0.10146355123E+03 -0.90516017175E+03  0.10090459692E+04  0.25500000920E-02 0.  1.
       -2    1    3    3    0  502 -0.43423954125E+03  0.10146355123E+03  0.11157971637E+04  0.12016081483E+04  0.25500000920E-02 0. -1.
</event>
<event>
 5   0  0.1146827E-06  0.2202330E+04  0.7818609E-02  0.8517459E-01
       -1   -1    0    0    0  501  0.00000000000E+00  0.00000000000E+00  0.13492064288E+04  0.13492064288E+04  0.50400001928E-02 0. -1.
        1   -1    0    0  501    0  0.00000000000E+00  0.00000000000E+00 -0.89872444337E+03  0.89872444338E+03  0.50400001928E-02 0.  1.
    10030    2    1    2    0    0  0.00000000000E+00  0.00000000000E+00  0.45048198541E+03  0.22479308722E+04  0.22023303991E+04 0.  0.
        4    1    3    3  502    0 -0.89946883090E+03 -0.53283841013E+03  0.57823727017E+03  0.11947053622E+04  0.12699999809E+01 0. -1.
       -4    1    3    3    0  502  0.89946883090E+03  0.53283841013E+03 -0.12775528476E+03  0.10532255099E+04  0.12699999809E+01 0.  1.
</event>
<event>
 5   0  0.2532239E-06  0.2199394E+04  0.7818609E-02  0.8518680E-01
        2   -1    0    0  501    0  0.00000000000E+00  0.00000000000E+00  0.12575109523E+04  0.12575109523E+04  0.25500000920E-02 0.  1.
       -2   -1    0    0    0  501  0.00000000000E+00  0.00000000000E+00 -0.96168866911E+03  0.96168866911E+03  0.25500000920E-02 0. -1.
    10030    2    1    2    0    0  0.00000000000E+00  0.00000000000E+00  0.29582228316E+03  0.22191996214E+04  0.21993944931E+04 0.  0.
        3    1    3    3  502    0  0.82245797423E+03 -0.66278433226E+03  0.45663006504E+03  0.11507524569E+04  0.10100000352E+00 0. -1.
       -3    1    3    3    0  502 -0.82245797423E+03  0.66278433226E+03 -0.16080778188E+03  0.10684471645E+04  0.10100000352E+00 0.  1.
</event>
<event>
 5   0  0.2556869E-06  0.2201341E+04  0.7818609E-02  0.8517870E-01
       -2   -1    0    0    0  501  0.00000000000E+00  0.00000000000E+00  0.66266935515E+03  0.66266935516E+03  0.25500000920E-02 0.  1.
        2   -1    0    0  501    0  0.00000000000E+00  0.00000000000E+00 -0.18281756692E+04  0.18281756692E+04  0.25500000920E-02 0. -1.
    10030    2    1    2    0    0  0.00000000000E+00  0.00000000000E+00 -0.11655063141E+04  0.24908450244E+04  0.22013414018E+04 0.  0.
        5    1    3    3  502    0  0.87749104236E+03 -0.52827112473E+03 -0.12677614707E+03  0.10320635601E+04  0.46999998093E+01 0. -1.
       -5    1    3    3    0  502 -0.87749104236E+03  0.52827112473E+03 -0.10387301670E+04  0.14587814642E+04  0.46999998093E+01 0.  1.
</event>
<event>
 5   0  0.2581058E-06  0.2200876E+04  0.7818609E-02  0.8518064E-01
        2   -1    0    0  501    0  0.00000000000E+00  0.00000000000E+00  0.12265131178E+04  0.12265131178E+04  0.25500000920E-02 0. -1.
       -2   -1    0    0    0  501  0.00000000000E+00  0.00000000000E+00 -0.98732230124E+03  0.98732230124E+03  0.25500000920E-02 0.  1.
    10030    2    1    2    0    0  0.00000000000E+00  0.00000000000E+00  0.23919081660E+03  0.22138354191E+04  0.22008759656E+04 0.  0.
        1    1    3    3  502    0  0.85614768305E+03  0.46311293000E+03  0.63594181055E+03  0.11627056496E+04  0.50400001928E-02 0. -1.
       -1    1    3    3    0  502 -0.85614768305E+03 -0.46311293000E+03 -0.39675099394E+03  0.10511297695E+04  0.50400001928E-02 0.  1.
</event>
<event>
 5   0  0.1146827E-06  0.2200201E+04  0.7818609E-02  0.8518344E-01
       -1   -1    0    0    0  501  0.00000000000E+00  0.00000000000E+00  0.98227292744E+03  0.98227292745E+03  0.50400001928E-02 0.  1.
        1   -1    0    0  501    0  0.00000000000E+00  0.00000000000E+00 -0.12320621528E+04  0.12320621529E+04  0.50400001928E-02 0. -1.
    10030    2    1    2    0    0  0.00000000000E+00  0.00000000000E+00 -0.24978922541E+03  0.22143350803E+04  0.22002011705E+04 0.  0.
        4    1    3    3  502    0  0.21096173582E+03  0.93545564675E+03  0.41767669194E+03  0.10459625007E+04  0.12699999809E+01 0.  1.
       -4    1    3    3    0  502 -0.21096173582E+03 -0.93545564675E+03 -0.66746591735E+03  0.11683725796E+04  0.12699999809E+01 0. -1.
</event>
<event>
 5   0  0.2581058E-06  0.2199414E+04  0.7818609E-02  0.8518672E-01
       -2   -1    0    0    0  501  0.00000000000E+00  0.00000000000E+00  0.81826923396E+03  0.81826923397E+03  0.25500000920E-02 0. -1.
        2   -1    0    0  501    0  0.00000000000E+00  0.00000000000E+00 -0.14779437867E+04  0.14779437867E+04  0.25500000920E-02 0.  1.
    10030    2    1    2    0    0  0.00000000000E+00  0.00000000000E+00 -0.65967455272E+03  0.22962130207E+04  0.21994144040E+04 0.  0.
        1    1    3    3  502    0 -0.26768821526E+03 -0.49443529824E+03  0.65686791598E+03  0.86463790329E+03  0.50400001928E-02 0. -1.
       -1    1    3    3    0  502  0.26768821526E+03  0.49443529824E+03 -0.13165424687E+04  0.14315751174E+04  0.50400001928E-02 0.  1.
</event>
<event>
 5   0  0.1107101E-06  0.2200627E+04  0.7818609E-02  0.8518167E-01
       -1   -1    0    0    0  501  0.00000000000E+00  0.00000000000E+00  0.72784930116E+03  0.72784930117E+03  0.50400001928E-02 0.  1.
        1   -1    0    0  501    0  0.00000000000E+00  0.00000000000E+00 -0.16633793307E+04  0.16633793307E+04  0.50400001928E-02 0. -1.
    10030    2    1    2    0    0  0.00000000000E+00  0.00000000000E+00 -0.93553002952E+03  0.23912286319E+04  0.22006267138E+04 0.  0.
        1    1    3    3  502    0 -0.39232679120E+03 -0.86013356327E+03  0.14396931720E+03  0.95628302405E+03  0.50400001928E-02 0.  1.
       -1    1    3    3    0  502  0.39232679120E+03  0.86013356327E+03 -0.10794993467E+04  0.14349456078E+04  0.50400001928E-02 0. -1.
</event>
<event>
 5   0  0.2524749E-06  0.2199926E+04  0.7818609E-02  0.8518459E-01
       -2   -1    0    0    0  501  0.00000000000E+00  0.00000000000E+00  0.79453284377E+03  0.79453284377E+03  0.25500000920E-02 0. -1.
        2   -1    0    0  501    0  0.00000000000E+00  0.00000000000E+00 -0.15228054450E+04  0.15228054450E+04  0.25500000920E-02 0.  1.
    10030    2    1    2    0    0  0.00000000000E+00  0.00000000000E+00 -0.72827260121E+03  0.23173382888E+04  0.21999263085E+04 0.  0.
        4    1    3    3  502    0  0.20886343640E+03 -0.10059468548E+04 -0.77799754902E+03  0.12887338006E+04  0.12699999809E+01 0.  1.
       -4    1    3    3    0  502 -0.20886343640E+03  0.10059468548E+04  0.49724947803E+02  0.10286044881E+04  0.12699999809E+01 0. -1.
</event>
<event>
 5   0  0.1107101E-06  0.2201470E+04  0.7818609E-02  0.8517817E-01
       -1   -1    0    0    0  501  0.00000000000E+00  0.00000000000E+00  0.82413509178E+03  0.82413509179E+03  0.50400001928E-02 0.  1.
        1   -1    0    0  501    0  0.00000000000E+00  0.00000000000E+00 -0.14701686176E+04  0.14701686176E+04  0.50400001928E-02 0. -1.
    10030    2    1    2    0    0  0.00000000000E+00  0.00000000000E+00 -0.64603352584E+03  0.22943037094E+04  0.22014700076E+04 0.  0.
        1    1    3    3  502    0 -0.87954468628E+03  0.50315407069E+03  0.12506096029E+03  0.10209814483E+04  0.50400001928E-02 0.  1.
       -1    1    3    3    0  502  0.87954468628E+03 -0.50315407069E+03 -0.77109448613E+03  0.12733222611E+04  0.50400001928E-02 0. -1.
</event>
<event>
 5   0  0.2556869E-06  0.2201921E+04  0.7818609E-02  0.8517629E-01
        2   -1    0    0  501    0  0.00000000000E+00  0.00000000000E+00  0.12913396500E+04  0.12913396500E+04  0.25500000920E-02 0. -1.
       -2   -1    0    0    0  501  0.00000000000E+00  0.00000000000E+00 -0.93864833414E+03  0.93864833414E+03  0.25500000920E-02 0.  1.
    10030    2    1    2    0    0  0.00000000000E+00  0.00000000000E+00  0.35269131582E+03  0.22299879841E+04  0.22019208081E+04 0.  0.
        5    1    3    3  502    0 -0.29799353784E+03 -0.84441967061E+03 -0.47232392008E+03  0.10124014541E+04  0.46999998093E+01 0.  1.
       -5    1    3    3    0  502  0.29799353784E+03  0.84441967061E+03  0.82501523590E+03  0.12175865301E+04  0.46999998093E+01 0. -1.
</event>
<event>
 5   0  0.2556869E-06  0.2199320E+04  0.7818609E-02  0.8518711E-01
        2   -1    0    0  501    0  0.00000000000E+00  0.00000000000E+00  0.15758482003E+04  0.15758482003E+04  0.25500000920E-02 0. -1.
       -2   -1    0    0    0  501  0.00000000000E+00  0.00000000000E+00 -0.76736609493E+03  0.76736609494E+03  0.25500000920E-02 0.  1.
    10030    2    1    2    0    0  0.00000000000E+00  0.00000000000E+00  0.80848210535E+03  0.23432142952E+04  0.21993203311E+04 0.  0.
        5    1    3    3  502    0 -0.84335535333E+03  0.42227292111E+03  0.10066243334E+04  0.13794481906E+04  0.46999998093E+01 0. -1.
       -5    1    3    3    0  502  0.84335535333E+03 -0.42227292111E+03 -0.19814222807E+03  0.96376610463E+03  0.46999998093E+01 0.  1.
</event>
<event>
 5   0  0.2606154E-06  0.2199123E+04  0.7818609E-02  0.8518793E-01
       -2   -1    0    0    0  501  0.00000000000E+00  0.00000000000E+00  0.13467820459E+04  0.13467820459E+04  0.25500000920E-02 0.  1.
        2   -1    0    0  501    0  0.00000000000E+00  0.00000000000E+00 -0.89772143987E+03  0.89772143988E+03  0.25500000920E-02 0. -1.
    10030    2    1    2    0    0  0.00000000000E+00  0.00000000000E+00  0.44906060600E+03  0.22445034858E+04  0.21991226591E+04 0.  0.
        2    1    3    3  502    0  0.99578648484E+03  0.45451905858E+03  0.11818406341E+03  0.11009749184E+04  0.25500000920E-02 0. -1.
       -2    1    3    3    0  502 -0.99578648484E+03 -0.45451905858E+03  0.33087654259E+03  0.11435285674E+04  0.25500000920E-02 0.  1.
</event>
<event>
 5   0  0.2606154E-06  0.2200391E+04  0.7818609E-02  0.8518265E-01
       -2   -1    0    0    0  501  0.00000000000E+00  0.00000000000E+00  0.10189408503E+04  0.10189408503E+04  0.25500000920E-02 0.  1.
        2   -1    0    0  501    0  0.00000000000E+00  0.00000000000E+00 -0.11879300869E+04  0.11879300869E+04  0.25500000920E-02 0. -1.
    10030    2    1    2    0    0  0.00000000000E+00  0.00000000000E+00 -0.16898923655E+03  0.22068709372E+04  0.22003913223E+04 0.  0.
        2    1    3    3  502    0 -0.90442476034E+03 -0.11854327645E+03 -0.70144329797E+03  0.11506777810E+04  0.25500000920E-02 0. -1.
       -2    1    3    3    0  502  0.90442476034E+03  0.11854327645E+03  0.53245406142E+03  0.10561931561E+04  0.25500000920E-02 0.  1.
</event>
<event>
 5   0  0.2581058E-06  0.2200078E+04  0.7818609E-02  0.8518396E-01
        2   -1    0    0  501    0  0.00000000000E+00  0.00000000000E+00  0.21392257796E+04  0.21392257796E+04  0.25500000920E-02 0. -1.
       -2   -1    0    0    0  501  0.00000000000E+00  0.00000000000E+00 -0.56566527926E+03  0.56566527926E+03  0.25500000920E-02 0.  1.
    10030    2    1    2    0    0  0.00000000000E+00  0.00000000000E+00  0.15735605003E+04  0.27048910588E+04  0.22000779513E+04 0.  0.
        1    1    3    3  502    0  0.36596022943E+03 -0.16484004535E+03  0.20459859579E+04  0.20849838536E+04  0.50400001928E-02 0. -1.
       -1    1    3    3    0  502 -0.36596022943E+03  0.16484004535E+03 -0.47242545756E+03  0.61990720520E+03  0.50400001928E-02 0.  1.
</event>
<event>
 5   0  0.1144271E-06  0.2198554E+04  0.7818609E-02  0.8519030E-01
       -1   -1    0    0    0  501  0.00000000000E+00  0.00000000000E+00  0.53665778362E+03  0.53665778364E+03  0.50400001928E-02 0.  1.
        1   -1    0    0  501    0  0.00000000000E+00  0.00000000000E+00 -0.22517326025E+04  0.22517326025E+04  0.50400001928E-02 0. -1.
    10030    2    1    2    0    0  0.00000000000E+00  0.00000000000E+00 -0.17150748188E+04  0.27883903861E+04  0.21985539136E+04 0.  0.
        3    1    3    3  502    0 -0.50191160069E+03 -0.87969724688E+03 -0.31553736074E+03  0.10608234242E+04  0.10100000352E+00 0.  1.
       -3    1    3    3    0  502  0.50191160069E+03  0.87969724688E+03 -0.13995374581E+04  0.17275669619E+04  0.10100000352E+00 0. -1.
</event>
<event>
 5   0  0.1144271E-06  0.2200420E+04  0.7818609E-02  0.8518253E-01
       -1   -1    0    0    0  501  0.00000000000E+00  0.00000000000E+00  0.93786273397E+03  0.93786273398E+03  0.50400001928E-02 0. -1.
        1   -1    0    0  501    0  0.00000000000E+00  0.00000000000E+00 -0.12906605986E+04  0.12906605986E+04  0.50400001928E-02 0.  1.
    10030    2    1    2    0    0  0.00000000000E+00  0.00000000000E+00 -0.35279786460E+03  0.22285233326E+04  0.22004203940E+04 0.  0.
        3    1    3    3  502    0  0.39607439214E+03 -0.10179709788E+04 -0.43102528013E+02  0.10931594924E+04  0.10100000352E+00 0.  1.
       -3    1    3    3    0  502 -0.39607439214E+03  0.10179709788E+04 -0.30969533659E+03  0.11353638401E+04  0.10100000352E+00 0. -1.
</event>
<event>
 5   0  0.8905000E-07  0.2199910E+04  0.7818609E-02  0.8518466E-01
       -3   -1    0    0    0  501  0.00000000000E+00  0.00000000000E+00  0.12900309987E+04  0.12900310027E+04  0.10100000352E+00 0. -1.
        3   -1    0    0  501    0  0.00000000000E+00  0.00000000000E+00 -0.93788530736E+03  0.93788531280E+03  0.10100000352E+00 0.  1.
    10030    2    1    2    0    0  0.00000000000E+00  0.00000000000E+00  0.35214569136E+03  0.22279163155E+04  0.21999101165E+04 0.  0.
        5    1    3    3  502    0 -0.10877632188E+04 -0.15701989562E+03  0.22130657385E+03  0.11211078260E+04  0.46999998093E+01 0. -1.
       -5    1    3    3    0  502  0.10877632188E+04  0.15701989562E+03  0.13083911751E+03  0.11068084895E+04  0.46999998093E+01 0.  1.
</event>
<event>
 5   0  0.2532239E-06  0.2199862E+04  0.7818609E-02  0.8518486E-01
        2   -1    0    0  501    0  0.00000000000E+00  0.00000000000E+00  0.16556722283E+04  0.16556722283E+04  0.25500000920E-02 0. -1.
       -2   -1    0    0    0  501  0.00000000000E+00  0.00000000000E+00 -0.73072931407E+03  0.73072931408E+03  0.25500000920E-02 0.  1.
    10030    2    1    2    0    0  0.00000000000E+00  0.00000000000E+00  0.92494291423E+03  0.23864015424E+04  0.21998620245E+04 0.  0.
        3    1    3    3  502    0 -0.39123945468E+03 -0.95815172514E+03  0.86651272975E+03  0.13498027116E+04  0.10100000352E+00 0.  1.
       -3    1    3    3    0  502  0.39123945468E+03  0.95815172514E+03  0.58430184483E+02  0.10365988308E+04  0.10100000352E+00 0. -1.
</event>
<event>
 5   0  0.1107101E-06  0.2200041E+04  0.7818609E-02  0.8518411E-01
       -1   -1    0    0    0  501  0.00000000000E+00  0.00000000000E+00  0.10505447241E+04  0.10505447241E+04  0.50400001928E-02 0. -1.
        1   -1    0    0  501    0  0.00000000000E+00  0.00000000000E+00 -0.11518259784E+04  0.11518259784E+04  0.50400001928E-02 0.  1.
    10030    2    1    2    0    0  0.00000000000E+00  0.00000000000E+00 -0.10128125428E+03  0.22023707026E+04  0.22000406403E+04 0.  0.
        1    1    3    3  502    0  0.74583659193E+03  0.55349332636E+03  0.53940505754E+03  0.10740506973E+04  0.50400001928E-02 0. -1.
       -1    1    3    3    0  502 -0.74583659193E+03 -0.55349332636E+03 -0.64068631182E+03  0.11283200053E+04  0.50400001928E-02 0.  1.
</event>
<event>
 5   0  0.2606154E-06  0.2199072E+04  0.7818609E-02  0.8518814E-01
        2   -1    0    0  501    0  0.00000000000E+00  0.00000000000E+00  0.16915851281E+04  0.16915851281E+04  0.25500000920E-02 0.  1.
       -2   -1    0    0    0  501  0.00000000000E+00  0.00000000000E+00 -0.71470223146E+03  0.71470223146E+03  0.25500000920E-02 0. -1.
    10030    2    1    2    0    0  0.00000000000E+00  0.00000000000E+00  0.97688289667E+03  0.24062873596E+04  0.21990722278E+04 0.  0.
        2    1    3    3  502    0 -0.89447572758E+03  0.19834624291E+03  0.11536311901E+04  0.14731914275E+04  0.25500000920E-02 0.  1.
       -2    1    3    3    0  502  0.89447572758E+03 -0.19834624291E+03 -0.17674829339E+03  0.93309593211E+03  0.25500000920E-02 0. -1.
</event>
<event>
 5   0  0.1146827E-06  0.2199149E+04  0.7818609E-02  0.8518782E-01
       -1   -1    0    0    0  501  0.00000000000E+00  0.00000000000E+00  0.93574173928E+03  0.93574173929E+03  0.50400001928E-02 0. -1.
        1   -1    0    0  501    0  0.00000000000E+00  0.00000000000E+00 -0.12920920450E+04  0.12920920450E+04  0.50400001928E-02 0.  1.
    10030    2    1    2    0    0  0.00000000000E+00  0.00000000000E+00 -0.35635030575E+03  0.22278337843E+04  0.21991493424E+04 0.  0.
        4    1    3    3  502    0  0.36936677869E+03 -0.60090546041E+03 -0.10327081510E+04  0.12506026258E+04  0.12699999809E+01 0.  1.
       -4    1    3    3    0  502 -0.36936677869E+03  0.60090546041E+03  0.67635784524E+03  0.97723115857E+03  0.12699999809E+01 0. -1.
</event>
<event>
 5   0  0.1107101E-06  0.2200715E+04  0.7818609E-02  0.8518131E-01
       -1   -1    0    0    0  501  0.00000000000E+00  0.00000000000E+00  0.12470622900E+04  0.12470622900E+04  0.50400001928E-02 0.  1.
        1   -1    0    0  501    0  0.00000000000E+00  0.00000000000E+00 -0.97091077901E+03  0.97091077903E+03  0.50400001928E-02 0. -1.
    10030    2    1    2    0    0  0.00000000000E+00  0.00000000000E+00  0.27615151102E+03  0.22179730691E+04  0.22007146289E+04 0.  0.
        1    1    3    3  502    0 -0.10599133142E+04 -0.18624619278E+03 -0.93250577200E+02  0.10801849602E+04  0.50400001928E-02 0. -1.
       -1    1    3    3    0  502  0.10599133142E+04  0.18624619278E+03  0.36940208821E+03  0.11377881089E+04  0.50400001928E-02 0.  1.
</event>
<event>
 5   0  0.1082209E-06  0.2199662E+04  0.7818609E-02  0.8518569E-01
        1   -1    0    0  501    0  0.00000000000E+00  0.00000000000E+00  0.17893297701E+04  0.17893297701E+04  0.50400001928E-02 0.  1.
       -1   -1    0    0    0  501  0.00000000000E+00  0.00000000000E+00 -0.67602312176E+03  0.67602312178E+03  0.50400001928E-02 0. -1.
    10030    2    1    2    0    0  0.00000000000E+00  0.00000000000E+00  0.11133066483E+04  0.24653528918E+04  0.21996620623E+04 0.  0.
        2    1    3    3  502    0 -0.16113598161E+03 -0.63194937839E+03 -0.43592594057E+03  0.78444645903E+03  0.25500000920E-02 0. -1.
       -2    1    3    3    0  502  0.16113598161E+03  0.63194937839E+03  0.15492325889E+04  0.16809064328E+04  0.25500000920E-02 0.  1.
</event>
<event>
 5   0  0.1144271E-06  0.2199845E+04  0.7818609E-02  0.8518493E-01
        1   -1    0    0  501    0  0.00000000000E+00  0.00000000000E+00  0.14952922036E+04  0.14952922036E+04  0.50400001928E-02 0. -1.
       -1   -1    0    0    0  501  0.00000000000E+00  0.00000000000E+00 -0.80909243973E+03  0.80909243974E+03  0.50400001928E-02 0.  1.
    10030    2    1    2    0    0  0.00000000000E+00  0.00000000000E+00  0.68619976389E+03  0.23043846434E+04  0.21998451011E+04 0.  0.
        3    1    3    3  502    0  0.60821684325E+03  0.86137682996E+03  0.15287904517E+02  0.10545764561E+04  0.10100000352E+00 0.  1.
       -3    1    3    3    0  502 -0.60821684325E+03 -0.86137682996E+03  0.67091185937E+03  0.12498081872E+04  0.10100000352E+00 0. -1.
</event>
<event>
 5   0  0.2524749E-06  0.2200712E+04  0.7818609E-02  0.8518132E-01
        2   -1    0    0  501    0  0.00000000000E+00  0.00000000000E+00  0.22689300311E+04  0.22689300311E+04  0.25500000920E-02 0. -1.
       -2   -1    0    0    0  501  0.00000000000E+00  0.00000000000E+00 -0.53363611282E+03  0.53363611283E+03  0.25500000920E-02 0.  1.
    10030    2    1    2    0    0  0.00000000000E+00  0.00000000000E+00  0.17352939182E+04  0.28025661439E+04  0.22007117049E+04 0.  0.
        4    1    3    3  502    0  0.16476299226E+03  0.27634845859E+03  0.22076898988E+04  0.22310113438E+04  0.12699999809E+01 0. -1.
       -4    1    3    3    0  502 -0.16476299226E+03 -0.27634845859E+03 -0.47239598053E+03  0.57155480009E+03  0.12699999809E+01 0.  1.
</event>
<event>
 5   0  0.2524749E-06  0.2200737E+04  0.7818609E-02  0.8518122E-01
       -2   -1    0    0    0  501  0.00000000000E+00  0.00000000000E+00  0.11093912797E+04  0.11093912797E+04  0.25500000920E-02 0.  1.
        2   -1    0    0  501    0  0.00000000000E+00  0.00000000000E+00 -0.10914187655E+04  0.10914187655E+04  0.25500000920E-02 0. -1.
    10030    2    1    2    0    0  0.00000000000E+00  0.00000000000E+00  0.17972514163E+02  0.22008100452E+04  0.22007366593E+04 0.  0.
        4    1    3    3  502    0 -0.96569586890E+03 -0.14032466700E+02 -0.51832955935E+03  0.10960987941E+04  0.12699999809E+01 0. -1.
       -4    1    3    3    0  502  0.96569586890E+03  0.14032466700E+02  0.53630207351E+03  0.11047112511E+04  0.12699999809E+01 0.  1.
</event>
<event>
 5   0  0.1082209E-06  0.2199325E+04  0.7818609E-02  0.8518709E-01
        1   -1    0    0  501    0  0.00000000000E+00  0.00000000000E+00  0.18338089666E+04  0.18338089666E+04  0.50400001928E-02 0.  1.
       -1   -1    0    0    0  501  0.00000000000E+00  0.00000000000E+00 -0.65942406774E+03  0.65942406776E+03  0.50400001928E-02 0. -1.
    10030    2    1    2    0    0  0.00000000000E+00  0.00000000000E+00  0.11743848989E+04  0.24932330344E+04  0.21993251404E+04 0.  0.
        2    1    3    3  502    0  0.83998400390E+03 -0.70859579364E+03  0.63220566864E+03  0.12678190459E+04  0.25500000920E-02 0. -1.
       -2    1    3    3    0  502 -0.83998400390E+03  0.70859579364E+03  0.54217923021E+03  0.12254139885E+04  0.25500000920E-02 0.  1.
</event>
<event>
 5   0  0.2524749E-06  0.2200698E+04  0.7818609E-02  0.8518137E-01
       -2   -1    0    0    0  501  0.00000000000E+00  0.00000000000E+00  0.11462465988E+04  0.11462465988E+04  0.25500000920E-02 0.  1.
        2   -1    0    0  501    0  0.00000000000E+00  0.00000000000E+00 -0.10562896892E+04  0.10562896892E+04  0.25500000920E-02 0. -1.
    10030    2    1    2    0    0  0.00000000000E+00  0.00000000000E+00  0.89956909624E+02  0.22025362880E+04  0.22006984924E+04 0.  0.
        4    1    3    3  502    0 -0.18365739044E+03  0.72706967769E+03  0.85088782539E+03  0.11341834321E+04  0.12699999809E+01 0.  1.
       -4    1    3    3    0  502  0.18365739044E+03 -0.72706967769E+03 -0.76093091577E+03  0.10683528559E+04  0.12699999809E+01 0. -1.
</event>
<event>
 5   0  0.2581058E-06  0.2200023E+04  0.7818609E-02  0.8518419E-01
       -2   -1    0    0    0  501  0.00000000000E+00  0.00000000000E+00  0.55158879173E+03  0.55158879174E+03  0.25500000920E-02 0.  1.
        2   -1    0    0  501    0  0.00000000000E+00  0.00000000000E+00 -0.21937085095E+04  0.21937085095E+04  0.25500000920E-02 0. -1.
    10030    2    1    2    0    0  0.00000000000E+00  0.00000000000E+00 -0.16421197178E+04  0.27452973012E+04  0.22000227509E+04 0.  0.
        1    1    3    3  502    0  0.43285381868E+03  0.52693564296E+03 -0.18981220062E+04  0.20169012744E+04  0.50400001928E-02 0. -1.
       -1    1    3    3    0  502 -0.43285381868E+03 -0.52693564296E+03  0.25600228846E+03  0.72839602682E+03  0.50400001928E-02 0.  1.
</event>
<event>
 5   0  0.2524749E-06  0.2189096E+04  0.7818609E-02  0.8522980E-01
       -2   -1    0    0    0  501  0.00000000000E+00  0.00000000000E+00  0.70341941615E+03  0.70341941616E+03  0.25500000920E-02 0.  1.
        2   -1    0    0  501    0  0.00000000000E+00  0.00000000000E+00 -0.17031592162E+04  0.17031592162E+04  0.25500000920E-02 0. -1.
    10030    2    1    2    0    0  0.00000000000E+00  0.00000000000E+00 -0.99973980009E+03  0.24065786324E+04  0.21890959426E+04 0.  0.
        4    1    3    3  502    0 -0.92872821760E+03 -0.57864869556E+03 -0.52818176706E+03  0.12150506191E+04  0.12699999809E+01 0.  1.
       -4    1    3    3    0  502  0.92872821760E+03  0.57864869556E+03 -0.47155803303E+03  0.11915280133E+04  0.12699999809E+01 0. -1.
</event>
<event>
 5   0  0.1144271E-06  0.2197680E+04  0.7818609E-02  0.8519394E-01
        1   -1    0    0  501    0  0.00000000000E+00  0.00000000000E+00  0.12376827424E+04  0.12376827424E+04  0.50400001928E-02 0. -1.
       -1   -1    0    0    0  501  0.00000000000E+00  0.00000000000E+00 -0.97557248876E+03  0.97557248878E+03  0.50400001928E-02 0.  1.
    10030    2    1    2    0    0  0.00000000000E+00  0.00000000000E+00  0.26211025362E+03  0.22132552312E+04  0.21976798978E+04 0.  0.
        3    1    3    3  502    0 -0.10591131825E+03 -0.10570643952E+04 -0.15173179513E+03  0.10731378713E+04  0.10100000352E+00 0.  1.
       -3    1    3    3    0  502  0.10591131825E+03  0.10570643952E+04  0.41384204875E+03  0.11401173599E+04  0.10100000352E+00 0. -1.
</event>
<event>
 5   0  0.2556869E-06  0.2199364E+04  0.7818609E-02  0.8518693E-01
       -2   -1    0    0    0  501  0.00000000000E+00  0.00000000000E+00  0.47020554958E+03  0.47020554959E+03  0.25500000920E-02 0. -1.
        2   -1    0    0  501    0  0.00000000000E+00  0.00000000000E+00 -0.25718561047E+04  0.25718561047E+04  0.25500000920E-02 0.  1.
    10030    2    1    2    0    0  0.00000000000E+00  0.00000000000E+00 -0.21016505551E+04  0.30420616542E+04  0.21993644656E+04 0.  0.
        5    1    3    3  502    0  0.74014261270E+03 -0.81206291641E+03 -0.11130158303E+04  0.15639960345E+04  0.46999998093E+01 0.  1.
       -5    1    3    3    0  502 -0.74014261270E+03  0.81206291641E+03 -0.98863472473E+03  0.14780656198E+04  0.46999998093E+01 0. -1.
</event>
<event>
 5   0  0.1137869E-06  0.2199956E+04  0.7818609E-02  0.8518447E-01
        1   -1    0    0  501    0  0.00000000000E+00  0.00000000000E+00  0.17225017696E+04  0.17225017696E+04  0.50400001928E-02 0.  1.
       -1   -1    0    0    0  501  0.00000000000E+00  0.00000000000E+00 -0.70243826893E+03  0.70243826895E+03  0.50400001928E-02 0. -1.
    10030    2    1    2    0    0  0.00000000000E+00  0.00000000000E+00  0.10200635006E+04  0.24249400385E+04  0.21999556007E+04 0.  0.
        5    1    3    3  502    0 -0.42478844068E+02  0.57728805726E+03  0.15410281349E+04  0.16461639517E+04  0.46999998093E+01 0.  1.
       -5    1    3    3    0  502  0.42478844068E+02 -0.57728805726E+03 -0.52096463428E+03  0.77877608683E+03  0.46999998093E+01 0. -1.
</event>
<event>
 5   0  0.1144271E-06  0.2201530E+04  0.7818609E-02  0.8517791E-01
        1   -1    0    0  501    0  0.00000000000E+00  0.00000000000E+00  0.16743846434E+04  0.16743846434E+04  0.50400001928E-02 0.  1.
       -1   -1    0    0    0  501  0.00000000000E+00  0.00000000000E+00 -0.72365928611E+03  0.72365928612E+03  0.50400001928E-02 0. -1.
    10030    2    1    2    0    0  0.00000000000E+00  0.00000000000E+00  0.95072535729E+03  0.23980439295E+04  0.22015303729E+04 0.  0.
        3    1    3    3  502    0  0.10708253093E+03  0.10780219682E+04  0.26278636662E+03  0.11147442384E+04  0.10100000352E+00 0.  1.
       -3    1    3    3    0  502 -0.10708253093E+03 -0.10780219682E+04  0.68793899067E+03  0.12832996912E+04  0.10100000352E+00 0. -1.
</event>
<event>
 5   0  0.2532239E-06  0.2202586E+04  0.7818609E-02  0.8517353E-01
        2   -1    0    0  501    0  0.00000000000E+00  0.00000000000E+00  0.13632113243E+04  0.13632113243E+04  0.25500000920E-02 0.  1.
       -2   -1    0    0    0  501  0.00000000000E+00  0.00000000000E+00 -0.88969791089E+03  0.88969791089E+03  0.25500000920E-02 0. -1.
    10030    2    1    2    0    0  0.00000000000E+00  0.00000000000E+00  0.47351341344E+03  0.22529092352E+04  0.22025859959E+04 0.  0.
        3    1    3    3  502    0  0.26910472100E+03 -0.16722660755E+03  0.13155887502E+04  0.13532020762E+04  0.10100000352E+00 0.  1.
       -3    1    3    3    0  502 -0.26910472100E+03  0.16722660755E+03 -0.84207533673E+03  0.89970715907E+03  0.10100000352E+00 0. -1.
</event>
<event>
 5   0  0.1107101E-06  0.2200760E+04  0.7818609E-02  0.8518112E-01
       -1   -1    0    0    0  501  0.00000000000E+00  0.00000000000E+00  0.94174926653E+03  0.94174926654E+03  0.50400001928E-02 0.  1.
        1   -1    0    0  501    0  0.00000000000E+00  0.00000000000E+00 -0.12857304697E+04  0.12857304698E+04  0.50400001928E-02 0. -1.
    10030    2    1    2    0    0  0.00000000000E+00  0.00000000000E+00 -0.34398120322E+03  0.22274797363E+04  0.22007596205E+04 0.  0.
        1    1    3    3  502    0 -0.83311500193E+03  0.48925344515E+02  0.55390698219E+03  0.10016422718E+04  0.50400001928E-02 0. -1.
       -1    1    3    3    0  502  0.83311500193E+03 -0.48925344515E+02 -0.89788818541E+03  0.12258374645E+04  0.50400001928E-02 0.  1.
</event>
<event>
 5   0  0.1146827E-06  0.2200026E+04  0.7818609E-02  0.8518417E-01
        1   -1    0    0  501    0  0.00000000000E+00  0.00000000000E+00  0.13731464866E+04  0.13731464866E+04  0.50400001928E-02 0. -1.
       -1   -1    0    0    0  501  0.00000000000E+00  0.00000000000E+00 -0.88120870316E+03  0.88120870317E+03  0.50400001928E-02 0.  1.
    10030    2    1    2    0    0  0.00000000000E+00  0.00000000000E+00  0.49193778345E+03  0.22543551898E+04  0.22000260314E+04 0.  0.
        4    1    3    3  502    0  0.35796486616E+03 -0.85317370630E+03  0.85562594955E+03  0.12602149011E+04  0.12699999809E+01 0. -1.
       -4    1    3    3    0  502 -0.35796486616E+03  0.85317370630E+03 -0.36368816610E+03  0.99414028868E+03  0.12699999809E+01 0.  1.
</event>
<event>
 5   0  0.1137869E-06  0.2199633E+04  0.7818609E-02  0.8518581E-01
       -1   -1    0    0    0  501  0.00000000000E+00  0.00000000000E+00  0.56917840147E+03  0.56917840150E+03  0.50400001928E-02 0. -1.
        1   -1    0    0  501    0  0.00000000000E+00  0.00000000000E+00 -0.21251623291E+04  0.21251623291E+04  0.50400001928E-02 0.  1.
    10030    2    1    2    0    0  0.00000000000E+00  0.00000000000E+00 -0.15559839276E+04  0.26943407306E+04  0.21996331489E+04 0.  0.
        5    1    3    3  502    0 -0.65564798914E+03  0.17796065495E+03  0.28141251637E+03  0.73536343038E+03  0.46999998093E+01 0. -1.
       -5    1    3    3    0  502  0.65564798914E+03 -0.17796065495E+03 -0.18373964440E+04  0.19589773002E+04  0.46999998093E+01 0.  1.
</event>
<event>
 5   0  0.1146827E-06  0.2200004E+04  0.7818609E-02  0.8518427E-01
       -1   -1    0    0    0  501  0.00000000000E+00  0.00000000000E+00  0.72578828069E+03  0.72578828070E+03  0.50400001928E-02 0. -1.
        1   -1    0    0  501    0  0.00000000000E+00  0.00000000000E+00 -0.16671584835E+04  0.16671584835E+04  0.50400001928E-02 0.  1.
    10030    2    1    2    0    0  0.00000000000E+00  0.00000000000E+00 -0.94137020285E+03  0.23929467643E+04  0.22000037177E+04 0.  0.
        4    1    3    3  502    0  0.45028411398E+03 -0.17481413439E+03 -0.15456326206E+04  0.16193509736E+04  0.12699999809E+01 0.  1.
       -4    1    3    3    0  502 -0.45028411398E+03  0.17481413439E+03  0.60426241777E+03  0.77359579065E+03  0.12699999809E+01 0. -1.
</event>
<event>
 5   0  0.1107101E-06  0.2199271E+04  0.7818609E-02  0.8518731E-01
       -1   -1    0    0    0  501  0.00000000000E+00  0.00000000000E+00  0.11875893470E+04  0.11875893470E+04  0.50400001928E-02 0. -1.
        1   -1    0    0  501    0  0.00000000000E+00  0.00000000000E+00 -0.10181958918E+04  0.10181958918E+04  0.50400001928E-02 0.  1.
    10030    2    1    2    0    0  0.00000000000E+00  0.00000000000E+00  0.16939345514E+03  0.22057852388E+04  0.21992713287E+04 0.  0.
        1    1    3    3  502    0 -0.63727171064E+03 -0.90357488467E+02  0.97891969677E+03  0.11715645444E+04  0.50400001928E-02 0. -1.
       -1    1    3    3    0  502  0.63727171064E+03  0.90357488467E+02 -0.80952624163E+03  0.10342206944E+04  0.50400001928E-02 0.  1.
</event>
<event>
 5   0  0.2524749E-06  0.2200463E+04  0.7818609E-02  0.8518235E-01
       -2   -1    0    0    0  501  0.00000000000E+00  0.00000000000E+00  0.11138126998E+04  0.11138126998E+04  0.25500000920E-02 0. -1.
        2   -1    0    0  501    0  0.00000000000E+00  0.00000000000E+00 -0.10868162464E+04  0.10868162464E+04  0.25500000920E-02 0.  1.
    10030    2    1    2    0    0  0.00000000000E+00  0.00000000000E+00  0.26996453366E+02  0.22006289462E+04  0.22004633490E+04 0.  0.
        4    1    3    3  502    0  0.10065383650E+04 -0.40804158000E+03  0.18926899499E+03  0.11024707600E+04  0.12699999809E+01 0. -1.
       -4    1    3    3    0  502 -0.10065383650E+04  0.40804158000E+03 -0.16227254162E+03  0.10981581862E+04  0.12699999809E+01 0.  1.
</event>
<event>
 5   0  0.1146827E-06  0.2199894E+04  0.7818609E-02  0.8518472E-01
       -1   -1    0    0    0  501  0.00000000000E+00  0.00000000000E+00  0.10073507827E+04  0.10073507828E+04  0.50400001928E-02 0. -1.
        1   -1    0    0  501    0  0.00000000000E+00  0.00000000000E+00 -0.12010549976E+04  0.12010549976E+04  0.50400001928E-02 0.  1.
    10030    2    1    2    0    0  0.00000000000E+00  0.00000000000E+00 -0.19370421489E+03  0.22084057804E+04  0.21998942629E+04 0.  0.
        4    1    3    3  502    0  0.97711425011E+03  0.95268641362E+02  0.40110510211E+03  0.10605259486E+04  0.12699999809E+01 0. -1.
       -4    1    3    3    0  502 -0.97711425011E+03 -0.95268641362E+02 -0.59480931700E+03  0.11478798318E+04  0.12699999809E+01 0.  1.
</event>
<event>
 5   0  0.1107101E-06  0.2202278E+04  0.7818609E-02  0.8517481E-01
        1   -1    0    0  501    0  0.00000000000E+00  0.00000000000E+00  0.11867430731E+04  0.11867430731E+04  0.50400001928E-02 0.  1.
       -1   -1    0    0    0  501  0.00000000000E+00  0.00000000000E+00 -0.10217098493E+04  0.10217098494E+04  0.50400001928E-02 0. -1.
    10030    2    1    2    0    0  0.00000000000E+00  0.00000000000E+00  0.16503322379E+03  0.22084529225E+04  0.22022779902E+04 0.  0.
        1    1    3    3  502    0  0.38709104956E+03 -0.33924844705E+01  0.11162591235E+04  0.11814759500E+04  0.50400001928E-02 0.  1.
       -1    1    3    3    0  502 -0.38709104956E+03  0.33924844705E+01 -0.95122589975E+03  0.10269769725E+04  0.50400001928E-02 0. -1.
</event>
<event>
 5   0  0.1144271E-06  0.2199552E+04  0.7818609E-02  0.8518615E-01
        1   -1    0    0  501    0  0.00000000000E+00  0.00000000000E+00  0.96958824201E+03  0.96958824203E+03  0.50400001928E-02 0.  1.
       -1   -1    0    0    0  501  0.00000000000E+00  0.00000000000E+00 -0.12474442331E+04  0.12474442331E+04  0.50400001928E-02 0. -1.
    10030    2    1    2    0    0  0.00000000000E+00  0.00000000000E+00 -0.27785599105E+03  0.22170324751E+04  0.21995520098E+04 0.  0.
        3    1    3    3  502    0  0.27139092327E+03  0.10649529723E+04 -0.97011634461E+02  0.11032629487E+04  0.10100000352E+00 0. -1.
       -3    1    3    3    0  502 -0.27139092327E+03 -0.10649529723E+04 -0.18084435659E+03  0.11137695264E+04  0.10100000352E+00 0.  1.
</event>
<event>
 5   0  0.1144271E-06  0.2200095E+04  0.7818609E-02  0.8518389E-01
       -1   -1    0    0    0  501  0.00000000000E+00  0.00000000000E+00  0.72591233275E+03  0.72591233276E+03  0.50400001928E-02 0. -1.
        1   -1    0    0  501    0  0.00000000000E+00  0.00000000000E+00 -0.16670120151E+04  0.16670120151E+04  0.50400001928E-02 0.  1.
    10030    2    1    2    0    0  0.00000000000E+00  0.00000000000E+00 -0.94109968234E+03  0.23929243479E+04  0.22000950712E+04 0.  0.
        3    1    3    3  502    0  0.10474331415E+04 -0.26285569878E+03 -0.69842467411E+03  0.12860817781E+04  0.10100000352E+00 0.  1.
       -3    1    3    3    0  502 -0.10474331415E+04  0.26285569878E+03 -0.24267500823E+03  0.11068425697E+04  0.10100000352E+00 0. -1.
</event>
<event>
 5   0  0.2524749E-06  0.2205944E+04  0.7818609E-02  0.8515958E-01
       -2   -1    0    0    0  501  0.00000000000E+00  0.00000000000E+00  0.83675218036E+03  0.83675218037E+03  0.25500000920E-02 0.  1.
        2   -1    0    0  501    0  0.00000000000E+00  0.00000000000E+00 -0.14538914681E+04  0.14538914681E+04  0.25500000920E-02 0. -1.
    10030    2    1    2    0    0  0.00000000000E+00  0.00000000000E+00 -0.61713928777E+03  0.22906436485E+04  0.22059436584E+04 0.  0.
        4    1    3    3  502    0 -0.27272129349E+03  0.45089443721E+03 -0.13147228675E+04  0.14163970237E+04  0.12699999809E+01 0. -1.
       -4    1    3    3    0  502  0.27272129349E+03 -0.45089443721E+03  0.69758357973E+03  0.87424662484E+03  0.12699999809E+01 0.  1.
</event>
<event>
 5   0  0.1082209E-06  0.2200733E+04  0.7818609E-02  0.8518123E-01
       -1   -1    0    0    0  501  0.00000000000E+00  0.00000000000E+00  0.17675677832E+04  0.17675677832E+04  0.50400001928E-02 0. -1.
        1   -1    0    0  501    0  0.00000000000E+00  0.00000000000E+00 -0.68501286441E+03  0.68501286442E+03  0.50400001928E-02 0.  1.
    10030    2    1    2    0    0  0.00000000000E+00  0.00000000000E+00  0.10825549188E+04  0.24525806476E+04  0.22007332144E+04 0.  0.
        2    1    3    3  502    0 -0.18197365208E+03 -0.10043754387E+04  0.99931314226E+03  0.14284646262E+04  0.25500000920E-02 0. -1.
       -2    1    3    3    0  502  0.18197365208E+03  0.10043754387E+04  0.83241776532E+02  0.10241160214E+04  0.25500000920E-02 0.  1.
</event>
<event>
 5   0  0.1146827E-06  0.2200029E+04  0.7818609E-02  0.8518416E-01
        1   -1    0    0  501    0  0.00000000000E+00  0.00000000000E+00  0.12225959640E+04  0.12225959640E+04  0.50400001928E-02 0. -1.
       -1   -1    0    0    0  501  0.00000000000E+00  0.00000000000E+00 -0.98972376200E+03  0.98972376202E+03  0.50400001928E-02 0.  1.
    10030    2    1    2    0    0  0.00000000000E+00  0.00000000000E+00  0.23287220195E+03  0.22123197260E+04  0.22000293424E+04 0.  0.
        4    1    3    3  502    0 -0.69386016962E+03  0.11129247542E+03 -0.73457926092E+03  0.10165806675E+04  0.12699999809E+01 0.  1.
       -4    1    3    3    0  502  0.69386016962E+03 -0.11129247542E+03  0.96745146287E+03  0.11957390585E+04  0.12699999809E+01 0. -1.
</event>
<event>
 5   0  0.2524749E-06  0.2198749E+04  0.7818609E-02  0.8518949E-01
        2   -1    0    0  501    0  0.00000000000E+00  0.00000000000E+00  0.11827323364E+04  0.11827323364E+04  0.25500000920E-02 0. -1.
       -2   -1    0    0    0  501  0.00000000000E+00  0.00000000000E+00 -0.10218918539E+04  0.10218918539E+04  0.25500000920E-02 0.  1.
    10030    2    1    2    0    0  0.00000000000E+00  0.00000000000E+00  0.16084048248E+03  0.22046241902E+04  0.21987492261E+04 0.  0.
        4    1    3    3  502    0  0.23470190883E+03  0.52967958403E+03 -0.85640889412E+03  0.10339648227E+04  0.12699999809E+01 0.  1.
       -4    1    3    3    0  502 -0.23470190883E+03 -0.52967958403E+03  0.10172493766E+04  0.11706593676E+04  0.12699999809E+01 0. -1.
</event>
<event>
 5   0  0.2556869E-06  0.2201172E+04  0.7818609E-02  0.8517941E-01
        2   -1    0    0  501    0  0.00000000000E+00  0.00000000000E+00  0.10102600508E+04  0.10102600508E+04  0.25500000920E-02 0. -1.
       -2   -1    0    0    0  501  0.00000000000E+00  0.00000000000E+00 -0.11989875425E+04  0.11989875425E+04  0.25500000920E-02 0.  1.
    10030    2    1    2    0    0  0.00000000000E+00  0.00000000000E+00 -0.18872749173E+03  0.22092475933E+04  0.22011717022E+04 0.  0.
        5    1    3    3  502    0 -0.37792984750E+03  0.10169985898E+04 -0.27983900172E+03  0.11204682316E+04  0.46999998093E+01 0.  1.
       -5    1    3    3    0  502  0.37792984750E+03 -0.10169985898E+04  0.91111509991E+02  0.10887793617E+04  0.46999998093E+01 0. -1.
</event>
<event>
 5   0  0.1146827E-06  0.2198930E+04  0.7818609E-02  0.8518874E-01
        1   -1    0    0  501    0  0.00000000000E+00  0.00000000000E+00  0.10298818955E+04  0.10298818955E+04  0.50400001928E-02 0.  1.
       -1   -1    0    0    0  501  0.00000000000E+00  0.00000000000E+00 -0.11737490100E+04  0.11737490100E+04  0.50400001928E-02 0. -1.
    10030    2    1    2    0    0  0.00000000000E+00  0.00000000000E+00 -0.14386711452E+03  0.22036309056E+04  0.21989296081E+04 0.  0.
        4    1    3    3  502    0 -0.30731943876E+03  0.10541502010E+04 -0.15748024007E+02  0.10981473020E+04  0.12699999809E+01 0. -1.
       -4    1    3    3    0  502  0.30731943876E+03 -0.10541502010E+04 -0.12811909052E+03  0.11054836036E+04  0.12699999809E+01 0.  1.
</event>
<event>
 5   0  0.2524749E-06  0.2200295E+04  0.7818609E-02  0.8518305E-01
        2   -1    0    0  501    0  0.00000000000E+00  0.00000000000E+00  0.20103453488E+04  0.20103453488E+04  0.25500000920E-02 0.  1.
       -2   -1    0    0    0  501  0.00000000000E+00  0.00000000000E+00 -0.60204816862E+03  0.60204816862E+03  0.25500000920E-02 0. -1.
    10030    2    1    2    0    0  0.00000000000E+00  0.00000000000E+00  0.14082971802E+04  0.26123935174E+04  0.22002951943E+04 0.  0.
        4    1    3    3  502    0  0.58919706417E+03  0.64762483604E+03 -0.86762774110E+02  0.87982981340E+03  0.12699999809E+01 0. -1.
       -4    1    3    3    0  502 -0.58919706417E+03 -0.64762483604E+03  0.14950599543E+04  0.17325637040E+04  0.12699999809E+01 0.  1.
</event>
<event>
 5   0  0.2532239E-06  0.2201157E+04  0.7818609E-02  0.8517947E-01
       -2   -1    0    0    0  501  0.00000000000E+00  0.00000000000E+00  0.92222916194E+03  0.92222916195E+03  0.25500000920E-02 0. -1.
        2   -1    0    0  501    0  0.00000000000E+00  0.00000000000E+00 -0.13134188994E+04  0.13134188994E+04  0.25500000920E-02 0.  1.
    10030    2    1    2    0    0  0.00000000000E+00  0.00000000000E+00 -0.39118973741E+03  0.22356480613E+04  0.22011571601E+04 0.  0.
        3    1    3    3  502    0 -0.15592427011E+03  0.10302386275E+04 -0.55550488832E+03  0.11808004483E+04  0.10100000352E+00 0.  1.
       -3    1    3    3    0  502  0.15592427011E+03 -0.10302386275E+04  0.16431515091E+03  0.10548476130E+04  0.10100000352E+00 0. -1.
</event>
<event>
 5   0  0.1137869E-06  0.2200733E+04  0.7818609E-02  0.8518123E-01
       -1   -1    0    0    0  501  0.00000000000E+00  0.00000000000E+00  0.77399666332E+03  0.77399666334E+03  0.50400001928E-02 0.  1.
        1   -1    0    0  501    0  0.00000000000E+00  0.00000000000E+00 -0.15643567067E+04  0.15643567067E+04  0.50400001928E-02 0. -1.
    10030    2    1    2    0    0  0.00000000000E+00  0.00000000000E+00 -0.79036004341E+03  0.23383533701E+04  0.22007333971E+04 0.  0.
        5    1    3    3  502    0 -0.62586992573E+03  0.29920544215E+02 -0.13562747084E+04  0.14940252935E+04  0.46999998093E+01 0. -1.
       -5    1    3    3    0  502  0.62586992573E+03 -0.29920544215E+02  0.56591466499E+03  0.84432807661E+03  0.46999998093E+01 0.  1.
</event>
<event>
 5   0  0.2606154E-06  0.2200208E+04  0.7818609E-02  0.8518341E-01
       -2   -1    0    0    0  501  0.00000000000E+00  0.00000000000E+00  0.10600230559E+04  0.10600230559E+04  0.25500000920E-02 0.  1.
        2   -1    0    0  501    0  0.00000000000E+00  0.00000000000E+00 -0.11417006141E+04  0.11417006141E+04  0.25500000920E-02 0. -1.
    10030    2    1    2    0    0  0.00000000000E+00  0.00000000000E+00 -0.81677558165E+02  0.22017236701E+04  0.22002081483E+04 0.  0.
        2    1    3    3  502    0 -0.71844888550E+02  0.82726774753E+03  0.68125049900E+03  0.10740744185E+04  0.25500000920E-02 0.  1.
       -2    1    3    3    0  502  0.71844888550E+02 -0.82726774753E+03 -0.76292805716E+03  0.11276492515E+04  0.25500000920E-02 0. -1.
</event>
<event>
 5   0  0.1137869E-06  0.2199786E+04  0.7818609E-02  0.8518517E-01
        1   -1    0    0  501    0  0.00000000000E+00  0.00000000000E+00  0.12095503952E+04  0.12095503952E+04  0.50400001928E-02 0.  1.
       -1   -1    0    0    0  501  0.00000000000E+00  0.00000000000E+00 -0.10001769274E+04  0.10001769274E+04  0.50400001928E-02 0. -1.
    10030    2    1    2    0    0  0.00000000000E+00  0.00000000000E+00  0.20937346779E+03  0.22097273226E+04  0.21997858058E+04 0.  0.
        5    1    3    3  502    0 -0.10398691204E+04 -0.13295609144E+03 -0.22958915743E+03  0.10731907477E+04  0.46999998093E+01 0. -1.
       -5    1    3    3    0  502  0.10398691204E+04  0.13295609144E+03  0.43896262522E+03  0.11365365749E+04  0.46999998093E+01 0.  1.
</event>
<event>
 5   0  0.2606154E-06  0.2199825E+04  0.7818609E-02  0.8518501E-01
        2   -1    0    0  501    0  0.00000000000E+00  0.00000000000E+00  0.14623121228E+04  0.14623121228E+04  0.25500000920E-02 0. -1.
       -2   -1    0    0    0  501  0.00000000000E+00  0.00000000000E+00 -0.82732511053E+03  0.82732511054E+03  0.25500000920E-02 0.  1.
    10030    2    1    2    0    0  0.00000000000E+00  0.00000000000E+00  0.63498701231E+03  0.22896372334E+04  0.21998250282E+04 0.  0.
        2    1    3    3  502    0 -0.62608220479E+03  0.57448938829E+03 -0.40944091402E+03  0.94321728488E+03  0.25500000920E-02 0.  1.
       -2    1    3    3    0  502  0.62608220479E+03 -0.57448938829E+03  0.10444279263E+04  0.13464199485E+04  0.25500000920E-02 0. -1.
</event>
<event>
 5   0  0.1144271E-06  0.2199749E+04  0.7818609E-02  0.8518532E-01
       -1   -1    0    0    0  501  0.00000000000E+00  0.00000000000E+00  0.80605628189E+03  0.80605628190E+03  0.50400001928E-02 0. -1.
        1   -1    0    0  501    0  0.00000000000E+00  0.00000000000E+00 -0.15007937448E+04  0.15007937448E+04  0.50400001928E-02 0.  1.
    10030    2    1    2    0    0  0.00000000000E+00  0.00000000000E+00 -0.69473746293E+03  0.23068500267E+04  0.21997492819E+04 0.  0.
        3    1    3    3  502    0 -0.43279909038E+03  0.65558814644E+03 -0.11546630388E+04  0.13965520448E+04  0.10100000352E+00 0.  1.
       -3    1    3    3    0  502  0.43279909038E+03 -0.65558814644E+03  0.45992557588E+03  0.91029798194E+03  0.10100000352E+00 0. -1.
</event>
<event>
 5   0  0.2532239E-06  0.2197088E+04  0.7818609E-02  0.8519641E-01
       -2   -1    0    0    0  501  0.00000000000E+00  0.00000000000E+00  0.78251828773E+03  0.78251828774E+03  0.25500000920E-02 0.  1.
        2   -1    0    0  501    0  0.00000000000E+00  0.00000000000E+00 -0.15421985554E+04  0.15421985554E+04  0.25500000920E-02 0. -1.
    10030    2    1    2    0    0  0.00000000000E+00  0.00000000000E+00 -0.75968026762E+03  0.23247168431E+04  0.21970876841E+04 0.  0.
        3    1    3    3  502    0 -0.80261506278E+01 -0.34031839852E+03  0.72530326279E+03  0.80121524242E+03  0.10100000352E+00 0.  1.
       -3    1    3    3    0  502  0.80261506278E+01  0.34031839852E+03 -0.14849835304E+04  0.15235016007E+04  0.10100000352E+00 0. -1.
</event>
<event>
 5   0  0.1146827E-06  0.2199560E+04  0.7818609E-02  0.8518611E-01
       -1   -1    0    0    0  501  0.00000000000E+00  0.00000000000E+00  0.12553126897E+04  0.12553126897E+04  0.50400001928E-02 0. -1.
        1   -1    0    0  501    0  0.00000000000E+00  0.00000000000E+00 -0.96351800857E+03  0.96351800858E+03  0.50400001928E-02 0.  1.
    10030    2    1    2    0    0  0.00000000000E+00  0.00000000000E+00  0.29179468109E+03  0.22188306983E+04  0.21995603042E+04 0.  0.
        4    1    3    3  502    0  0.64112354106E+03 -0.33632283996E+03 -0.68922173791E+03  0.99959024829E+03  0.12699999809E+01 0.  1.
       -4    1    3    3    0  502 -0.64112354106E+03  0.33632283996E+03  0.98101641900E+03  0.12192404500E+04  0.12699999809E+01 0. -1.
</event>
<event>
 5   0  0.1107101E-06  0.2199804E+04  0.7818609E-02  0.8518510E-01
       -1   -1    0    0    0  501  0.00000000000E+00  0.00000000000E+00  0.11889315599E+04  0.11889315599E+04  0.50400001928E-02 0.  1.
        1   -1    0    0  501    0  0.00000000000E+00  0.00000000000E+00 -0.10175392159E+04  0.10175392160E+04  0.50400001928E-02 0. -1.
    10030    2    1    2    0    0  0.00000000000E+00  0.00000000000E+00  0.17139234398E+03  0.22064707759E+04  0.21998040707E+04 0.  0.
        1    1    3    3  502    0 -0.41105179896E+03 -0.38117183182E+03  0.10348880011E+04  0.11769658965E+04  0.50400001928E-02 0.  1.
       -1    1    3    3    0  502  0.41105179896E+03  0.38117183182E+03 -0.86349565709E+03  0.10295048794E+04  0.50400001928E-02 0. -1.
</event>
<event>
 5   0  0.2606154E-06  0.2200573E+04  0.7818609E-02  0.8518190E-01
       -2   -1    0    0    0  501  0.00000000000E+00  0.00000000000E+00  0.94853046312E+03  0.94853046313E+03  0.25500000920E-02 0. -1.
        2   -1    0    0  501    0  0.00000000000E+00  0.00000000000E+00 -0.12763216685E+04  0.12763216685E+04  0.25500000920E-02 0.  1.
    10030    2    1    2    0    0  0.00000000000E+00  0.00000000000E+00 -0.32779120539E+03  0.22248521316E+04  0.22005726376E+04 0.  0.
        2    1    3    3  502    0 -0.29917725350E+03 -0.28399924383E+03  0.86739171954E+03  0.96048477065E+03  0.25500000920E-02 0. -1.
       -2    1    3    3    0  502  0.29917725350E+03  0.28399924383E+03 -0.11951829249E+04  0.12643673610E+04  0.25500000920E-02 0.  1.
</event>
<event>
 5   0  0.1144271E-06  0.2202503E+04  0.7818609E-02  0.8517387E-01
        1   -1    0    0  501    0  0.00000000000E+00  0.00000000000E+00  0.16516659378E+04  0.16516659378E+04  0.50400001928E-02 0. -1.
       -1   -1    0    0    0  501  0.00000000000E+00  0.00000000000E+00 -0.73426191399E+03  0.73426191401E+03  0.50400001928E-02 0.  1.
    10030    2    1    2    0    0  0.00000000000E+00  0.00000000000E+00  0.91740402378E+03  0.23859278518E+04  0.22025034781E+04 0.  0.
        3    1    3    3  502    0  0.94558242620E+03 -0.14874082526E+03 -0.13116896142E+03  0.96615488638E+03  0.10100000352E+00 0.  1.
       -3    1    3    3    0  502 -0.94558242620E+03  0.14874082526E+03  0.10485729852E+04  0.14197729654E+04  0.10100000352E+00 0. -1.
</event>
<event>
 5   0  0.2524749E-06  0.2199918E+04  0.7818609E-02  0.8518462E-01
        2   -1    0    0  501    0  0.00000000000E+00  0.00000000000E+00  0.11366566705E+04  0.11366566705E+04  0.25500000920E-02 0.  1.
       -2   -1    0    0    0  501  0.00000000000E+00  0.00000000000E+00 -0.10644462452E+04  0.10644462452E+04  0.25500000920E-02 0. -1.
    10030    2    1    2    0    0  0.00000000000E+00  0.00000000000E+00  0.72210425233E+02  0.22011029157E+04  0.21999181121E+04 0.  0.
        4    1    3    3  502    0  0.10234310455E+03  0.64021995548E+03 -0.85294107012E+03  0.10713849842E+04  0.12699999809E+01 0. -1.
       -4    1    3    3    0  502 -0.10234310455E+03 -0.64021995548E+03  0.92515149536E+03  0.11297179315E+04  0.12699999809E+01 0.  1.
</event>
<event>
 5   0  0.2532239E-06  0.2199524E+04  0.7818609E-02  0.8518626E-01
        2   -1    0    0  501    0  0.00000000000E+00  0.00000000000E+00  0.19003490376E+04  0.19003490376E+04  0.25500000920E-02 0. -1.
       -2   -1    0    0    0  501  0.00000000000E+00  0.00000000000E+00 -0.63644948526E+03  0.63644948527E+03  0.25500000920E-02 0.  1.
    10030    2    1    2    0    0  0.00000000000E+00  0.00000000000E+00  0.12638995524E+04  0.25367985229E+04  0.21995237365E+04 0.  0.
        3    1    3    3  502    0 -0.75757390330E+03  0.16541163572E+02 -0.28731663909E+03  0.81039662534E+03  0.10100000352E+00 0.  1.
       -3    1    3    3    0  502  0.75757390330E+03 -0.16541163572E+02  0.15512161915E+04  0.17264018976E+04  0.10100000352E+00 0. -1.
</event>
<event>
 5   0  0.2556869E-06  0.2199805E+04  0.7818609E-02  0.8518509E-01
        2   -1    0    0  501    0  0.00000000000E+00  0.00000000000E+00  0.94593396525E+03  0.94593396526E+03  0.25500000920E-02 0. -1.
       -2   -1    0    0    0  501  0.00000000000E+00  0.00000000000E+00 -0.12789323081E+04  0.12789323081E+04  0.25500000920E-02 0.  1.
    10030    2    1    2    0    0  0.00000000000E+00  0.00000000000E+00 -0.33299834287E+03  0.22248662734E+04  0.21998050000E+04 0.  0.
        5    1    3    3  502    0  0.62065884946E+03  0.83714128233E+02 -0.10809780738E+04  0.12493042658E+04  0.46999998093E+01 0.  1.
       -5    1    3    3    0  502 -0.62065884946E+03 -0.83714128233E+02  0.74797973091E+03  0.97556200753E+03  0.46999998093E+01 0. -1.
</event>
<event>
 5   0  0.1146827E-06  0.2199934E+04  0.7818609E-02  0.8518455E-01
        1   -1    0    0  501    0  0.00000000000E+00  0.00000000000E+00  0.10316565739E+04  0.10316565739E+04  0.50400001928E-02 0.  1.
       -1   -1    0    0    0  501  0.00000000000E+00  0.00000000000E+00 -0.11728010388E+04  0.11728010388E+04  0.50400001928E-02 0. -1.
    10030    2    1    2    0    0  0.00000000000E+00  0.00000000000E+00 -0.14114446484E+03  0.22044576127E+04  0.21999344550E+04 0.  0.
        4    1    3    3  502    0  0.88021967213E+03 -0.22658982974E+02  0.59004508849E+03  0.10599315639E+04  0.12699999809E+01 0.  1.
       -4    1    3    3    0  502 -0.88021967213E+03  0.22658982974E+02 -0.73118955333E+03  0.11445260489E+04  0.12699999809E+01 0. -1.
</event>
<event>
 5   0  0.1144271E-06  0.2197467E+04  0.7818609E-02  0.8519483E-01
       -1   -1    0    0    0  501  0.00000000000E+00  0.00000000000E+00  0.67107670473E+03  0.67107670475E+03  0.50400001928E-02 0. -1.
        1   -1    0    0  501    0  0.00000000000E+00  0.00000000000E+00 -0.17989231349E+04  0.17989231349E+04  0.50400001928E-02 0.  1.
    10030    2    1    2    0    0  0.00000000000E+00  0.00000000000E+00 -0.11278464302E+04  0.24699998396E+04  0.21974670960E+04 0.  0.
        3    1    3    3  502    0  0.86589894489E+02 -0.49656552406E+03 -0.16612928874E+04  0.17360786841E+04  0.10100000352E+00 0.  1.
       -3    1    3    3    0  502 -0.86589894489E+02  0.49656552406E+03  0.53344645727E+03  0.73392115550E+03  0.10100000352E+00 0. -1.
</event>
<event>
 5   0  0.1137869E-06  0.2200741E+04  0.7818609E-02  0.8518120E-01
        1   -1    0    0  501    0  0.00000000000E+00  0.00000000000E+00  0.12429568895E+04  0.12429568896E+04  0.50400001928E-02 0. -1.
       -1   -1    0    0    0  501  0.00000000000E+00  0.00000000000E+00 -0.97414132923E+03  0.97414132924E+03  0.50400001928E-02 0.  1.
    10030    2    1    2    0    0  0.00000000000E+00  0.00000000000E+00  0.26881556032E+03  0.22170982188E+04  0.22007413992E+04 0.  0.
        5    1    3    3  502    0  0.31517562354E+03  0.43959934047E+03  0.10997626852E+04  0.12255950831E+04  0.46999998093E+01 0. -1.
       -5    1    3    3    0  502 -0.31517562354E+03 -0.43959934047E+03 -0.83094712490E+03  0.99150313574E+03  0.46999998093E+01 0.  1.
</event>
<event>
 5   0  0.2524749E-06  0.2198507E+04  0.7818609E-02  0.8519050E-01
       -2   -1    0    0    0  501  0.00000000000E+00  0.00000000000E+00  0.20631956157E+04  0.20631956157E+04  0.25500000920E-02 0. -1.
        2   -1    0    0  501    0  0.00000000000E+00  0.00000000000E+00 -0.58567293201E+03  0.58567293202E+03  0.25500000920E-02 0.  1.
    10030    2    1    2    0    0  0.00000000000E+00  0.00000000000E+00  0.14775226837E+04  0.26488685477E+04  0.21985066073E+04 0.  0.
        4    1    3    3  502    0 -0.70566626589E+03  0.79891836881E+02 -0.27216990970E+03  0.76054300145E+03  0.12699999809E+01 0.  1.
       -4    1    3    3    0  502  0.70566626589E+03 -0.79891836881E+02  0.17496925934E+04  0.18883255462E+04  0.12699999809E+01 0. -1.
</event>
<event>
 5   0  0.2581058E-06  0.2200105E+04  0.7818609E-02  0.8518385E-01
       -2   -1    0    0    0  501  0.00000000000E+00  0.00000000000E+00  0.15789949798E+04  0.15789949798E+04  0.25500000920E-02 0.  1.
        2   -1    0    0  501    0  0.00000000000E+00  0.00000000000E+00 -0.76638304369E+03  0.76638304369E+03  0.25500000920E-02 0. -1.
    10030    2    1    2    0    0  0.00000000000E+00  0.00000000000E+00  0.81261193615E+03  0.23453780235E+04  0.22001045235E+04 0.  0.
        1    1    3    3  502    0 -0.50171936662E+03 -0.97572291862E+03  0.32130757116E+03  0.11432392978E+04  0.50400001928E-02 0.  1.
       -1    1    3    3    0  502  0.50171936662E+03  0.97572291862E+03  0.49130436499E+03  0.12021387257E+04  0.50400001928E-02 0. -1.
</event>
<event>
 5   0  0.2556869E-06  0.2199911E+04  0.7818609E-02  0.8518465E-01
        2   -1    0    0  501    0  0.00000000000E+00  0.00000000000E+00  0.24920324022E+04  0.24920324022E+04  0.25500000920E-02 0. -1.
       -2   -1    0    0    0  501  0.00000000000E+00  0.00000000000E+00 -0.48550821088E+03  0.48550821089E+03  0.25500000920E-02 0.  1.
    10030    2    1    2    0    0  0.00000000000E+00  0.00000000000E+00  0.20065241913E+04  0.29775406131E+04  0.21999110828E+04 0.  0.
        5    1    3    3  502    0  0.23925436884E+03  0.88191267717E+03  0.18319508581E+04  0.20472124120E+04  0.46999998093E+01 0. -1.
       -5    1    3    3    0  502 -0.23925436884E+03 -0.88191267717E+03  0.17457333321E+03  0.93032820114E+03  0.46999998093E+01 0.  1.
</event>
<event>
 5   0  0.2524749E-06  0.2201719E+04  0.7818609E-02  0.8517713E-01
        2   -1    0    0  501    0  0.00000000000E+00  0.00000000000E+00  0.21695136257E+04  0.21695136257E+04  0.25500000920E-02 0. -1.
       -2   -1    0    0    0  501  0.00000000000E+00  0.00000000000E+00 -0.55860046708E+03  0.55860046709E+03  0.25500000920E-02 0.  1.
    10030    2    1    2    0    0  0.00000000000E+00  0.00000000000E+00  0.16109131586E+04  0.27281140928E+04  0.22017187147E+04 0.  0.
        4    1    3    3  502    0 -0.28846969069E+03 -0.33991477281E+03  0.20526502657E+04  0.21005074486E+04  0.12699999809E+01 0. -1.
       -4    1    3    3    0  502  0.28846969069E+03  0.33991477281E+03 -0.44173710708E+03  0.62760664424E+03  0.12699999809E+01 0.  1.
</event>
<event>
 5   0  0.2606154E-06  0.2200898E+04  0.7818609E-02  0.8518055E-01
        2   -1    0    0  501    0  0.00000000000E+00  0.00000000000E+00  0.75942395578E+03  0.75942395578E+03  0.25500000920E-02 0.  1.
       -2   -1    0    0    0  501  0.00000000000E+00  0.00000000000E+00 -0.15946133960E+04  0.15946133960E+04  0.25500000920E-02 0. -1.
    10030    2    1    2    0    0  0.00000000000E+00  0.00000000000E+00 -0.83518944018E+03  0.23540373517E+04  0.22008976470E+04 0.  0.
        2    1    3    3  502    0 -0.46903669833E+03 -0.92681347135E+03 -0.28983587322E+02  0.10391432449E+04  0.25500000920E-02 0.  1.
       -2    1    3    3    0  502  0.46903669833E+03  0.92681347135E+03 -0.80620585285E+03  0.13148941069E+04  0.25500000920E-02 0. -1.
</event>
<event>
 5   0  0.2556869E-06  0.2200342E+04  0.7818609E-02  0.8518286E-01
        2   -1    0    0  501    0  0.00000000000E+00  0.00000000000E+00  0.19284757916E+04  0.19284757916E+04  0.25500000920E-02 0. -1.
       -2   -1    0    0    0  501  0.00000000000E+00  0.00000000000E+00 -0.62763343546E+03  0.62763343546E+03  0.25500000920E-02 0.  1.
    10030    2    1    2    0    0  0.00000000000E+00  0.00000000000E+00  0.13008423561E+04  0.25561092270E+04  0.22003416883E+04 0.  0.
        5    1    3    3  502    0 -0.45026077501E+03 -0.22531280635E+03 -0.48592833705E+03  0.69974928722E+03  0.46999998093E+01 0.  1.
       -5    1    3    3    0  502  0.45026077501E+03  0.22531280635E+03  0.17867706932E+04  0.18563599398E+04  0.46999998093E+01 0. -1.
</event>
<event>
 5   0  0.2556869E-06  0.2200157E+04  0.7818609E-02  0.8518363E-01
       -2   -1    0    0    0  501  0.00000000000E+00  0.00000000000E+00  0.13692786929E+04  0.13692786929E+04  0.25500000920E-02 0.  1.
        2   -1    0    0  501    0  0.00000000000E+00  0.00000000000E+00 -0.88380338723E+03  0.88380338723E+03  0.25500000920E-02 0. -1.
    10030    2    1    2    0    0  0.00000000000E+00  0.00000000000E+00  0.48547530563E+03  0.22530820801E+04  0.22001574006E+04 0.  0.
        5    1    3    3  502    0 -0.21477753876E+03 -0.40953514618E+03 -0.77942239032E+03  0.90629453250E+03  0.46999998093E+01 0. -1.
       -5    1    3    3    0  502  0.21477753876E+03  0.40953514618E+03  0.12648976960E+04  0.13467875476E+04  0.46999998093E+01 0.  1.
</event>
<event>
 5   0  0.1082209E-06  0.2199642E+04  0.7818609E-02  0.8518577E-01
       -1   -1    0    0    0  501  0.00000000000E+00  0.00000000000E+00  0.87640055185E+03  0.87640055187E+03  0.50400001928E-02 0.  1.
        1   -1    0    0  501    0  0.00000000000E+00  0.00000000000E+00 -0.13801977651E+04  0.13801977651E+04  0.50400001928E-02 0. -1.
    10030    2    1    2    0    0  0.00000000000E+00  0.00000000000E+00 -0.50379721327E+03  0.22565983170E+04  0.21996418645E+04 0.  0.
        2    1    3    3  502    0 -0.94826421941E+03 -0.19035614552E+03 -0.78906490480E+03  0.12482243051E+04  0.25500000920E-02 0. -1.
       -2    1    3    3    0  502  0.94826421941E+03  0.19035614552E+03  0.28526769153E+03  0.10083740119E+04  0.25500000920E-02 0.  1.
</event>
<event>
 5   0  0.1082209E-06  0.2201086E+04  0.7818609E-02  0.8517976E-01
       -1   -1    0    0    0  501  0.00000000000E+00  0.00000000000E+00  0.14060586230E+04  0.14060586230E+04  0.50400001928E-02 0. -1.
        1   -1    0    0  501    0  0.00000000000E+00  0.00000000000E+00 -0.86141157962E+03  0.86141157963E+03  0.50400001928E-02 0.  1.
    10030    2    1    2    0    0  0.00000000000E+00  0.00000000000E+00  0.54464704336E+03  0.22674702026E+04  0.22010862586E+04 0.  0.
        2    1    3    3  502    0  0.13015622097E+03  0.10060949052E+04 -0.16719089280E+03  0.10281636031E+04  0.25500000920E-02 0.  1.
       -2    1    3    3    0  502 -0.13015622097E+03 -0.10060949052E+04  0.71183793615E+03  0.12393065995E+04  0.25500000920E-02 0. -1.
</event>
<event>
 5   0  0.1082209E-06  0.2197120E+04  0.7818609E-02  0.8519628E-01
        1   -1    0    0  501    0  0.00000000000E+00  0.00000000000E+00  0.11513006043E+04  0.11513006043E+04  0.50400001928E-02 0. -1.
       -1   -1    0    0    0  501  0.00000000000E+00  0.00000000000E+00 -0.10482350166E+04  0.10482350166E+04  0.50400001928E-02 0.  1.
    10030    2    1    2    0    0  0.00000000000E+00  0.00000000000E+00  0.10306558771E+03  0.21995356210E+04  0.21971195763E+04 0.  0.
        2    1    3    3  502    0 -0.87833722322E+03 -0.64961094057E+03  0.16725816456E+03  0.11051904566E+04  0.25500000920E-02 0.  1.
       -2    1    3    3    0  502  0.87833722322E+03  0.64961094057E+03 -0.64192576849E+02  0.10943451644E+04  0.25500000920E-02 0. -1.
</event>
<event>
 5   0  0.1137869E-06  0.2194429E+04  0.7818609E-02  0.8520751E-01
        1   -1    0    0  501    0  0.00000000000E+00  0.00000000000E+00  0.11181444473E+04  0.11181444473E+04  0.50400001928E-02 0. -1.
       -1   -1    0    0    0  501  0.00000000000E+00  0.00000000000E+00 -0.10766759854E+04  0.10766759854E+04  0.50400001928E-02 0.  1.
    10030    2    1    2    0    0  0.00000000000E+00  0.00000000000E+00  0.41468461948E+02  0.21948204327E+04  0.21944286497E+04 0.  0.
        5    1    3    3  502    0  0.10596939097E+04  0.23348108369E+03  0.18322118655E+03  0.11004802097E+04  0.46999998093E+01 0. -1.
       -5    1    3    3    0  502 -0.10596939097E+04 -0.23348108369E+03 -0.14175272460E+03  0.10943402230E+04  0.46999998093E+01 0.  1.
</event>
<event>
 5   0  0.2532239E-06  0.2201247E+04  0.7818609E-02  0.8517909E-01
       -2   -1    0    0    0  501  0.00000000000E+00  0.00000000000E+00  0.82408282783E+03  0.82408282783E+03  0.25500000920E-02 0. -1.
        2   -1    0    0  501    0  0.00000000000E+00  0.00000000000E+00 -0.14699645293E+04  0.14699645293E+04  0.25500000920E-02 0.  1.
    10030    2    1    2    0    0  0.00000000000E+00  0.00000000000E+00 -0.64588170143E+03  0.22940473571E+04  0.22012473973E+04 0.  0.
        3    1    3    3  502    0 -0.28398444708E+03  0.82791230691E+03 -0.10183706846E+04  0.13428197256E+04  0.10100000352E+00 0.  1.
       -3    1    3    3    0  502  0.28398444708E+03 -0.82791230691E+03  0.37248898314E+03  0.95122763147E+03  0.10100000352E+00 0. -1.
</event>
<event>
 5   0  0.1107101E-06  0.2199381E+04  0.7818609E-02  0.8518686E-01
       -1   -1    0    0    0  501  0.00000000000E+00  0.00000000000E+00  0.10086129857E+04  0.10086129857E+04  0.50400001928E-02 0.  1.
        1   -1    0    0  501    0  0.00000000000E+00  0.00000000000E+00 -0.11989925723E+04  0.11989925723E+04  0.50400001928E-02 0. -1.
    10030    2    1    2    0    0  0.00000000000E+00  0.00000000000E+00 -0.19037958657E+03  0.22076055580E+04  0.21993812568E+04 0.  0.
        1    1    3    3  502    0  0.40422607323E+02  0.53179396674E+03  0.87011354930E+03  0.10205569063E+04  0.50400001928E-02 0.  1.
       -1    1    3    3    0  502 -0.40422607323E+02 -0.53179396674E+03 -0.10604931359E+04  0.11870486517E+04  0.50400001928E-02 0. -1.
</event>
<event>
 5   0  0.1082209E-06  0.2198142E+04  0.7818609E-02  0.8519202E-01
       -1   -1    0    0    0  501  0.00000000000E+00  0.00000000000E+00  0.10482661219E+04  0.10482661220E+04  0.50400001928E-02 0. -1.
        1   -1    0    0  501    0  0.00000000000E+00  0.00000000000E+00 -0.11523382534E+04  0.11523382534E+04  0.50400001928E-02 0.  1.
    10030    2    1    2    0    0  0.00000000000E+00  0.00000000000E+00 -0.10407213149E+03  0.22006043754E+04  0.21981420811E+04 0.  0.
        2    1    3    3  502    0  0.80401090806E+03 -0.20893948313E+03 -0.77247256881E+03  0.11343734471E+04  0.25500000920E-02 0.  1.
       -2    1    3    3    0  502 -0.80401090806E+03  0.20893948313E+03  0.66840043732E+03  0.10662309283E+04  0.25500000920E-02 0. -1.
</event>
<event>
 5   0  0.1137869E-06  0.2200136E+04  0.7818609E-02  0.8518371E-01
       -1   -1    0    0    0  501  0.00000000000E+00  0.00000000000E+00  0.48483542842E+03  0.48483542845E+03  0.50400001928E-02 0.  1.
        1   -1    0    0  501    0  0.00000000000E+00  0.00000000000E+00 -0.24960012487E+04  0.24960012487E+04  0.50400001928E-02 0. -1.
    10030    2    1    2    0    0  0.00000000000E+00  0.00000000000E+00 -0.20111658203E+04  0.29808366771E+04  0.22001362092E+04 0.  0.
        5    1    3    3  502    0  0.35692915270E+02 -0.80485854497E+03  0.92438373383E+01  0.80571632734E+03  0.46999998093E+01 0.  1.
       -5    1    3    3    0  502 -0.35692915270E+02  0.80485854497E+03 -0.20204096576E+04  0.21751203498E+04  0.46999998093E+01 0. -1.
</event>
<event>
 5   0  0.2606154E-06  0.2200168E+04  0.7818609E-02  0.8518358E-01
       -2   -1    0    0    0  501  0.00000000000E+00  0.00000000000E+00  0.44011801040E+03  0.44011801041E+03  0.25500000920E-02 0. -1.
        2   -1    0    0  501    0  0.00000000000E+00  0.00000000000E+00 -0.27496832169E+04  0.27496832169E+04  0.25500000920E-02 0.  1.
    10030    2    1    2    0    0  0.00000000000E+00  0.00000000000E+00 -0.23095652065E+04  0.31898012274E+04  0.22001682724E+04 0.  0.
        2    1    3    3  502    0 -0.59189904467E+03 -0.41444425575E+03 -0.23573962100E+04  0.24656490851E+04  0.25500000920E-02 0.  1.
       -2    1    3    3    0  502  0.59189904467E+03  0.41444425575E+03  0.47831003422E+02  0.72415214224E+03  0.25500000920E-02 0. -1.
</event>
<event>
 5   0  0.2524749E-06  0.2199085E+04  0.7818609E-02  0.8518809E-01
        2   -1    0    0  501    0  0.00000000000E+00  0.00000000000E+00  0.14945048488E+04  0.14945048488E+04  0.25500000920E-02 0. -1.
       -2   -1    0    0    0  501  0.00000000000E+00  0.00000000000E+00 -0.80895966664E+03  0.80895966664E+03  0.25500000920E-02 0.  1.
    10030    2    1    2    0    0  0.00000000000E+00  0.00000000000E+00  0.68554518215E+03  0.23034645154E+04  0.21990853956E+04 0.  0.
        4    1    3    3  502    0  0.68123969626E+03  0.41099715313E+03  0.11377330489E+04  0.13883242730E+04  0.12699999809E+01 0. -1.
       -4    1    3    3    0  502 -0.68123969626E+03 -0.41099715313E+03 -0.45218786670E+03  0.91514024244E+03  0.12699999809E+01 0.  1.
</event>
<event>
 5   0  0.1144271E-06  0.2199442E+04  0.7818609E-02  0.8518660E-01
        1   -1    0    0  501    0  0.00000000000E+00  0.00000000000E+00  0.83117824944E+03  0.83117824945E+03  0.50400001928E-02 0.  1.
       -1   -1    0    0    0  501  0.00000000000E+00  0.00000000000E+00 -0.14550265271E+04  0.14550265271E+04  0.50400001928E-02 0. -1.
    10030    2    1    2    0    0  0.00000000000E+00  0.00000000000E+00 -0.62384827765E+03  0.22862047766E+04  0.21994421126E+04 0.  0.
        3    1    3    3  502    0 -0.10160256102E+04 -0.40212039727E+03 -0.18302619722E+03  0.11079293540E+04  0.10100000352E+00 0.  1.
       -3    1    3    3    0  502  0.10160256102E+04  0.40212039727E+03 -0.44082208043E+03  0.11782754225E+04  0.10100000352E+00 0. -1.
</event>
<event>
 5   0  0.2606154E-06  0.2199922E+04  0.7818609E-02  0.8518461E-01
       -2   -1    0    0    0  501  0.00000000000E+00  0.00000000000E+00  0.68148597695E+03  0.68148597695E+03  0.25500000920E-02 0.  1.
        2   -1    0    0  501    0  0.00000000000E+00  0.00000000000E+00 -0.17754060675E+04  0.17754060675E+04  0.25500000920E-02 0. -1.
    10030    2    1    2    0    0  0.00000000000E+00  0.00000000000E+00 -0.10939200906E+04  0.24568920445E+04  0.21999221245E+04 0.  0.
        2    1    3    3  502    0  0.28906667207E+03  0.10413776821E+04 -0.77553048188E+03  0.13302159772E+04  0.25500000920E-02 0. -1.
       -2    1    3    3    0  502 -0.28906667207E+03 -0.10413776821E+04 -0.31838960871E+03  0.11266760673E+04  0.25500000920E-02 0.  1.
</event>
<event>
 5   0  0.1137869E-06  0.2201566E+04  0.7818609E-02  0.8517777E-01
        1   -1    0    0  501    0  0.00000000000E+00  0.00000000000E+00  0.17800432957E+04  0.17800432957E+04  0.50400001928E-02 0. -1.
       -1   -1    0    0    0  501  0.00000000000E+00  0.00000000000E+00 -0.68072655917E+03  0.68072655918E+03  0.50400001928E-02 0.  1.
    10030    2    1    2    0    0  0.00000000000E+00  0.00000000000E+00  0.10993167365E+04  0.24607698549E+04  0.22015655774E+04 0.  0.
        5    1    3    3  502    0 -0.80146767994E+03  0.70460888442E+03  0.24791812780E+03  0.10955864229E+04  0.46999998093E+01 0.  1.
       -5    1    3    3    0  502  0.80146767994E+03 -0.70460888442E+03  0.85139860874E+03  0.13651834320E+04  0.46999998093E+01 0. -1.
</event>
<event>
 5   0  0.1146827E-06  0.2201227E+04  0.7818609E-02  0.8517918E-01
       -1   -1    0    0    0  501  0.00000000000E+00  0.00000000000E+00  0.83542422964E+03  0.83542422966E+03  0.50400001928E-02 0.  1.
        1   -1    0    0  501    0  0.00000000000E+00  0.00000000000E+00 -0.14499821293E+04  0.14499821293E+04  0.50400001928E-02 0. -1.
    10030    2    1    2    0    0  0.00000000000E+00  0.00000000000E+00 -0.61455789963E+03  0.22854063589E+04  0.22012271154E+04 0.  0.
        4    1    3    3  502    0  0.51660589393E+03  0.55824138907E+03 -0.11332090721E+04  0.13648001729E+04  0.12699999809E+01 0. -1.
       -4    1    3    3    0  502 -0.51660589393E+03 -0.55824138907E+03  0.51865117245E+03  0.92060618600E+03  0.12699999809E+01 0.  1.
</event>
<event>
 5   0  0.1082209E-06  0.2199768E+04  0.7818609E-02  0.8518525E-01
       -1   -1    0    0    0  501  0.00000000000E+00  0.00000000000E+00  0.67731308439E+03  0.67731308441E+03  0.50400001928E-02 0. -1.
        1   -1    0    0  501    0  0.00000000000E+00  0.00000000000E+00 -0.17860935859E+04  0.17860935859E+04  0.50400001928E-02 0.  1.
    10030    2    1    2    0    0  0.00000000000E+00  0.00000000000E+00 -0.11087805015E+04  0.24634066704E+04  0.21997677657E+04 0.  0.
        2    1    3    3  502    0 -0.98471526519E+03  0.46315437936E+03 -0.73345547519E+03  0.13123006770E+04  0.25500000920E-02 0.  1.
       -2    1    3    3    0  502  0.98471526519E+03 -0.46315437936E+03 -0.37532502636E+03  0.11511059934E+04  0.25500000920E-02 0. -1.
</event>
<event>
 5   0  0.1137869E-06  0.2201266E+04  0.7818609E-02  0.8517901E-01
        1   -1    0    0  501    0  0.00000000000E+00  0.00000000000E+00  0.20991393120E+04  0.20991393120E+04  0.50400001928E-02 0. -1.
       -1   -1    0    0    0  501  0.00000000000E+00  0.00000000000E+00 -0.57709036655E+03  0.57709036657E+03  0.50400001928E-02 0.  1.
    10030    2    1    2    0    0  0.00000000000E+00  0.00000000000E+00  0.15220489455E+04  0.26762296786E+04  0.22012660676E+04 0.  0.
        5    1    3    3  502    0  0.19219128220E+02 -0.41189890813E+03 -0.47961989022E+03  0.63252463549E+03  0.46999998093E+01 0.  1.
       -5    1    3    3    0  502 -0.19219128220E+02  0.41189890813E+03  0.20016688357E+04  0.20437050431E+04  0.46999998093E+01 0. -1.
</event>
<event>
 5   0  0.1107101E-06  0.2201750E+04  0.7818609E-02  0.8517700E-01
        1   -1    0    0  501    0  0.00000000000E+00  0.00000000000E+00  0.16980584940E+04  0.16980584940E+04  0.50400001928E-02 0. -1.
       -1   -1    0    0    0  501  0.00000000000E+00  0.00000000000E+00 -0.71371284706E+03  0.71371284708E+03  0.50400001928E-02 0.  1.
    10030    2    1    2    0    0  0.00000000000E+00  0.00000000000E+00  0.98434564696E+03  0.24117713411E+04  0.22017503603E+04 0.  0.
        1    1    3    3  502    0 -0.45214895086E+03 -0.42884362846E+03  0.14862523197E+04  0.16116114573E+04  0.50400001928E-02 0. -1.
       -1    1    3    3    0  502  0.45214895086E+03  0.42884362846E+03 -0.50190667277E+03  0.80015988379E+03  0.50400001928E-02 0.  1.
</event>
<event>
 5   0  0.2532239E-06  0.2200785E+04  0.7818609E-02  0.8518102E-01
        2   -1    0    0  501    0  0.00000000000E+00  0.00000000000E+00  0.21281582450E+04  0.21281582450E+04  0.25500000920E-02 0.  1.
       -2   -1    0    0    0  501  0.00000000000E+00  0.00000000000E+00 -0.56897232612E+03  0.56897232612E+03  0.25500000920E-02 0. -1.
    10030    2    1    2    0    0  0.00000000000E+00  0.00000000000E+00  0.15591859189E+04  0.26971305711E+04  0.22007845392E+04 0.  0.
        3    1    3    3  502    0  0.11982183079E+03 -0.75362112547E+02 -0.55776810627E+03  0.57544938067E+03  0.10100000352E+00 0. -1.
       -3    1    3    3    0  502 -0.11982183079E+03  0.75362112547E+02  0.21169540252E+04  0.21216811905E+04  0.10100000352E+00 0.  1.
</event>
<event>
 5   0  0.2532239E-06  0.2200180E+04  0.7818609E-02  0.8518353E-01
        2   -1    0    0  501    0  0.00000000000E+00  0.00000000000E+00  0.48514655905E+03  0.48514655906E+03  0.25500000920E-02 0.  1.
       -2   -1    0    0    0  501  0.00000000000E+00  0.00000000000E+00 -0.24944992129E+04  0.24944992129E+04  0.25500000920E-02 0. -1.
    10030    2    1    2    0    0  0.00000000000E+00  0.00000000000E+00 -0.20093526538E+04  0.29796457720E+04  0.22001797288E+04 0.  0.
        3    1    3    3  502    0  0.10897642346E+04 -0.89108352716E-01 -0.12083205845E+04  0.16271523408E+04  0.10100000352E+00 0. -1.
       -3    1    3    3    0  502 -0.10897642346E+04  0.89108352716E-01 -0.80103206939E+03  0.13524934312E+04  0.10100000352E+00 0.  1.
</event>
<event>
 5   0  0.1137869E-06  0.2202093E+04  0.7818609E-02  0.8517557E-01
        1   -1    0    0  501    0  0.00000000000E+00  0.00000000000E+00  0.10878382385E+04  0.10878382386E+04  0.50400001928E-02 0. -1.
       -1   -1    0    0    0  501  0.00000000000E+00  0.00000000000E+00 -0.11144151929E+04  0.11144151929E+04  0.50400001928E-02 0.  1.
    10030    2    1    2    0    0  0.00000000000E+00  0.00000000000E+00 -0.26576954343E+02  0.22022534314E+04  0.22020930593E+04 0.  0.
        5    1    3    3  502    0  0.63639058394E+03 -0.23505982497E+03  0.85397435206E+03  0.10906605249E+04  0.46999998093E+01 0. -1.
       -5    1    3    3    0  502 -0.63639058394E+03  0.23505982497E+03 -0.88055130640E+03  0.11115929065E+04  0.46999998093E+01 0.  1.
</event>
<event>
 5   0  0.1144271E-06  0.2199653E+04  0.7818609E-02  0.8518572E-01
       -1   -1    0    0    0  501  0.00000000000E+00  0.00000000000E+00  0.80611530562E+03  0.80611530564E+03  0.50400001928E-02 0. -1.
        1   -1    0    0  501    0  0.00000000000E+00  0.00000000000E+00 -0.15005531728E+04  0.15005531728E+04  0.50400001928E-02 0.  1.
    10030    2    1    2    0    0  0.00000000000E+00  0.00000000000E+00 -0.69443786714E+03  0.23066684784E+04  0.21996534995E+04 0.  0.
        3    1    3    3  502    0  0.67389864423E+03  0.75615880663E+03  0.10223940279E+03  0.10180218216E+04  0.10100000352E+00 0.  1.
       -3    1    3    3    0  502 -0.67389864423E+03 -0.75615880663E+03 -0.79667726993E+03  0.12886466568E+04  0.10100000352E+00 0. -1.
</event>
<event>
 5   0  0.1144271E-06  0.2200450E+04  0.7818609E-02  0.8518241E-01
        1   -1    0    0  501    0  0.00000000000E+00  0.00000000000E+00  0.13652465665E+04  0.13652465665E+04  0.50400001928E-02 0. -1.
       -1   -1    0    0    0  501  0.00000000000E+00  0.00000000000E+00 -0.88664946293E+03  0.88664946294E+03  0.50400001928E-02 0.  1.
    10030    2    1    2    0    0  0.00000000000E+00  0.00000000000E+00  0.47859710358E+03  0.22518960295E+04  0.22004500767E+04 0.  0.
        3    1    3    3  502    0  0.19102295431E+03  0.14801878596E+03 -0.85915351677E+03  0.89249319641E+03  0.10100000352E+00 0.  1.
       -3    1    3    3    0  502 -0.19102295431E+03 -0.14801878596E+03  0.13377506203E+04  0.13594028331E+04  0.10100000352E+00 0. -1.
</event>
<event>
 5   0  0.2606154E-06  0.2200913E+04  0.7818609E-02  0.8518048E-01
       -2   -1    0    0    0  501  0.00000000000E+00  0.00000000000E+00  0.42805358123E+03  0.42805358123E+03  0.25500000920E-02 0.  1.
        2   -1    0    0  501    0  0.00000000000E+00  0.00000000000E+00 -0.28290945082E+04  0.28290945082E+04  0.25500000920E-02 0. -1.
    10030    2    1    2    0    0  0.00000000000E+00  0.00000000000E+00 -0.24010409270E+04  0.32571480894E+04  0.22009125706E+04 0.  0.
        2    1    3    3  502    0 -0.47540862484E+03 -0.36705596230E+03 -0.25651373466E+04  0.26345157140E+04  0.25500000920E-02 0. -1.
       -2    1    3    3    0  502  0.47540862484E+03  0.36705596230E+03  0.16409641966E+03  0.62263237547E+03  0.25500000920E-02 0.  1.
</event>
<event>
 5   0  0.2606154E-06  0.2200985E+04  0.7818609E-02  0.8518018E-01
        2   -1    0    0  501    0  0.00000000000E+00  0.00000000000E+00  0.12023540447E+04  0.12023540447E+04  0.25500000920E-02 0. -1.
       -2   -1    0    0    0  501  0.00000000000E+00  0.00000000000E+00 -0.10072608454E+04  0.10072608455E+04  0.25500000920E-02 0.  1.
    10030    2    1    2    0    0  0.00000000000E+00  0.00000000000E+00  0.19509319928E+03  0.22096148902E+04  0.22009853717E+04 0.  0.
        2    1    3    3  502    0 -0.65595449291E+03 -0.37605025202E+03 -0.70520971659E+03  0.10339298009E+04  0.25500000920E-02 0.  1.
       -2    1    3    3    0  502  0.65595449291E+03  0.37605025202E+03  0.90030291587E+03  0.11756850893E+04  0.25500000920E-02 0. -1.
</event>
<event>
 5   0  0.1146827E-06  0.2199321E+04  0.7818609E-02  0.8518711E-01
        1   -1    0    0  501    0  0.00000000000E+00  0.00000000000E+00  0.12084275121E+04  0.12084275121E+04  0.50400001928E-02 0.  1.
       -1   -1    0    0    0  501  0.00000000000E+00  0.00000000000E+00 -0.10006828323E+04  0.10006828324E+04  0.50400001928E-02 0. -1.
    10030    2    1    2    0    0  0.00000000000E+00  0.00000000000E+00  0.20774467974E+03  0.22091103445E+04  0.21993205001E+04 0.  0.
        4    1    3    3  502    0 -0.54878020696E+03 -0.92672241820E+03  0.32684445907E+03  0.11255234646E+04  0.12699999809E+01 0.  1.
       -4    1    3    3    0  502  0.54878020696E+03  0.92672241820E+03 -0.11909977933E+03  0.10835868799E+04  0.12699999809E+01 0. -1.
</event>
<event>
 5   0  0.2581058E-06  0.2197782E+04  0.7818609E-02  0.8519352E-01
       -2   -1    0    0    0  501  0.00000000000E+00  0.00000000000E+00  0.72963986954E+03  0.72963986954E+03  0.25500000920E-02 0.  1.
        2   -1    0    0  501    0  0.00000000000E+00  0.00000000000E+00 -0.16550109337E+04  0.16550109337E+04  0.25500000920E-02 0. -1.
    10030    2    1    2    0    0  0.00000000000E+00  0.00000000000E+00 -0.92537106421E+03  0.23846508033E+04  0.21977824840E+04 0.  0.
        1    1    3    3  502    0  0.57760110375E+03 -0.82727309403E+03 -0.93508708903E+03  0.13756422759E+04  0.50400001928E-02 0. -1.
       -1    1    3    3    0  502 -0.57760110375E+03  0.82727309403E+03  0.97160248234E+01  0.10090085274E+04  0.50400001928E-02 0.  1.
</event>
<event>
 5   0  0.8905000E-07  0.2200185E+04  0.7818609E-02  0.8518351E-01
       -3   -1    0    0    0  501  0.00000000000E+00  0.00000000000E+00  0.82974611459E+03  0.82974612074E+03  0.10100000352E+00 0.  1.
        3   -1    0    0  501    0  0.00000000000E+00  0.00000000000E+00 -0.14585225748E+04  0.14585225783E+04  0.10100000352E+00 0. -1.
    10030    2    1    2    0    0  0.00000000000E+00  0.00000000000E+00 -0.62877646016E+03  0.22882686990E+04  0.22001849472E+04 0.  0.
        5    1    3    3  502    0 -0.30407929124E+03 -0.53431394559E+03  0.63439807236E+03  0.88342436689E+03  0.46999998093E+01 0.  1.
       -5    1    3    3    0  502  0.30407929124E+03  0.53431394559E+03 -0.12631745325E+04  0.14048443321E+04  0.46999998093E+01 0. -1.
</event>
<event>
 5   0  0.2556869E-06  0.2205238E+04  0.7818609E-02  0.8516251E-01
       -2   -1    0    0    0  501  0.00000000000E+00  0.00000000000E+00  0.72261842910E+03  0.72261842911E+03  0.25500000920E-02 0. -1.
        2   -1    0    0  501    0  0.00000000000E+00  0.00000000000E+00 -0.16824490609E+04  0.16824490609E+04  0.25500000920E-02 0.  1.
    10030    2    1    2    0    0  0.00000000000E+00  0.00000000000E+00 -0.95983063177E+03  0.24050674900E+04  0.22052380347E+04 0.  0.
        5    1    3    3  502    0 -0.37164946549E+03  0.72211119502E+03  0.33343749429E+03  0.87793539384E+03  0.46999998093E+01 0. -1.
       -5    1    3    3    0  502  0.37164946549E+03 -0.72211119502E+03 -0.12932681261E+04  0.15271320961E+04  0.46999998093E+01 0.  1.
</event>
<event>
 5   0  0.2556869E-06  0.2200741E+04  0.7818609E-02  0.8518120E-01
       -2   -1    0    0    0  501  0.00000000000E+00  0.00000000000E+00  0.17663569626E+04  0.17663569626E+04  0.25500000920E-02 0. -1.
        2   -1    0    0  501    0  0.00000000000E+00  0.00000000000E+00 -0.68548716250E+03  0.68548716250E+03  0.25500000920E-02 0.  1.
    10030    2    1    2    0    0  0.00000000000E+00  0.00000000000E+00  0.10808698001E+04  0.24518441251E+04  0.22007408046E+04 0.  0.
        5    1    3    3  502    0  0.38786297619E+03 -0.15140187121E+03 -0.59432487050E+03  0.72567510402E+03  0.46999998093E+01 0.  1.
       -5    1    3    3    0  502 -0.38786297619E+03  0.15140187121E+03  0.16751946706E+04  0.17261690211E+04  0.46999998093E+01 0. -1.
</event>
<event>
 5   0  0.2606154E-06  0.2197269E+04  0.7818609E-02  0.8519566E-01
        2   -1    0    0  501    0  0.00000000000E+00  0.00000000000E+00  0.83480349420E+03  0.83480349420E+03  0.25500000920E-02 0.  1.
       -2   -1    0    0    0  501  0.00000000000E+00  0.00000000000E+00 -0.14458467302E+04  0.14458467302E+04  0.25500000920E-02 0. -1.
    10030    2    1    2    0    0  0.00000000000E+00  0.00000000000E+00 -0.61104323599E+03  0.22806502244E+04  0.21972691255E+04 0.  0.
        2    1    3    3  502    0 -0.85182699560E+03  0.12807438577E+03  0.40225334155E+03  0.95069449852E+03  0.25500000920E-02 0.  1.
       -2    1    3    3    0  502  0.85182699560E+03 -0.12807438577E+03 -0.10132965775E+04  0.13299557259E+04  0.25500000920E-02 0. -1.
</event>
<event>
 5   0  0.1137869E-06  0.2200667E+04  0.7818609E-02  0.8518151E-01
        1   -1    0    0  501    0  0.00000000000E+00  0.00000000000E+00  0.12274709267E+04  0.12274709267E+04  0.50400001928E-02 0.  1.
       -1   -1    0    0    0  501  0.00000000000E+00  0.00000000000E+00 -0.98636440996E+03  0.98636440997E+03  0.50400001928E-02 0. -1.
    10030    2    1    2    0    0  0.00000000000E+00  0.00000000000E+00  0.24110651674E+03  0.22138353367E+04  0.22006668411E+04 0.  0.
        5    1    3    3  502    0 -0.63688465275E+03 -0.79694303828E+03 -0.29418947640E+03  0.10617484661E+04  0.46999998093E+01 0. -1.
       -5    1    3    3    0  502  0.63688465275E+03  0.79694303828E+03  0.53529599314E+03  0.11520868706E+04  0.46999998093E+01 0.  1.
</event>
<event>
 5   0  0.2532239E-06  0.2197933E+04  0.7818609E-02  0.8519289E-01
        2   -1    0    0  501    0  0.00000000000E+00  0.00000000000E+00  0.23648409678E+04  0.23648409678E+04  0.25500000920E-02 0.  1.
       -2   -1    0    0    0  501  0.00000000000E+00  0.00000000000E+00 -0.51070146156E+03  0.51070146157E+03  0.25500000920E-02 0. -1.
    10030    2    1    2    0    0  0.00000000000E+00  0.00000000000E+00  0.18541395063E+04  0.28755424294E+04  0.21979333372E+04 0.  0.
        3    1    3    3  502    0  0.73944467830E+03 -0.79321562108E+03  0.69392066885E+03  0.12874375164E+04  0.10100000352E+00 0. -1.
       -3    1    3    3    0  502 -0.73944467830E+03  0.79321562108E+03  0.11602188374E+04  0.15881049130E+04  0.10100000352E+00 0.  1.
</event>
<event>
 5   0  0.1144271E-06  0.2199743E+04  0.7818609E-02  0.8518535E-01
       -1   -1    0    0    0  501  0.00000000000E+00  0.00000000000E+00  0.89940719497E+03  0.89940719498E+03  0.50400001928E-02 0. -1.
        1   -1    0    0  501    0  0.00000000000E+00  0.00000000000E+00 -0.13450161616E+04  0.13450161616E+04  0.50400001928E-02 0.  1.
    10030    2    1    2    0    0  0.00000000000E+00  0.00000000000E+00 -0.44560896662E+03  0.22444233566E+04  0.21997429060E+04 0.  0.
        3    1    3    3  502    0 -0.66633602383E+03  0.40781464597E+03 -0.10127397151E+04  0.12790458252E+04  0.10100000352E+00 0.  1.
       -3    1    3    3    0  502  0.66633602383E+03 -0.40781464597E+03  0.56713074847E+03  0.96537753142E+03  0.10100000352E+00 0. -1.
</event>
<event>
 5   0  0.2524749E-06  0.2199933E+04  0.7818609E-02  0.8518456E-01
        2   -1    0    0  501    0  0.00000000000E+00  0.00000000000E+00  0.19236517652E+04  0.19236517652E+04  0.25500000920E-02 0. -1.
       -2   -1    0    0    0  501  0.00000000000E+00  0.00000000000E+00 -0.62897393971E+03  0.62897393972E+03  0.25500000920E-02 0.  1.
    10030    2    1    2    0    0  0.00000000000E+00  0.00000000000E+00  0.12946778255E+04  0.25526257049E+04  0.21999334803E+04 0.  0.
        4    1    3    3  502    0  0.49804806838E+03  0.65481050361E+03  0.14945283297E+04  0.17060027009E+04  0.12699999809E+01 0. -1.
       -4    1    3    3    0  502 -0.49804806838E+03 -0.65481050361E+03 -0.19985050425E+03  0.84662300406E+03  0.12699999809E+01 0.  1.
</event>
<event>
 5   0  0.1082209E-06  0.2200341E+04  0.7818609E-02  0.8518286E-01
        1   -1    0    0  501    0  0.00000000000E+00  0.00000000000E+00  0.13944836894E+04  0.13944836894E+04  0.50400001928E-02 0.  1.
       -1   -1    0    0    0  501  0.00000000000E+00  0.00000000000E+00 -0.86797361187E+03  0.86797361188E+03  0.50400001928E-02 0. -1.
    10030    2    1    2    0    0  0.00000000000E+00  0.00000000000E+00  0.52651007755E+03  0.22624573013E+04  0.22003409232E+04 0.  0.
        2    1    3    3  502    0 -0.10776561430E+03  0.74569524655E+03 -0.56106268650E+03  0.93939670350E+03  0.25500000920E-02 0. -1.
       -2    1    3    3    0  502  0.10776561430E+03 -0.74569524655E+03  0.10875727641E+04  0.13230605978E+04  0.25500000920E-02 0.  1.
</event>
<event>
 5   0  0.1107101E-06  0.2199967E+04  0.7818609E-02  0.8518442E-01
       -1   -1    0    0    0  501  0.00000000000E+00  0.00000000000E+00  0.99819085926E+03  0.99819085927E+03  0.50400001928E-02 0.  1.
        1   -1    0    0  501    0  0.00000000000E+00  0.00000000000E+00 -0.12121567408E+04  0.12121567408E+04  0.50400001928E-02 0. -1.
    10030    2    1    2    0    0  0.00000000000E+00  0.00000000000E+00 -0.21396588151E+03  0.22103476001E+04  0.21999670713E+04 0.  0.
        1    1    3    3  502    0 -0.93501929184E+03 -0.12716177844E+02  0.47500929930E+03  0.10488358364E+04  0.50400001928E-02 0.  1.
       -1    1    3    3    0  502  0.93501929184E+03  0.12716177844E+02 -0.68897518081E+03  0.11615117636E+04  0.50400001928E-02 0. -1.
</event>
<event>
 5   0  0.2556869E-06  0.2199828E+04  0.7818609E-02  0.8518500E-01
        2   -1    0    0  501    0  0.00000000000E+00  0.00000000000E+00  0.13089675705E+04  0.13089675705E+04  0.25500000920E-02 0.  1.
       -2   -1    0    0    0  501  0.00000000000E+00  0.00000000000E+00 -0.92424774372E+03  0.92424774373E+03  0.25500000920E-02 0. -1.
    10030    2    1    2    0    0  0.00000000000E+00  0.00000000000E+00  0.38471982679E+03  0.22332153142E+04  0.21998275602E+04 0.  0.
        5    1    3    3  502    0  0.48114080367E+03 -0.73740202228E+03 -0.47683379707E+03  0.10013245106E+04  0.46999998093E+01 0. -1.
       -5    1    3    3    0  502 -0.48114080367E+03  0.73740202228E+03  0.86155362386E+03  0.12318908037E+04  0.46999998093E+01 0.  1.
</event>
<event>
 5   0  0.1137869E-06  0.2195355E+04  0.7818609E-02  0.8520364E-01
       -1   -1    0    0    0  501  0.00000000000E+00  0.00000000000E+00  0.86995558628E+03  0.86995558630E+03  0.50400001928E-02 0. -1.
        1   -1    0    0  501    0  0.00000000000E+00  0.00000000000E+00 -0.13850091310E+04  0.13850091310E+04  0.50400001928E-02 0.  1.
    10030    2    1    2    0    0  0.00000000000E+00  0.00000000000E+00 -0.51505354470E+03  0.22549647173E+04  0.21953554888E+04 0.  0.
        5    1    3    3  502    0 -0.79526506660E+03 -0.32523748227E+03 -0.95919172481E+03  0.12877487336E+04  0.46999998093E+01 0.  1.
       -5    1    3    3    0  502  0.79526506660E+03  0.32523748227E+03  0.44413818010E+03  0.96721598366E+03  0.46999998093E+01 0. -1.
</event>
<event>
 5   0  0.2532239E-06  0.2202740E+04  0.7818609E-02  0.8517289E-01
        2   -1    0    0  501    0  0.00000000000E+00  0.00000000000E+00  0.98899684159E+03  0.98899684159E+03  0.25500000920E-02 0. -1.
       -2   -1    0    0    0  501  0.00000000000E+00  0.00000000000E+00 -0.12265110117E+04  0.12265110117E+04  0.25500000920E-02 0.  1.
    10030    2    1    2    0    0  0.00000000000E+00  0.00000000000E+00 -0.23751417016E+03  0.22155078533E+04  0.22027396730E+04 0.  0.
        3    1    3    3  502    0 -0.83087841317E+03  0.70982222986E+03  0.19183682933E+02  0.10929659461E+04  0.10100000352E+00 0.  1.
       -3    1    3    3    0  502  0.83087841317E+03 -0.70982222986E+03 -0.25669785309E+03  0.11225419072E+04  0.10100000352E+00 0. -1.
</event>
<event>
 5   0  0.2581058E-06  0.2201128E+04  0.7818609E-02  0.8517959E-01
       -2   -1    0    0    0  501  0.00000000000E+00  0.00000000000E+00  0.13693708358E+04  0.13693708358E+04  0.25500000920E-02 0. -1.
        2   -1    0    0  501    0  0.00000000000E+00  0.00000000000E+00 -0.88452358585E+03  0.88452358586E+03  0.25500000920E-02 0.  1.
    10030    2    1    2    0    0  0.00000000000E+00  0.00000000000E+00  0.48484724994E+03  0.22538944217E+04  0.22011277128E+04 0.  0.
        1    1    3    3  502    0  0.52309843800E+02 -0.10261150724E+04 -0.16148435515E+03  0.10400604110E+04  0.50400001928E-02 0.  1.
       -1    1    3    3    0  502 -0.52309843800E+02  0.10261150724E+04  0.64633160509E+03  0.12138340106E+04  0.50400001928E-02 0. -1.
</event>
<event>
 5   0  0.1082209E-06  0.2201176E+04  0.7818609E-02  0.8517939E-01
       -1   -1    0    0    0  501  0.00000000000E+00  0.00000000000E+00  0.15906761632E+04  0.15906761632E+04  0.50400001928E-02 0. -1.
        1   -1    0    0  501    0  0.00000000000E+00  0.00000000000E+00 -0.76149621426E+03  0.76149621427E+03  0.50400001928E-02 0.  1.
    10030    2    1    2    0    0  0.00000000000E+00  0.00000000000E+00  0.82917994890E+03  0.23521723774E+04  0.22011759370E+04 0.  0.
        2    1    3    3  502    0 -0.53636330789E+03 -0.65218029446E+03 -0.33971398081E+03  0.91018147822E+03  0.25500000920E-02 0.  1.
       -2    1    3    3    0  502  0.53636330789E+03  0.65218029446E+03  0.11688939297E+04  0.14419908992E+04  0.25500000920E-02 0. -1.
</event>
<event>
 5   0  0.1082209E-06  0.2200384E+04  0.7818609E-02  0.8518268E-01
        1   -1    0    0  501    0  0.00000000000E+00  0.00000000000E+00  0.17631896885E+04  0.17631896885E+04  0.50400001928E-02 0. -1.
       -1   -1    0    0    0  501  0.00000000000E+00  0.00000000000E+00 -0.68649605336E+03  0.68649605338E+03  0.50400001928E-02 0.  1.
    10030    2    1    2    0    0  0.00000000000E+00  0.00000000000E+00  0.10766936352E+04  0.24496857419E+04  0.22003842960E+04 0.  0.
        2    1    3    3  502    0 -0.23637808054E+03 -0.10638084044E+04  0.70667175884E+03  0.12988255822E+04  0.25500000920E-02 0. -1.
       -2    1    3    3    0  502  0.23637808054E+03  0.10638084044E+04  0.37002187631E+03  0.11508601597E+04  0.25500000920E-02 0.  1.
</event>
<event>
 5   0  0.2532239E-06  0.2199788E+04  0.7818609E-02  0.8518516E-01
        2   -1    0    0  501    0  0.00000000000E+00  0.00000000000E+00  0.27656089649E+04  0.27656089649E+04  0.25500000920E-02 0.  1.
       -2   -1    0    0    0  501  0.00000000000E+00  0.00000000000E+00 -0.43743237517E+03  0.43743237518E+03  0.25500000920E-02 0. -1.
    10030    2    1    2    0    0  0.00000000000E+00  0.00000000000E+00  0.23281765898E+04  0.32030413401E+04  0.21997880792E+04 0.  0.
        3    1    3    3  502    0  0.72854087837E+03  0.19299232146E+03 -0.23568336914E+01  0.75367327965E+03  0.10100000352E+00 0. -1.
       -3    1    3    3    0  502 -0.72854087837E+03 -0.19299232146E+03  0.23305334234E+04  0.24493680605E+04  0.10100000352E+00 0.  1.
</event>
<event>
 5   0  0.2556869E-06  0.2199690E+04  0.7818609E-02  0.8518557E-01
       -2   -1    0    0    0  501  0.00000000000E+00  0.00000000000E+00  0.97357909637E+03  0.97357909637E+03  0.25500000920E-02 0.  1.
        2   -1    0    0  501    0  0.00000000000E+00  0.00000000000E+00 -0.12424867743E+04  0.12424867743E+04  0.25500000920E-02 0. -1.
    10030    2    1    2    0    0  0.00000000000E+00  0.00000000000E+00 -0.26890767797E+03  0.22160658707E+04  0.21996901155E+04 0.  0.
        5    1    3    3  502    0  0.84881080453E+02 -0.15971905281E+03 -0.12273905622E+04  0.12406549302E+04  0.46999998093E+01 0. -1.
       -5    1    3    3    0  502 -0.84881080453E+02  0.15971905281E+03  0.95848288420E+03  0.97541094055E+03  0.46999998093E+01 0.  1.
</event>
<event>
 5   0  0.1146827E-06  0.2199540E+04  0.7818609E-02  0.8518620E-01
       -1   -1    0    0    0  501  0.00000000000E+00  0.00000000000E+00  0.92154811445E+03  0.92154811446E+03  0.50400001928E-02 0. -1.
        1   -1    0    0  501    0  0.00000000000E+00  0.00000000000E+00 -0.13124584062E+04  0.13124584063E+04  0.50400001928E-02 0.  1.
    10030    2    1    2    0    0  0.00000000000E+00  0.00000000000E+00 -0.39091029179E+03  0.22340065207E+04  0.21995395605E+04 0.  0.
        4    1    3    3  502    0 -0.79301661946E+03  0.15034537571E+01  0.57846568604E+03  0.98158126609E+03  0.12699999809E+01 0.  1.
       -4    1    3    3    0  502  0.79301661946E+03 -0.15034537571E+01 -0.96937597783E+03  0.12524252546E+04  0.12699999809E+01 0. -1.
</event>
<event>
 5   0  0.1146827E-06  0.2199965E+04  0.7818609E-02  0.8518443E-01
        1   -1    0    0  501    0  0.00000000000E+00  0.00000000000E+00  0.10705117886E+04  0.10705117886E+04  0.50400001928E-02 0. -1.
       -1   -1    0    0    0  501  0.00000000000E+00  0.00000000000E+00 -0.11302647706E+04  0.11302647706E+04  0.50400001928E-02 0.  1.
    10030    2    1    2    0    0  0.00000000000E+00  0.00000000000E+00 -0.59752981939E+02  0.22007765592E+04  0.21999652372E+04 0.  0.
        4    1    3    3  502    0  0.10739602356E+04 -0.21557417628E+03  0.70646064522E+02  0.10976590055E+04  0.12699999809E+01 0.  1.
       -4    1    3    3    0  502 -0.10739602356E+04  0.21557417628E+03 -0.13039904646E+03  0.11031175537E+04  0.12699999809E+01 0. -1.
</event>
<event>
 5   0  0.1107101E-06  0.2200270E+04  0.7818609E-02  0.8518316E-01
        1   -1    0    0  501    0  0.00000000000E+00  0.00000000000E+00  0.10956446582E+04  0.10956446582E+04  0.50400001928E-02 0.  1.
       -1   -1    0    0    0  501  0.00000000000E+00  0.00000000000E+00 -0.11046437944E+04  0.11046437944E+04  0.50400001928E-02 0. -1.
    10030    2    1    2    0    0  0.00000000000E+00  0.00000000000E+00 -0.89991362178E+01  0.22002884526E+04  0.22002700493E+04 0.  0.
        1    1    3    3  502    0 -0.16847908936E+03  0.27741700349E+03  0.10466760399E+04  0.10958449389E+04  0.50400001928E-02 0.  1.
       -1    1    3    3    0  502  0.16847908936E+03 -0.27741700349E+03 -0.10556751762E+04  0.11044435137E+04  0.50400001928E-02 0. -1.
</event>
<event>
 5   0  0.1107101E-06  0.2200390E+04  0.7818609E-02  0.8518266E-01
       -1   -1    0    0    0  501  0.00000000000E+00  0.00000000000E+00  0.92757799053E+03  0.92757799054E+03  0.50400001928E-02 0.  1.
        1   -1    0    0  501    0  0.00000000000E+00  0.00000000000E+00 -0.13049345243E+04  0.13049345243E+04  0.50400001928E-02 0. -1.
    10030    2    1    2    0    0  0.00000000000E+00  0.00000000000E+00 -0.37735653373E+03  0.22325125148E+04  0.22003895508E+04 0.  0.
        1    1    3    3  502    0  0.98102135568E+03  0.37814888238E+03 -0.51749134321E+03  0.11718347869E+04  0.50400001928E-02 0. -1.
       -1    1    3    3    0  502 -0.98102135568E+03 -0.37814888238E+03  0.14013480948E+03  0.10606777279E+04  0.50400001928E-02 0.  1.
</event>
<event>
 5   0  0.1082209E-06  0.2199328E+04  0.7818609E-02  0.8518708E-01
        1   -1    0    0  501    0  0.00000000000E+00  0.00000000000E+00  0.20911697938E+04  0.20911697938E+04  0.50400001928E-02 0.  1.
       -1   -1    0    0    0  501  0.00000000000E+00  0.00000000000E+00 -0.57827015313E+03  0.57827015315E+03  0.50400001928E-02 0. -1.
    10030    2    1    2    0    0  0.00000000000E+00  0.00000000000E+00  0.15128996407E+04  0.26694399470E+04  0.21993281492E+04 0.  0.
        2    1    3    3  502    0 -0.62742980286E+03 -0.39287769078E+03  0.17434328695E+04  0.18940906018E+04  0.25500000920E-02 0.  1.
       -2    1    3    3    0  502  0.62742980286E+03  0.39287769078E+03 -0.23053322882E+03  0.77534934515E+03  0.25500000920E-02 0. -1.
</event>
<event>
 5   0  0.1137869E-06  0.2199916E+04  0.7818609E-02  0.8518463E-01
       -1   -1    0    0    0  501  0.00000000000E+00  0.00000000000E+00  0.60627070347E+03  0.60627070349E+03  0.50400001928E-02 0. -1.
        1   -1    0    0  501    0  0.00000000000E+00  0.00000000000E+00 -0.19956565507E+04  0.19956565507E+04  0.50400001928E-02 0.  1.
    10030    2    1    2    0    0  0.00000000000E+00  0.00000000000E+00 -0.13893858472E+04  0.26019272542E+04  0.21999164538E+04 0.  0.
        5    1    3    3  502    0 -0.61366706407E+03  0.69426014233E+03  0.63248452309E+01  0.92663180628E+03  0.46999998093E+01 0. -1.
       -5    1    3    3    0  502  0.61366706407E+03 -0.69426014233E+03 -0.13957106924E+04  0.16752954479E+04  0.46999998093E+01 0.  1.
</event>
<event>
 5   0  0.1082209E-06  0.2200446E+04  0.7818609E-02  0.8518242E-01
       -1   -1    0    0    0  501  0.00000000000E+00  0.00000000000E+00  0.11960866391E+04  0.11960866391E+04  0.50400001928E-02 0. -1.
        1   -1    0    0  501    0  0.00000000000E+00  0.00000000000E+00 -0.10120426883E+04  0.10120426883E+04  0.50400001928E-02 0.  1.
    10030    2    1    2    0    0  0.00000000000E+00  0.00000000000E+00  0.18404395084E+03  0.22081293275E+04  0.22004460800E+04 0.  0.
        2    1    3    3  502    0  0.18008997876E+03 -0.84972438751E+02 -0.99380889239E+03  0.10135624452E+04  0.25500000920E-02 0.  1.
       -2    1    3    3    0  502 -0.18008997876E+03  0.84972438751E+02  0.11778528432E+04  0.11945668822E+04  0.25500000920E-02 0. -1.
</event>
<event>
 5   0  0.2581058E-06  0.2199950E+04  0.7818609E-02  0.8518449E-01
       -2   -1    0    0    0  501  0.00000000000E+00  0.00000000000E+00  0.99498843623E+03  0.99498843623E+03  0.25500000920E-02 0.  1.
        2   -1    0    0  501    0  0.00000000000E+00  0.00000000000E+00 -0.12160396872E+04  0.12160396872E+04  0.25500000920E-02 0. -1.
    10030    2    1    2    0    0  0.00000000000E+00  0.00000000000E+00 -0.22105125098E+03  0.22110281234E+04  0.21999503874E+04 0.  0.
        1    1    3    3  502    0  0.36545587062E+03 -0.78260823166E+03  0.57401477466E+03  0.10370759852E+04  0.50400001928E-02 0.  1.
       -1    1    3    3    0  502 -0.36545587062E+03  0.78260823166E+03 -0.79506602563E+03  0.11739521382E+04  0.50400001928E-02 0. -1.
</event>
<event>
 5   0  0.2581058E-06  0.2200909E+04  0.7818609E-02  0.8518050E-01
        2   -1    0    0  501    0  0.00000000000E+00  0.00000000000E+00  0.16761010651E+04  0.16761010651E+04  0.25500000920E-02 0.  1.
       -2   -1    0    0    0  501  0.00000000000E+00  0.00000000000E+00 -0.72251037935E+03  0.72251037935E+03  0.25500000920E-02 0. -1.
    10030    2    1    2    0    0  0.00000000000E+00  0.00000000000E+00  0.95359068571E+03  0.23986114444E+04  0.22009092815E+04 0.  0.
        1    1    3    3  502    0 -0.27645200010E+03 -0.10602933980E+04  0.36590777553E+03  0.11552213201E+04  0.50400001928E-02 0.  1.
       -1    1    3    3    0  502  0.27645200010E+03  0.10602933980E+04  0.58768291018E+03  0.12433901243E+04  0.50400001928E-02 0. -1.
</event>
<event>
 5   0  0.2606154E-06  0.2199394E+04  0.7818609E-02  0.8518681E-01
       -2   -1    0    0    0  501  0.00000000000E+00  0.00000000000E+00  0.96872920442E+03  0.96872920443E+03  0.25500000920E-02 0.  1.
        2   -1    0    0  501    0  0.00000000000E+00  0.00000000000E+00 -0.12483704836E+04  0.12483704836E+04  0.25500000920E-02 0. -1.
    10030    2    1    2    0    0  0.00000000000E+00  0.00000000000E+00 -0.27964127921E+03  0.22170996881E+04  0.21993935032E+04 0.  0.
        2    1    3    3  502    0 -0.80984630220E+03  0.50615167406E+02 -0.88803589559E+03  0.12029217266E+04  0.25500000920E-02 0. -1.
       -2    1    3    3    0  502  0.80984630220E+03 -0.50615167406E+02  0.60839461638E+03  0.10141779615E+04  0.25500000920E-02 0.  1.
</event>
<event>
 5   0  0.1146827E-06  0.2198068E+04  0.7818609E-02  0.8519233E-01
       -1   -1    0    0    0  501  0.00000000000E+00  0.00000000000E+00  0.63306997741E+03  0.63306997743E+03  0.50400001928E-02 0. -1.
        1   -1    0    0  501    0  0.00000000000E+00  0.00000000000E+00 -0.19079658056E+04  0.19079658056E+04  0.50400001928E-02 0.  1.
    10030    2    1    2    0    0  0.00000000000E+00  0.00000000000E+00 -0.12748958282E+04  0.25410357831E+04  0.21980681241E+04 0.  0.
        4    1    3    3  502    0 -0.90922519608E+03  0.59176416405E+03 -0.43391095142E+03  0.11683987375E+04  0.12699999809E+01 0. -1.
       -4    1    3    3    0  502  0.90922519608E+03 -0.59176416405E+03 -0.84098487679E+03  0.13726370456E+04  0.12699999809E+01 0.  1.
</event>
<event>
 5   0  0.1146827E-06  0.2200342E+04  0.7818609E-02  0.8518286E-01
       -1   -1    0    0    0  501  0.00000000000E+00  0.00000000000E+00  0.11639320949E+04  0.11639320949E+04  0.50400001928E-02 0. -1.
        1   -1    0    0  501    0  0.00000000000E+00  0.00000000000E+00 -0.10399024504E+04  0.10399024505E+04  0.50400001928E-02 0.  1.
    10030    2    1    2    0    0  0.00000000000E+00  0.00000000000E+00  0.12402964447E+03  0.22038345454E+04  0.22003416441E+04 0.  0.
        4    1    3    3  502    0  0.76856429926E+03 -0.57445276176E+02  0.84836186633E+03  0.11461721123E+04  0.12699999809E+01 0. -1.
       -4    1    3    3    0  502 -0.76856429926E+03  0.57445276176E+02 -0.72433222186E+03  0.10576624331E+04  0.12699999809E+01 0.  1.
</event>
<event>
 5   0  0.1107101E-06  0.2203896E+04  0.7818609E-02  0.8516808E-01
       -1   -1    0    0    0  501  0.00000000000E+00  0.00000000000E+00  0.64607483242E+03  0.64607483244E+03  0.50400001928E-02 0.  1.
        1   -1    0    0  501    0  0.00000000000E+00  0.00000000000E+00 -0.18794865133E+04  0.18794865133E+04  0.50400001928E-02 0. -1.
    10030    2    1    2    0    0  0.00000000000E+00  0.00000000000E+00 -0.12334116809E+04  0.25255613457E+04  0.22038955821E+04 0.  0.
        1    1    3    3  502    0 -0.94654046455E+03 -0.49019913253E+03 -0.29654591100E+03  0.11064237515E+04  0.50400001928E-02 0. -1.
       -1    1    3    3    0  502  0.94654046455E+03  0.49019913253E+03 -0.93686576987E+03  0.14191375942E+04  0.50400001928E-02 0.  1.
</event>
<event>
 5   0  0.1082209E-06  0.2202693E+04  0.7818609E-02  0.8517308E-01
       -1   -1    0    0    0  501  0.00000000000E+00  0.00000000000E+00  0.63014056084E+03  0.63014056086E+03  0.50400001928E-02 0. -1.
        1   -1    0    0  501    0  0.00000000000E+00  0.00000000000E+00 -0.19249103453E+04  0.19249103453E+04  0.50400001928E-02 0.  1.
    10030    2    1    2    0    0  0.00000000000E+00  0.00000000000E+00 -0.12947697845E+04  0.25550509062E+04  0.22026929742E+04 0.  0.
        2    1    3    3  502    0 -0.95543610861E+03 -0.11461905313E+02 -0.12071811573E+02  0.95558111197E+03  0.25500000920E-02 0. -1.
       -2    1    3    3    0  502  0.95543610861E+03  0.11461905313E+02 -0.12826979729E+04  0.15994697942E+04  0.25500000920E-02 0.  1.
</event>
<event>
 5   0  0.1082209E-06  0.2197571E+04  0.7818609E-02  0.8519440E-01
       -1   -1    0    0    0  501  0.00000000000E+00  0.00000000000E+00  0.75621742732E+03  0.75621742734E+03  0.50400001928E-02 0. -1.
        1   -1    0    0  501    0  0.00000000000E+00  0.00000000000E+00 -0.15965380126E+04  0.15965380126E+04  0.50400001928E-02 0.  1.
    10030    2    1    2    0    0  0.00000000000E+00  0.00000000000E+00 -0.84032058524E+03  0.23527554399E+04  0.21975712671E+04 0.  0.
        2    1    3    3  502    0  0.13139299388E+03 -0.42647631271E+03  0.65482780289E+03  0.79243019603E+03  0.25500000920E-02 0. -1.
       -2    1    3    3    0  502 -0.13139299388E+03  0.42647631271E+03 -0.14951483881E+04  0.15603252439E+04  0.25500000920E-02 0.  1.
</event>
<event>
 5   0  0.2532239E-06  0.2200455E+04  0.7818609E-02  0.8518239E-01
       -2   -1    0    0    0  501  0.00000000000E+00  0.00000000000E+00  0.57590620227E+03  0.57590620228E+03  0.25500000920E-02 0.  1.
        2   -1    0    0  501    0  0.00000000000E+00  0.00000000000E+00 -0.21019066777E+04  0.21019066777E+04  0.25500000920E-02 0. -1.
    10030    2    1    2    0    0  0.00000000000E+00  0.00000000000E+00 -0.15260004754E+04  0.26778128800E+04  0.22004554913E+04 0.  0.
        3    1    3    3  502    0  0.49201102018E+03  0.96625292669E+03 -0.98995636640E+03  0.14682415264E+04  0.10100000352E+00 0.  1.
       -3    1    3    3    0  502 -0.49201102018E+03 -0.96625292669E+03 -0.53604410902E+03  0.12095713536E+04  0.10100000352E+00 0. -1.
</event>
<event>
 5   0  0.2581058E-06  0.2200071E+04  0.7818609E-02  0.8518399E-01
        2   -1    0    0  501    0  0.00000000000E+00  0.00000000000E+00  0.15861048594E+04  0.15861048594E+04  0.25500000920E-02 0. -1.
       -2   -1    0    0    0  501  0.00000000000E+00  0.00000000000E+00 -0.76292441717E+03  0.76292441717E+03  0.25500000920E-02 0.  1.
    10030    2    1    2    0    0  0.00000000000E+00  0.00000000000E+00  0.82318044225E+03  0.23490292766E+04  0.22000710220E+04 0.  0.
        1    1    3    3  502    0  0.80068138445E+03  0.57283769070E+03 -0.11239619527E+03  0.99089182257E+03  0.50400001928E-02 0.  1.
       -1    1    3    3    0  502 -0.80068138445E+03 -0.57283769070E+03  0.93557663753E+03  0.13581374540E+04  0.50400001928E-02 0. -1.
</event>
<event>
 5   0  0.2532239E-06  0.2201084E+04  0.7818609E-02  0.8517977E-01
       -2   -1    0    0    0  501  0.00000000000E+00  0.00000000000E+00  0.64400926402E+03  0.64400926402E+03  0.25500000920E-02 0. -1.
        2   -1    0    0  501    0  0.00000000000E+00  0.00000000000E+00 -0.18807065177E+04  0.18807065177E+04  0.25500000920E-02 0.  1.
    10030    2    1    2    0    0  0.00000000000E+00  0.00000000000E+00 -0.12366972536E+04  0.25247157817E+04  0.22010837515E+04 0.  0.
        3    1    3    3  502    0 -0.51908922316E+03 -0.79332909223E+03  0.22726629389E+02  0.94833600589E+03  0.10100000352E+00 0.  1.
       -3    1    3    3    0  502  0.51908922316E+03  0.79332909223E+03 -0.12594238830E+04  0.15763797758E+04  0.10100000352E+00 0. -1.
</event>
<event>
 5   0  0.1107101E-06  0.2200439E+04  0.7818609E-02  0.8518246E-01
       -1   -1    0    0    0  501  0.00000000000E+00  0.00000000000E+00  0.73838487267E+03  0.73838487268E+03  0.50400001928E-02 0.  1.
        1   -1    0    0  501    0  0.00000000000E+00  0.00000000000E+00 -0.16393652124E+04  0.16393652124E+04  0.50400001928E-02 0. -1.
    10030    2    1    2    0    0  0.00000000000E+00  0.00000000000E+00 -0.90098033975E+03  0.23777500851E+04  0.22004385687E+04 0.  0.
        1    1    3    3  502    0  0.48500545374E+03 -0.67964533500E+02 -0.15150853237E+04  0.15922729057E+04  0.50400001928E-02 0. -1.
       -1    1    3    3    0  502 -0.48500545374E+03  0.67964533500E+02  0.61410498400E+03  0.78547717941E+03  0.50400001928E-02 0.  1.
</event>
<event>
 5   0  0.2606154E-06  0.2199471E+04  0.7818609E-02  0.8518648E-01
        2   -1    0    0  501    0  0.00000000000E+00  0.00000000000E+00  0.21349412576E+04  0.21349412576E+04  0.25500000920E-02 0. -1.
       -2   -1    0    0    0  501  0.00000000000E+00  0.00000000000E+00 -0.56648783048E+03  0.56648783048E+03  0.25500000920E-02 0.  1.
    10030    2    1    2    0    0  0.00000000000E+00  0.00000000000E+00  0.15684534271E+04  0.27014290880E+04  0.21994710648E+04 0.  0.
        2    1    3    3  502    0  0.62615971243E+03 -0.28159373201E+03  0.18393844680E+04  0.19633405809E+04  0.25500000920E-02 0. -1.
       -2    1    3    3    0  502 -0.62615971243E+03  0.28159373201E+03 -0.27093104097E+03  0.73808850712E+03  0.25500000920E-02 0.  1.
</event>
<event>
 5   0  0.2606154E-06  0.2201533E+04  0.7818609E-02  0.8517791E-01
       -2   -1    0    0    0  501  0.00000000000E+00  0.00000000000E+00  0.56890477198E+03  0.56890477199E+03  0.25500000920E-02 0. -1.
        2   -1    0    0  501    0  0.00000000000E+00  0.00000000000E+00 -0.21298579542E+04  0.21298579542E+04  0.25500000920E-02 0.  1.
    10030    2    1    2    0    0  0.00000000000E+00  0.00000000000E+00 -0.15609531822E+04  0.26987627262E+04  0.22015325151E+04 0.  0.
        2    1    3    3  502    0 -0.13453772914E+03 -0.15992798986E+02  0.55864469059E+03  0.57483916056E+03  0.25500000920E-02 0. -1.
       -2    1    3    3    0  502  0.13453772914E+03  0.15992798986E+02 -0.21195978728E+04  0.21239235656E+04  0.25500000920E-02 0.  1.
</event>
<event>
 5   0  0.1107101E-06  0.2199887E+04  0.7818609E-02  0.8518475E-01
       -1   -1    0    0    0  501  0.00000000000E+00  0.00000000000E+00  0.15833796219E+04  0.15833796219E+04  0.50400001928E-02 0.  1.
        1   -1    0    0  501    0  0.00000000000E+00  0.00000000000E+00 -0.76410976649E+03  0.76410976651E+03  0.50400001928E-02 0. -1.
    10030    2    1    2    0    0  0.00000000000E+00  0.00000000000E+00  0.81926985544E+03  0.23474893884E+04  0.21998871182E+04 0.  0.
        1    1    3    3  502    0  0.60867674635E+02  0.43520069087E+03  0.14856414021E+04  0.15492691473E+04  0.50400001928E-02 0.  1.
       -1    1    3    3    0  502 -0.60867674635E+02 -0.43520069087E+03 -0.66637154665E+03  0.79822024114E+03  0.50400001928E-02 0. -1.
</event>
<event>
 5   0  0.1146827E-06  0.2201331E+04  0.7818609E-02  0.8517875E-01
       -1   -1    0    0    0  501  0.00000000000E+00  0.00000000000E+00  0.14389169982E+04  0.14389169982E+04  0.50400001928E-02 0.  1.
        1   -1    0    0  501    0  0.00000000000E+00  0.00000000000E+00 -0.84192769185E+03  0.84192769186E+03  0.50400001928E-02 0. -1.
    10030    2    1    2    0    0  0.00000000000E+00  0.00000000000E+00  0.59698930632E+03  0.22808446900E+04  0.22013305677E+04 0.  0.
        4    1    3    3  502    0  0.21859623724E+03  0.37549842345E+03 -0.74930954494E+03  0.86616960694E+03  0.12699999809E+01 0. -1.
       -4    1    3    3    0  502 -0.21859623724E+03 -0.37549842345E+03  0.13462988513E+04  0.14146750831E+04  0.12699999809E+01 0.  1.
</event>
<event>
 5   0  0.1137869E-06  0.2200347E+04  0.7818609E-02  0.8518284E-01
       -1   -1    0    0    0  501  0.00000000000E+00  0.00000000000E+00  0.10022693646E+04  0.10022693646E+04  0.50400001928E-02 0.  1.
        1   -1    0    0  501    0  0.00000000000E+00  0.00000000000E+00 -0.12076413924E+04  0.12076413925E+04  0.50400001928E-02 0. -1.
    10030    2    1    2    0    0  0.00000000000E+00  0.00000000000E+00 -0.20537202789E+03  0.22099107570E+04  0.22003472190E+04 0.  0.
        5    1    3    3  502    0  0.45317847787E+03 -0.36116148749E+03  0.83655320490E+03  0.10176697438E+04  0.46999998093E+01 0.  1.
       -5    1    3    3    0  502 -0.45317847787E+03  0.36116148749E+03 -0.10419252328E+04  0.11922410132E+04  0.46999998093E+01 0. -1.
</event>
<event>
 5   0  0.2524749E-06  0.2199250E+04  0.7818609E-02  0.8518740E-01
        2   -1    0    0  501    0  0.00000000000E+00  0.00000000000E+00  0.15832473509E+04  0.15832473509E+04  0.25500000920E-02 0. -1.
       -2   -1    0    0    0  501  0.00000000000E+00  0.00000000000E+00 -0.76373095121E+03  0.76373095122E+03  0.25500000920E-02 0.  1.
    10030    2    1    2    0    0  0.00000000000E+00  0.00000000000E+00  0.81951639970E+03  0.23469783021E+04  0.21992498770E+04 0.  0.
        4    1    3    3  502    0  0.10437957305E+03  0.94795075524E+03  0.99394863024E+03  0.13774763962E+04  0.12699999809E+01 0. -1.
       -4    1    3    3    0  502 -0.10437957305E+03 -0.94795075524E+03 -0.17443223055E+03  0.96950190592E+03  0.12699999809E+01 0.  1.
</event>
<event>
 5   0  0.1137869E-06  0.2199901E+04  0.7818609E-02  0.8518469E-01
        1   -1    0    0  501    0  0.00000000000E+00  0.00000000000E+00  0.10607680586E+04  0.10607680586E+04  0.50400001928E-02 0.  1.
       -1   -1    0    0    0  501  0.00000000000E+00  0.00000000000E+00 -0.11405805986E+04  0.11405805986E+04  0.50400001928E-02 0. -1.
    10030    2    1    2    0    0  0.00000000000E+00  0.00000000000E+00 -0.79812539963E+02  0.22013486572E+04  0.21999013317E+04 0.  0.
        5    1    3    3  502    0 -0.64831690357E+03 -0.62393677290E+03  0.59316900916E+03  0.10777214239E+04  0.46999998093E+01 0.  1.
       -5    1    3    3    0  502  0.64831690357E+03  0.62393677290E+03 -0.67298154912E+03  0.11236272333E+04  0.46999998093E+01 0. -1.
</event>
<event>
 5   0  0.2581058E-06  0.2199693E+04  0.7818609E-02  0.8518556E-01
       -2   -1    0    0    0  501  0.00000000000E+00  0.00000000000E+00  0.11913519874E+04  0.11913519874E+04  0.25500000920E-02 0.  1.
        2   -1    0    0  501    0  0.00000000000E+00  0.00000000000E+00 -0.10153697218E+04  0.10153697218E+04  0.25500000920E-02 0. -1.
    10030    2    1    2    0    0  0.00000000000E+00  0.00000000000E+00  0.17598226567E+03  0.22067217092E+04  0.21996933750E+04 0.  0.
        1    1    3    3  502    0  0.70879262591E+03  0.27307195887E+03  0.88596174331E+03  0.11669976401E+04  0.50400001928E-02 0.  1.
       -1    1    3    3    0  502 -0.70879262591E+03 -0.27307195887E+03 -0.70997947764E+03  0.10397240691E+04  0.50400001928E-02 0. -1.
</event>
<event>
 5   0  0.1137869E-06  0.2200353E+04  0.7818609E-02  0.8518281E-01
        1   -1    0    0  501    0  0.00000000000E+00  0.00000000000E+00  0.11586739272E+04  0.11586739272E+04  0.50400001928E-02 0.  1.
       -1   -1    0    0    0  501  0.00000000000E+00  0.00000000000E+00 -0.10446327381E+04  0.10446327381E+04  0.50400001928E-02 0. -1.
    10030    2    1    2    0    0  0.00000000000E+00  0.00000000000E+00  0.11404118910E+03  0.22033066654E+04  0.22003533509E+04 0.  0.
        5    1    3    3  502    0  0.24657418202E+03  0.39096945101E+03 -0.94267338576E+03  0.10499100633E+04  0.46999998093E+01 0. -1.
       -5    1    3    3    0  502 -0.24657418202E+03 -0.39096945101E+03  0.10567145749E+04  0.11533966020E+04  0.46999998093E+01 0.  1.
</event>
<event>
 5   0  0.1144271E-06  0.2200074E+04  0.7818609E-02  0.8518397E-01
        1   -1    0    0  501    0  0.00000000000E+00  0.00000000000E+00  0.96242124126E+03  0.96242124128E+03  0.50400001928E-02 0.  1.
       -1   -1    0    0    0  501  0.00000000000E+00  0.00000000000E+00 -0.12573299470E+04  0.12573299470E+04  0.50400001928E-02 0. -1.
    10030    2    1    2    0    0  0.00000000000E+00  0.00000000000E+00 -0.29490870573E+03  0.22197511883E+04  0.22000736790E+04 0.  0.
        3    1    3    3  502    0 -0.33331659608E+03  0.66399813306E+03 -0.96593594011E+03  0.12186163155E+04  0.10100000352E+00 0. -1.
       -3    1    3    3    0  502  0.33331659608E+03 -0.66399813306E+03  0.67102723438E+03  0.10011348727E+04  0.10100000352E+00 0.  1.
</event>
<event>
 5   0  0.1144271E-06  0.2198692E+04  0.7818609E-02  0.8518973E-01
        1   -1    0    0  501    0  0.00000000000E+00  0.00000000000E+00  0.16607575848E+04  0.16607575848E+04  0.50400001928E-02 0. -1.
       -1   -1    0    0    0  501  0.00000000000E+00  0.00000000000E+00 -0.72771725503E+03  0.72771725505E+03  0.50400001928E-02 0.  1.
    10030    2    1    2    0    0  0.00000000000E+00  0.00000000000E+00  0.93304032973E+03  0.23884748398E+04  0.21986922940E+04 0.  0.
        3    1    3    3  502    0 -0.28250011613E+02 -0.42065235935E+03 -0.63640661117E+03  0.76338709416E+03  0.10100000352E+00 0.  1.
       -3    1    3    3    0  502  0.28250011613E+02  0.42065235935E+03  0.15694469409E+04  0.16250877457E+04  0.10100000352E+00 0. -1.
</event>
<event>
 5   0  0.1137869E-06  0.2199828E+04  0.7818609E-02  0.8518500E-01
       -1   -1    0    0    0  501  0.00000000000E+00  0.00000000000E+00  0.96862782511E+03  0.96862782512E+03  0.50400001928E-02 0. -1.
        1   -1    0    0  501    0  0.00000000000E+00  0.00000000000E+00 -0.12489950176E+04  0.12489950176E+04  0.50400001928E-02 0.  1.
    10030    2    1    2    0    0  0.00000000000E+00  0.00000000000E+00 -0.28036719249E+03  0.22176228427E+04  0.21998284728E+04 0.  0.
        5    1    3    3  502    0  0.51847448230E+03 -0.57019682087E+03 -0.93129200346E+03  0.12088288088E+04  0.46999998093E+01 0.  1.
       -5    1    3    3    0  502 -0.51847448230E+03  0.57019682087E+03  0.65092481097E+03  0.10087940339E+04  0.46999998093E+01 0. -1.
</event>
<event>
 5   0  0.2524749E-06  0.2200173E+04  0.7818609E-02  0.8518356E-01
        2   -1    0    0  501    0  0.00000000000E+00  0.00000000000E+00  0.78678026773E+03  0.78678026773E+03  0.25500000920E-02 0.  1.
       -2   -1    0    0    0  501  0.00000000000E+00  0.00000000000E+00 -0.15381554817E+04  0.15381554817E+04  0.25500000920E-02 0. -1.
    10030    2    1    2    0    0  0.00000000000E+00  0.00000000000E+00 -0.75137521401E+03  0.23249357495E+04  0.22001730675E+04 0.  0.
        4    1    3    3  502    0  0.69256692220E+03  0.52950222977E+03 -0.10846791309E+04  0.13916005112E+04  0.12699999809E+01 0. -1.
       -4    1    3    3    0  502 -0.69256692220E+03 -0.52950222977E+03  0.33330391685E+03  0.93333523824E+03  0.12699999809E+01 0.  1.
</event>
<event>
 5   0  0.2532239E-06  0.2200255E+04  0.7818609E-02  0.8518322E-01
       -2   -1    0    0    0  501  0.00000000000E+00  0.00000000000E+00  0.10684476232E+04  0.10684476232E+04  0.25500000920E-02 0. -1.
        2   -1    0    0  501    0  0.00000000000E+00  0.00000000000E+00 -0.11327469889E+04  0.11327469889E+04  0.25500000920E-02 0.  1.
    10030    2    1    2    0    0  0.00000000000E+00  0.00000000000E+00 -0.64299365699E+02  0.22011946120E+04  0.22002552833E+04 0.  0.
        3    1    3    3  502    0  0.88349354386E+03  0.63592552245E+03  0.12703677453E+03  0.10959472909E+04  0.10100000352E+00 0. -1.
       -3    1    3    3    0  502 -0.88349354386E+03 -0.63592552245E+03 -0.19133614023E+03  0.11052473211E+04  0.10100000352E+00 0.  1.
</event>
<event>
 5   0  0.2606154E-06  0.2201058E+04  0.7818609E-02  0.8517988E-01
       -2   -1    0    0    0  501  0.00000000000E+00  0.00000000000E+00  0.86544948969E+03  0.86544948969E+03  0.25500000920E-02 0. -1.
        2   -1    0    0  501    0  0.00000000000E+00  0.00000000000E+00 -0.13994628163E+04  0.13994628164E+04  0.25500000920E-02 0.  1.
    10030    2    1    2    0    0  0.00000000000E+00  0.00000000000E+00 -0.53401332666E+03  0.22649123060E+04  0.22010582730E+04 0.  0.
        2    1    3    3  502    0  0.56599862999E+03 -0.84302629477E+02  0.70031967954E+03  0.90438323516E+03  0.25500000920E-02 0. -1.
       -2    1    3    3    0  502 -0.56599862999E+03  0.84302629477E+02 -0.12343330062E+04  0.13605290709E+04  0.25500000920E-02 0.  1.
</event>
<event>
 5   0  0.2581058E-06  0.2211902E+04  0.7818609E-02  0.8513491E-01
       -2   -1    0    0    0  501  0.00000000000E+00  0.00000000000E+00  0.10429042151E+04  0.10429042151E+04  0.25500000920E-02 0. -1.
        2   -1    0    0  501    0  0.00000000000E+00  0.00000000000E+00 -0.11728088139E+04  0.11728088139E+04  0.25500000920E-02 0.  1.
    10030    2    1    2    0    0  0.00000000000E+00  0.00000000000E+00 -0.12990459872E+03  0.22157130290E+04  0.22119016755E+04 0.  0.
        1    1    3    3  502    0 -0.50676383526E+03 -0.93855899470E+03 -0.35773093657E+03  0.11250217750E+04  0.50400001928E-02 0. -1.
       -1    1    3    3    0  502  0.50676383526E+03  0.93855899470E+03  0.22782633785E+03  0.10906912540E+04  0.50400001928E-02 0.  1.
</event>
<event>
 5   0  0.2556869E-06  0.2200064E+04  0.7818609E-02  0.8518401E-01
        2   -1    0    0  501    0  0.00000000000E+00  0.00000000000E+00  0.98430563746E+03  0.98430563746E+03  0.25500000920E-02 0.  1.
       -2   -1    0    0    0  501  0.00000000000E+00  0.00000000000E+00 -0.12293644869E+04  0.12293644869E+04  0.25500000920E-02 0. -1.
    10030    2    1    2    0    0  0.00000000000E+00  0.00000000000E+00 -0.24505884948E+03  0.22136701244E+04  0.22000639945E+04 0.  0.
        5    1    3    3  502    0 -0.94245205178E+03  0.31001068200E+03  0.35551493933E+03  0.10539143490E+04  0.46999998093E+01 0. -1.
       -5    1    3    3    0  502  0.94245205178E+03 -0.31001068200E+03 -0.60057378882E+03  0.11597557754E+04  0.46999998093E+01 0.  1.
</event>
<event>
 5   0  0.2532239E-06  0.2200797E+04  0.7818609E-02  0.8518096E-01
        2   -1    0    0  501    0  0.00000000000E+00  0.00000000000E+00  0.14990678862E+04  0.14990678862E+04  0.25500000920E-02 0. -1.
       -2   -1    0    0    0  501  0.00000000000E+00  0.00000000000E+00 -0.80775325611E+03  0.80775325612E+03  0.25500000920E-02 0.  1.
    10030    2    1    2    0    0  0.00000000000E+00  0.00000000000E+00  0.69131463009E+03  0.23068211423E+04  0.22007970976E+04 0.  0.
        3    1    3    3  502    0 -0.82868496670E+03 -0.59968066887E+03 -0.79521239097E+02  0.10259918695E+04  0.10100000352E+00 0. -1.
       -3    1    3    3    0  502  0.82868496670E+03  0.59968066887E+03  0.77083586919E+03  0.12808292728E+04  0.10100000352E+00 0.  1.
</event>
<event>
 5   0  0.1107101E-06  0.2198920E+04  0.7818609E-02  0.8518878E-01
       -1   -1    0    0    0  501  0.00000000000E+00  0.00000000000E+00  0.63476264366E+03  0.63476264368E+03  0.50400001928E-02 0. -1.
        1   -1    0    0  501    0  0.00000000000E+00  0.00000000000E+00 -0.19043525827E+04  0.19043525827E+04  0.50400001928E-02 0.  1.
    10030    2    1    2    0    0  0.00000000000E+00  0.00000000000E+00 -0.12695899390E+04  0.25391152264E+04  0.21989196255E+04 0.  0.
        1    1    3    3  502    0  0.79236039269E+03 -0.30412224947E+02 -0.15142355729E+04  0.17092891111E+04  0.50400001928E-02 0.  1.
       -1    1    3    3    0  502 -0.79236039269E+03  0.30412224947E+02  0.24464563384E+03  0.82982611523E+03  0.50400001928E-02 0. -1.
</event>
<event>
 5   0  0.1144271E-06  0.2201511E+04  0.7818609E-02  0.8517799E-01
       -1   -1    0    0    0  501  0.00000000000E+00  0.00000000000E+00  0.13806207394E+04  0.13806207394E+04  0.50400001928E-02 0. -1.
        1   -1    0    0  501    0  0.00000000000E+00  0.00000000000E+00 -0.87762205075E+03  0.87762205076E+03  0.50400001928E-02 0.  1.
    10030    2    1    2    0    0  0.00000000000E+00  0.00000000000E+00  0.50299868861E+03  0.22582427901E+04  0.22015114850E+04 0.  0.
        3    1    3    3  502    0 -0.61915172593E+02  0.98720148245E+03 -0.24391953023E+03  0.10187723018E+04  0.10100000352E+00 0.  1.
       -3    1    3    3    0  502  0.61915172593E+02 -0.98720148245E+03  0.74691821884E+03  0.12394704883E+04  0.10100000352E+00 0. -1.
</event>
<event>
 5   0  0.1137869E-06  0.2200215E+04  0.7818609E-02  0.8518339E-01
        1   -1    0    0  501    0  0.00000000000E+00  0.00000000000E+00  0.14177839754E+04  0.14177839755E+04  0.50400001928E-02 0. -1.
       -1   -1    0    0    0  501  0.00000000000E+00  0.00000000000E+00 -0.85361138200E+03  0.85361138202E+03  0.50400001928E-02 0.  1.
    10030    2    1    2    0    0  0.00000000000E+00  0.00000000000E+00  0.56417259345E+03  0.22713953575E+04  0.22002150247E+04 0.  0.
        5    1    3    3  502    0  0.47743556161E+03  0.18143415684E+03 -0.72378195513E+03  0.88585861023E+03  0.46999998093E+01 0.  1.
       -5    1    3    3    0  502 -0.47743556161E+03 -0.18143415684E+03  0.12879545486E+04  0.13855367472E+04  0.46999998093E+01 0. -1.
</event>
<event>
 5   0  0.1144271E-06  0.2198245E+04  0.7818609E-02  0.8519159E-01
        1   -1    0    0  501    0  0.00000000000E+00  0.00000000000E+00  0.18520349270E+04  0.18520349270E+04  0.50400001928E-02 0.  1.
       -1   -1    0    0    0  501  0.00000000000E+00  0.00000000000E+00 -0.65229325382E+03  0.65229325384E+03  0.50400001928E-02 0. -1.
    10030    2    1    2    0    0  0.00000000000E+00  0.00000000000E+00  0.11997416732E+04  0.25043281809E+04  0.21982446531E+04 0.  0.
        3    1    3    3  502    0 -0.98536442162E+03 -0.48605656285E+03  0.56615524379E+03  0.12360120533E+04  0.10100000352E+00 0. -1.
       -3    1    3    3    0  502  0.98536442162E+03  0.48605656285E+03  0.63358642941E+03  0.12683161276E+04  0.10100000352E+00 0.  1.
</event>
<event>
 5   0  0.2606154E-06  0.2199723E+04  0.7818609E-02  0.8518543E-01
        2   -1    0    0  501    0  0.00000000000E+00  0.00000000000E+00  0.18320849323E+04  0.18320849323E+04  0.25500000920E-02 0.  1.
       -2   -1    0    0    0  501  0.00000000000E+00  0.00000000000E+00 -0.66028357957E+03  0.66028357958E+03  0.25500000920E-02 0. -1.
    10030    2    1    2    0    0  0.00000000000E+00  0.00000000000E+00  0.11718013527E+04  0.24923685119E+04  0.21997232528E+04 0.  0.
        2    1    3    3  502    0 -0.50615993490E+03  0.14971260154E+02 -0.52034857105E+03  0.72607482654E+03  0.25500000920E-02 0. -1.
       -2    1    3    3    0  502  0.50615993490E+03 -0.14971260154E+02  0.16921499238E+04  0.17662936853E+04  0.25500000920E-02 0.  1.
</event>
<event>
 5   0  0.2532239E-06  0.2201607E+04  0.7818609E-02  0.8517759E-01
       -2   -1    0    0    0  501  0.00000000000E+00  0.00000000000E+00  0.82130708326E+03  0.82130708327E+03  0.25500000920E-02 0.  1.
        2   -1    0    0  501    0  0.00000000000E+00  0.00000000000E+00 -0.14754148674E+04  0.14754148674E+04  0.25500000920E-02 0. -1.
    10030    2    1    2    0    0  0.00000000000E+00  0.00000000000E+00 -0.65410778416E+03  0.22967219507E+04  0.22016073050E+04 0.  0.
        3    1    3    3  502    0 -0.66846486378E+03 -0.29645282197E+03  0.53131791655E+03  0.90389617126E+03  0.10100000352E+00 0.  1.
       -3    1    3    3    0  502  0.66846486378E+03  0.29645282197E+03 -0.11854257007E+04  0.13928257794E+04  0.10100000352E+00 0. -1.
</event>
<event>
 5   0  0.1144271E-06  0.2199766E+04  0.7818609E-02  0.8518526E-01
       -1   -1    0    0    0  501  0.00000000000E+00  0.00000000000E+00  0.76165102502E+03  0.76165102503E+03  0.50400001928E-02 0. -1.
        1   -1    0    0  501    0  0.00000000000E+00  0.00000000000E+00 -0.15883161457E+04  0.15883161458E+04  0.50400001928E-02 0.  1.
    10030    2    1    2    0    0  0.00000000000E+00  0.00000000000E+00 -0.82666512073E+03  0.23499671708E+04  0.21997660062E+04 0.  0.
        3    1    3    3  502    0 -0.31410908094E+03 -0.35108296813E+03  0.64842157777E+03  0.80148257495E+03  0.10100000352E+00 0. -1.
       -3    1    3    3    0  502  0.31410908094E+03  0.35108296813E+03 -0.14750866985E+04  0.15484845958E+04  0.10100000352E+00 0.  1.
</event>
<event>
 5   0  0.1082209E-06  0.2200729E+04  0.7818609E-02  0.8518125E-01
       -1   -1    0    0    0  501  0.00000000000E+00  0.00000000000E+00  0.92885231256E+03  0.92885231258E+03  0.50400001928E-02 0.  1.
        1   -1    0    0  501    0  0.00000000000E+00  0.00000000000E+00 -0.13035466064E+04  0.13035466064E+04  0.50400001928E-02 0. -1.
    10030    2    1    2    0    0  0.00000000000E+00  0.00000000000E+00 -0.37469429386E+03  0.22323989190E+04  0.22007292245E+04 0.  0.
        2    1    3    3  502    0 -0.45009268511E+03  0.95485529523E+03 -0.50241335575E+03  0.11690813659E+04  0.25500000920E-02 0. -1.
       -2    1    3    3    0  502  0.45009268511E+03 -0.95485529523E+03  0.12771906189E+03  0.10633175531E+04  0.25500000920E-02 0.  1.
</event>
<event>
 5   0  0.2606154E-06  0.2199950E+04  0.7818609E-02  0.8518449E-01
        2   -1    0    0  501    0  0.00000000000E+00  0.00000000000E+00  0.11843658900E+04  0.11843658900E+04  0.25500000920E-02 0.  1.
       -2   -1    0    0    0  501  0.00000000000E+00  0.00000000000E+00 -0.10215969335E+04  0.10215969335E+04  0.25500000920E-02 0. -1.
    10030    2    1    2    0    0  0.00000000000E+00  0.00000000000E+00  0.16276895652E+03  0.22059628236E+04  0.21999496007E+04 0.  0.
        2    1    3    3  502    0 -0.10101844409E+04  0.37835361736E+03 -0.13442576951E+03  0.10870576580E+04  0.25500000920E-02 0. -1.
       -2    1    3    3    0  502  0.10101844409E+04 -0.37835361736E+03  0.29719472603E+03  0.11189051656E+04  0.25500000920E-02 0.  1.
</event>
<event>
 5   0  0.1146827E-06  0.2200540E+04  0.7818609E-02  0.8518203E-01
        1   -1    0    0  501    0  0.00000000000E+00  0.00000000000E+00  0.17770030845E+04  0.17770030845E+04  0.50400001928E-02 0.  1.
       -1   -1    0    0    0  501  0.00000000000E+00  0.00000000000E+00 -0.68125604787E+03  0.68125604789E+03  0.50400001928E-02 0. -1.
    10030    2    1    2    0    0  0.00000000000E+00  0.00000000000E+00  0.10957470367E+04  0.24582591324E+04  0.22005400232E+04 0.  0.
        4    1    3    3  502    0  0.10933994685E+04  0.83190451442E+02  0.64872033186E+03  0.12740811320E+04  0.12699999809E+01 0. -1.
       -4    1    3    3    0  502 -0.10933994685E+04 -0.83190451442E+02  0.44702670479E+03  0.11841780004E+04  0.12699999809E+01 0.  1.
</event>
<event>
 5   0  0.2581058E-06  0.2199626E+04  0.7818609E-02  0.8518584E-01
        2   -1    0    0  501    0  0.00000000000E+00  0.00000000000E+00  0.20480379659E+04  0.20480379659E+04  0.25500000920E-02 0. -1.
       -2   -1    0    0    0  501  0.00000000000E+00  0.00000000000E+00 -0.59060850978E+03  0.59060850979E+03  0.25500000920E-02 0.  1.
    10030    2    1    2    0    0  0.00000000000E+00  0.00000000000E+00  0.14574294562E+04  0.26386464757E+04  0.21996260146E+04 0.  0.
        1    1    3    3  502    0  0.78631147974E+02 -0.96126848577E+03  0.13627614001E+04  0.16695324473E+04  0.50400001928E-02 0. -1.
       -1    1    3    3    0  502 -0.78631147974E+02  0.96126848577E+03  0.94668056086E+02  0.96911402839E+03  0.50400001928E-02 0.  1.
</event>
<event>
 5   0  0.1146827E-06  0.2200278E+04  0.7818609E-02  0.8518313E-01
        1   -1    0    0  501    0  0.00000000000E+00  0.00000000000E+00  0.10016222683E+04  0.10016222683E+04  0.50400001928E-02 0.  1.
       -1   -1    0    0    0  501  0.00000000000E+00  0.00000000000E+00 -0.12083452815E+04  0.12083452815E+04  0.50400001928E-02 0. -1.
    10030    2    1    2    0    0  0.00000000000E+00  0.00000000000E+00 -0.20672301323E+03  0.22099675498E+04  0.22002777477E+04 0.  0.
        4    1    3    3  502    0 -0.93222028470E+03 -0.47490912436E+03  0.23832865936E+03  0.10730216672E+04  0.12699999809E+01 0.  1.
       -4    1    3    3    0  502  0.93222028470E+03  0.47490912436E+03 -0.44505167259E+03  0.11369458825E+04  0.12699999809E+01 0. -1.
</event>
<event>
 5   0  0.1144271E-06  0.2199579E+04  0.7818609E-02  0.8518603E-01
       -1   -1    0    0    0  501  0.00000000000E+00  0.00000000000E+00  0.74535697729E+03  0.74535697731E+03  0.50400001928E-02 0. -1.
        1   -1    0    0  501    0  0.00000000000E+00  0.00000000000E+00 -0.16227619219E+04  0.16227619219E+04  0.50400001928E-02 0.  1.
    10030    2    1    2    0    0  0.00000000000E+00  0.00000000000E+00 -0.87740494459E+03  0.23681188992E+04  0.21995789788E+04 0.  0.
        3    1    3    3  502    0  0.91788916668E+03 -0.49613720059E+03 -0.81299650554E+03  0.13227380589E+04  0.10100000352E+00 0.  1.
       -3    1    3    3    0  502 -0.91788916668E+03  0.49613720059E+03 -0.64408439055E+02  0.10453808403E+04  0.10100000352E+00 0. -1.
</event>
<event>
 5   0  0.1082209E-06  0.2201535E+04  0.7818609E-02  0.8517789E-01
        1   -1    0    0  501    0  0.00000000000E+00  0.00000000000E+00  0.11831015916E+04  0.11831015916E+04  0.50400001928E-02 0.  1.
       -1   -1    0    0    0  501  0.00000000000E+00  0.00000000000E+00 -0.10241636105E+04  0.10241636105E+04  0.50400001928E-02 0. -1.
    10030    2    1    2    0    0  0.00000000000E+00  0.00000000000E+00  0.15893798118E+03  0.22072652021E+04  0.22015354620E+04 0.  0.
        2    1    3    3  502    0  0.37850819495E+03  0.88885684786E+03  0.60843537056E+03  0.11417217480E+04  0.25500000920E-02 0.  1.
       -2    1    3    3    0  502 -0.37850819495E+03 -0.88885684786E+03 -0.44949738938E+03  0.10655434542E+04  0.25500000920E-02 0. -1.
</event>
<event>
 5   0  0.2581058E-06  0.2201418E+04  0.7818609E-02  0.8517838E-01
       -2   -1    0    0    0  501  0.00000000000E+00  0.00000000000E+00  0.11199471412E+04  0.11199471412E+04  0.25500000920E-02 0.  1.
        2   -1    0    0  501    0  0.00000000000E+00  0.00000000000E+00 -0.10818017311E+04  0.10818017311E+04  0.25500000920E-02 0. -1.
    10030    2    1    2    0    0  0.00000000000E+00  0.00000000000E+00  0.38145410111E+02  0.22017488723E+04  0.22014184119E+04 0.  0.
        1    1    3    3  502    0  0.30727084659E+03 -0.43614356162E+03  0.98198624388E+03  0.11175569617E+04  0.50400001928E-02 0.  1.
       -1    1    3    3    0  502 -0.30727084659E+03  0.43614356162E+03 -0.94384083376E+03  0.10841919106E+04  0.50400001928E-02 0. -1.
</event>
<event>
 5   0  0.2556869E-06  0.2199718E+04  0.7818609E-02  0.8518546E-01
       -2   -1    0    0    0  501  0.00000000000E+00  0.00000000000E+00  0.60247068359E+03  0.60247068360E+03  0.25500000920E-02 0. -1.
        2   -1    0    0  501    0  0.00000000000E+00  0.00000000000E+00 -0.20078816023E+04  0.20078816023E+04  0.25500000920E-02 0.  1.
    10030    2    1    2    0    0  0.00000000000E+00  0.00000000000E+00 -0.14054109187E+04  0.26103522859E+04  0.21997179833E+04 0.  0.
        5    1    3    3  502    0  0.84851410536E+03 -0.52281275230E+03 -0.15073104405E+03  0.10079936997E+04  0.46999998093E+01 0. -1.
       -5    1    3    3    0  502 -0.84851410536E+03  0.52281275230E+03 -0.12546798746E+04  0.16023585862E+04  0.46999998093E+01 0.  1.
</event>
<event>
 5   0  0.1137869E-06  0.2200252E+04  0.7818609E-02  0.8518323E-01
        1   -1    0    0  501    0  0.00000000000E+00  0.00000000000E+00  0.11115774814E+04  0.11115774814E+04  0.50400001928E-02 0. -1.
       -1   -1    0    0    0  501  0.00000000000E+00  0.00000000000E+00 -0.10887926022E+04  0.10887926022E+04  0.50400001928E-02 0.  1.
    10030    2    1    2    0    0  0.00000000000E+00  0.00000000000E+00  0.22784879198E+02  0.22003700835E+04  0.22002521114E+04 0.  0.
        5    1    3    3  502    0 -0.11828766000E+02  0.10139410292E+04  0.43807550657E+03  0.11046033540E+04  0.46999998093E+01 0.  1.
       -5    1    3    3    0  502  0.11828766000E+02 -0.10139410292E+04 -0.41529062737E+03  0.10957667295E+04  0.46999998093E+01 0. -1.
</event>
<event>
 5   0  0.2524749E-06  0.2200035E+04  0.7818609E-02  0.8518414E-01
       -2   -1    0    0    0  501  0.00000000000E+00  0.00000000000E+00  0.72543696284E+03  0.72543696284E+03  0.25500000920E-02 0. -1.
        2   -1    0    0  501    0  0.00000000000E+00  0.00000000000E+00 -0.16680132630E+04  0.16680132630E+04  0.25500000920E-02 0.  1.
    10030    2    1    2    0    0  0.00000000000E+00  0.00000000000E+00 -0.94257630014E+03  0.23934502258E+04  0.22000349774E+04 0.  0.
        4    1    3    3  502    0 -0.24130475880E+03  0.98144880150E+03  0.11313391809E+01  0.10106792911E+04  0.12699999809E+01 0.  1.
       -4    1    3    3    0  502  0.24130475880E+03 -0.98144880150E+03 -0.94370763932E+03  0.13827709348E+04  0.12699999809E+01 0. -1.
</event>
<event>
 5   0  0.1107101E-06  0.2199186E+04  0.7818609E-02  0.8518767E-01
       -1   -1    0    0    0  501  0.00000000000E+00  0.00000000000E+00  0.85718939266E+03  0.85718939267E+03  0.50400001928E-02 0. -1.
        1   -1    0    0  501    0  0.00000000000E+00  0.00000000000E+00 -0.14105454454E+04  0.14105454454E+04  0.50400001928E-02 0.  1.
    10030    2    1    2    0    0  0.00000000000E+00  0.00000000000E+00 -0.55335605277E+03  0.22677348381E+04  0.21991858436E+04 0.  0.
        1    1    3    3  502    0 -0.78960785737E+03  0.42989135092E+03  0.37615730744E+03  0.97456732040E+03  0.50400001928E-02 0. -1.
       -1    1    3    3    0  502  0.78960785737E+03 -0.42989135092E+03 -0.92951336021E+03  0.12931675177E+04  0.50400001928E-02 0.  1.
</event>
<event>
 5   0  0.1137869E-06  0.2199564E+04  0.7818609E-02  0.8518610E-01
       -1   -1    0    0    0  501  0.00000000000E+00  0.00000000000E+00  0.80799810728E+03  0.80799810729E+03  0.50400001928E-02 0. -1.
        1   -1    0    0  501    0  0.00000000000E+00  0.00000000000E+00 -0.14969350564E+04  0.14969350564E+04  0.50400001928E-02 0.  1.
    10030    2    1    2    0    0  0.00000000000E+00  0.00000000000E+00 -0.68893694911E+03  0.23049331637E+04  0.21995642226E+04 0.  0.
        5    1    3    3  502    0  0.42927194541E+03  0.27666069881E+03 -0.13651312169E+04  0.14575393218E+04  0.46999998093E+01 0.  1.
       -5    1    3    3    0  502 -0.42927194541E+03 -0.27666069881E+03  0.67619426780E+03  0.84739384184E+03  0.46999998093E+01 0. -1.
</event>
<event>
 5   0  0.1082209E-06  0.2200226E+04  0.7818609E-02  0.8518334E-01
        1   -1    0    0  501    0  0.00000000000E+00  0.00000000000E+00  0.13586096510E+04  0.13586096510E+04  0.50400001928E-02 0. -1.
       -1   -1    0    0    0  501  0.00000000000E+00  0.00000000000E+00 -0.89079919416E+03  0.89079919417E+03  0.50400001928E-02 0.  1.
    10030    2    1    2    0    0  0.00000000000E+00  0.00000000000E+00  0.46781045681E+03  0.22494088452E+04  0.22002257905E+04 0.  0.
        2    1    3    3  502    0  0.26513348506E+03  0.65580409012E+02  0.13233964855E+04  0.13512863549E+04  0.25500000920E-02 0. -1.
       -2    1    3    3    0  502 -0.26513348506E+03 -0.65580409012E+02 -0.85558602873E+03  0.89812249026E+03  0.25500000920E-02 0.  1.
</event>
<event>
 5   0  0.1082209E-06  0.2199284E+04  0.7818609E-02  0.8518726E-01
       -1   -1    0    0    0  501  0.00000000000E+00  0.00000000000E+00  0.17231175683E+04  0.17231175683E+04  0.50400001928E-02 0. -1.
        1   -1    0    0  501    0  0.00000000000E+00  0.00000000000E+00 -0.70175828063E+03  0.70175828065E+03  0.50400001928E-02 0.  1.
    10030    2    1    2    0    0  0.00000000000E+00  0.00000000000E+00  0.10213592877E+04  0.24248758489E+04  0.21992835398E+04 0.  0.
        2    1    3    3  502    0 -0.40850025910E+03 -0.10073360476E+04  0.32746078546E+03  0.11352660219E+04  0.25500000920E-02 0.  1.
       -2    1    3    3    0  502  0.40850025910E+03  0.10073360476E+04  0.69389850219E+03  0.12896098270E+04  0.25500000920E-02 0. -1.
</event>
<event>
 5   0  0.1137869E-06  0.2199078E+04  0.7818609E-02  0.8518812E-01
       -1   -1    0    0    0  501  0.00000000000E+00  0.00000000000E+00  0.70576772586E+03  0.70576772588E+03  0.50400001928E-02 0.  1.
        1   -1    0    0  501    0  0.00000000000E+00  0.00000000000E+00 -0.17130090626E+04  0.17130090626E+04  0.50400001928E-02 0. -1.
    10030    2    1    2    0    0  0.00000000000E+00  0.00000000000E+00 -0.10072413367E+04  0.24187767885E+04  0.21990784529E+04 0.  0.
        5    1    3    3  502    0  0.66467316689E+02 -0.12855069803E+03 -0.17024770810E+04  0.17086232725E+04  0.46999998093E+01 0. -1.
       -5    1    3    3    0  502 -0.66467316689E+02  0.12855069803E+03  0.69523574425E+03  0.71015351596E+03  0.46999998093E+01 0.  1.
</event>
<event>
 5   0  0.1137869E-06  0.2199415E+04  0.7818609E-02  0.8518671E-01
        1   -1    0    0  501    0  0.00000000000E+00  0.00000000000E+00  0.16155286344E+04  0.16155286344E+04  0.50400001928E-02 0.  1.
       -1   -1    0    0    0  501  0.00000000000E+00  0.00000000000E+00 -0.74858282580E+03  0.74858282581E+03  0.50400001928E-02 0. -1.
    10030    2    1    2    0    0  0.00000000000E+00  0.00000000000E+00  0.86694580860E+03  0.23641114602E+04  0.21994153681E+04 0.  0.
        5    1    3    3  502    0 -0.19946787570E+03  0.22143899682E+03  0.15712809357E+04  0.15993025141E+04  0.46999998093E+01 0.  1.
       -5    1    3    3    0  502  0.19946787570E+03 -0.22143899682E+03 -0.70433512711E+03  0.76480894610E+03  0.46999998093E+01 0. -1.
</event>
<event>
 5   0  0.1082209E-06  0.2202023E+04  0.7818609E-02  0.8517587E-01
        1   -1    0    0  501    0  0.00000000000E+00  0.00000000000E+00  0.26269704098E+04  0.26269704099E+04  0.50400001928E-02 0.  1.
       -1   -1    0    0    0  501  0.00000000000E+00  0.00000000000E+00 -0.46145407491E+03  0.46145407494E+03  0.50400001928E-02 0. -1.
    10030    2    1    2    0    0  0.00000000000E+00  0.00000000000E+00  0.21655163349E+04  0.30884244848E+04  0.22020228885E+04 0.  0.
        2    1    3    3  502    0  0.10912011851E+04 -0.13783995801E+03  0.10125425995E+04  0.14949790622E+04  0.25500000920E-02 0. -1.
       -2    1    3    3    0  502 -0.10912011851E+04  0.13783995801E+03  0.11529737354E+04  0.15934454226E+04  0.25500000920E-02 0.  1.
</event>
<event>
 5   0  0.1082209E-06  0.2199746E+04  0.7818609E-02  0.8518534E-01
       -1   -1    0    0    0  501  0.00000000000E+00  0.00000000000E+00  0.10622926482E+04  0.10622926482E+04  0.50400001928E-02 0. -1.
        1   -1    0    0  501    0  0.00000000000E+00  0.00000000000E+00 -0.11387830278E+04  0.11387830278E+04  0.50400001928E-02 0.  1.
    10030    2    1    2    0    0  0.00000000000E+00  0.00000000000E+00 -0.76490379558E+02  0.22010756760E+04  0.21997462021E+04 0.  0.
        2    1    3    3  502    0  0.28697029319E+03 -0.18684213780E+03  0.10075940980E+04  0.10641934974E+04  0.25500000920E-02 0. -1.
       -2    1    3    3    0  502 -0.28697029319E+03  0.18684213780E+03 -0.10840844775E+04  0.11368821786E+04  0.25500000920E-02 0.  1.
</event>
<event>
 5   0  0.1082209E-06  0.2200559E+04  0.7818609E-02  0.8518195E-01
        1   -1    0    0  501    0  0.00000000000E+00  0.00000000000E+00  0.12263664256E+04  0.12263664256E+04  0.50400001928E-02 0.  1.
       -1   -1    0    0    0  501  0.00000000000E+00  0.00000000000E+00 -0.98715624289E+03  0.98715624290E+03  0.50400001928E-02 0. -1.
    10030    2    1    2    0    0  0.00000000000E+00  0.00000000000E+00  0.23921018266E+03  0.22135226685E+04  0.22005592681E+04 0.  0.
        2    1    3    3  502    0  0.36027207285E+03 -0.32137844730E+02 -0.92564410834E+03  0.99380371444E+03  0.25500000920E-02 0. -1.
       -2    1    3    3    0  502 -0.36027207285E+03  0.32137844730E+02  0.11648542910E+04  0.12197189540E+04  0.25500000920E-02 0.  1.
</event>
<event>
 5   0  0.2581058E-06  0.2198305E+04  0.7818609E-02  0.8519134E-01
        2   -1    0    0  501    0  0.00000000000E+00  0.00000000000E+00  0.14189566008E+04  0.14189566008E+04  0.25500000920E-02 0. -1.
       -2   -1    0    0    0  501  0.00000000000E+00  0.00000000000E+00 -0.85142564771E+03  0.85142564771E+03  0.25500000920E-02 0.  1.
    10030    2    1    2    0    0  0.00000000000E+00  0.00000000000E+00  0.56753095313E+03  0.22703822486E+04  0.21983048405E+04 0.  0.
        1    1    3    3  502    0 -0.61841736038E+02 -0.88321376324E+03 -0.38893150534E+03  0.96703602196E+03  0.50400001928E-02 0.  1.
       -1    1    3    3    0  502  0.61841736038E+02  0.88321376324E+03  0.95646245847E+03  0.13033462266E+04  0.50400001928E-02 0. -1.
</event>
<event>
 5   0  0.1137869E-06  0.2199730E+04  0.7818609E-02  0.8518540E-01
       -1   -1    0    0    0  501  0.00000000000E+00  0.00000000000E+00  0.86268455233E+03  0.86268455234E+03  0.50400001928E-02 0.  1.
        1   -1    0    0  501    0  0.00000000000E+00  0.00000000000E+00 -0.14022545554E+04  0.14022545554E+04  0.50400001928E-02 0. -1.
    10030    2    1    2    0    0  0.00000000000E+00  0.00000000000E+00 -0.53957000309E+03  0.22649391078E+04  0.21997302957E+04 0.  0.
        5    1    3    3  502    0 -0.73964099590E+02 -0.90029622266E+03 -0.91582181813E+03  0.12863730676E+04  0.46999998093E+01 0. -1.
       -5    1    3    3    0  502  0.73964099590E+02  0.90029622266E+03  0.37625181504E+03  0.97856604013E+03  0.46999998093E+01 0.  1.
</event>
<event>
 5   0  0.1082209E-06  0.2199418E+04  0.7818609E-02  0.8518671E-01
        1   -1    0    0  501    0  0.00000000000E+00  0.00000000000E+00  0.15176838438E+04  0.15176838438E+04  0.50400001928E-02 0.  1.
       -1   -1    0    0    0  501  0.00000000000E+00  0.00000000000E+00 -0.79684541481E+03  0.79684541483E+03  0.50400001928E-02 0. -1.
    10030    2    1    2    0    0  0.00000000000E+00  0.00000000000E+00  0.72083842899E+03  0.23145292586E+04  0.21994175703E+04 0.  0.
        2    1    3    3  502    0 -0.38250928916E+03  0.37864137133E+03 -0.64876998257E+03  0.84296211936E+03  0.25500000920E-02 0. -1.
       -2    1    3    3    0  502  0.38250928916E+03 -0.37864137133E+03  0.13696084116E+04  0.14715671393E+04  0.25500000920E-02 0.  1.
</event>
<event>
 5   0  0.1107101E-06  0.2199633E+04  0.7818609E-02  0.8518581E-01
        1   -1    0    0  501    0  0.00000000000E+00  0.00000000000E+00  0.12561098094E+04  0.12561098094E+04  0.50400001928E-02 0. -1.
       -1   -1    0    0    0  501  0.00000000000E+00  0.00000000000E+00 -0.96297035616E+03  0.96297035618E+03  0.50400001928E-02 0.  1.
    10030    2    1    2    0    0  0.00000000000E+00  0.00000000000E+00  0.29313945323E+03  0.22190801656E+04  0.21996331608E+04 0.  0.
        1    1    3    3  502    0  0.13981434154E+03 -0.71243472571E+03 -0.68686071502E+03  0.99944431079E+03  0.50400001928E-02 0.  1.
       -1    1    3    3    0  502 -0.13981434154E+03  0.71243472571E+03  0.98000016825E+03  0.12196358548E+04  0.50400001928E-02 0. -1.
</event>
<event>
 5   0  0.2556869E-06  0.2205945E+04  0.7818609E-02  0.8515958E-01
       -2   -1    0    0    0  501  0.00000000000E+00  0.00000000000E+00  0.25015488572E+04  0.25015488572E+04  0.25500000920E-02 0.  1.
        2   -1    0    0  501    0  0.00000000000E+00  0.00000000000E+00 -0.48631823947E+03  0.48631823948E+03  0.25500000920E-02 0. -1.
    10030    2    1    2    0    0  0.00000000000E+00  0.00000000000E+00  0.20152306178E+04  0.29878670967E+04  0.22059454537E+04 0.  0.
        5    1    3    3  502    0  0.92846146121E+03  0.51538642829E+03  0.14113785006E+04  0.17662602349E+04  0.46999998093E+01 0. -1.
       -5    1    3    3    0  502 -0.92846146121E+03 -0.51538642829E+03  0.60385211713E+03  0.12216068618E+04  0.46999998093E+01 0.  1.
</event>
<event>
 5   0  0.2556869E-06  0.2200033E+04  0.7818609E-02  0.8518414E-01
        2   -1    0    0  501    0  0.00000000000E+00  0.00000000000E+00  0.83263014014E+03  0.83263014014E+03  0.25500000920E-02 0.  1.
       -2   -1    0    0    0  501  0.00000000000E+00  0.00000000000E+00 -0.14532696001E+04  0.14532696001E+04  0.25500000920E-02 0. -1.
    10030    2    1    2    0    0  0.00000000000E+00  0.00000000000E+00 -0.62063945998E+03  0.22858997403E+04  0.22000327914E+04 0.  0.
        5    1    3    3  502    0  0.52600915889E+03  0.32626793411E+03  0.63449930169E+03  0.88642419524E+03  0.46999998093E+01 0.  1.
       -5    1    3    3    0  502 -0.52600915889E+03 -0.32626793411E+03 -0.12551387617E+04  0.13994755450E+04  0.46999998093E+01 0. -1.
</event>
<event>
 5   0  0.2524749E-06  0.2200140E+04  0.7818609E-02  0.8518370E-01
       -2   -1    0    0    0  501  0.00000000000E+00  0.00000000000E+00  0.11828594381E+04  0.11828594381E+04  0.25500000920E-02 0. -1.
        2   -1    0    0  501    0  0.00000000000E+00  0.00000000000E+00 -0.10230746893E+04  0.10230746893E+04  0.25500000920E-02 0.  1.
    10030    2    1    2    0    0  0.00000000000E+00  0.00000000000E+00  0.15978474882E+03  0.22059341274E+04  0.22001395884E+04 0.  0.
        4    1    3    3  502    0  0.94841973122E+03 -0.14381207602E+03 -0.46001451316E+03  0.10638594198E+04  0.12699999809E+01 0.  1.
       -4    1    3    3    0  502 -0.94841973122E+03  0.14381207602E+03  0.61979926198E+03  0.11420747076E+04  0.12699999809E+01 0. -1.
</event>
<event>
 5   0  0.1137869E-06  0.2200203E+04  0.7818609E-02  0.8518344E-01
       -1   -1    0    0    0  501  0.00000000000E+00  0.00000000000E+00  0.71897349857E+03  0.71897349859E+03  0.50400001928E-02 0.  1.
        1   -1    0    0  501    0  0.00000000000E+00  0.00000000000E+00 -0.16832653027E+04  0.16832653027E+04  0.50400001928E-02 0. -1.
    10030    2    1    2    0    0  0.00000000000E+00  0.00000000000E+00 -0.96429180415E+03  0.24022388013E+04  0.22002028486E+04 0.  0.
        5    1    3    3  502    0 -0.55161779373E+03  0.12276665414E+02  0.55696518041E+03  0.78400587311E+03  0.46999998093E+01 0.  1.
       -5    1    3    3    0  502  0.55161779373E+03 -0.12276665414E+02 -0.15212569846E+04  0.16182329282E+04  0.46999998093E+01 0. -1.
</event>
<event>
 5   0  0.2606154E-06  0.2196201E+04  0.7818609E-02  0.8520011E-01
        2   -1    0    0  501    0  0.00000000000E+00  0.00000000000E+00  0.57621998093E+03  0.57621998094E+03  0.25500000920E-02 0.  1.
       -2   -1    0    0    0  501  0.00000000000E+00  0.00000000000E+00 -0.20926471758E+04  0.20926471758E+04  0.25500000920E-02 0. -1.
    10030    2    1    2    0    0  0.00000000000E+00  0.00000000000E+00 -0.15164271949E+04  0.26688671567E+04  0.21962013712E+04 0.  0.
        2    1    3    3  502    0 -0.67145099215E+03 -0.86307333212E+03 -0.63618772317E+03  0.12650995339E+04  0.25500000920E-02 0.  1.
       -2    1    3    3    0  502  0.67145099215E+03  0.86307333212E+03 -0.88023947169E+03  0.14037676229E+04  0.25500000920E-02 0. -1.
</event>
<event>
 5   0  0.1082209E-06  0.2199363E+04  0.7818609E-02  0.8518693E-01
        1   -1    0    0  501    0  0.00000000000E+00  0.00000000000E+00  0.76575273580E+03  0.76575273582E+03  0.50400001928E-02 0.  1.
       -1   -1    0    0    0  501  0.00000000000E+00  0.00000000000E+00 -0.15792290973E+04  0.15792290973E+04  0.50400001928E-02 0. -1.
    10030    2    1    2    0    0  0.00000000000E+00  0.00000000000E+00 -0.81347636146E+03  0.23449818331E+04  0.21993626365E+04 0.  0.
        2    1    3    3  502    0  0.89084351901E+03  0.64439106972E+03 -0.42953053345E+03  0.11803976047E+04  0.25500000920E-02 0. -1.
       -2    1    3    3    0  502 -0.89084351901E+03 -0.64439106972E+03 -0.38394582802E+03  0.11645842284E+04  0.25500000920E-02 0.  1.
</event>
<event>
 5   0  0.2606154E-06  0.2199796E+04  0.7818609E-02  0.8518513E-01
       -2   -1    0    0    0  501  0.00000000000E+00  0.00000000000E+00  0.58804518647E+03  0.58804518647E+03  0.25500000920E-02 0.  1.
        2   -1    0    0  501    0  0.00000000000E+00  0.00000000000E+00 -0.20572838154E+04  0.20572838154E+04  0.25500000920E-02 0. -1.
    10030    2    1    2    0    0  0.00000000000E+00  0.00000000000E+00 -0.14692386289E+04  0.26453290018E+04  0.21997962131E+04 0.  0.
        2    1    3    3  502    0 -0.54031094190E+03  0.96858034625E+02 -0.18807912704E+04  0.19592583280E+04  0.25500000920E-02 0. -1.
       -2    1    3    3    0  502  0.54031094190E+03 -0.96858034625E+02  0.41155264152E+03  0.68607067388E+03  0.25500000920E-02 0.  1.
</event>
<event>
 5   0  0.1137869E-06  0.2200721E+04  0.7818609E-02  0.8518128E-01
       -1   -1    0    0    0  501  0.00000000000E+00  0.00000000000E+00  0.76641321480E+03  0.76641321482E+03  0.50400001928E-02 0. -1.
        1   -1    0    0  501    0  0.00000000000E+00  0.00000000000E+00 -0.15798182451E+04  0.15798182451E+04  0.50400001928E-02 0.  1.
    10030    2    1    2    0    0  0.00000000000E+00  0.00000000000E+00 -0.81340503028E+03  0.23462314599E+04  0.22007213182E+04 0.  0.
        5    1    3    3  502    0  0.62238997284E+03  0.45139161435E+03  0.43252220368E+03  0.88216847284E+03  0.46999998093E+01 0. -1.
       -5    1    3    3    0  502 -0.62238997284E+03 -0.45139161435E+03 -0.12459272340E+04  0.14640629871E+04  0.46999998093E+01 0.  1.
</event>
<event>
 5   0  0.2524749E-06  0.2197776E+04  0.7818609E-02  0.8519354E-01
       -2   -1    0    0    0  501  0.00000000000E+00  0.00000000000E+00  0.11776766139E+04  0.11776766139E+04  0.25500000920E-02 0. -1.
        2   -1    0    0  501    0  0.00000000000E+00  0.00000000000E+00 -0.10253701790E+04  0.10253701790E+04  0.25500000920E-02 0.  1.
    10030    2    1    2    0    0  0.00000000000E+00  0.00000000000E+00  0.15230643487E+03  0.22030467928E+04  0.21977756758E+04 0.  0.
        4    1    3    3  502    0 -0.73033125223E+03 -0.77598893695E+02 -0.74321015586E+03  0.10448771578E+04  0.12699999809E+01 0.  1.
       -4    1    3    3    0  502  0.73033125223E+03  0.77598893695E+02  0.89551659073E+03  0.11581696350E+04  0.12699999809E+01 0. -1.
</event>
<event>
 5   0  0.1107101E-06  0.2199909E+04  0.7818609E-02  0.8518466E-01
       -1   -1    0    0    0  501  0.00000000000E+00  0.00000000000E+00  0.93532586066E+03  0.93532586068E+03  0.50400001928E-02 0.  1.
        1   -1    0    0  501    0  0.00000000000E+00  0.00000000000E+00 -0.12935600014E+04  0.12935600014E+04  0.50400001928E-02 0. -1.
    10030    2    1    2    0    0  0.00000000000E+00  0.00000000000E+00 -0.35823414071E+03  0.22288858621E+04  0.21999091996E+04 0.  0.
        1    1    3    3  502    0 -0.20771661806E+03  0.36686057298E+03 -0.12084553189E+04  0.12798816864E+04  0.50400001928E-02 0. -1.
       -1    1    3    3    0  502  0.20771661806E+03 -0.36686057298E+03  0.85022117821E+03  0.94900417562E+03  0.50400001928E-02 0.  1.
</event>
<event>
 5   0  0.1137869E-06  0.2198751E+04  0.7818609E-02  0.8518948E-01
       -1   -1    0    0    0  501  0.00000000000E+00  0.00000000000E+00  0.54718910348E+03  0.54718910351E+03  0.50400001928E-02 0.  1.
        1   -1    0    0  501    0  0.00000000000E+00  0.00000000000E+00 -0.22087910159E+04  0.22087910159E+04  0.50400001928E-02 0. -1.
    10030    2    1    2    0    0  0.00000000000E+00  0.00000000000E+00 -0.16616019125E+04  0.27559801195E+04  0.21987508962E+04 0.  0.
        5    1    3    3  502    0  0.64823673568E+03 -0.67384803844E+03 -0.15555417142E+04  0.18149419162E+04  0.46999998093E+01 0. -1.
       -5    1    3    3    0  502 -0.64823673568E+03  0.67384803844E+03 -0.10606019823E+03  0.94103820328E+03  0.46999998093E+01 0.  1.
</event>
<event>
 5   0  0.1107101E-06  0.2202159E+04  0.7818609E-02  0.8517530E-01
        1   -1    0    0  501    0  0.00000000000E+00  0.00000000000E+00  0.54821484357E+03  0.54821484359E+03  0.50400001928E-02 0. -1.
       -1   -1    0    0    0  501  0.00000000000E+00  0.00000000000E+00 -0.22114985199E+04  0.22114985199E+04  0.50400001928E-02 0.  1.
    10030    2    1    2    0    0  0.00000000000E+00  0.00000000000E+00 -0.16632836763E+04  0.27597133635E+04  0.22021592269E+04 0.  0.
        1    1    3    3  502    0 -0.80039395287E+03  0.50619900099E+03 -0.12772601622E+03  0.95560548536E+03  0.50400001928E-02 0. -1.
       -1    1    3    3    0  502  0.80039395287E+03 -0.50619900099E+03 -0.15355576601E+04  0.18041078781E+04  0.50400001928E-02 0.  1.
</event>
<event>
 5   0  0.2606154E-06  0.2202288E+04  0.7818609E-02  0.8517476E-01
       -2   -1    0    0    0  501  0.00000000000E+00  0.00000000000E+00  0.59973266692E+03  0.59973266692E+03  0.25500000920E-02 0. -1.
        2   -1    0    0  501    0  0.00000000000E+00  0.00000000000E+00 -0.20217647834E+04  0.20217647834E+04  0.25500000920E-02 0.  1.
    10030    2    1    2    0    0  0.00000000000E+00  0.00000000000E+00 -0.14220321165E+04  0.26214974503E+04  0.22022882513E+04 0.  0.
        2    1    3    3  502    0  0.17277084311E+03 -0.78306038110E+03  0.18727369474E+03  0.82347116611E+03  0.25500000920E-02 0. -1.
       -2    1    3    3    0  502 -0.17277084311E+03  0.78306038110E+03 -0.16093058112E+04  0.17980262842E+04  0.25500000920E-02 0.  1.
</event>
<event>
 5   0  0.2532239E-06  0.2199847E+04  0.7818609E-02  0.8518492E-01
       -2   -1    0    0    0  501  0.00000000000E+00  0.00000000000E+00  0.75457935984E+03  0.75457935984E+03  0.25500000920E-02 0.  1.
        2   -1    0    0  501    0  0.00000000000E+00  0.00000000000E+00 -0.16033193399E+04  0.16033193399E+04  0.25500000920E-02 0. -1.
    10030    2    1    2    0    0  0.00000000000E+00  0.00000000000E+00 -0.84873998003E+03  0.23578986997E+04  0.21998469775E+04 0.  0.
        3    1    3    3  502    0  0.35131395384E+03  0.81945262578E+03 -0.11147820208E+04  0.14274673601E+04  0.10100000352E+00 0. -1.
       -3    1    3    3    0  502 -0.35131395384E+03 -0.81945262578E+03  0.26604204078E+03  0.93043133961E+03  0.10100000352E+00 0.  1.
</event>
<event>
 5   0  0.1137869E-06  0.2207352E+04  0.7818609E-02  0.8515374E-01
       -1   -1    0    0    0  501  0.00000000000E+00  0.00000000000E+00  0.25873865812E+04  0.25873865812E+04  0.50400001928E-02 0.  1.
        1   -1    0    0  501    0  0.00000000000E+00  0.00000000000E+00 -0.47078440446E+03  0.47078440448E+03  0.50400001928E-02 0. -1.
    10030    2    1    2    0    0  0.00000000000E+00  0.00000000000E+00  0.21166021768E+04  0.30581709857E+04  0.22073524873E+04 0.  0.
        5    1    3    3  502    0 -0.44000873534E+03  0.43244916220E+01  0.24605853004E+04  0.24996256718E+04  0.46999998093E+01 0.  1.
       -5    1    3    3    0  502  0.44000873534E+03 -0.43244916220E+01 -0.34398312362E+03  0.55854531395E+03  0.46999998093E+01 0. -1.
</event>
<event>
 5   0  0.2556869E-06  0.2199472E+04  0.7818609E-02  0.8518648E-01
       -2   -1    0    0    0  501  0.00000000000E+00  0.00000000000E+00  0.57436665124E+03  0.57436665125E+03  0.25500000920E-02 0. -1.
        2   -1    0    0  501    0  0.00000000000E+00  0.00000000000E+00 -0.21056568071E+04  0.21056568071E+04  0.25500000920E-02 0.  1.
    10030    2    1    2    0    0  0.00000000000E+00  0.00000000000E+00 -0.15312901559E+04  0.26800234584E+04  0.21994717993E+04 0.  0.
        5    1    3    3  502    0 -0.52820468818E+03 -0.89889354022E+03 -0.11919183898E+04  0.15835723309E+04  0.46999998093E+01 0.  1.
       -5    1    3    3    0  502  0.52820468818E+03  0.89889354022E+03 -0.33937176603E+03  0.10964511274E+04  0.46999998093E+01 0. -1.
</event>
<event>
 5   0  0.2556869E-06  0.2199623E+04  0.7818609E-02  0.8518585E-01
        2   -1    0    0  501    0  0.00000000000E+00  0.00000000000E+00  0.12148192517E+04  0.12148192517E+04  0.25500000920E-02 0. -1.
       -2   -1    0    0    0  501  0.00000000000E+00  0.00000000000E+00 -0.99569201534E+03  0.99569201535E+03  0.25500000920E-02 0.  1.
    10030    2    1    2    0    0  0.00000000000E+00  0.00000000000E+00  0.21912723638E+03  0.22105112671E+04  0.21996234487E+04 0.  0.
        5    1    3    3  502    0  0.23992659024E+03  0.58907303442E+03  0.10112181203E+04  0.11946363402E+04  0.46999998093E+01 0. -1.
       -5    1    3    3    0  502 -0.23992659024E+03 -0.58907303442E+03 -0.79209088392E+03  0.10158749268E+04  0.46999998093E+01 0.  1.
</event>
<event>
 5   0  0.2556869E-06  0.2200195E+04  0.7818609E-02  0.8518347E-01
       -2   -1    0    0    0  501  0.00000000000E+00  0.00000000000E+00  0.12348074696E+04  0.12348074696E+04  0.25500000920E-02 0. -1.
        2   -1    0    0  501    0  0.00000000000E+00  0.00000000000E+00 -0.98008397054E+03  0.98008397054E+03  0.25500000920E-02 0.  1.
    10030    2    1    2    0    0  0.00000000000E+00  0.00000000000E+00  0.25472349903E+03  0.22148914401E+04  0.22001954528E+04 0.  0.
        5    1    3    3  502    0 -0.69679707416E+03 -0.60478047468E+02 -0.72743246350E+03  0.10091401467E+04  0.46999998093E+01 0.  1.
       -5    1    3    3    0  502  0.69679707416E+03  0.60478047468E+02  0.98215596253E+03  0.12057512934E+04  0.46999998093E+01 0. -1.
</event>
<event>
 5   0  0.1107101E-06  0.2199470E+04  0.7818609E-02  0.8518649E-01
       -1   -1    0    0    0  501  0.00000000000E+00  0.00000000000E+00  0.63193486465E+03  0.63193486467E+03  0.50400001928E-02 0.  1.
        1   -1    0    0  501    0  0.00000000000E+00  0.00000000000E+00 -0.19138326361E+04  0.19138326361E+04  0.50400001928E-02 0. -1.
    10030    2    1    2    0    0  0.00000000000E+00  0.00000000000E+00 -0.12818977714E+04  0.25457675008E+04  0.21994704525E+04 0.  0.
        1    1    3    3  502    0  0.54241277968E+03  0.18465300607E+03 -0.17274132264E+04  0.18199628598E+04  0.50400001928E-02 0. -1.
       -1    1    3    3    0  502 -0.54241277968E+03 -0.18465300607E+03  0.44551545498E+03  0.72580464097E+03  0.50400001928E-02 0.  1.
</event>
<event>
 5   0  0.2524749E-06  0.2201807E+04  0.7818609E-02  0.8517676E-01
       -2   -1    0    0    0  501  0.00000000000E+00  0.00000000000E+00  0.78096143303E+03  0.78096143303E+03  0.25500000920E-02 0.  1.
        2   -1    0    0  501    0  0.00000000000E+00  0.00000000000E+00 -0.15519186548E+04  0.15519186548E+04  0.25500000920E-02 0. -1.
    10030    2    1    2    0    0  0.00000000000E+00  0.00000000000E+00 -0.77095722180E+03  0.23328800879E+04  0.22018070911E+04 0.  0.
        4    1    3    3  502    0  0.34652824147E+03  0.73620450222E+03  0.40022403107E+03  0.90678540966E+03  0.12699999809E+01 0.  1.
       -4    1    3    3    0  502 -0.34652824147E+03 -0.73620450222E+03 -0.11711812529E+04  0.14260946782E+04  0.12699999809E+01 0. -1.
</event>
<event>
 5   0  0.1107101E-06  0.2198713E+04  0.7818609E-02  0.8518964E-01
        1   -1    0    0  501    0  0.00000000000E+00  0.00000000000E+00  0.14183352186E+04  0.14183352186E+04  0.50400001928E-02 0.  1.
       -1   -1    0    0    0  501  0.00000000000E+00  0.00000000000E+00 -0.85211493821E+03  0.85211493822E+03  0.50400001928E-02 0. -1.
    10030    2    1    2    0    0  0.00000000000E+00  0.00000000000E+00  0.56622028038E+03  0.22704501568E+04  0.21987129209E+04 0.  0.
        1    1    3    3  502    0 -0.55413320558E+03 -0.14880480487E+03 -0.68523745496E+03  0.89373197838E+03  0.50400001928E-02 0. -1.
       -1    1    3    3    0  502  0.55413320558E+03  0.14880480487E+03  0.12514577353E+04  0.13767181784E+04  0.50400001928E-02 0.  1.
</event>
<event>
 5   0  0.1107101E-06  0.2198763E+04  0.7818609E-02  0.8518943E-01
        1   -1    0    0  501    0  0.00000000000E+00  0.00000000000E+00  0.12909997260E+04  0.12909997261E+04  0.50400001928E-02 0. -1.
       -1   -1    0    0    0  501  0.00000000000E+00  0.00000000000E+00 -0.93620415870E+03  0.93620415872E+03  0.50400001928E-02 0.  1.
    10030    2    1    2    0    0  0.00000000000E+00  0.00000000000E+00  0.35479556735E+03  0.22272038848E+04  0.21987626634E+04 0.  0.
        1    1    3    3  502    0  0.55803830596E+02  0.10944776860E+04  0.26595774313E+03  0.11277096230E+04  0.50400001928E-02 0. -1.
       -1    1    3    3    0  502 -0.55803830596E+02 -0.10944776860E+04  0.88837824214E+02  0.10994942618E+04  0.50400001928E-02 0.  1.
</event>
<event>
 5   0  0.1082209E-06  0.2200769E+04  0.7818609E-02  0.8518108E-01
        1   -1    0    0  501    0  0.00000000000E+00  0.00000000000E+00  0.15579277867E+04  0.15579277867E+04  0.50400001928E-02 0.  1.
       -1   -1    0    0    0  501  0.00000000000E+00  0.00000000000E+00 -0.77721607697E+03  0.77721607699E+03  0.50400001928E-02 0. -1.
    10030    2    1    2    0    0  0.00000000000E+00  0.00000000000E+00  0.78071170968E+03  0.23351438637E+04  0.22007694314E+04 0.  0.
        2    1    3    3  502    0  0.10450275374E+03  0.71199780356E+03 -0.49292935580E+03  0.87226202923E+03  0.25500000920E-02 0. -1.
       -2    1    3    3    0  502 -0.10450275374E+03 -0.71199780356E+03  0.12736410655E+04  0.14628818344E+04  0.25500000920E-02 0.  1.
</event>
<event>
 5   0  0.2524749E-06  0.2199727E+04  0.7818609E-02  0.8518542E-01
        2   -1    0    0  501    0  0.00000000000E+00  0.00000000000E+00  0.16157626560E+04  0.16157626560E+04  0.25500000920E-02 0.  1.
       -2   -1    0    0    0  501  0.00000000000E+00  0.00000000000E+00 -0.74868618019E+03  0.74868618020E+03  0.25500000920E-02 0. -1.
    10030    2    1    2    0    0  0.00000000000E+00  0.00000000000E+00  0.86707647584E+03  0.23644488362E+04  0.21997265021E+04 0.  0.
        4    1    3    3  502    0  0.63669481889E+03  0.88336850442E+03  0.26709665576E+03  0.11211879608E+04  0.12699999809E+01 0. -1.
       -4    1    3    3    0  502 -0.63669481889E+03 -0.88336850442E+03  0.59997982007E+03  0.12432608754E+04  0.12699999809E+01 0.  1.
</event>
<event>
 5   0  0.1146827E-06  0.2203289E+04  0.7818609E-02  0.8517061E-01
       -1   -1    0    0    0  501  0.00000000000E+00  0.00000000000E+00  0.93582624359E+03  0.93582624360E+03  0.50400001928E-02 0.  1.
        1   -1    0    0  501    0  0.00000000000E+00  0.00000000000E+00 -0.12968435068E+04  0.12968435069E+04  0.50400001928E-02 0. -1.
    10030    2    1    2    0    0  0.00000000000E+00  0.00000000000E+00 -0.36101726326E+03  0.22326697505E+04  0.22032886216E+04 0.  0.
        4    1    3    3  502    0  0.30411306323E+02  0.79606154126E+03  0.59054534930E+03  0.99165732363E+03  0.12699999809E+01 0.  1.
       -4    1    3    3    0  502 -0.30411306323E+02 -0.79606154126E+03 -0.95156261256E+03  0.12410124268E+04  0.12699999809E+01 0. -1.
</event>
<event>
 5   0  0.1144271E-06  0.2199496E+04  0.7818609E-02  0.8518638E-01
       -1   -1    0    0    0  501  0.00000000000E+00  0.00000000000E+00  0.62022713638E+03  0.62022713640E+03  0.50400001928E-02 0.  1.
        1   -1    0    0  501    0  0.00000000000E+00  0.00000000000E+00 -0.19500045234E+04  0.19500045234E+04  0.50400001928E-02 0. -1.
    10030    2    1    2    0    0  0.00000000000E+00  0.00000000000E+00 -0.13297773870E+04  0.25702316598E+04  0.21994960528E+04 0.  0.
        3    1    3    3  502    0  0.68940532354E+03 -0.31514832958E+03  0.26618445700E+03  0.80340048861E+03  0.10100000352E+00 0.  1.
       -3    1    3    3    0  502 -0.68940532354E+03  0.31514832958E+03 -0.15959618440E+04  0.17668311712E+04  0.10100000352E+00 0. -1.
</event>
<event>
 5   0  0.2581058E-06  0.2200406E+04  0.7818609E-02  0.8518259E-01
        2   -1    0    0  501    0  0.00000000000E+00  0.00000000000E+00  0.13089278353E+04  0.13089278353E+04  0.25500000920E-02 0. -1.
       -2   -1    0    0    0  501  0.00000000000E+00  0.00000000000E+00 -0.92476203819E+03  0.92476203819E+03  0.25500000920E-02 0.  1.
    10030    2    1    2    0    0  0.00000000000E+00  0.00000000000E+00  0.38416579713E+03  0.22336898735E+04  0.22004061196E+04 0.  0.
        1    1    3    3  502    0 -0.96567008732E+03  0.54801924215E+01  0.72721716304E+03  0.12088811159E+04  0.50400001928E-02 0. -1.
       -1    1    3    3    0  502  0.96567008732E+03 -0.54801924215E+01 -0.34305136591E+03  0.10248087576E+04  0.50400001928E-02 0.  1.
</event>
<event>
 5   0  0.2556869E-06  0.2199158E+04  0.7818609E-02  0.8518779E-01
        2   -1    0    0  501    0  0.00000000000E+00  0.00000000000E+00  0.82987910552E+03  0.82987910552E+03  0.25500000920E-02 0. -1.
       -2   -1    0    0    0  501  0.00000000000E+00  0.00000000000E+00 -0.14569281917E+04  0.14569281917E+04  0.25500000920E-02 0.  1.
    10030    2    1    2    0    0  0.00000000000E+00  0.00000000000E+00 -0.62704908614E+03  0.22868072972E+04  0.21991582612E+04 0.  0.
        5    1    3    3  502    0 -0.61223403214E+03 -0.90892399386E+03 -0.40698922419E+03  0.11690319308E+04  0.46999998093E+01 0. -1.
       -5    1    3    3    0  502  0.61223403214E+03  0.90892399386E+03 -0.22005986195E+03  0.11177753663E+04  0.46999998093E+01 0.  1.
</event>
<event>
 5   0  0.1146827E-06  0.2199562E+04  0.7818609E-02  0.8518611E-01
       -1   -1    0    0    0  501  0.00000000000E+00  0.00000000000E+00  0.78941824730E+03  0.78941824732E+03  0.50400001928E-02 0.  1.
        1   -1    0    0  501    0  0.00000000000E+00  0.00000000000E+00 -0.15321638141E+04  0.15321638141E+04  0.50400001928E-02 0. -1.
    10030    2    1    2    0    0  0.00000000000E+00  0.00000000000E+00 -0.74274556682E+03  0.23215820614E+04  0.21995618407E+04 0.  0.
        4    1    3    3  502    0 -0.91666762356E+03 -0.18342341843E+03  0.24006766540E+03  0.96517240915E+03  0.12699999809E+01 0.  1.
       -4    1    3    3    0  502  0.91666762356E+03  0.18342341843E+03 -0.98281323222E+03  0.13564096523E+04  0.12699999809E+01 0. -1.
</event>
<event>
 5   0  0.2524749E-06  0.2200043E+04  0.7818609E-02  0.8518410E-01
       -2   -1    0    0    0  501  0.00000000000E+00  0.00000000000E+00  0.99843725361E+03  0.99843725362E+03  0.25500000920E-02 0.  1.
        2   -1    0    0  501    0  0.00000000000E+00  0.00000000000E+00 -0.12119418044E+04  0.12119418045E+04  0.25500000920E-02 0. -1.
    10030    2    1    2    0    0  0.00000000000E+00  0.00000000000E+00 -0.21350455083E+03  0.22103790581E+04  0.22000434966E+04 0.  0.
        4    1    3    3  502    0  0.38707772270E+03  0.38690401901E+03 -0.10654480107E+04  0.11977917013E+04  0.12699999809E+01 0. -1.
       -4    1    3    3    0  502 -0.38707772270E+03 -0.38690401901E+03  0.85194345987E+03  0.10125873568E+04  0.12699999809E+01 0.  1.
</event>
<event>
 5   0  0.2606154E-06  0.2200272E+04  0.7818609E-02  0.8518315E-01
       -2   -1    0    0    0  501  0.00000000000E+00  0.00000000000E+00  0.11538845709E+04  0.11538845709E+04  0.25500000920E-02 0. -1.
        2   -1    0    0  501    0  0.00000000000E+00  0.00000000000E+00 -0.10488908411E+04  0.10488908411E+04  0.25500000920E-02 0.  1.
    10030    2    1    2    0    0  0.00000000000E+00  0.00000000000E+00  0.10499372985E+03  0.22027754120E+04  0.22002717633E+04 0.  0.
        2    1    3    3  502    0 -0.34008395519E+02  0.89411132431E+03 -0.58831531835E+03  0.10708438472E+04  0.25500000920E-02 0.  1.
       -2    1    3    3    0  502  0.34008395519E+02 -0.89411132431E+03  0.69330904819E+03  0.11319315649E+04  0.25500000920E-02 0. -1.
</event>
<event>
 5   0  0.1107101E-06  0.2199832E+04  0.7818609E-02  0.8518498E-01
        1   -1    0    0  501    0  0.00000000000E+00  0.00000000000E+00  0.18330057574E+04  0.18330057574E+04  0.50400001928E-02 0. -1.
       -1   -1    0    0    0  501  0.00000000000E+00  0.00000000000E+00 -0.66001723258E+03  0.66001723260E+03  0.50400001928E-02 0.  1.
    10030    2    1    2    0    0  0.00000000000E+00  0.00000000000E+00  0.11729885248E+04  0.24930229900E+04  0.21998321639E+04 0.  0.
        1    1    3    3  502    0  0.95744908162E+03 -0.43334802264E+03  0.95427094540E+03  0.14195535530E+04  0.50400001928E-02 0. -1.
       -1    1    3    3    0  502 -0.95744908162E+03  0.43334802264E+03  0.21871757944E+03  0.10734694370E+04  0.50400001928E-02 0.  1.
</event>
<event>
 5   0  0.2606154E-06  0.2201973E+04  0.7818609E-02  0.8517608E-01
       -2   -1    0    0    0  501  0.00000000000E+00  0.00000000000E+00  0.14626111024E+04  0.14626111025E+04  0.25500000920E-02 0.  1.
        2   -1    0    0  501    0  0.00000000000E+00  0.00000000000E+00 -0.82877177227E+03  0.82877177228E+03  0.25500000920E-02 0. -1.
    10030    2    1    2    0    0  0.00000000000E+00  0.00000000000E+00  0.63383933017E+03  0.22913828747E+04  0.22019725662E+04 0.  0.
        2    1    3    3  502    0  0.67063810215E+03 -0.77225305502E+03  0.74094601099E+03  0.12629850499E+04  0.25500000920E-02 0.  1.
       -2    1    3    3    0  502 -0.67063810215E+03  0.77225305502E+03 -0.10710668081E+03  0.10283978248E+04  0.25500000920E-02 0. -1.
</event>
<event>
 5   0  0.1082209E-06  0.2198348E+04  0.7818609E-02  0.8519116E-01
       -1   -1    0    0    0  501  0.00000000000E+00  0.00000000000E+00  0.82394148268E+03  0.82394148270E+03  0.50400001928E-02 0. -1.
        1   -1    0    0  501    0  0.00000000000E+00  0.00000000000E+00 -0.14663467092E+04  0.14663467092E+04  0.50400001928E-02 0.  1.
    10030    2    1    2    0    0  0.00000000000E+00  0.00000000000E+00 -0.64240522652E+03  0.22902881919E+04  0.21983483634E+04 0.  0.
        2    1    3    3  502    0  0.51038514687E+03  0.84676548938E+03  0.17917484174E+03  0.10047927229E+04  0.25500000920E-02 0.  1.
       -2    1    3    3    0  502 -0.51038514687E+03 -0.84676548938E+03 -0.82158006826E+03  0.12854954690E+04  0.25500000920E-02 0. -1.
</event>
<event>
 5   0  0.1146827E-06  0.2200170E+04  0.7818609E-02  0.8518357E-01
        1   -1    0    0  501    0  0.00000000000E+00  0.00000000000E+00  0.14639057199E+04  0.14639057199E+04  0.50400001928E-02 0.  1.
       -1   -1    0    0    0  501  0.00000000000E+00  0.00000000000E+00 -0.82668376763E+03  0.82668376765E+03  0.50400001928E-02 0. -1.
    10030    2    1    2    0    0  0.00000000000E+00  0.00000000000E+00  0.63722195227E+03  0.22905894876E+04  0.22001700807E+04 0.  0.
        4    1    3    3  502    0 -0.86212302342E+03  0.54674648428E+03 -0.10810865385E+03  0.10265850766E+04  0.12699999809E+01 0. -1.
       -4    1    3    3    0  502  0.86212302342E+03 -0.54674648428E+03  0.74533060612E+03  0.12640044109E+04  0.12699999809E+01 0.  1.
</event>
<event>
 5   0  0.2581058E-06  0.2200005E+04  0.7818609E-02  0.8518426E-01
       -2   -1    0    0    0  501  0.00000000000E+00  0.00000000000E+00  0.12097991362E+04  0.12097991362E+04  0.25500000920E-02 0. -1.
        2   -1    0    0  501    0  0.00000000000E+00  0.00000000000E+00 -0.10001704389E+04  0.10001704389E+04  0.25500000920E-02 0.  1.
    10030    2    1    2    0    0  0.00000000000E+00  0.00000000000E+00  0.20962869725E+03  0.22099695751E+04  0.22000048482E+04 0.  0.
        1    1    3    3  502    0 -0.82274864150E+03 -0.14540375118E+02  0.83810608344E+03  0.11745418497E+04  0.50400001928E-02 0. -1.
       -1    1    3    3    0  502  0.82274864150E+03  0.14540375118E+02 -0.62847738619E+03  0.10354277254E+04  0.50400001928E-02 0.  1.
</event>
<event>
 5   0  0.2606154E-06  0.2199175E+04  0.7818609E-02  0.8518771E-01
       -2   -1    0    0    0  501  0.00000000000E+00  0.00000000000E+00  0.69824010244E+03  0.69824010245E+03  0.25500000920E-02 0. -1.
        2   -1    0    0  501    0  0.00000000000E+00  0.00000000000E+00 -0.17316291399E+04  0.17316291399E+04  0.25500000920E-02 0.  1.
    10030    2    1    2    0    0  0.00000000000E+00  0.00000000000E+00 -0.10333890375E+04  0.24298692424E+04  0.21991752164E+04 0.  0.
        2    1    3    3  502    0  0.69013557070E+03 -0.75511185525E+02 -0.14588472189E+04  0.16156188452E+04  0.25500000920E-02 0.  1.
       -2    1    3    3    0  502 -0.69013557070E+03  0.75511185525E+02  0.42545818140E+03  0.81425039712E+03  0.25500000920E-02 0. -1.
</event>
<event>
 5   0  0.1107101E-06  0.2200054E+04  0.7818609E-02  0.8518406E-01
       -1   -1    0    0    0  501  0.00000000000E+00  0.00000000000E+00  0.80925752065E+03  0.80925752067E+03  0.50400001928E-02 0. -1.
        1   -1    0    0  501    0  0.00000000000E+00  0.00000000000E+00 -0.14952715487E+04  0.14952715488E+04  0.50400001928E-02 0.  1.
    10030    2    1    2    0    0  0.00000000000E+00  0.00000000000E+00 -0.68601402810E+03  0.23045290694E+04  0.22000543141E+04 0.  0.
        1    1    3    3  502    0 -0.95196308431E+03  0.54597017001E+03 -0.42238558769E+03  0.11758940110E+04  0.50400001928E-02 0.  1.
       -1    1    3    3    0  502  0.95196308431E+03 -0.54597017001E+03 -0.26362844041E+03  0.11286350584E+04  0.50400001928E-02 0. -1.
</event>
<event>
 5   0  0.1082209E-06  0.2199530E+04  0.7818609E-02  0.8518624E-01
       -1   -1    0    0    0  501  0.00000000000E+00  0.00000000000E+00  0.69007699534E+03  0.69007699536E+03  0.50400001928E-02 0. -1.
        1   -1    0    0  501    0  0.00000000000E+00  0.00000000000E+00 -0.17526780888E+04  0.17526780888E+04  0.50400001928E-02 0.  1.
    10030    2    1    2    0    0  0.00000000000E+00  0.00000000000E+00 -0.10626010934E+04  0.24427550841E+04  0.21995297946E+04 0.  0.
        2    1    3    3  502    0 -0.62589133377E+03  0.33934664510E+02 -0.15348815975E+04  0.16579363804E+04  0.25500000920E-02 0.  1.
       -2    1    3    3    0  502  0.62589133377E+03 -0.33934664510E+02  0.47228050408E+03  0.78481870371E+03  0.25500000920E-02 0. -1.
</event>
<event>
 5   0  0.2581058E-06  0.2200147E+04  0.7818609E-02  0.8518367E-01
        2   -1    0    0  501    0  0.00000000000E+00  0.00000000000E+00  0.17736904193E+04  0.17736904193E+04  0.25500000920E-02 0.  1.
       -2   -1    0    0    0  501  0.00000000000E+00  0.00000000000E+00 -0.68228445990E+03  0.68228445991E+03  0.25500000920E-02 0. -1.
    10030    2    1    2    0    0  0.00000000000E+00  0.00000000000E+00  0.10914059594E+04  0.24559748792E+04  0.22001467313E+04 0.  0.
        1    1    3    3  502    0 -0.50365612480E+03 -0.23476029846E+03 -0.51410239566E+03  0.75702256441E+03  0.50400001928E-02 0. -1.
       -1    1    3    3    0  502  0.50365612480E+03  0.23476029846E+03  0.16055083550E+04  0.16989523148E+04  0.50400001928E-02 0.  1.
</event>
<event>
 5   0  0.1082209E-06  0.2202095E+04  0.7818609E-02  0.8517557E-01
       -1   -1    0    0    0  501  0.00000000000E+00  0.00000000000E+00  0.72726579645E+03  0.72726579647E+03  0.50400001928E-02 0.  1.
        1   -1    0    0  501    0  0.00000000000E+00  0.00000000000E+00 -0.16669361586E+04  0.16669361586E+04  0.50400001928E-02 0. -1.
    10030    2    1    2    0    0  0.00000000000E+00  0.00000000000E+00 -0.93967036216E+03  0.23942019551E+04  0.22020950507E+04 0.  0.
        2    1    3    3  502    0 -0.76260595337E+03 -0.28418575438E+03  0.33646488593E+03  0.88064635500E+03  0.25500000920E-02 0.  1.
       -2    1    3    3    0  502  0.76260595337E+03  0.28418575438E+03 -0.12761352481E+04  0.15135556001E+04  0.25500000920E-02 0. -1.
</event>
<event>
 5   0  0.1144271E-06  0.2200666E+04  0.7818609E-02  0.8518151E-01
        1   -1    0    0  501    0  0.00000000000E+00  0.00000000000E+00  0.91399674092E+03  0.91399674094E+03  0.50400001928E-02 0.  1.
       -1   -1    0    0    0  501  0.00000000000E+00  0.00000000000E+00 -0.13246581268E+04  0.13246581269E+04  0.50400001928E-02 0. -1.
    10030    2    1    2    0    0  0.00000000000E+00  0.00000000000E+00 -0.41066138592E+03  0.22386548678E+04  0.22006664543E+04 0.  0.
        3    1    3    3  502    0 -0.71590888522E+02 -0.63764415801E+03  0.70397763255E+03  0.95252288418E+03  0.10100000352E+00 0.  1.
       -3    1    3    3    0  502  0.71590888522E+02  0.63764415801E+03 -0.11146390185E+04  0.12861319836E+04  0.10100000352E+00 0. -1.
</event>
<event>
 5   0  0.2524749E-06  0.2203106E+04  0.7818609E-02  0.8517136E-01
       -2   -1    0    0    0  501  0.00000000000E+00  0.00000000000E+00  0.10784452937E+04  0.10784452937E+04  0.25500000920E-02 0.  1.
        2   -1    0    0  501    0  0.00000000000E+00  0.00000000000E+00 -0.11251562992E+04  0.11251562993E+04  0.25500000920E-02 0. -1.
    10030    2    1    2    0    0  0.00000000000E+00  0.00000000000E+00 -0.46711005516E+02  0.22036015930E+04  0.22031064574E+04 0.  0.
        4    1    3    3  502    0  0.54088830400E+03 -0.88235206108E+03 -0.40068368978E+03  0.11097992383E+04  0.12699999809E+01 0. -1.
       -4    1    3    3    0  502 -0.54088830400E+03  0.88235206108E+03  0.35397268426E+03  0.10938023547E+04  0.12699999809E+01 0.  1.
</event>
<event>
 5   0  0.2524749E-06  0.2186050E+04  0.7818609E-02  0.8524257E-01
       -2   -1    0    0    0  501  0.00000000000E+00  0.00000000000E+00  0.83509121123E+03  0.83509121124E+03  0.25500000920E-02 0.  1.
        2   -1    0    0  501    0  0.00000000000E+00  0.00000000000E+00 -0.14306262084E+04  0.14306262084E+04  0.25500000920E-02 0. -1.
    10030    2    1    2    0    0  0.00000000000E+00  0.00000000000E+00 -0.59553499713E+03  0.22657174196E+04  0.21860497462E+04 0.  0.
        4    1    3    3  502    0  0.32201716407E+03  0.33129665821E+03  0.72891312963E+03  0.86299970634E+03  0.12699999809E+01 0.  1.
       -4    1    3    3    0  502 -0.32201716407E+03 -0.33129665821E+03 -0.13244481268E+04  0.14027177133E+04  0.12699999809E+01 0. -1.
</event>
<event>
 5   0  0.2524749E-06  0.2205112E+04  0.7818609E-02  0.8516303E-01
        2   -1    0    0  501    0  0.00000000000E+00  0.00000000000E+00  0.11604548978E+04  0.11604548978E+04  0.25500000920E-02 0.  1.
       -2   -1    0    0    0  501  0.00000000000E+00  0.00000000000E+00 -0.10475462747E+04  0.10475462747E+04  0.25500000920E-02 0. -1.
    10030    2    1    2    0    0  0.00000000000E+00  0.00000000000E+00  0.11290862314E+03  0.22080011725E+04  0.22051124281E+04 0.  0.
        4    1    3    3  502    0 -0.18663570468E+03 -0.13558202932E+03  0.11360194029E+04  0.11592053613E+04  0.12699999809E+01 0.  1.
       -4    1    3    3    0  502  0.18663570468E+03  0.13558202932E+03 -0.10231107798E+04  0.10487958112E+04  0.12699999809E+01 0. -1.
</event>
<event>
 5   0  0.2532239E-06  0.2199454E+04  0.7818609E-02  0.8518656E-01
        2   -1    0    0  501    0  0.00000000000E+00  0.00000000000E+00  0.92895765416E+03  0.92895765417E+03  0.25500000920E-02 0.  1.
       -2   -1    0    0    0  501  0.00000000000E+00  0.00000000000E+00 -0.13018884034E+04  0.13018884034E+04  0.25500000920E-02 0. -1.
    10030    2    1    2    0    0  0.00000000000E+00  0.00000000000E+00 -0.37293074920E+03  0.22308460575E+04  0.21994537478E+04 0.  0.
        3    1    3    3  502    0  0.66984101897E+03  0.60075452444E+03  0.45486163347E+03  0.10082123314E+04  0.10100000352E+00 0.  1.
       -3    1    3    3    0  502 -0.66984101897E+03 -0.60075452444E+03 -0.82779238266E+03  0.12226337262E+04  0.10100000352E+00 0. -1.
</event>
<event>
 5   0  0.1107101E-06  0.2207565E+04  0.7818609E-02  0.8515286E-01
       -1   -1    0    0    0  501  0.00000000000E+00  0.00000000000E+00  0.10531494968E+04  0.10531494968E+04  0.50400001928E-02 0. -1.
        1   -1    0    0  501    0  0.00000000000E+00  0.00000000000E+00 -0.11568493407E+04  0.11568493408E+04  0.50400001928E-02 0.  1.
    10030    2    1    2    0    0  0.00000000000E+00  0.00000000000E+00 -0.10369984392E+03  0.22099988376E+04  0.22075645414E+04 0.  0.
        1    1    3    3  502    0  0.58405046392E+03  0.81719386683E+03 -0.50997287599E+03  0.11264959364E+04  0.50400001928E-02 0. -1.
       -1    1    3    3    0  502 -0.58405046392E+03 -0.81719386683E+03  0.40627303207E+03  0.10835029012E+04  0.50400001928E-02 0.  1.
</event>
<event>
 5   0  0.2606154E-06  0.2196425E+04  0.7818609E-02  0.8519918E-01
        2   -1    0    0  501    0  0.00000000000E+00  0.00000000000E+00  0.12146047736E+04  0.12146047736E+04  0.25500000920E-02 0.  1.
       -2   -1    0    0    0  501  0.00000000000E+00  0.00000000000E+00 -0.99297375051E+03  0.99297375051E+03  0.25500000920E-02 0. -1.
    10030    2    1    2    0    0  0.00000000000E+00  0.00000000000E+00  0.22163102308E+03  0.22075785241E+04  0.21964249656E+04 0.  0.
        2    1    3    3  502    0 -0.10308028469E+04 -0.33774880035E+03 -0.61642223304E+02  0.10864752758E+04  0.25500000920E-02 0.  1.
       -2    1    3    3    0  502  0.10308028469E+04  0.33774880035E+03  0.28327324639E+03  0.11211032483E+04  0.25500000920E-02 0. -1.
</event>
<event>
 5   0  0.2581058E-06  0.2200048E+04  0.7818609E-02  0.8518408E-01
        2   -1    0    0  501    0  0.00000000000E+00  0.00000000000E+00  0.99196974001E+03  0.99196974001E+03  0.25500000920E-02 0.  1.
       -2   -1    0    0    0  501  0.00000000000E+00  0.00000000000E+00 -0.12198481318E+04  0.12198481318E+04  0.25500000920E-02 0. -1.
    10030    2    1    2    0    0  0.00000000000E+00  0.00000000000E+00 -0.22787839178E+03  0.22118178718E+04  0.22000476669E+04 0.  0.
        1    1    3    3  502    0 -0.10448195327E+04 -0.33962575332E+03 -0.16954264788E+03  0.11116376287E+04  0.50400001928E-02 0.  1.
       -1    1    3    3    0  502  0.10448195327E+04  0.33962575332E+03 -0.58335743907E+02  0.11001802431E+04  0.50400001928E-02 0. -1.
</event>
<event>
 5   0  0.1082209E-06  0.2200271E+04  0.7818609E-02  0.8518315E-01
        1   -1    0    0  501    0  0.00000000000E+00  0.00000000000E+00  0.23138826454E+04  0.23138826454E+04  0.50400001928E-02 0.  1.
       -1   -1    0    0    0  501  0.00000000000E+00  0.00000000000E+00 -0.52305950313E+03  0.52305950315E+03  0.50400001928E-02 0. -1.
    10030    2    1    2    0    0  0.00000000000E+00  0.00000000000E+00  0.17908231423E+04  0.28369421486E+04  0.22002711713E+04 0.  0.
        2    1    3    3  502    0 -0.86179801801E+03 -0.68276276673E+03  0.84652649568E+03  0.13876123116E+04  0.25500000920E-02 0.  1.
       -2    1    3    3    0  502  0.86179801801E+03  0.68276276673E+03  0.94429664662E+03  0.14493298370E+04  0.25500000920E-02 0. -1.
</event>
<event>
 5   0  0.1082209E-06  0.2199803E+04  0.7818609E-02  0.8518510E-01
       -1   -1    0    0    0  501  0.00000000000E+00  0.00000000000E+00  0.12630060901E+04  0.12630060901E+04  0.50400001928E-02 0.  1.
        1   -1    0    0  501    0  0.00000000000E+00  0.00000000000E+00 -0.95786003824E+03  0.95786003825E+03  0.50400001928E-02 0. -1.
    10030    2    1    2    0    0  0.00000000000E+00  0.00000000000E+00  0.30514605184E+03  0.22208661283E+04  0.21998027746E+04 0.  0.
        2    1    3    3  502    0 -0.15385342509E+02 -0.74277200199E+03  0.97141008209E+03  0.12229409239E+04  0.25500000920E-02 0.  1.
       -2    1    3    3    0  502  0.15385342509E+02  0.74277200199E+03 -0.66626403025E+03  0.99792520446E+03  0.25500000920E-02 0. -1.
</event>
<event>
 5   0  0.2581058E-06  0.2200515E+04  0.7818609E-02  0.8518214E-01
        2   -1    0    0  501    0  0.00000000000E+00  0.00000000000E+00  0.20786443797E+04  0.20786443797E+04  0.25500000920E-02 0.  1.
       -2   -1    0    0    0  501  0.00000000000E+00  0.00000000000E+00 -0.58238247924E+03  0.58238247925E+03  0.25500000920E-02 0. -1.
    10030    2    1    2    0    0  0.00000000000E+00  0.00000000000E+00  0.14962619005E+04  0.26610268590E+04  0.22005145465E+04 0.  0.
        1    1    3    3  502    0  0.46687873229E+03  0.76892129241E+03 -0.17971487377E+02  0.89974367404E+03  0.50400001928E-02 0. -1.
       -1    1    3    3    0  502 -0.46687873229E+03 -0.76892129241E+03  0.15142333879E+04  0.17612831849E+04  0.50400001928E-02 0.  1.
</event>
<event>
 5   0  0.2524749E-06  0.2199451E+04  0.7818609E-02  0.8518657E-01
        2   -1    0    0  501    0  0.00000000000E+00  0.00000000000E+00  0.14040933427E+04  0.14040933427E+04  0.25500000920E-02 0. -1.
       -2   -1    0    0    0  501  0.00000000000E+00  0.00000000000E+00 -0.86133581384E+03  0.86133581384E+03  0.25500000920E-02 0.  1.
    10030    2    1    2    0    0  0.00000000000E+00  0.00000000000E+00  0.54275752882E+03  0.22654291565E+04  0.21994507333E+04 0.  0.
        4    1    3    3  502    0  0.93780704617E+03 -0.35922551639E+03  0.73300764046E+03  0.12433128493E+04  0.12699999809E+01 0. -1.
       -4    1    3    3    0  502 -0.93780704617E+03  0.35922551639E+03 -0.19025011164E+03  0.10221163072E+04  0.12699999809E+01 0.  1.
</event>
<event>
 5   0  0.2524749E-06  0.2200430E+04  0.7818609E-02  0.8518249E-01
       -2   -1    0    0    0  501  0.00000000000E+00  0.00000000000E+00  0.55472344526E+03  0.55472344526E+03  0.25500000920E-02 0. -1.
        2   -1    0    0  501    0  0.00000000000E+00  0.00000000000E+00 -0.21821198504E+04  0.21821198504E+04  0.25500000920E-02 0.  1.
    10030    2    1    2    0    0  0.00000000000E+00  0.00000000000E+00 -0.16273964051E+04  0.27368432956E+04  0.22004299956E+04 0.  0.
        4    1    3    3  502    0 -0.12224582246E+03  0.10711605551E+04 -0.10866000531E+04  0.15306960065E+04  0.12699999809E+01 0.  1.
       -4    1    3    3    0  502  0.12224582246E+03 -0.10711605551E+04 -0.54079635196E+03  0.12061472891E+04  0.12699999809E+01 0. -1.
</event>
<event>
 5   0  0.1144271E-06  0.2199734E+04  0.7818609E-02  0.8518539E-01
        1   -1    0    0  501    0  0.00000000000E+00  0.00000000000E+00  0.11111310936E+04  0.11111310936E+04  0.50400001928E-02 0. -1.
       -1   -1    0    0    0  501  0.00000000000E+00  0.00000000000E+00 -0.10887167550E+04  0.10887167550E+04  0.50400001928E-02 0.  1.
    10030    2    1    2    0    0  0.00000000000E+00  0.00000000000E+00  0.22414338637E+02  0.21998478487E+04  0.21997336554E+04 0.  0.
        3    1    3    3  502    0  0.76423295611E+03  0.61247490207E+03 -0.48934804583E+03  0.10948237470E+04  0.10100000352E+00 0.  1.
       -3    1    3    3    0  502 -0.76423295611E+03 -0.61247490207E+03  0.51176238446E+03  0.11050241016E+04  0.10100000352E+00 0. -1.
</event>
<event>
 5   0  0.1137869E-06  0.2200069E+04  0.7818609E-02  0.8518399E-01
        1   -1    0    0  501    0  0.00000000000E+00  0.00000000000E+00  0.12996327256E+04  0.12996327256E+04  0.50400001928E-02 0.  1.
       -1   -1    0    0    0  501  0.00000000000E+00  0.00000000000E+00 -0.93109066786E+03  0.93109066787E+03  0.50400001928E-02 0. -1.
    10030    2    1    2    0    0  0.00000000000E+00  0.00000000000E+00  0.36854205773E+03  0.22307233935E+04  0.22000690012E+04 0.  0.
        5    1    3    3  502    0 -0.62915783468E+03  0.26410533190E+03  0.10591155246E+04  0.12598964210E+04  0.46999998093E+01 0.  1.
       -5    1    3    3    0  502  0.62915783468E+03 -0.26410533190E+03 -0.69057346687E+03  0.97082697244E+03  0.46999998093E+01 0. -1.
</event>
<event>
 5   0  0.2606154E-06  0.2200269E+04  0.7818609E-02  0.8518316E-01
        2   -1    0    0  501    0  0.00000000000E+00  0.00000000000E+00  0.25544424633E+04  0.25544424633E+04  0.25500000920E-02 0.  1.
       -2   -1    0    0    0  501  0.00000000000E+00  0.00000000000E+00 -0.47380062365E+03  0.47380062366E+03  0.25500000920E-02 0. -1.
    10030    2    1    2    0    0  0.00000000000E+00  0.00000000000E+00  0.20806418396E+04  0.30282430869E+04  0.22002694673E+04 0.  0.
        2    1    3    3  502    0  0.25355687718E+03  0.17647893295E+03 -0.41287821980E+03  0.51565912009E+03  0.25500000920E-02 0. -1.
       -2    1    3    3    0  502 -0.25355687718E+03 -0.17647893295E+03  0.24935200594E+04  0.25125839668E+04  0.25500000920E-02 0.  1.
</event>
<event>
 5   0  0.1082209E-06  0.2198164E+04  0.7818609E-02  0.8519192E-01
       -1   -1    0    0    0  501  0.00000000000E+00  0.00000000000E+00  0.64899618613E+03  0.64899618615E+03  0.50400001928E-02 0. -1.
        1   -1    0    0  501    0  0.00000000000E+00  0.00000000000E+00 -0.18613079840E+04  0.18613079840E+04  0.50400001928E-02 0.  1.
    10030    2    1    2    0    0  0.00000000000E+00  0.00000000000E+00 -0.12123117978E+04  0.25103041701E+04  0.21981644914E+04 0.  0.
        2    1    3    3  502    0 -0.46993496393E+03  0.15856692678E+03  0.51393577651E+03  0.71422148034E+03  0.25500000920E-02 0. -1.
       -2    1    3    3    0  502  0.46993496393E+03 -0.15856692678E+03 -0.17262475743E+04  0.17960826898E+04  0.25500000920E-02 0.  1.
</event>
<event>
 5   0  0.1082209E-06  0.2199875E+04  0.7818609E-02  0.8518480E-01
        1   -1    0    0  501    0  0.00000000000E+00  0.00000000000E+00  0.14921773664E+04  0.14921773665E+04  0.50400001928E-02 0. -1.
       -1   -1    0    0    0  501  0.00000000000E+00  0.00000000000E+00 -0.81080367518E+03  0.81080367520E+03  0.50400001928E-02 0.  1.
    10030    2    1    2    0    0  0.00000000000E+00  0.00000000000E+00  0.68137369127E+03  0.23029810417E+04  0.21998753535E+04 0.  0.
        2    1    3    3  502    0 -0.66553729303E+02  0.10966582304E+04  0.28554735996E+03  0.11351766241E+04  0.25500000920E-02 0. -1.
       -2    1    3    3    0  502  0.66553729303E+02 -0.10966582304E+04  0.39582633130E+03  0.11678044176E+04  0.25500000920E-02 0.  1.
</event>
<event>
 5   0  0.1107101E-06  0.2199788E+04  0.7818609E-02  0.8518516E-01
       -1   -1    0    0    0  501  0.00000000000E+00  0.00000000000E+00  0.10235074090E+04  0.10235074090E+04  0.50400001928E-02 0. -1.
        1   -1    0    0  501    0  0.00000000000E+00  0.00000000000E+00 -0.11819816880E+04  0.11819816880E+04  0.50400001928E-02 0.  1.
    10030    2    1    2    0    0  0.00000000000E+00  0.00000000000E+00 -0.15847427899E+03  0.22054890971E+04  0.21997881853E+04 0.  0.
        1    1    3    3  502    0  0.76457046413E+03  0.16220666639E+03  0.69664697823E+03  0.10469937963E+04  0.50400001928E-02 0. -1.
       -1    1    3    3    0  502 -0.76457046413E+03 -0.16220666639E+03 -0.85512125722E+03  0.11584953007E+04  0.50400001928E-02 0.  1.
</event>
<event>
 5   0  0.2606154E-06  0.2200067E+04  0.7818609E-02  0.8518400E-01
       -2   -1    0    0    0  501  0.00000000000E+00  0.00000000000E+00  0.73669188552E+03  0.73669188552E+03  0.25500000920E-02 0. -1.
        2   -1    0    0  501    0  0.00000000000E+00  0.00000000000E+00 -0.16425773641E+04  0.16425773641E+04  0.25500000920E-02 0.  1.
    10030    2    1    2    0    0  0.00000000000E+00  0.00000000000E+00 -0.90588547856E+03  0.23792692496E+04  0.22000667403E+04 0.  0.
        2    1    3    3  502    0 -0.16847642843E+03 -0.15732269650E+03 -0.16161655396E+04  0.16325212982E+04  0.25500000920E-02 0.  1.
       -2    1    3    3    0  502  0.16847642843E+03  0.15732269650E+03  0.71028006104E+03  0.74674795138E+03  0.25500000920E-02 0. -1.
</event>
<event>
 5   0  0.2524749E-06  0.2200093E+04  0.7818609E-02  0.8518389E-01
        2   -1    0    0  501    0  0.00000000000E+00  0.00000000000E+00  0.14007270992E+04  0.14007270992E+04  0.25500000920E-02 0.  1.
       -2   -1    0    0    0  501  0.00000000000E+00  0.00000000000E+00 -0.86391012186E+03  0.86391012186E+03  0.25500000920E-02 0. -1.
    10030    2    1    2    0    0  0.00000000000E+00  0.00000000000E+00  0.53681697731E+03  0.22646372210E+04  0.22000930153E+04 0.  0.
        4    1    3    3  502    0 -0.84524052896E+03  0.70055323660E+03  0.34042028483E+03  0.11493885211E+04  0.12699999809E+01 0.  1.
       -4    1    3    3    0  502  0.84524052896E+03 -0.70055323660E+03  0.19639669248E+03  0.11152487000E+04  0.12699999809E+01 0. -1.
</event>
<event>
 5   0  0.1107101E-06  0.2200567E+04  0.7818609E-02  0.8518192E-01
       -1   -1    0    0    0  501  0.00000000000E+00  0.00000000000E+00  0.60349857830E+03  0.60349857832E+03  0.50400001928E-02 0. -1.
        1   -1    0    0  501    0  0.00000000000E+00  0.00000000000E+00 -0.20060095710E+04  0.20060095710E+04  0.50400001928E-02 0.  1.
    10030    2    1    2    0    0  0.00000000000E+00  0.00000000000E+00 -0.14025109927E+04  0.26095081493E+04  0.22005671307E+04 0.  0.
        1    1    3    3  502    0  0.83558901047E+03  0.46615907494E+03 -0.57061794372E+02  0.95852455678E+03  0.50400001928E-02 0.  1.
       -1    1    3    3    0  502 -0.83558901047E+03 -0.46615907494E+03 -0.13454491983E+04  0.16509835925E+04  0.50400001928E-02 0. -1.
</event>
<event>
 5   0  0.2581058E-06  0.2198563E+04  0.7818609E-02  0.8519026E-01
       -2   -1    0    0    0  501  0.00000000000E+00  0.00000000000E+00  0.72819081179E+03  0.72819081180E+03  0.25500000920E-02 0. -1.
        2   -1    0    0  501    0  0.00000000000E+00  0.00000000000E+00 -0.16594827987E+04  0.16594827987E+04  0.25500000920E-02 0.  1.
    10030    2    1    2    0    0  0.00000000000E+00  0.00000000000E+00 -0.93129198695E+03  0.23876736105E+04  0.21985632821E+04 0.  0.
        1    1    3    3  502    0 -0.11244234510E+03 -0.10081073398E+04 -0.92575835871E+03  0.13732997591E+04  0.50400001928E-02 0.  1.
       -1    1    3    3    0  502  0.11244234510E+03  0.10081073398E+04 -0.55336282382E+01  0.10143738515E+04  0.50400001928E-02 0. -1.
</event>
<event>
 5   0  0.1082209E-06  0.2199362E+04  0.7818609E-02  0.8518694E-01
       -1   -1    0    0    0  501  0.00000000000E+00  0.00000000000E+00  0.95013406394E+03  0.95013406395E+03  0.50400001928E-02 0. -1.
        1   -1    0    0  501    0  0.00000000000E+00  0.00000000000E+00 -0.12727657681E+04  0.12727657681E+04  0.50400001928E-02 0.  1.
    10030    2    1    2    0    0  0.00000000000E+00  0.00000000000E+00 -0.32263170414E+03  0.22228998320E+04  0.21993618272E+04 0.  0.
        2    1    3    3  502    0  0.51374642973E+02 -0.76728455976E+03 -0.95581596154E+03  0.12267636700E+04  0.25500000920E-02 0.  1.
       -2    1    3    3    0  502 -0.51374642973E+02  0.76728455976E+03  0.63318425739E+03  0.99613616208E+03  0.25500000920E-02 0. -1.
</event>
<event>
 5   0  0.1107101E-06  0.2200190E+04  0.7818609E-02  0.8518349E-01
        1   -1    0    0  501    0  0.00000000000E+00  0.00000000000E+00  0.14782729263E+04  0.14782729263E+04  0.50400001928E-02 0.  1.
       -1   -1    0    0    0  501  0.00000000000E+00  0.00000000000E+00 -0.81866447672E+03  0.81866447674E+03  0.50400001928E-02 0. -1.
    10030    2    1    2    0    0  0.00000000000E+00  0.00000000000E+00  0.65960844962E+03  0.22969374031E+04  0.22001904751E+04 0.  0.
        1    1    3    3  502    0  0.89589047456E+02 -0.83339423461E+03 -0.41401205294E+03  0.93486797341E+03  0.50400001928E-02 0. -1.
       -1    1    3    3    0  502 -0.89589047456E+02  0.83339423461E+03  0.10736205026E+04  0.13620694297E+04  0.50400001928E-02 0.  1.
</event>
<event>
 5   0  0.1107101E-06  0.2199823E+04  0.7818609E-02  0.8518502E-01
       -1   -1    0    0    0  501  0.00000000000E+00  0.00000000000E+00  0.13678922366E+04  0.13678922366E+04  0.50400001928E-02 0. -1.
        1   -1    0    0  501    0  0.00000000000E+00  0.00000000000E+00 -0.88443013498E+03  0.88443013499E+03  0.50400001928E-02 0.  1.
    10030    2    1    2    0    0  0.00000000000E+00  0.00000000000E+00  0.48346210159E+03  0.22523223716E+04  0.21998228251E+04 0.  0.
        1    1    3    3  502    0  0.34798305457E+03 -0.29469351065E+03 -0.78309047481E+03  0.90618274274E+03  0.50400001928E-02 0.  1.
       -1    1    3    3    0  502 -0.34798305457E+03  0.29469351065E+03  0.12665525764E+04  0.13461396288E+04  0.50400001928E-02 0. -1.
</event>
<event>
 5   0  0.1107101E-06  0.2199823E+04  0.7818609E-02  0.8518502E-01
       -1   -1    0    0    0  501  0.00000000000E+00  0.00000000000E+00  0.11618033602E+04  0.11618033602E+04  0.50400001928E-02 0. -1.
        1   -1    0    0  501    0  0.00000000000E+00  0.00000000000E+00 -0.10413169908E+04  0.10413169908E+04  0.50400001928E-02 0.  1.
    10030    2    1    2    0    0  0.00000000000E+00  0.00000000000E+00  0.12048636935E+03  0.22031203510E+04  0.21998232465E+04 0.  0.
        1    1    3    3  502    0 -0.73877900893E+03  0.64490790578E+03 -0.43860471482E+03  0.10742787007E+04  0.50400001928E-02 0.  1.
       -1    1    3    3    0  502  0.73877900893E+03 -0.64490790578E+03  0.55909108416E+03  0.11288416503E+04  0.50400001928E-02 0. -1.
</event>
<event>
 5   0  0.1107101E-06  0.2198097E+04  0.7818609E-02  0.8519221E-01
        1   -1    0    0  501    0  0.00000000000E+00  0.00000000000E+00  0.15360761793E+04  0.15360761793E+04  0.50400001928E-02 0.  1.
       -1   -1    0    0    0  501  0.00000000000E+00  0.00000000000E+00 -0.78635925882E+03  0.78635925884E+03  0.50400001928E-02 0. -1.
    10030    2    1    2    0    0  0.00000000000E+00  0.00000000000E+00  0.74971692045E+03  0.23224354381E+04  0.21980971096E+04 0.  0.
        1    1    3    3  502    0 -0.52317418149E+03 -0.75767018609E+03  0.10089148253E+04  0.13659006039E+04  0.50400001928E-02 0.  1.
       -1    1    3    3    0  502  0.52317418149E+03  0.75767018609E+03 -0.25919790488E+03  0.95653483417E+03  0.50400001928E-02 0. -1.
</event>
<event>
 5   0  0.1082209E-06  0.2200142E+04  0.7818609E-02  0.8518369E-01
        1   -1    0    0  501    0  0.00000000000E+00  0.00000000000E+00  0.14196822060E+04  0.14196822060E+04  0.50400001928E-02 0. -1.
       -1   -1    0    0    0  501  0.00000000000E+00  0.00000000000E+00 -0.85241361480E+03  0.85241361482E+03  0.50400001928E-02 0.  1.
    10030    2    1    2    0    0  0.00000000000E+00  0.00000000000E+00  0.56726859123E+03  0.22720958209E+04  0.22001422146E+04 0.  0.
        2    1    3    3  502    0 -0.43372377454E+03  0.46207117208E+03  0.12122244081E+04  0.13678867264E+04  0.25500000920E-02 0. -1.
       -2    1    3    3    0  502  0.43372377454E+03 -0.46207117208E+03 -0.64495581691E+03  0.90420909442E+03  0.25500000920E-02 0.  1.
</event>
<event>
 5   0  0.1107101E-06  0.2199539E+04  0.7818609E-02  0.8518620E-01
       -1   -1    0    0    0  501  0.00000000000E+00  0.00000000000E+00  0.10643611325E+04  0.10643611326E+04  0.50400001928E-02 0.  1.
        1   -1    0    0  501    0  0.00000000000E+00  0.00000000000E+00 -0.11363553308E+04  0.11363553308E+04  0.50400001928E-02 0. -1.
    10030    2    1    2    0    0  0.00000000000E+00  0.00000000000E+00 -0.71994198281E+02  0.22007164634E+04  0.21995385397E+04 0.  0.
        1    1    3    3  502    0 -0.50385720850E+02 -0.10372899093E+04  0.32611296587E+03  0.10885121696E+04  0.50400001928E-02 0.  1.
       -1    1    3    3    0  502  0.50385720850E+02  0.10372899093E+04 -0.39810716415E+03  0.11122042938E+04  0.50400001928E-02 0. -1.
</event>
<event>
 5   0  0.2606154E-06  0.2201003E+04  0.7818609E-02  0.8518011E-01
       -2   -1    0    0    0  501  0.00000000000E+00  0.00000000000E+00  0.13615388399E+04  0.13615388399E+04  0.25500000920E-02 0.  1.
        2   -1    0    0  501    0  0.00000000000E+00  0.00000000000E+00 -0.88951093130E+03  0.88951093130E+03  0.25500000920E-02 0. -1.
    10030    2    1    2    0    0  0.00000000000E+00  0.00000000000E+00  0.47202790865E+03  0.22510497713E+04  0.22010031182E+04 0.  0.
        2    1    3    3  502    0 -0.87473372073E+03  0.49136118335E+03 -0.22649529886E+03  0.10285402350E+04  0.25500000920E-02 0. -1.
       -2    1    3    3    0  502  0.87473372073E+03 -0.49136118335E+03  0.69852320750E+03  0.12225095362E+04  0.25500000920E-02 0.  1.
</event>
<event>
 5   0  0.1082209E-06  0.2199536E+04  0.7818609E-02  0.8518621E-01
        1   -1    0    0  501    0  0.00000000000E+00  0.00000000000E+00  0.20333637754E+04  0.20333637754E+04  0.50400001928E-02 0. -1.
       -1   -1    0    0    0  501  0.00000000000E+00  0.00000000000E+00 -0.59482187035E+03  0.59482187037E+03  0.50400001928E-02 0.  1.
    10030    2    1    2    0    0  0.00000000000E+00  0.00000000000E+00  0.14385419051E+04  0.26281856458E+04  0.21995356274E+04 0.  0.
        2    1    3    3  502    0 -0.52797386547E+03  0.12883332513E+03  0.18617024359E+04  0.19394046478E+04  0.25500000920E-02 0. -1.
       -2    1    3    3    0  502  0.52797386547E+03 -0.12883332513E+03 -0.42316053082E+03  0.68878099795E+03  0.25500000920E-02 0.  1.
</event>
<event>
 5   0  0.1137869E-06  0.2195267E+04  0.7818609E-02  0.8520401E-01
        1   -1    0    0  501    0  0.00000000000E+00  0.00000000000E+00  0.14170141598E+04  0.14170141598E+04  0.50400001928E-02 0. -1.
       -1   -1    0    0    0  501  0.00000000000E+00  0.00000000000E+00 -0.85023794130E+03  0.85023794131E+03  0.50400001928E-02 0.  1.
    10030    2    1    2    0    0  0.00000000000E+00  0.00000000000E+00  0.56677621852E+03  0.22672521011E+04  0.21952669105E+04 0.  0.
        5    1    3    3  502    0  0.10607688531E+04 -0.27631861693E+03  0.34176204515E+03  0.11482185869E+04  0.46999998093E+01 0.  1.
       -5    1    3    3    0  502 -0.10607688531E+04  0.27631861693E+03  0.22501417337E+03  0.11190335142E+04  0.46999998093E+01 0. -1.
</event>
<event>
 5   0  0.2581058E-06  0.2199966E+04  0.7818609E-02  0.8518442E-01
        2   -1    0    0  501    0  0.00000000000E+00  0.00000000000E+00  0.20029716745E+04  0.20029716745E+04  0.25500000920E-02 0. -1.
       -2   -1    0    0    0  501  0.00000000000E+00  0.00000000000E+00 -0.60408386801E+03  0.60408386801E+03  0.25500000920E-02 0.  1.
    10030    2    1    2    0    0  0.00000000000E+00  0.00000000000E+00  0.13988878065E+04  0.26070555425E+04  0.21999662513E+04 0.  0.
        1    1    3    3  502    0  0.40126745282E+03  0.88331617940E+02  0.19086207963E+04  0.19523450995E+04  0.50400001928E-02 0. -1.
       -1    1    3    3    0  502 -0.40126745282E+03 -0.88331617940E+02 -0.50973298975E+03  0.65471044308E+03  0.50400001928E-02 0.  1.
</event>
<event>
 5   0  0.2581058E-06  0.2199900E+04  0.7818609E-02  0.8518470E-01
       -2   -1    0    0    0  501  0.00000000000E+00  0.00000000000E+00  0.57258594342E+03  0.57258594342E+03  0.25500000920E-02 0. -1.
        2   -1    0    0  501    0  0.00000000000E+00  0.00000000000E+00 -0.21130277605E+04  0.21130277605E+04  0.25500000920E-02 0.  1.
    10030    2    1    2    0    0  0.00000000000E+00  0.00000000000E+00 -0.15404418171E+04  0.26856137040E+04  0.21998999920E+04 0.  0.
        1    1    3    3  502    0 -0.23459196626E+03 -0.97981496136E+03 -0.13090568219E+04  0.16518778745E+04  0.50400001928E-02 0.  1.
       -1    1    3    3    0  502  0.23459196626E+03  0.97981496136E+03 -0.23138499521E+03  0.10337358295E+04  0.50400001928E-02 0. -1.
</event>
<event>
 5   0  0.2606154E-06  0.2199796E+04  0.7818609E-02  0.8518513E-01
        2   -1    0    0  501    0  0.00000000000E+00  0.00000000000E+00  0.17171159092E+04  0.17171159092E+04  0.25500000920E-02 0. -1.
       -2   -1    0    0    0  501  0.00000000000E+00  0.00000000000E+00 -0.70453955159E+03  0.70453955160E+03  0.25500000920E-02 0.  1.
    10030    2    1    2    0    0  0.00000000000E+00  0.00000000000E+00  0.10125763576E+04  0.24216554608E+04  0.21997964203E+04 0.  0.
        2    1    3    3  502    0 -0.56398110695E+02  0.41249675228E+03  0.16270215760E+04  0.16794444100E+04  0.25500000920E-02 0. -1.
       -2    1    3    3    0  502  0.56398110695E+02 -0.41249675228E+03 -0.61444521838E+03  0.74221105080E+03  0.25500000920E-02 0.  1.
</event>
<event>
 5   0  0.2556869E-06  0.2203231E+04  0.7818609E-02  0.8517084E-01
       -2   -1    0    0    0  501  0.00000000000E+00  0.00000000000E+00  0.67822636005E+03  0.67822636006E+03  0.25500000920E-02 0.  1.
        2   -1    0    0  501    0  0.00000000000E+00  0.00000000000E+00 -0.17893100337E+04  0.17893100337E+04  0.25500000920E-02 0. -1.
    10030    2    1    2    0    0  0.00000000000E+00  0.00000000000E+00 -0.11110836736E+04  0.24675363938E+04  0.22032314732E+04 0.  0.
        5    1    3    3  502    0 -0.21843556099E+03 -0.55004088037E+03 -0.15961285898E+04  0.17023241846E+04  0.46999998093E+01 0. -1.
       -5    1    3    3    0  502  0.21843556099E+03  0.55004088037E+03  0.48504491613E+03  0.76521220916E+03  0.46999998093E+01 0.  1.
</event>
<event>
 5   0  0.1146827E-06  0.2200324E+04  0.7818609E-02  0.8518293E-01
       -1   -1    0    0    0  501  0.00000000000E+00  0.00000000000E+00  0.11865848103E+04  0.11865848103E+04  0.50400001928E-02 0.  1.
        1   -1    0    0  501    0  0.00000000000E+00  0.00000000000E+00 -0.10200333789E+04  0.10200333789E+04  0.50400001928E-02 0. -1.
    10030    2    1    2    0    0  0.00000000000E+00  0.00000000000E+00  0.16655143136E+03  0.22066181892E+04  0.22003237156E+04 0.  0.
        4    1    3    3  502    0  0.14084534297E+03  0.31316346501E+03  0.11314670153E+04  0.11824246218E+04  0.12699999809E+01 0.  1.
       -4    1    3    3    0  502 -0.14084534297E+03 -0.31316346501E+03 -0.96491558397E+03  0.10241935674E+04  0.12699999809E+01 0. -1.
</event>
<event>
 5   0  0.2581058E-06  0.2199456E+04  0.7818609E-02  0.8518654E-01
        2   -1    0    0  501    0  0.00000000000E+00  0.00000000000E+00  0.17793431680E+04  0.17793431680E+04  0.25500000920E-02 0.  1.
       -2   -1    0    0    0  501  0.00000000000E+00  0.00000000000E+00 -0.67969017093E+03  0.67969017094E+03  0.25500000920E-02 0. -1.
    10030    2    1    2    0    0  0.00000000000E+00  0.00000000000E+00  0.10996529971E+04  0.24590333389E+04  0.21994563528E+04 0.  0.
        1    1    3    3  502    0  0.57171972514E+03  0.91306839231E+03  0.79691806361E+03  0.13400133333E+04  0.50400001928E-02 0. -1.
       -1    1    3    3    0  502 -0.57171972514E+03 -0.91306839231E+03  0.30273493345E+03  0.11190200057E+04  0.50400001928E-02 0.  1.
</event>
<event>
 5   0  0.1107101E-06  0.2200282E+04  0.7818609E-02  0.8518311E-01
        1   -1    0    0  501    0  0.00000000000E+00  0.00000000000E+00  0.12380401768E+04  0.12380401768E+04  0.50400001928E-02 0.  1.
       -1   -1    0    0    0  501  0.00000000000E+00  0.00000000000E+00 -0.97760207147E+03  0.97760207149E+03  0.50400001928E-02 0. -1.
    10030    2    1    2    0    0  0.00000000000E+00  0.00000000000E+00  0.26043810529E+03  0.22156422483E+04  0.22002823831E+04 0.  0.
        1    1    3    3  502    0  0.16067557935E+01 -0.29476991996E+03 -0.93709456615E+03  0.98236353419E+03  0.50400001928E-02 0. -1.
       -1    1    3    3    0  502 -0.16067557935E+01  0.29476991996E+03  0.11975326714E+04  0.12332787141E+04  0.50400001928E-02 0.  1.
</event>
<event>
 5   0  0.1082209E-06  0.2200012E+04  0.7818609E-02  0.8518423E-01
       -1   -1    0    0    0  501  0.00000000000E+00  0.00000000000E+00  0.45524171853E+03  0.45524171856E+03  0.50400001928E-02 0.  1.
        1   -1    0    0  501    0  0.00000000000E+00  0.00000000000E+00 -0.26579583658E+04  0.26579583658E+04  0.50400001928E-02 0. -1.
    10030    2    1    2    0    0  0.00000000000E+00  0.00000000000E+00 -0.22027166472E+04  0.31132000843E+04  0.22000123038E+04 0.  0.
        2    1    3    3  502    0 -0.36468477346E+03 -0.73161637449E+03 -0.59799503008E+02  0.81965449061E+03  0.25500000920E-02 0. -1.
       -2    1    3    3    0  502  0.36468477346E+03  0.73161637449E+03 -0.21429171442E+04  0.22935455937E+04  0.25500000920E-02 0.  1.
</event>
<event>
 5   0  0.1107101E-06  0.2202517E+04  0.7818609E-02  0.8517381E-01
        1   -1    0    0  501    0  0.00000000000E+00  0.00000000000E+00  0.13255989826E+04  0.13255989826E+04  0.50400001928E-02 0.  1.
       -1   -1    0    0    0  501  0.00000000000E+00  0.00000000000E+00 -0.91488461423E+03  0.91488461424E+03  0.50400001928E-02 0. -1.
    10030    2    1    2    0    0  0.00000000000E+00  0.00000000000E+00  0.41071436837E+03  0.22404835969E+04  0.22025168457E+04 0.  0.
        1    1    3    3  502    0  0.52319692491E+03  0.56956816629E+03  0.10028530058E+04  0.12664347869E+04  0.50400001928E-02 0.  1.
       -1    1    3    3    0  502 -0.52319692491E+03 -0.56956816629E+03 -0.59213863738E+03  0.97404880996E+03  0.50400001928E-02 0. -1.
</event>
<event>
 5   0  0.1137869E-06  0.2202062E+04  0.7818609E-02  0.8517570E-01
       -1   -1    0    0    0  501  0.00000000000E+00  0.00000000000E+00  0.81997293613E+03  0.81997293615E+03  0.50400001928E-02 0.  1.
        1   -1    0    0  501    0  0.00000000000E+00  0.00000000000E+00 -0.14784262107E+04  0.14784262107E+04  0.50400001928E-02 0. -1.
    10030    2    1    2    0    0  0.00000000000E+00  0.00000000000E+00 -0.65845327457E+03  0.22983991469E+04  0.22020621979E+04 0.  0.
        5    1    3    3  502    0  0.21944815754E+02  0.10535133845E+04 -0.66236945774E+03  0.12446394718E+04  0.46999998093E+01 0.  1.
       -5    1    3    3    0  502 -0.21944815754E+02 -0.10535133845E+04  0.39161831674E+01  0.10537596750E+04  0.46999998093E+01 0. -1.
</event>
<event>
 5   0  0.1082209E-06  0.2200320E+04  0.7818609E-02  0.8518295E-01
        1   -1    0    0  501    0  0.00000000000E+00  0.00000000000E+00  0.23947413804E+04  0.23947413804E+04  0.50400001928E-02 0.  1.
       -1   -1    0    0    0  501  0.00000000000E+00  0.00000000000E+00 -0.50542077187E+03  0.50542077189E+03  0.50400001928E-02 0. -1.
    10030    2    1    2    0    0  0.00000000000E+00  0.00000000000E+00  0.18893206085E+04  0.29001621523E+04  0.22003200103E+04 0.  0.
        2    1    3    3  502    0 -0.10420727811E+04  0.28806784902E+02  0.48125912909E+03  0.11481967868E+04  0.25500000920E-02 0.  1.
       -2    1    3    3    0  502  0.10420727811E+04 -0.28806784902E+02  0.14080614794E+04  0.17519653655E+04  0.25500000920E-02 0. -1.
</event>
<event>
 5   0  0.2581058E-06  0.2210561E+04  0.7818609E-02  0.8514045E-01
       -2   -1    0    0    0  501  0.00000000000E+00  0.00000000000E+00  0.77483219750E+03  0.77483219751E+03  0.25500000920E-02 0. -1.
        2   -1    0    0  501    0  0.00000000000E+00  0.00000000000E+00 -0.15766570144E+04  0.15766570144E+04  0.25500000920E-02 0.  1.
    10030    2    1    2    0    0  0.00000000000E+00  0.00000000000E+00 -0.80182481693E+03  0.23514892119E+04  0.22105606702E+04 0.  0.
        1    1    3    3  502    0  0.82584550257E+03 -0.29659500545E+03  0.31398557573E+03  0.93197442731E+03  0.50400001928E-02 0. -1.
       -1    1    3    3    0  502 -0.82584550257E+03  0.29659500545E+03 -0.11158103927E+04  0.14195147846E+04  0.50400001928E-02 0.  1.
</event>
<event>
 5   0  0.2532239E-06  0.2198519E+04  0.7818609E-02  0.8519045E-01
        2   -1    0    0  501    0  0.00000000000E+00  0.00000000000E+00  0.16004557801E+04  0.16004557801E+04  0.25500000920E-02 0. -1.
       -2   -1    0    0    0  501  0.00000000000E+00  0.00000000000E+00 -0.75501717833E+03  0.75501717833E+03  0.25500000920E-02 0.  1.
    10030    2    1    2    0    0  0.00000000000E+00  0.00000000000E+00  0.84543860174E+03  0.23554729584E+04  0.21985191444E+04 0.  0.
        3    1    3    3  502    0  0.88162021928E+03 -0.46988480478E+03 -0.68634134887E+02  0.10013773492E+04  0.10100000352E+00 0.  1.
       -3    1    3    3    0  502 -0.88162021928E+03  0.46988480478E+03  0.91407273662E+03  0.13540956092E+04  0.10100000352E+00 0. -1.
</event>
<event>
 5   0  0.1107101E-06  0.2200676E+04  0.7818609E-02  0.8518147E-01
        1   -1    0    0  501    0  0.00000000000E+00  0.00000000000E+00  0.25184252322E+04  0.25184252322E+04  0.50400001928E-02 0.  1.
       -1   -1    0    0    0  501  0.00000000000E+00  0.00000000000E+00 -0.48075446451E+03  0.48075446454E+03  0.50400001928E-02 0. -1.
    10030    2    1    2    0    0  0.00000000000E+00  0.00000000000E+00  0.20376707677E+04  0.29991796968E+04  0.22006764178E+04 0.  0.
        1    1    3    3  502    0  0.56407029510E+03 -0.70745337586E+03  0.16547423731E+03  0.91980829528E+03  0.50400001928E-02 0. -1.
       -1    1    3    3    0  502 -0.56407029510E+03  0.70745337586E+03  0.18721965304E+04  0.20793714015E+04  0.50400001928E-02 0.  1.
</event>
<event>
 5   0  0.1082209E-06  0.2199337E+04  0.7818609E-02  0.8518704E-01
        1   -1    0    0  501    0  0.00000000000E+00  0.00000000000E+00  0.13088237773E+04  0.13088237773E+04  0.50400001928E-02 0. -1.
       -1   -1    0    0    0  501  0.00000000000E+00  0.00000000000E+00 -0.92393689508E+03  0.92393689510E+03  0.50400001928E-02 0.  1.
    10030    2    1    2    0    0  0.00000000000E+00  0.00000000000E+00  0.38488688222E+03  0.22327606724E+04  0.21993367883E+04 0.  0.
        2    1    3    3  502    0  0.84008885878E+03  0.59885386140E+02 -0.52536278020E+03  0.99264374322E+03  0.25500000920E-02 0.  1.
       -2    1    3    3    0  502 -0.84008885878E+03 -0.59885386140E+02  0.91024966242E+03  0.12401169292E+04  0.25500000920E-02 0. -1.
</event>
<event>
 5   0  0.1107101E-06  0.2198004E+04  0.7818609E-02  0.8519259E-01
       -1   -1    0    0    0  501  0.00000000000E+00  0.00000000000E+00  0.66378554477E+03  0.66378554478E+03  0.50400001928E-02 0. -1.
        1   -1    0    0  501    0  0.00000000000E+00  0.00000000000E+00 -0.18195719171E+04  0.18195719171E+04  0.50400001928E-02 0.  1.
    10030    2    1    2    0    0  0.00000000000E+00  0.00000000000E+00 -0.11557863724E+04  0.24833574619E+04  0.21980041276E+04 0.  0.
        1    1    3    3  502    0  0.94123313333E+03 -0.80706657364E+02 -0.12123797222E+04  0.15369768920E+04  0.50400001928E-02 0.  1.
       -1    1    3    3    0  502 -0.94123313333E+03  0.80706657364E+02  0.56593349820E+02  0.94638056990E+03  0.50400001928E-02 0. -1.
</event>
<event>
 5   0  0.1082209E-06  0.2200999E+04  0.7818609E-02  0.8518012E-01
       -1   -1    0    0    0  501  0.00000000000E+00  0.00000000000E+00  0.57061737273E+03  0.57061737276E+03  0.50400001928E-02 0. -1.
        1   -1    0    0  501    0  0.00000000000E+00  0.00000000000E+00 -0.21224371604E+04  0.21224371604E+04  0.50400001928E-02 0.  1.
    10030    2    1    2    0    0  0.00000000000E+00  0.00000000000E+00 -0.15518197876E+04  0.26930545331E+04  0.22009993333E+04 0.  0.
        2    1    3    3  502    0  0.85050407278E+03  0.14704669185E+03  0.59450582409E+02  0.86516719722E+03  0.25500000920E-02 0. -1.
       -2    1    3    3    0  502 -0.85050407278E+03 -0.14704669185E+03 -0.16112703700E+04  0.18278873359E+04  0.25500000920E-02 0.  1.
</event>
<event>
 5   0  0.1144271E-06  0.2198937E+04  0.7818609E-02  0.8518871E-01
       -1   -1    0    0    0  501  0.00000000000E+00  0.00000000000E+00  0.78602801638E+03  0.78602801639E+03  0.50400001928E-02 0.  1.
        1   -1    0    0  501    0  0.00000000000E+00  0.00000000000E+00 -0.15378982472E+04  0.15378982472E+04  0.50400001928E-02 0. -1.
    10030    2    1    2    0    0  0.00000000000E+00  0.00000000000E+00 -0.75187023084E+03  0.23239262636E+04  0.21989371148E+04 0.  0.
        3    1    3    3  502    0 -0.57759565324E+03 -0.66728730508E+02  0.61025166799E+03  0.84289772250E+03  0.10100000352E+00 0.  1.
       -3    1    3    3    0  502  0.57759565324E+03  0.66728730508E+02 -0.13621218988E+04  0.14810285411E+04  0.10100000352E+00 0. -1.
</event>
<event>
 5   0  0.2581058E-06  0.2199587E+04  0.7818609E-02  0.8518600E-01
        2   -1    0    0  501    0  0.00000000000E+00  0.00000000000E+00  0.12476432405E+04  0.12476432405E+04  0.25500000920E-02 0. -1.
       -2   -1    0    0    0  501  0.00000000000E+00  0.00000000000E+00 -0.96946430476E+03  0.96946430477E+03  0.25500000920E-02 0.  1.
    10030    2    1    2    0    0  0.00000000000E+00  0.00000000000E+00  0.27817893578E+03  0.22171075453E+04  0.21995868583E+04 0.  0.
        1    1    3    3  502    0  0.10164389193E+04 -0.39908918597E+03  0.71832889497E+01  0.10920035965E+04  0.50400001928E-02 0.  1.
       -1    1    3    3    0  502 -0.10164389193E+04  0.39908918597E+03  0.27099564683E+03  0.11251039488E+04  0.50400001928E-02 0. -1.
</event>
<event>
 5   0  0.1137869E-06  0.2200124E+04  0.7818609E-02  0.8518376E-01
        1   -1    0    0  501    0  0.00000000000E+00  0.00000000000E+00  0.12771669090E+04  0.12771669090E+04  0.50400001928E-02 0.  1.
       -1   -1    0    0    0  501  0.00000000000E+00  0.00000000000E+00 -0.94751631891E+03  0.94751631892E+03  0.50400001928E-02 0. -1.
    10030    2    1    2    0    0  0.00000000000E+00  0.00000000000E+00  0.32965059011E+03  0.22246832280E+04  0.22001240768E+04 0.  0.
        5    1    3    3  502    0 -0.77167491862E+03 -0.70216425127E+03 -0.18777565433E+03  0.10600936761E+04  0.46999998093E+01 0. -1.
       -5    1    3    3    0  502  0.77167491862E+03  0.70216425127E+03  0.51742624444E+03  0.11645895518E+04  0.46999998093E+01 0.  1.
</event>
<event>
 5   0  0.2606154E-06  0.2200211E+04  0.7818609E-02  0.8518340E-01
       -2   -1    0    0    0  501  0.00000000000E+00  0.00000000000E+00  0.17395347998E+04  0.17395347998E+04  0.25500000920E-02 0.  1.
        2   -1    0    0  501    0  0.00000000000E+00  0.00000000000E+00 -0.69572172350E+03  0.69572172351E+03  0.25500000920E-02 0. -1.
    10030    2    1    2    0    0  0.00000000000E+00  0.00000000000E+00  0.10438130763E+04  0.24352565233E+04  0.22002110344E+04 0.  0.
        2    1    3    3  502    0  0.73096741828E+03 -0.74596669790E+03  0.90444749566E+03  0.13815950758E+04  0.25500000920E-02 0.  1.
       -2    1    3    3    0  502 -0.73096741828E+03  0.74596669790E+03  0.13936558063E+03  0.10536614475E+04  0.25500000920E-02 0. -1.
</event>
<event>
 5   0  0.1082209E-06  0.2199282E+04  0.7818609E-02  0.8518727E-01
       -1   -1    0    0    0  501  0.00000000000E+00  0.00000000000E+00  0.10110128040E+04  0.10110128040E+04  0.50400001928E-02 0.  1.
        1   -1    0    0  501    0  0.00000000000E+00  0.00000000000E+00 -0.11960385027E+04  0.11960385027E+04  0.50400001928E-02 0. -1.
    10030    2    1    2    0    0  0.00000000000E+00  0.00000000000E+00 -0.18502569876E+03  0.22070513067E+04  0.21992819194E+04 0.  0.
        2    1    3    3  502    0  0.78704029189E+03  0.14628698638E+03  0.66405891811E+03  0.10400992982E+04  0.25500000920E-02 0.  1.
       -2    1    3    3    0  502 -0.78704029189E+03 -0.14628698638E+03 -0.84908461687E+03  0.11669520085E+04  0.25500000920E-02 0. -1.
</event>
<event>
 5   0  0.2532239E-06  0.2189860E+04  0.7818609E-02  0.8522661E-01
        2   -1    0    0  501    0  0.00000000000E+00  0.00000000000E+00  0.16794971994E+04  0.16794971994E+04  0.25500000920E-02 0.  1.
       -2   -1    0    0    0  501  0.00000000000E+00  0.00000000000E+00 -0.71382757339E+03  0.71382757340E+03  0.25500000920E-02 0. -1.
    10030    2    1    2    0    0  0.00000000000E+00  0.00000000000E+00  0.96566962596E+03  0.23933247728E+04  0.21898597310E+04 0.  0.
        3    1    3    3  502    0 -0.28039265489E+03 -0.79115865438E+03  0.12512379710E+04  0.15067012071E+04  0.10100000352E+00 0.  1.
       -3    1    3    3    0  502  0.28039265489E+03  0.79115865438E+03 -0.28556834500E+03  0.88662356566E+03  0.10100000352E+00 0. -1.
</event>
<event>
 5   0  0.1107101E-06  0.2202450E+04  0.7818609E-02  0.8517409E-01
       -1   -1    0    0    0  501  0.00000000000E+00  0.00000000000E+00  0.11873992726E+04  0.11873992727E+04  0.50400001928E-02 0. -1.
        1   -1    0    0  501    0  0.00000000000E+00  0.00000000000E+00 -0.10213046335E+04  0.10213046335E+04  0.50400001928E-02 0.  1.
    10030    2    1    2    0    0  0.00000000000E+00  0.00000000000E+00  0.16609463911E+03  0.22087039062E+04  0.22024498896E+04 0.  0.
        1    1    3    3  502    0 -0.17214898483E+03  0.10657975461E+04  0.30077369151E+03  0.11207249867E+04  0.50400001928E-02 0. -1.
       -1    1    3    3    0  502  0.17214898483E+03 -0.10657975461E+04 -0.13467905240E+03  0.10879789195E+04  0.50400001928E-02 0.  1.
</event>
<event>
 5   0  0.2532239E-06  0.2199453E+04  0.7818609E-02  0.8518656E-01
        2   -1    0    0  501    0  0.00000000000E+00  0.00000000000E+00  0.17506926296E+04  0.17506926296E+04  0.25500000920E-02 0. -1.
       -2   -1    0    0    0  501  0.00000000000E+00  0.00000000000E+00 -0.69081123800E+03  0.69081123800E+03  0.25500000920E-02 0.  1.
    10030    2    1    2    0    0  0.00000000000E+00  0.00000000000E+00  0.10598813916E+04  0.24415038676E+04  0.21994527890E+04 0.  0.
        3    1    3    3  502    0  0.37147591994E+02 -0.93643609037E+03  0.11686835579E+04  0.14980366363E+04  0.10100000352E+00 0. -1.
       -3    1    3    3    0  502 -0.37147591994E+02  0.93643609037E+03 -0.10880216631E+03  0.94346723130E+03  0.10100000352E+00 0.  1.
</event>
<event>
 5   0  0.1144271E-06  0.2194264E+04  0.7818609E-02  0.8520819E-01
        1   -1    0    0  501    0  0.00000000000E+00  0.00000000000E+00  0.73225516815E+03  0.73225516817E+03  0.50400001928E-02 0.  1.
       -1   -1    0    0    0  501  0.00000000000E+00  0.00000000000E+00 -0.16438244899E+04  0.16438244899E+04  0.50400001928E-02 0. -1.
    10030    2    1    2    0    0  0.00000000000E+00  0.00000000000E+00 -0.91156932172E+03  0.23760796580E+04  0.21942643216E+04 0.  0.
        3    1    3    3  502    0  0.48258471538E+03  0.80417496254E+03  0.16069772922E+03  0.95152989878E+03  0.10100000352E+00 0.  1.
       -3    1    3    3    0  502 -0.48258471538E+03 -0.80417496254E+03 -0.10722670509E+04  0.14245497593E+04  0.10100000352E+00 0. -1.
</event>
<event>
 5   0  0.1137869E-06  0.2199952E+04  0.7818609E-02  0.8518448E-01
        1   -1    0    0  501    0  0.00000000000E+00  0.00000000000E+00  0.27218891068E+04  0.27218891068E+04  0.50400001928E-02 0. -1.
       -1   -1    0    0    0  501  0.00000000000E+00  0.00000000000E+00 -0.44452497000E+03  0.44452497003E+03  0.50400001928E-02 0.  1.
    10030    2    1    2    0    0  0.00000000000E+00  0.00000000000E+00  0.22773641368E+04  0.31664140768E+04  0.21999524300E+04 0.  0.
        5    1    3    3  502    0  0.43924539181E+03 -0.87657302303E+03  0.42103209974E+03  0.10670552460E+04  0.46999998093E+01 0.  1.
       -5    1    3    3    0  502 -0.43924539181E+03  0.87657302303E+03  0.18563320370E+04  0.20993588308E+04  0.46999998093E+01 0. -1.
</event>
<event>
 5   0  0.1144271E-06  0.2199637E+04  0.7818609E-02  0.8518579E-01
       -1   -1    0    0    0  501  0.00000000000E+00  0.00000000000E+00  0.92630512074E+03  0.92630512076E+03  0.50400001928E-02 0. -1.
        1   -1    0    0  501    0  0.00000000000E+00  0.00000000000E+00 -0.13058345002E+04  0.13058345002E+04  0.50400001928E-02 0.  1.
    10030    2    1    2    0    0  0.00000000000E+00  0.00000000000E+00 -0.37952937942E+03  0.22321396209E+04  0.21996374105E+04 0.  0.
        3    1    3    3  502    0 -0.16386572528E+03  0.12783570238E+03 -0.12857263478E+04  0.13024155229E+04  0.10100000352E+00 0.  1.
       -3    1    3    3    0  502  0.16386572528E+03 -0.12783570238E+03  0.90619696838E+03  0.92972409801E+03  0.10100000352E+00 0. -1.
</event>
<event>
 5   0  0.2556869E-06  0.2200579E+04  0.7818609E-02  0.8518187E-01
        2   -1    0    0  501    0  0.00000000000E+00  0.00000000000E+00  0.22929774140E+04  0.22929774140E+04  0.25500000920E-02 0.  1.
       -2   -1    0    0    0  501  0.00000000000E+00  0.00000000000E+00 -0.52797592423E+03  0.52797592423E+03  0.25500000920E-02 0. -1.
    10030    2    1    2    0    0  0.00000000000E+00  0.00000000000E+00  0.17650014898E+04  0.28209533382E+04  0.22005788960E+04 0.  0.
        5    1    3    3  502    0  0.27007398734E+03  0.88121206942E+03  0.16528662384E+04  0.18924755116E+04  0.46999998093E+01 0.  1.
       -5    1    3    3    0  502 -0.27007398734E+03 -0.88121206942E+03  0.11213525134E+03  0.92847782662E+03  0.46999998093E+01 0. -1.
</event>
<event>
 5   0  0.2581058E-06  0.2199683E+04  0.7818609E-02  0.8518560E-01
        2   -1    0    0  501    0  0.00000000000E+00  0.00000000000E+00  0.11786284083E+04  0.11786284083E+04  0.25500000920E-02 0.  1.
       -2   -1    0    0    0  501  0.00000000000E+00  0.00000000000E+00 -0.10263214748E+04  0.10263214748E+04  0.25500000920E-02 0. -1.
    10030    2    1    2    0    0  0.00000000000E+00  0.00000000000E+00  0.15230693348E+03  0.22049498831E+04  0.21996832919E+04 0.  0.
        1    1    3    3  502    0 -0.78048118767E+03  0.70852099369E+03 -0.23844308330E+03  0.10807441819E+04  0.50400001928E-02 0. -1.
       -1    1    3    3    0  502  0.78048118767E+03 -0.70852099369E+03  0.39075001678E+03  0.11242057011E+04  0.50400001928E-02 0.  1.
</event>
<event>
 5   0  0.2581058E-06  0.2201013E+04  0.7818609E-02  0.8518007E-01
       -2   -1    0    0    0  501  0.00000000000E+00  0.00000000000E+00  0.81097329412E+03  0.81097329412E+03  0.25500000920E-02 0. -1.
        2   -1    0    0  501    0  0.00000000000E+00  0.00000000000E+00 -0.14934088135E+04  0.14934088135E+04  0.25500000920E-02 0.  1.
    10030    2    1    2    0    0  0.00000000000E+00  0.00000000000E+00 -0.68243551942E+03  0.23043821077E+04  0.22010130985E+04 0.  0.
        1    1    3    3  502    0 -0.98579523666E+03  0.39063945347E+03 -0.32899249292E+02  0.10608834959E+04  0.50400001928E-02 0. -1.
       -1    1    3    3    0  502  0.98579523666E+03 -0.39063945347E+03 -0.64953627013E+03  0.12434986118E+04  0.50400001928E-02 0.  1.
</event>
<event>
 5   0  0.1082209E-06  0.2199857E+04  0.7818609E-02  0.8518488E-01
       -1   -1    0    0    0  501  0.00000000000E+00  0.00000000000E+00  0.70983626404E+03  0.70983626406E+03  0.50400001928E-02 0. -1.
        1   -1    0    0  501    0  0.00000000000E+00  0.00000000000E+00 -0.17043963987E+04  0.17043963987E+04  0.50400001928E-02 0.  1.
    10030    2    1    2    0    0  0.00000000000E+00  0.00000000000E+00 -0.99456013466E+03  0.24142326628E+04  0.21998566973E+04 0.  0.
        2    1    3    3  502    0 -0.10241343340E+03 -0.53049951248E+03 -0.15487288514E+04  0.16402680572E+04  0.25500000920E-02 0.  1.
       -2    1    3    3    0  502  0.10241343340E+03  0.53049951248E+03  0.55416871677E+03  0.77396460561E+03  0.25500000920E-02 0. -1.
</event>
<event>
 5   0  0.8905000E-07  0.2201274E+04  0.7818609E-02  0.8517898E-01
        4   -1    0    0  501    0  0.00000000000E+00  0.00000000000E+00  0.11824955758E+04  0.11824962578E+04  0.12699999809E+01 0. -1.
       -4   -1    0    0    0  501  0.00000000000E+00  0.00000000000E+00 -0.10244432915E+04  0.10244440787E+04  0.12699999809E+01 0.  1.
    10030    2    1    2    0    0  0.00000000000E+00  0.00000000000E+00  0.15805228434E+03  0.22069403366E+04  0.22012735233E+04 0.  0.
        5    1    3    3  502    0 -0.83126856405E+03  0.62215332020E+03 -0.28701237650E+03  0.10772559462E+04  0.46999998093E+01 0.  1.
       -5    1    3    3    0  502  0.83126856405E+03 -0.62215332020E+03  0.44506466084E+03  0.11296843903E+04  0.46999998093E+01 0. -1.
</event>
<event>
 5   0  0.2606154E-06  0.2199774E+04  0.7818609E-02  0.8518522E-01
        2   -1    0    0  501    0  0.00000000000E+00  0.00000000000E+00  0.66893277578E+03  0.66893277578E+03  0.25500000920E-02 0.  1.
       -2   -1    0    0    0  501  0.00000000000E+00  0.00000000000E+00 -0.18084797250E+04  0.18084797250E+04  0.25500000920E-02 0. -1.
    10030    2    1    2    0    0  0.00000000000E+00  0.00000000000E+00 -0.11395469492E+04  0.24774125008E+04  0.21997739542E+04 0.  0.
        2    1    3    3  502    0 -0.43654277347E+03 -0.10092118093E+04 -0.54055063409E+03  0.12252644845E+04  0.25500000920E-02 0.  1.
       -2    1    3    3    0  502  0.43654277347E+03  0.10092118093E+04 -0.59899631513E+03  0.12521480162E+04  0.25500000920E-02 0. -1.
</event>
<event>
 5   0  0.1137869E-06  0.2200373E+04  0.7818609E-02  0.8518273E-01
       -1   -1    0    0    0  501  0.00000000000E+00  0.00000000000E+00  0.12107599370E+04  0.12107599371E+04  0.50400001928E-02 0. -1.
        1   -1    0    0  501    0  0.00000000000E+00  0.00000000000E+00 -0.99971149053E+03  0.99971149055E+03  0.50400001928E-02 0.  1.
    10030    2    1    2    0    0  0.00000000000E+00  0.00000000000E+00  0.21104844651E+03  0.22104714276E+04  0.22003732605E+04 0.  0.
        5    1    3    3  502    0  0.90801457100E+03 -0.69512839938E+01  0.72954300098E+03  0.11648149474E+04  0.46999998093E+01 0. -1.
       -5    1    3    3    0  502 -0.90801457100E+03  0.69512839938E+01 -0.51849455447E+03  0.10456564802E+04  0.46999998093E+01 0.  1.
</event>
<event>
 5   0  0.1146827E-06  0.2200292E+04  0.7818609E-02  0.8518307E-01
       -1   -1    0    0    0  501  0.00000000000E+00  0.00000000000E+00  0.11510565049E+04  0.11510565049E+04  0.50400001928E-02 0. -1.
        1   -1    0    0  501    0  0.00000000000E+00  0.00000000000E+00 -0.10514870208E+04  0.10514870209E+04  0.50400001928E-02 0.  1.
    10030    2    1    2    0    0  0.00000000000E+00  0.00000000000E+00  0.99569484060E+02  0.22025435258E+04  0.22002917763E+04 0.  0.
        4    1    3    3  502    0  0.31602483051E+03  0.79066303101E+03 -0.64756269426E+03  0.10697470626E+04  0.12699999809E+01 0.  1.
       -4    1    3    3    0  502 -0.31602483051E+03 -0.79066303101E+03  0.74713217832E+03  0.11327964631E+04  0.12699999809E+01 0. -1.
</event>
<event>
 5   0  0.1144271E-06  0.2199426E+04  0.7818609E-02  0.8518667E-01
       -1   -1    0    0    0  501  0.00000000000E+00  0.00000000000E+00  0.13770547197E+04  0.13770547197E+04  0.50400001928E-02 0. -1.
        1   -1    0    0  501    0  0.00000000000E+00  0.00000000000E+00 -0.87822824448E+03  0.87822824449E+03  0.50400001928E-02 0.  1.
    10030    2    1    2    0    0  0.00000000000E+00  0.00000000000E+00  0.49882647522E+03  0.22552829642E+04  0.21994256969E+04 0.  0.
        3    1    3    3  502    0 -0.53621670665E+03  0.84929635037E+03  0.70859812334E+03  0.12292046037E+04  0.10100000352E+00 0.  1.
       -3    1    3    3    0  502  0.53621670665E+03 -0.84929635037E+03 -0.20977164813E+03  0.10260783605E+04  0.10100000352E+00 0. -1.
</event>
<event>
 5   0  0.1137869E-06  0.2191030E+04  0.7818609E-02  0.8522171E-01
        1   -1    0    0  501    0  0.00000000000E+00  0.00000000000E+00  0.12648738902E+04  0.12648738902E+04  0.50400001928E-02 0.  1.
       -1   -1    0    0    0  501  0.00000000000E+00  0.00000000000E+00 -0.94883237100E+03  0.94883237101E+03  0.50400001928E-02 0. -1.
    10030    2    1    2    0    0  0.00000000000E+00  0.00000000000E+00  0.31604151919E+03  0.22137062612E+04  0.21910301616E+04 0.  0.
        5    1    3    3  502    0  0.37518844755E+03 -0.10103353864E+04  0.35649012674E+03  0.11351877662E+04  0.46999998093E+01 0. -1.
       -5    1    3    3    0  502 -0.37518844755E+03  0.10103353864E+04 -0.40448607551E+02  0.10785184950E+04  0.46999998093E+01 0.  1.
</event>
<event>
 5   0  0.2606154E-06  0.2201090E+04  0.7818609E-02  0.8517975E-01
        2   -1    0    0  501    0  0.00000000000E+00  0.00000000000E+00  0.14854513460E+04  0.14854513460E+04  0.25500000920E-02 0. -1.
       -2   -1    0    0    0  501  0.00000000000E+00  0.00000000000E+00 -0.81537425341E+03  0.81537425341E+03  0.25500000920E-02 0.  1.
    10030    2    1    2    0    0  0.00000000000E+00  0.00000000000E+00  0.67007709260E+03  0.23008255994E+04  0.22010895322E+04 0.  0.
        2    1    3    3  502    0 -0.50414672221E+03  0.84250277083E+03 -0.18470757767E+03  0.99904540719E+03  0.25500000920E-02 0.  1.
       -2    1    3    3    0  502  0.50414672221E+03 -0.84250277083E+03  0.85478467027E+03  0.13017801922E+04  0.25500000920E-02 0. -1.
</event>
<event>
 5   0  0.2606154E-06  0.2199177E+04  0.7818609E-02  0.8518771E-01
        2   -1    0    0  501    0  0.00000000000E+00  0.00000000000E+00  0.14678090835E+04  0.14678090835E+04  0.25500000920E-02 0.  1.
       -2   -1    0    0    0  501  0.00000000000E+00  0.00000000000E+00 -0.82374107966E+03  0.82374107966E+03  0.25500000920E-02 0. -1.
    10030    2    1    2    0    0  0.00000000000E+00  0.00000000000E+00  0.64406800384E+03  0.22915501632E+04  0.21991767907E+04 0.  0.
        2    1    3    3  502    0  0.74857051963E+03  0.53097719873E+03 -0.30904525694E+03  0.96840259153E+03  0.25500000920E-02 0. -1.
       -2    1    3    3    0  502 -0.74857051963E+03 -0.53097719873E+03  0.95311326078E+03  0.13231475716E+04  0.25500000920E-02 0.  1.
</event>
<event>
 5   0  0.1146827E-06  0.2199719E+04  0.7818609E-02  0.8518545E-01
        1   -1    0    0  501    0  0.00000000000E+00  0.00000000000E+00  0.86377307263E+03  0.86377307265E+03  0.50400001928E-02 0.  1.
       -1   -1    0    0    0  501  0.00000000000E+00  0.00000000000E+00 -0.14004735919E+04  0.14004735919E+04  0.50400001928E-02 0. -1.
    10030    2    1    2    0    0  0.00000000000E+00  0.00000000000E+00 -0.53670051922E+03  0.22642466645E+04  0.21997194163E+04 0.  0.
        4    1    3    3  502    0 -0.49148014111E+03 -0.60000864020E+03 -0.10710506470E+04  0.13223895791E+04  0.12699999809E+01 0. -1.
       -4    1    3    3    0  502  0.49148014111E+03  0.60000864020E+03  0.53435012781E+03  0.94185708545E+03  0.12699999809E+01 0.  1.
</event>
<event>
 5   0  0.1107101E-06  0.2200081E+04  0.7818609E-02  0.8518394E-01
       -1   -1    0    0    0  501  0.00000000000E+00  0.00000000000E+00  0.82396100511E+03  0.82396100512E+03  0.50400001928E-02 0. -1.
        1   -1    0    0  501    0  0.00000000000E+00  0.00000000000E+00 -0.14686242982E+04  0.14686242982E+04  0.50400001928E-02 0.  1.
    10030    2    1    2    0    0  0.00000000000E+00  0.00000000000E+00 -0.64466329306E+03  0.22925853033E+04  0.22000810466E+04 0.  0.
        1    1    3    3  502    0 -0.84539054131E+03  0.77247967499E+02  0.40668107423E+03  0.94129799318E+03  0.50400001928E-02 0. -1.
       -1    1    3    3    0  502  0.84539054131E+03 -0.77247967499E+02 -0.10513443673E+04  0.13512873101E+04  0.50400001928E-02 0.  1.
</event>
<event>
 5   0  0.1107101E-06  0.2199324E+04  0.7818609E-02  0.8518710E-01
        1   -1    0    0  501    0  0.00000000000E+00  0.00000000000E+00  0.12172332776E+04  0.12172332776E+04  0.50400001928E-02 0. -1.
       -1   -1    0    0    0  501  0.00000000000E+00  0.00000000000E+00 -0.99344652362E+03  0.99344652363E+03  0.50400001928E-02 0.  1.
    10030    2    1    2    0    0  0.00000000000E+00  0.00000000000E+00  0.22378675396E+03  0.22106798012E+04  0.21993236852E+04 0.  0.
        1    1    3    3  502    0 -0.93733351802E+03  0.47214344851E+03 -0.21804317684E+03  0.10719404773E+04  0.50400001928E-02 0.  1.
       -1    1    3    3    0  502  0.93733351802E+03 -0.47214344851E+03  0.44182993080E+03  0.11387393239E+04  0.50400001928E-02 0. -1.
</event>
<event>
 5   0  0.1137869E-06  0.2200188E+04  0.7818609E-02  0.8518350E-01
       -1   -1    0    0    0  501  0.00000000000E+00  0.00000000000E+00  0.13949953460E+04  0.13949953460E+04  0.50400001928E-02 0. -1.
        1   -1    0    0  501    0  0.00000000000E+00  0.00000000000E+00 -0.86753427016E+03  0.86753427017E+03  0.50400001928E-02 0.  1.
    10030    2    1    2    0    0  0.00000000000E+00  0.00000000000E+00  0.52746107583E+03  0.22625296162E+04  0.22001875096E+04 0.  0.
        5    1    3    3  502    0  0.22408831048E+03 -0.61319905002E+03 -0.64677018059E+03  0.91900076297E+03  0.46999998093E+01 0.  1.
       -5    1    3    3    0  502 -0.22408831048E+03  0.61319905002E+03  0.11742312564E+04  0.13435288532E+04  0.46999998093E+01 0. -1.
</event>
<event>
 5   0  0.2581058E-06  0.2200601E+04  0.7818609E-02  0.8518178E-01
       -2   -1    0    0    0  501  0.00000000000E+00  0.00000000000E+00  0.90661404463E+03  0.90661404463E+03  0.25500000920E-02 0.  1.
        2   -1    0    0  501    0  0.00000000000E+00  0.00000000000E+00 -0.13353653129E+04  0.13353653129E+04  0.25500000920E-02 0. -1.
    10030    2    1    2    0    0  0.00000000000E+00  0.00000000000E+00 -0.42875126831E+03  0.22419793576E+04  0.22006007793E+04 0.  0.
        1    1    3    3  502    0 -0.84443169258E+03  0.62792791706E+03  0.11307509570E+03  0.10583687116E+04  0.50400001928E-02 0.  1.
       -1    1    3    3    0  502  0.84443169258E+03 -0.62792791706E+03 -0.54182636401E+03  0.11836106460E+04  0.50400001928E-02 0. -1.
</event>
<event>
 5   0  0.2532239E-06  0.2197731E+04  0.7818609E-02  0.8519373E-01
        2   -1    0    0  501    0  0.00000000000E+00  0.00000000000E+00  0.12120462082E+04  0.12120462082E+04  0.25500000920E-02 0.  1.
       -2   -1    0    0    0  501  0.00000000000E+00  0.00000000000E+00 -0.99625323793E+03  0.99625323793E+03  0.25500000920E-02 0. -1.
    10030    2    1    2    0    0  0.00000000000E+00  0.00000000000E+00  0.21579297026E+03  0.22082994461E+04  0.21977306108E+04 0.  0.
        3    1    3    3  502    0  0.50932452681E+03 -0.19915681312E+03  0.10655959608E+04  0.11977352261E+04  0.10100000352E+00 0.  1.
       -3    1    3    3    0  502 -0.50932452681E+03  0.19915681312E+03 -0.84980299059E+03  0.10105642200E+04  0.10100000352E+00 0. -1.
</event>
<event>
 5   0  0.2581058E-06  0.2203343E+04  0.7818609E-02  0.8517038E-01
        2   -1    0    0  501    0  0.00000000000E+00  0.00000000000E+00  0.26095621848E+04  0.26095621848E+04  0.25500000920E-02 0. -1.
       -2   -1    0    0    0  501  0.00000000000E+00  0.00000000000E+00 -0.46508944750E+03  0.46508944751E+03  0.25500000920E-02 0.  1.
    10030    2    1    2    0    0  0.00000000000E+00  0.00000000000E+00  0.21444727373E+04  0.30746516323E+04  0.22033427647E+04 0.  0.
        1    1    3    3  502    0 -0.11030810846E+03  0.43919805107E+02 -0.45613539168E+03  0.47133461961E+03  0.50400001928E-02 0.  1.
       -1    1    3    3    0  502  0.11030810846E+03 -0.43919805107E+02  0.26006081289E+04  0.26033170127E+04  0.50400001928E-02 0. -1.
</event>
<event>
 5   0  0.2532239E-06  0.2200331E+04  0.7818609E-02  0.8518290E-01
       -2   -1    0    0    0  501  0.00000000000E+00  0.00000000000E+00  0.11995235013E+04  0.11995235013E+04  0.25500000920E-02 0.  1.
        2   -1    0    0  501    0  0.00000000000E+00  0.00000000000E+00 -0.10090376912E+04  0.10090376912E+04  0.25500000920E-02 0. -1.
    10030    2    1    2    0    0  0.00000000000E+00  0.00000000000E+00  0.19048581019E+03  0.22085611925E+04  0.22003312699E+04 0.  0.
        3    1    3    3  502    0 -0.80405102775E+03  0.44864456112E+03  0.69964496162E+03  0.11564095641E+04  0.10100000352E+00 0.  1.
       -3    1    3    3    0  502  0.80405102775E+03 -0.44864456112E+03 -0.50915915143E+03  0.10521516284E+04  0.10100000352E+00 0. -1.
</event>
<event>
 5   0  0.2556869E-06  0.2200118E+04  0.7818609E-02  0.8518379E-01
        2   -1    0    0  501    0  0.00000000000E+00  0.00000000000E+00  0.17837269155E+04  0.17837269155E+04  0.25500000920E-02 0. -1.
       -2   -1    0    0    0  501  0.00000000000E+00  0.00000000000E+00 -0.67842780263E+03  0.67842780264E+03  0.25500000920E-02 0.  1.
    10030    2    1    2    0    0  0.00000000000E+00  0.00000000000E+00  0.11052991129E+04  0.24621547182E+04  0.22001181167E+04 0.  0.
        5    1    3    3  502    0 -0.48101776200E+03 -0.31390810903E+03  0.16025736847E+04  0.17024044447E+04  0.46999998093E+01 0. -1.
       -5    1    3    3    0  502  0.48101776200E+03  0.31390810903E+03 -0.49727457184E+03  0.75975027349E+03  0.46999998093E+01 0.  1.
</event>
<event>
 5   0  0.8905000E-07  0.2198128E+04  0.7818609E-02  0.8519208E-01
       -4   -1    0    0    0  501  0.00000000000E+00  0.00000000000E+00  0.12829476834E+04  0.12829483120E+04  0.12699999809E+01 0.  1.
        4   -1    0    0  501    0  0.00000000000E+00  0.00000000000E+00 -0.94153460470E+03  0.94153546123E+03  0.12699999809E+01 0. -1.
    10030    2    1    2    0    0  0.00000000000E+00  0.00000000000E+00  0.34141307867E+03  0.22244837732E+04  0.21981276503E+04 0.  0.
        5    1    3    3  502    0  0.37195479013E+03 -0.93518487077E+03 -0.27617407482E+03  0.10436547887E+04  0.46999998093E+01 0.  1.
       -5    1    3    3    0  502 -0.37195479013E+03  0.93518487077E+03  0.61758715349E+03  0.11808289845E+04  0.46999998093E+01 0. -1.
</event>
<event>
 5   0  0.1144271E-06  0.2201986E+04  0.7818609E-02  0.8517602E-01
       -1   -1    0    0    0  501  0.00000000000E+00  0.00000000000E+00  0.76427124593E+03  0.76427124595E+03  0.50400001928E-02 0.  1.
        1   -1    0    0  501    0  0.00000000000E+00  0.00000000000E+00 -0.15860676396E+04  0.15860676397E+04  0.50400001928E-02 0. -1.
    10030    2    1    2    0    0  0.00000000000E+00  0.00000000000E+00 -0.82179639372E+03  0.23503388856E+04  0.22019862771E+04 0.  0.
        3    1    3    3  502    0  0.66267604949E+02 -0.61061440302E+03  0.56441632660E+03  0.83415055270E+03  0.10100000352E+00 0.  1.
       -3    1    3    3    0  502 -0.66267604949E+02  0.61061440302E+03 -0.13862127203E+04  0.15161883329E+04  0.10100000352E+00 0. -1.
</event>
<event>
 5   0  0.2581058E-06  0.2193910E+04  0.7818609E-02  0.8520967E-01
       -2   -1    0    0    0  501  0.00000000000E+00  0.00000000000E+00  0.12252188415E+04  0.12252188415E+04  0.25500000920E-02 0. -1.
        2   -1    0    0  501    0  0.00000000000E+00  0.00000000000E+00 -0.98211824575E+03  0.98211824575E+03  0.25500000920E-02 0.  1.
    10030    2    1    2    0    0  0.00000000000E+00  0.00000000000E+00  0.24310059574E+03  0.22073370872E+04  0.21939095508E+04 0.  0.
        1    1    3    3  502    0  0.16911938911E+03 -0.10837155860E+04  0.10505053342E+03  0.11018513755E+04  0.50400001928E-02 0. -1.
       -1    1    3    3    0  502 -0.16911938911E+03  0.10837155860E+04  0.13805006232E+03  0.11054857117E+04  0.50400001928E-02 0.  1.
</event>
<event>
 5   0  0.1144271E-06  0.2199082E+04  0.7818609E-02  0.8518810E-01
       -1   -1    0    0    0  501  0.00000000000E+00  0.00000000000E+00  0.68182604153E+03  0.68182604155E+03  0.50400001928E-02 0. -1.
        1   -1    0    0  501    0  0.00000000000E+00  0.00000000000E+00 -0.17731659655E+04  0.17731659655E+04  0.50400001928E-02 0.  1.
    10030    2    1    2    0    0  0.00000000000E+00  0.00000000000E+00 -0.10913399240E+04  0.24549920071E+04  0.21990822916E+04 0.  0.
        3    1    3    3  502    0 -0.20909296477E+03 -0.84331541151E+03 -0.12979500310E+04  0.15619139042E+04  0.10100000352E+00 0.  1.
       -3    1    3    3    0  502  0.20909296477E+03  0.84331541151E+03  0.20661010699E+03  0.89307810281E+03  0.10100000352E+00 0. -1.
</event>
<event>
 5   0  0.1082209E-06  0.2200305E+04  0.7818609E-02  0.8518301E-01
        1   -1    0    0  501    0  0.00000000000E+00  0.00000000000E+00  0.15276351298E+04  0.15276351298E+04  0.50400001928E-02 0. -1.
       -1   -1    0    0    0  501  0.00000000000E+00  0.00000000000E+00 -0.79229326418E+03  0.79229326420E+03  0.50400001928E-02 0.  1.
    10030    2    1    2    0    0  0.00000000000E+00  0.00000000000E+00  0.73534186560E+03  0.23199283940E+04  0.22003045457E+04 0.  0.
        2    1    3    3  502    0 -0.10275908335E+04 -0.99493958752E+02 -0.33117584397E+02  0.10329272692E+04  0.25500000920E-02 0. -1.
       -2    1    3    3    0  502  0.10275908335E+04  0.99493958752E+02  0.76845945000E+03  0.12870011248E+04  0.25500000920E-02 0.  1.
</event>
<event>
 5   0  0.1146827E-06  0.2200159E+04  0.7818609E-02  0.8518362E-01
       -1   -1    0    0    0  501  0.00000000000E+00  0.00000000000E+00  0.59913171182E+03  0.59913171184E+03  0.50400001928E-02 0. -1.
        1   -1    0    0  501    0  0.00000000000E+00  0.00000000000E+00 -0.20198808634E+04  0.20198808634E+04  0.50400001928E-02 0.  1.
    10030    2    1    2    0    0  0.00000000000E+00  0.00000000000E+00 -0.14207491516E+04  0.26190125753E+04  0.22001587937E+04 0.  0.
        4    1    3    3  502    0 -0.10660953909E+04  0.24169703378E+03 -0.85711556976E+03  0.13891096254E+04  0.12699999809E+01 0.  1.
       -4    1    3    3    0  502  0.10660953909E+04 -0.24169703378E+03 -0.56363358183E+03  0.12299029498E+04  0.12699999809E+01 0. -1.
</event>
<event>
 5   0  0.2524749E-06  0.2200204E+04  0.7818609E-02  0.8518343E-01
       -2   -1    0    0    0  501  0.00000000000E+00  0.00000000000E+00  0.53821586501E+03  0.53821586502E+03  0.25500000920E-02 0. -1.
        2   -1    0    0  501    0  0.00000000000E+00  0.00000000000E+00 -0.22485854223E+04  0.22485854223E+04  0.25500000920E-02 0.  1.
    10030    2    1    2    0    0  0.00000000000E+00  0.00000000000E+00 -0.17103695573E+04  0.27868012873E+04  0.22002039434E+04 0.  0.
        4    1    3    3  502    0 -0.60106513229E+03  0.29516455125E+03  0.25034291894E+03  0.71489481431E+03  0.12699999809E+01 0. -1.
       -4    1    3    3    0  502  0.60106513229E+03 -0.29516455125E+03 -0.19607124762E+04  0.20719064730E+04  0.12699999809E+01 0.  1.
</event>
<event>
 5   0  0.1137869E-06  0.2199413E+04  0.7818609E-02  0.8518673E-01
       -1   -1    0    0    0  501  0.00000000000E+00  0.00000000000E+00  0.79635609593E+03  0.79635609595E+03  0.50400001928E-02 0. -1.
        1   -1    0    0  501    0  0.00000000000E+00  0.00000000000E+00 -0.15186098972E+04  0.15186098972E+04  0.50400001928E-02 0.  1.
    10030    2    1    2    0    0  0.00000000000E+00  0.00000000000E+00 -0.72225380127E+03  0.23149659932E+04  0.21994128753E+04 0.  0.
        5    1    3    3  502    0 -0.89956768224E+01 -0.63192898485E+02 -0.15166479069E+04  0.15179977694E+04  0.46999998093E+01 0.  1.
       -5    1    3    3    0  502  0.89956768224E+01  0.63192898485E+02  0.79439410559E+03  0.79696822372E+03  0.46999998093E+01 0. -1.
</event>
<event>
 5   0  0.1137869E-06  0.2200527E+04  0.7818609E-02  0.8518209E-01
       -1   -1    0    0    0  501  0.00000000000E+00  0.00000000000E+00  0.20714614921E+04  0.20714614921E+04  0.50400001928E-02 0. -1.
        1   -1    0    0  501    0  0.00000000000E+00  0.00000000000E+00 -0.58440834645E+03  0.58440834647E+03  0.50400001928E-02 0.  1.
    10030    2    1    2    0    0  0.00000000000E+00  0.00000000000E+00  0.14870531456E+04  0.26558698386E+04  0.22005266509E+04 0.  0.
        5    1    3    3  502    0  0.28197071611E+03  0.20812887505E+03  0.20022813828E+04  0.20327267252E+04  0.46999998093E+01 0. -1.
       -5    1    3    3    0  502 -0.28197071611E+03 -0.20812887505E+03 -0.51522823716E+03  0.62314311337E+03  0.46999998093E+01 0.  1.
</event>
<event>
 5   0  0.1137869E-06  0.2199457E+04  0.7818609E-02  0.8518654E-01
       -1   -1    0    0    0  501  0.00000000000E+00  0.00000000000E+00  0.90301706061E+03  0.90301706063E+03  0.50400001928E-02 0.  1.
        1   -1    0    0  501    0  0.00000000000E+00  0.00000000000E+00 -0.13392909777E+04  0.13392909777E+04  0.50400001928E-02 0. -1.
    10030    2    1    2    0    0  0.00000000000E+00  0.00000000000E+00 -0.43627391709E+03  0.22423080383E+04  0.21994568439E+04 0.  0.
        5    1    3    3  502    0 -0.64476181970E+03  0.78728510802E+03 -0.64320726130E+03  0.12038576811E+04  0.46999998093E+01 0. -1.
       -5    1    3    3    0  502  0.64476181970E+03 -0.78728510802E+03  0.20693334421E+03  0.10384503572E+04  0.46999998093E+01 0.  1.
</event>
<event>
 5   0  0.2556869E-06  0.2200334E+04  0.7818609E-02  0.8518289E-01
       -2   -1    0    0    0  501  0.00000000000E+00  0.00000000000E+00  0.85306246234E+03  0.85306246235E+03  0.25500000920E-02 0. -1.
        2   -1    0    0  501    0  0.00000000000E+00  0.00000000000E+00 -0.14188503000E+04  0.14188503000E+04  0.25500000920E-02 0.  1.
    10030    2    1    2    0    0  0.00000000000E+00  0.00000000000E+00 -0.56578783764E+03  0.22719127623E+04  0.22003344570E+04 0.  0.
        5    1    3    3  502    0  0.10738740687E+04 -0.23885279660E+03 -0.27311662360E+03  0.11335214837E+04  0.46999998093E+01 0.  1.
       -5    1    3    3    0  502 -0.10738740687E+04  0.23885279660E+03 -0.29267121404E+03  0.11383912787E+04  0.46999998093E+01 0. -1.
</event>
<event>
 5   0  0.2581058E-06  0.2201453E+04  0.7818609E-02  0.8517824E-01
       -2   -1    0    0    0  501  0.00000000000E+00  0.00000000000E+00  0.74221250747E+03  0.74221250748E+03  0.25500000920E-02 0. -1.
        2   -1    0    0  501    0  0.00000000000E+00  0.00000000000E+00 -0.16324148680E+04  0.16324148680E+04  0.25500000920E-02 0.  1.
    10030    2    1    2    0    0  0.00000000000E+00  0.00000000000E+00 -0.89020236052E+03  0.23746273755E+04  0.22014529133E+04 0.  0.
        1    1    3    3  502    0  0.10966540705E+04  0.55668353026E+02 -0.52760038558E+03  0.12182410610E+04  0.50400001928E-02 0.  1.
       -1    1    3    3    0  502 -0.10966540705E+04 -0.55668353026E+02 -0.36260197494E+03  0.11563863144E+04  0.50400001928E-02 0. -1.
</event>
<event>
 5   0  0.1082209E-06  0.2198927E+04  0.7818609E-02  0.8518875E-01
       -1   -1    0    0    0  501  0.00000000000E+00  0.00000000000E+00  0.60707056397E+03  0.60707056399E+03  0.50400001928E-02 0. -1.
        1   -1    0    0  501    0  0.00000000000E+00  0.00000000000E+00 -0.19912347890E+04  0.19912347890E+04  0.50400001928E-02 0.  1.
    10030    2    1    2    0    0  0.00000000000E+00  0.00000000000E+00 -0.13841642250E+04  0.25983053530E+04  0.21989270350E+04 0.  0.
        2    1    3    3  502    0  0.68636497393E+03  0.24191168397E+03 -0.16659023841E+04  0.18179243366E+04  0.25500000920E-02 0.  1.
       -2    1    3    3    0  502 -0.68636497393E+03 -0.24191168397E+03  0.28173815916E+03  0.78038101631E+03  0.25500000920E-02 0. -1.
</event>
<event>
 5   0  0.8905000E-07  0.2196137E+04  0.7818609E-02  0.8520038E-01
       -4   -1    0    0    0  501  0.00000000000E+00  0.00000000000E+00  0.98230093567E+03  0.98230175665E+03  0.12699999809E+01 0. -1.
        4   -1    0    0  501    0  0.00000000000E+00  0.00000000000E+00 -0.12274775539E+04  0.12274782109E+04  0.12699999809E+01 0.  1.
    10030    2    1    2    0    0  0.00000000000E+00  0.00000000000E+00 -0.24517661827E+03  0.22097799676E+04  0.21961365921E+04 0.  0.
        1    1    3    3  502    0 -0.42453610777E+03 -0.75895254963E+03  0.55203500387E+03  0.10300400599E+04  0.50400001928E-02 0. -1.
       -1    1    3    3    0  502  0.42453610777E+03  0.75895254963E+03 -0.79721162214E+03  0.11797399077E+04  0.50400001928E-02 0.  1.
</event>
<event>
 5   0  0.2581058E-06  0.2198664E+04  0.7818609E-02  0.8518984E-01
        2   -1    0    0  501    0  0.00000000000E+00  0.00000000000E+00  0.10004850710E+04  0.10004850710E+04  0.25500000920E-02 0. -1.
       -2   -1    0    0    0  501  0.00000000000E+00  0.00000000000E+00 -0.12079451703E+04  0.12079451703E+04  0.25500000920E-02 0.  1.
    10030    2    1    2    0    0  0.00000000000E+00  0.00000000000E+00 -0.20746009928E+03  0.22084302413E+04  0.21986642394E+04 0.  0.
        1    1    3    3  502    0 -0.81822154789E+02 -0.99136588322E+03 -0.57381517029E+03  0.11483749514E+04  0.50400001928E-02 0. -1.
       -1    1    3    3    0  502  0.81822154789E+02  0.99136588322E+03  0.36635507101E+03  0.10600552898E+04  0.50400001928E-02 0.  1.
</event>
<event>
 5   0  0.8905000E-07  0.2199919E+04  0.7818609E-02  0.8518462E-01
       -3   -1    0    0    0  501  0.00000000000E+00  0.00000000000E+00  0.15233879258E+04  0.15233879292E+04  0.10100000352E+00 0.  1.
        3   -1    0    0  501    0  0.00000000000E+00  0.00000000000E+00 -0.79422348014E+03  0.79422348656E+03  0.10100000352E+00 0. -1.
    10030    2    1    2    0    0  0.00000000000E+00  0.00000000000E+00  0.72916444570E+03  0.23176114157E+04  0.21999186088E+04 0.  0.
        5    1    3    3  502    0  0.63163422938E+03 -0.79744945239E+03 -0.76129105744E+02  0.10201495771E+04  0.46999998093E+01 0. -1.
       -5    1    3    3    0  502 -0.63163422938E+03  0.79744945239E+03  0.80529355144E+03  0.12974618387E+04  0.46999998093E+01 0.  1.
</event>
<event>
 5   0  0.2581058E-06  0.2200991E+04  0.7818609E-02  0.8518016E-01
        2   -1    0    0  501    0  0.00000000000E+00  0.00000000000E+00  0.16872564130E+04  0.16872564130E+04  0.25500000920E-02 0.  1.
       -2   -1    0    0    0  501  0.00000000000E+00  0.00000000000E+00 -0.71778651152E+03  0.71778651152E+03  0.25500000920E-02 0. -1.
    10030    2    1    2    0    0  0.00000000000E+00  0.00000000000E+00  0.96946990144E+03  0.24050429245E+04  0.22009905903E+04 0.  0.
        1    1    3    3  502    0  0.64089228216E+03  0.20563308426E+03 -0.46665161152E+03  0.81901868674E+03  0.50400001928E-02 0. -1.
       -1    1    3    3    0  502 -0.64089228216E+03 -0.20563308426E+03  0.14361215130E+04  0.15860242377E+04  0.50400001928E-02 0.  1.
</event>
<event>
 5   0  0.2532239E-06  0.2199853E+04  0.7818609E-02  0.8518489E-01
       -2   -1    0    0    0  501  0.00000000000E+00  0.00000000000E+00  0.78898424035E+03  0.78898424036E+03  0.25500000920E-02 0. -1.
        2   -1    0    0  501    0  0.00000000000E+00  0.00000000000E+00 -0.15334130558E+04  0.15334130558E+04  0.25500000920E-02 0.  1.
    10030    2    1    2    0    0  0.00000000000E+00  0.00000000000E+00 -0.74442881547E+03  0.23223972962E+04  0.21998533906E+04 0.  0.
        3    1    3    3  502    0  0.56680646704E+02 -0.10180711983E+04  0.63265147832E+02  0.10216086088E+04  0.10100000352E+00 0. -1.
       -3    1    3    3    0  502 -0.56680646704E+02  0.10180711983E+04 -0.80769396331E+03  0.13007886873E+04  0.10100000352E+00 0.  1.
</event>
<event>
 5   0  0.1146827E-06  0.2199052E+04  0.7818609E-02  0.8518823E-01
       -1   -1    0    0    0  501  0.00000000000E+00  0.00000000000E+00  0.80938415624E+03  0.80938415626E+03  0.50400001928E-02 0. -1.
        1   -1    0    0  501    0  0.00000000000E+00  0.00000000000E+00 -0.14936750182E+04  0.14936750182E+04  0.50400001928E-02 0.  1.
    10030    2    1    2    0    0  0.00000000000E+00  0.00000000000E+00 -0.68429086200E+03  0.23030591745E+04  0.21990515177E+04 0.  0.
        4    1    3    3  502    0  0.67045190806E+03  0.87114341014E+03 -0.36689975260E+03  0.11588846549E+04  0.12699999809E+01 0.  1.
       -4    1    3    3    0  502 -0.67045190806E+03 -0.87114341014E+03 -0.31739110940E+03  0.11441745196E+04  0.12699999809E+01 0. -1.
</event>
<event>
 5   0  0.1146827E-06  0.2195089E+04  0.7818609E-02  0.8520475E-01
       -1   -1    0    0    0  501  0.00000000000E+00  0.00000000000E+00  0.69554521094E+03  0.69554521096E+03  0.50400001928E-02 0.  1.
        1   -1    0    0  501    0  0.00000000000E+00  0.00000000000E+00 -0.17318837611E+04  0.17318837611E+04  0.50400001928E-02 0. -1.
    10030    2    1    2    0    0  0.00000000000E+00  0.00000000000E+00 -0.10363385502E+04  0.24274289721E+04  0.21950885686E+04 0.  0.
        4    1    3    3  502    0  0.72020845195E+03  0.87287261806E+02 -0.14289205947E+04  0.16025401584E+04  0.12699999809E+01 0. -1.
       -4    1    3    3    0  502 -0.72020845195E+03 -0.87287261806E+02  0.39258204455E+03  0.82488881368E+03  0.12699999809E+01 0.  1.
</event>
<event>
 5   0  0.1107101E-06  0.2199907E+04  0.7818609E-02  0.8518467E-01
        1   -1    0    0  501    0  0.00000000000E+00  0.00000000000E+00  0.12582360945E+04  0.12582360945E+04  0.50400001928E-02 0. -1.
       -1   -1    0    0    0  501  0.00000000000E+00  0.00000000000E+00 -0.96158200818E+03  0.96158200819E+03  0.50400001928E-02 0.  1.
    10030    2    1    2    0    0  0.00000000000E+00  0.00000000000E+00  0.29665408634E+03  0.22198181027E+04  0.21999065349E+04 0.  0.
        1    1    3    3  502    0  0.10734159406E+04  0.34593425892E+02  0.38813054467E+03  0.11419561315E+04  0.50400001928E-02 0.  1.
       -1    1    3    3    0  502 -0.10734159406E+04 -0.34593425892E+02 -0.91476458330E+02  0.10778619712E+04  0.50400001928E-02 0. -1.
</event>
<event>
 5   0  0.2556869E-06  0.2199090E+04  0.7818609E-02  0.8518807E-01
       -2   -1    0    0    0  501  0.00000000000E+00  0.00000000000E+00  0.10446848668E+04  0.10446848668E+04  0.25500000920E-02 0.  1.
        2   -1    0    0  501    0  0.00000000000E+00  0.00000000000E+00 -0.11572856016E+04  0.11572856016E+04  0.25500000920E-02 0. -1.
    10030    2    1    2    0    0  0.00000000000E+00  0.00000000000E+00 -0.11260073478E+03  0.22019704684E+04  0.21990895885E+04 0.  0.
        5    1    3    3  502    0 -0.76451699756E+03 -0.30217054481E+03  0.67485028574E+03  0.10635968578E+04  0.46999998093E+01 0.  1.
       -5    1    3    3    0  502  0.76451699756E+03  0.30217054481E+03 -0.78745102052E+03  0.11383736107E+04  0.46999998093E+01 0. -1.
</event>
<event>
 5   0  0.1107101E-06  0.2200559E+04  0.7818609E-02  0.8518196E-01
       -1   -1    0    0    0  501  0.00000000000E+00  0.00000000000E+00  0.15866811686E+04  0.15866811686E+04  0.50400001928E-02 0. -1.
        1   -1    0    0  501    0  0.00000000000E+00  0.00000000000E+00 -0.76298551683E+03  0.76298551685E+03  0.50400001928E-02 0.  1.
    10030    2    1    2    0    0  0.00000000000E+00  0.00000000000E+00  0.82369565177E+03  0.23496666855E+04  0.22005587940E+04 0.  0.
        1    1    3    3  502    0  0.38137377694E+01  0.87118878756E+03  0.11294187289E+04  0.14263839292E+04  0.50400001928E-02 0. -1.
       -1    1    3    3    0  502 -0.38137377694E+01 -0.87118878756E+03 -0.30572307712E+03  0.92328275630E+03  0.50400001928E-02 0.  1.
</event>
<event>
 5   0  0.2556869E-06  0.2200722E+04  0.7818609E-02  0.8518128E-01
        2   -1    0    0  501    0  0.00000000000E+00  0.00000000000E+00  0.15698003019E+04  0.15698003019E+04  0.25500000920E-02 0.  1.
       -2   -1    0    0    0  501  0.00000000000E+00  0.00000000000E+00 -0.77130442593E+03  0.77130442593E+03  0.25500000920E-02 0. -1.
    10030    2    1    2    0    0  0.00000000000E+00  0.00000000000E+00  0.79849587592E+03  0.23411047278E+04  0.22007216277E+04 0.  0.
        5    1    3    3  502    0 -0.21113467063E+03  0.90216557385E+03 -0.23215509577E+03  0.95519560838E+03  0.46999998093E+01 0. -1.
       -5    1    3    3    0  502  0.21113467063E+03 -0.90216557385E+03  0.10306509717E+04  0.13859091194E+04  0.46999998093E+01 0.  1.
</event>
<event>
 5   0  0.2581058E-06  0.2202485E+04  0.7818609E-02  0.8517394E-01
       -2   -1    0    0    0  501  0.00000000000E+00  0.00000000000E+00  0.76410522628E+03  0.76410522629E+03  0.25500000920E-02 0. -1.
        2   -1    0    0  501    0  0.00000000000E+00  0.00000000000E+00 -0.15871314428E+04  0.15871314428E+04  0.25500000920E-02 0.  1.
    10030    2    1    2    0    0  0.00000000000E+00  0.00000000000E+00 -0.82302621655E+03  0.23512366691E+04  0.22024853509E+04 0.  0.
        1    1    3    3  502    0 -0.27052070758E+03 -0.66774468270E+03 -0.13006325196E+04  0.14868454410E+04  0.50400001928E-02 0.  1.
       -1    1    3    3    0  502  0.27052070758E+03  0.66774468270E+03  0.47760630302E+03  0.86439122810E+03  0.50400001928E-02 0. -1.
</event>
<event>
 5   0  0.2524749E-06  0.2200110E+04  0.7818609E-02  0.8518382E-01
       -2   -1    0    0    0  501  0.00000000000E+00  0.00000000000E+00  0.10289621648E+04  0.10289621648E+04  0.25500000920E-02 0. -1.
        2   -1    0    0  501    0  0.00000000000E+00  0.00000000000E+00 -0.11760599891E+04  0.11760599891E+04  0.25500000920E-02 0.  1.
    10030    2    1    2    0    0  0.00000000000E+00  0.00000000000E+00 -0.14709782433E+03  0.22050221539E+04  0.22001102084E+04 0.  0.
        4    1    3    3  502    0 -0.81541314222E+03  0.66622803042E+03  0.24553468172E+03  0.10812248951E+04  0.12699999809E+01 0. -1.
       -4    1    3    3    0  502  0.81541314222E+03 -0.66622803042E+03 -0.39263250605E+03  0.11237972587E+04  0.12699999809E+01 0.  1.
</event>
<event>
 5   0  0.2556869E-06  0.2200316E+04  0.7818609E-02  0.8518296E-01
        2   -1    0    0  501    0  0.00000000000E+00  0.00000000000E+00  0.28395108768E+04  0.28395108768E+04  0.25500000920E-02 0.  1.
       -2   -1    0    0    0  501  0.00000000000E+00  0.00000000000E+00 -0.42625231018E+03  0.42625231018E+03  0.25500000920E-02 0. -1.
    10030    2    1    2    0    0  0.00000000000E+00  0.00000000000E+00  0.24132585667E+04  0.32657631870E+04  0.22003164055E+04 0.  0.
        5    1    3    3  502    0  0.85069682229E+02 -0.95525141394E+03  0.40654580690E+03  0.10416543082E+04  0.46999998093E+01 0.  1.
       -5    1    3    3    0  502 -0.85069682229E+02  0.95525141394E+03  0.20067127598E+04  0.22241088788E+04  0.46999998093E+01 0. -1.
</event>
<event>
 5   0  0.1146827E-06  0.2199955E+04  0.7818609E-02  0.8518447E-01
        1   -1    0    0  501    0  0.00000000000E+00  0.00000000000E+00  0.10145921154E+04  0.10145921154E+04  0.50400001928E-02 0.  1.
       -1   -1    0    0    0  501  0.00000000000E+00  0.00000000000E+00 -0.11925485832E+04  0.11925485832E+04  0.50400001928E-02 0. -1.
    10030    2    1    2    0    0  0.00000000000E+00  0.00000000000E+00 -0.17795646773E+03  0.22071406986E+04  0.21999548993E+04 0.  0.
        4    1    3    3  502    0 -0.37067682093E+03  0.18648140210E+03 -0.11110167175E+04  0.11859748641E+04  0.12699999809E+01 0. -1.
       -4    1    3    3    0  502  0.37067682093E+03 -0.18648140210E+03  0.93306024977E+03  0.10211658345E+04  0.12699999809E+01 0.  1.
</event>
<event>
 5   0  0.2581058E-06  0.2199290E+04  0.7818609E-02  0.8518724E-01
        2   -1    0    0  501    0  0.00000000000E+00  0.00000000000E+00  0.11937702424E+04  0.11937702424E+04  0.25500000920E-02 0.  1.
       -2   -1    0    0    0  501  0.00000000000E+00  0.00000000000E+00 -0.10129416010E+04  0.10129416010E+04  0.25500000920E-02 0. -1.
    10030    2    1    2    0    0  0.00000000000E+00  0.00000000000E+00  0.18082864146E+03  0.22067118434E+04  0.21992903770E+04 0.  0.
        1    1    3    3  502    0  0.67886425419E+03 -0.27503124332E+03 -0.73254892788E+03  0.10359183328E+04  0.50400001928E-02 0. -1.
       -1    1    3    3    0  502 -0.67886425419E+03  0.27503124332E+03  0.91337756933E+03  0.11707935107E+04  0.50400001928E-02 0.  1.
</event>
<event>
 5   0  0.1146827E-06  0.2199092E+04  0.7818609E-02  0.8518806E-01
        1   -1    0    0  501    0  0.00000000000E+00  0.00000000000E+00  0.16132373579E+04  0.16132373580E+04  0.50400001928E-02 0. -1.
       -1   -1    0    0    0  501  0.00000000000E+00  0.00000000000E+00 -0.74942588924E+03  0.74942588926E+03  0.50400001928E-02 0.  1.
    10030    2    1    2    0    0  0.00000000000E+00  0.00000000000E+00  0.86381146870E+03  0.23626632472E+04  0.21990923960E+04 0.  0.
        4    1    3    3  502    0 -0.55909474662E+02 -0.93411956308E+01  0.16116657300E+04  0.16126627563E+04  0.12699999809E+01 0. -1.
       -4    1    3    3    0  502  0.55909474662E+02  0.93411956308E+01 -0.74785426132E+03  0.75000049092E+03  0.12699999809E+01 0.  1.
</event>
<event>
 5   0  0.1082209E-06  0.2200610E+04  0.7818609E-02  0.8518174E-01
        1   -1    0    0  501    0  0.00000000000E+00  0.00000000000E+00  0.20045637002E+04  0.20045637002E+04  0.50400001928E-02 0. -1.
       -1   -1    0    0    0  501  0.00000000000E+00  0.00000000000E+00 -0.60395756098E+03  0.60395756100E+03  0.50400001928E-02 0.  1.
    10030    2    1    2    0    0  0.00000000000E+00  0.00000000000E+00  0.14006061393E+04  0.26085212612E+04  0.22006102820E+04 0.  0.
        2    1    3    3  502    0 -0.43642822239E+03  0.99917987631E+03  0.87548581479E+03  0.13983223628E+04  0.25500000920E-02 0.  1.
       -2    1    3    3    0  502  0.43642822239E+03 -0.99917987631E+03  0.52512032448E+03  0.12101988984E+04  0.25500000920E-02 0. -1.
</event>
<event>
 5   0  0.1082209E-06  0.2199207E+04  0.7818609E-02  0.8518758E-01
        1   -1    0    0  501    0  0.00000000000E+00  0.00000000000E+00  0.18567371566E+04  0.18567371566E+04  0.50400001928E-02 0. -1.
       -1   -1    0    0    0  501  0.00000000000E+00  0.00000000000E+00 -0.65121133533E+03  0.65121133535E+03  0.50400001928E-02 0.  1.
    10030    2    1    2    0    0  0.00000000000E+00  0.00000000000E+00  0.12055258213E+04  0.25079484920E+04  0.21992073874E+04 0.  0.
        2    1    3    3  502    0  0.77150256385E+03 -0.51096628002E+03  0.12801430096E+04  0.15795787003E+04  0.25500000920E-02 0. -1.
       -2    1    3    3    0  502 -0.77150256385E+03  0.51096628002E+03 -0.74617188309E+02  0.92836979170E+03  0.25500000920E-02 0.  1.
</event>
<event>
 5   0  0.1107101E-06  0.2199860E+04  0.7818609E-02  0.8518486E-01
       -1   -1    0    0    0  501  0.00000000000E+00  0.00000000000E+00  0.61916693013E+03  0.61916693015E+03  0.50400001928E-02 0.  1.
        1   -1    0    0  501    0  0.00000000000E+00  0.00000000000E+00 -0.19539896140E+04  0.19539896140E+04  0.50400001928E-02 0. -1.
    10030    2    1    2    0    0  0.00000000000E+00  0.00000000000E+00 -0.13348226839E+04  0.25731565442E+04  0.21998597690E+04 0.  0.
        1    1    3    3  502    0 -0.56569968919E+03  0.84159424897E+03 -0.16902306120E+03  0.10280397918E+04  0.50400001928E-02 0.  1.
       -1    1    3    3    0  502  0.56569968919E+03 -0.84159424897E+03 -0.11657996227E+04  0.15451167524E+04  0.50400001928E-02 0. -1.
</event>
<event>
 5   0  0.1146827E-06  0.2198672E+04  0.7818609E-02  0.8518981E-01
       -1   -1    0    0    0  501  0.00000000000E+00  0.00000000000E+00  0.83368409206E+03  0.83368409207E+03  0.50400001928E-02 0.  1.
        1   -1    0    0  501    0  0.00000000000E+00  0.00000000000E+00 -0.14496372823E+04  0.14496372823E+04  0.50400001928E-02 0. -1.
    10030    2    1    2    0    0  0.00000000000E+00  0.00000000000E+00 -0.61595319027E+03  0.22833213744E+04  0.21986719096E+04 0.  0.
        4    1    3    3  502    0  0.31121697608E+03  0.24396360997E+02 -0.14026399923E+04  0.14369592025E+04  0.12699999809E+01 0. -1.
       -4    1    3    3    0  502 -0.31121697608E+03 -0.24396360997E+02  0.78668680206E+03  0.84636217192E+03  0.12699999809E+01 0.  1.
</event>
<event>
 5   0  0.2524749E-06  0.2196250E+04  0.7818609E-02  0.8519990E-01
       -2   -1    0    0    0  501  0.00000000000E+00  0.00000000000E+00  0.41502546151E+03  0.41502546152E+03  0.25500000920E-02 0. -1.
        2   -1    0    0  501    0  0.00000000000E+00  0.00000000000E+00 -0.29055539277E+04  0.29055539277E+04  0.25500000920E-02 0.  1.
    10030    2    1    2    0    0  0.00000000000E+00  0.00000000000E+00 -0.24905284662E+04  0.33205793892E+04  0.21962503134E+04 0.  0.
        4    1    3    3  502    0 -0.19546058343E+03 -0.61496060936E+03 -0.25886692285E+04  0.26678814401E+04  0.12699999809E+01 0.  1.
       -4    1    3    3    0  502  0.19546058343E+03  0.61496060936E+03  0.98140762289E+02  0.65269794918E+03  0.12699999809E+01 0. -1.
</event>
<event>
 5   0  0.2524749E-06  0.2194473E+04  0.7818609E-02  0.8520732E-01
       -2   -1    0    0    0  501  0.00000000000E+00  0.00000000000E+00  0.58339346104E+03  0.58339346105E+03  0.25500000920E-02 0. -1.
        2   -1    0    0  501    0  0.00000000000E+00  0.00000000000E+00 -0.20636638091E+04  0.20636638091E+04  0.25500000920E-02 0.  1.
    10030    2    1    2    0    0  0.00000000000E+00  0.00000000000E+00 -0.14802703481E+04  0.26470572702E+04  0.21944730320E+04 0.  0.
        4    1    3    3  502    0 -0.90447883246E+03 -0.51256700239E+03 -0.31688567184E+03  0.10868417696E+04  0.12699999809E+01 0. -1.
       -4    1    3    3    0  502  0.90447883246E+03  0.51256700239E+03 -0.11633846763E+04  0.15602155006E+04  0.12699999809E+01 0.  1.
</event>
<event>
 5   0  0.1137869E-06  0.2200020E+04  0.7818609E-02  0.8518420E-01
        1   -1    0    0  501    0  0.00000000000E+00  0.00000000000E+00  0.11618587330E+04  0.11618587330E+04  0.50400001928E-02 0.  1.
       -1   -1    0    0    0  501  0.00000000000E+00  0.00000000000E+00 -0.10414532343E+04  0.10414532343E+04  0.50400001928E-02 0. -1.
    10030    2    1    2    0    0  0.00000000000E+00  0.00000000000E+00  0.12040549869E+03  0.22033119672E+04  0.22000195774E+04 0.  0.
        5    1    3    3  502    0  0.10252076958E+04  0.20512779705E+03 -0.28217317901E+03  0.10829459938E+04  0.46999998093E+01 0.  1.
       -5    1    3    3    0  502 -0.10252076958E+04 -0.20512779705E+03  0.40257867769E+03  0.11203659734E+04  0.46999998093E+01 0. -1.
</event>
<event>
 5   0  0.2606154E-06  0.2199418E+04  0.7818609E-02  0.8518671E-01
       -2   -1    0    0    0  501  0.00000000000E+00  0.00000000000E+00  0.58120840918E+03  0.58120840919E+03  0.25500000920E-02 0. -1.
        2   -1    0    0  501    0  0.00000000000E+00  0.00000000000E+00 -0.20807674850E+04  0.20807674850E+04  0.25500000920E-02 0.  1.
    10030    2    1    2    0    0  0.00000000000E+00  0.00000000000E+00 -0.14995590758E+04  0.26619758941E+04  0.21994177046E+04 0.  0.
        2    1    3    3  502    0 -0.32893531583E+03  0.73794556826E+03  0.15317733964E+03  0.82232925346E+03  0.25500000920E-02 0. -1.
       -2    1    3    3    0  502  0.32893531583E+03 -0.73794556826E+03 -0.16527364154E+04  0.18396466407E+04  0.25500000920E-02 0.  1.
</event>
<event>
 5   0  0.1137869E-06  0.2199374E+04  0.7818609E-02  0.8518689E-01
        1   -1    0    0  501    0  0.00000000000E+00  0.00000000000E+00  0.88153786266E+03  0.88153786268E+03  0.50400001928E-02 0.  1.
       -1   -1    0    0    0  501  0.00000000000E+00  0.00000000000E+00 -0.13718196610E+04  0.13718196611E+04  0.50400001928E-02 0. -1.
    10030    2    1    2    0    0  0.00000000000E+00  0.00000000000E+00 -0.49028179839E+03  0.22533575237E+04  0.21993735217E+04 0.  0.
        5    1    3    3  502    0  0.41069207428E+03  0.75772333005E+03  0.45461389591E+03  0.97442727236E+03  0.46999998093E+01 0.  1.
       -5    1    3    3    0  502 -0.41069207428E+03 -0.75772333005E+03 -0.94489569430E+03  0.12789302514E+04  0.46999998093E+01 0. -1.
</event>
<event>
 5   0  0.2581058E-06  0.2200323E+04  0.7818609E-02  0.8518294E-01
       -2   -1    0    0    0  501  0.00000000000E+00  0.00000000000E+00  0.61312394185E+03  0.61312394186E+03  0.25500000920E-02 0.  1.
        2   -1    0    0  501    0  0.00000000000E+00  0.00000000000E+00 -0.19740794897E+04  0.19740794897E+04  0.25500000920E-02 0. -1.
    10030    2    1    2    0    0  0.00000000000E+00  0.00000000000E+00 -0.13609555478E+04  0.25872034315E+04  0.22003230656E+04 0.  0.
        1    1    3    3  502    0  0.50092389959E+03 -0.95107816054E+03 -0.40501999169E+03  0.11487017082E+04  0.50400001928E-02 0. -1.
       -1    1    3    3    0  502 -0.50092389959E+03  0.95107816054E+03 -0.95593555614E+03  0.14385017234E+04  0.50400001928E-02 0.  1.
</event>
<event>
 5   0  0.2524749E-06  0.2200964E+04  0.7818609E-02  0.8518027E-01
        2   -1    0    0  501    0  0.00000000000E+00  0.00000000000E+00  0.17044288819E+04  0.17044288819E+04  0.25500000920E-02 0. -1.
       -2   -1    0    0    0  501  0.00000000000E+00  0.00000000000E+00 -0.71053752324E+03  0.71053752325E+03  0.25500000920E-02 0.  1.
    10030    2    1    2    0    0  0.00000000000E+00  0.00000000000E+00  0.99389135870E+03  0.24149664052E+04  0.22009640400E+04 0.  0.
        4    1    3    3  502    0 -0.72434061328E+03  0.13987695081E+03 -0.39904566824E+03  0.83873353555E+03  0.12699999809E+01 0.  1.
       -4    1    3    3    0  502  0.72434061328E+03 -0.13987695081E+03  0.13929370269E+04  0.15762328696E+04  0.12699999809E+01 0. -1.
</event>
<event>
 5   0  0.1144271E-06  0.2199767E+04  0.7818609E-02  0.8518525E-01
       -1   -1    0    0    0  501  0.00000000000E+00  0.00000000000E+00  0.12846236612E+04  0.12846236612E+04  0.50400001928E-02 0.  1.
        1   -1    0    0  501    0  0.00000000000E+00  0.00000000000E+00 -0.94171101352E+03  0.94171101353E+03  0.50400001928E-02 0. -1.
    10030    2    1    2    0    0  0.00000000000E+00  0.00000000000E+00  0.34291264764E+03  0.22263346747E+04  0.21997674877E+04 0.  0.
        3    1    3    3  502    0  0.58435932093E+03  0.45669897295E+03  0.99348145265E+03  0.12397802930E+04  0.10100000352E+00 0.  1.
       -3    1    3    3    0  502 -0.58435932093E+03 -0.45669897295E+03 -0.65056880501E+03  0.98655438173E+03  0.10100000352E+00 0. -1.
</event>
<event>
 5   0  0.2524749E-06  0.2200048E+04  0.7818609E-02  0.8518408E-01
       -2   -1    0    0    0  501  0.00000000000E+00  0.00000000000E+00  0.10091074661E+04  0.10091074661E+04  0.25500000920E-02 0.  1.
        2   -1    0    0  501    0  0.00000000000E+00  0.00000000000E+00 -0.11991315117E+04  0.11991315117E+04  0.25500000920E-02 0. -1.
    10030    2    1    2    0    0  0.00000000000E+00  0.00000000000E+00 -0.19002404569E+03  0.22082389778E+04  0.22000477825E+04 0.  0.
        4    1    3    3  502    0 -0.10174113484E+04 -0.36632040458E+03 -0.29759125808E+03  0.11215518983E+04  0.12699999809E+01 0. -1.
       -4    1    3    3    0  502  0.10174113484E+04  0.36632040458E+03  0.10756721239E+03  0.10866870795E+04  0.12699999809E+01 0.  1.
</event>
<event>
 5   0  0.2556869E-06  0.2199534E+04  0.7818609E-02  0.8518622E-01
        2   -1    0    0  501    0  0.00000000000E+00  0.00000000000E+00  0.33326378255E+04  0.33326378255E+04  0.25500000920E-02 0. -1.
       -2   -1    0    0    0  501  0.00000000000E+00  0.00000000000E+00 -0.36292183879E+03  0.36292183880E+03  0.25500000920E-02 0.  1.
    10030    2    1    2    0    0  0.00000000000E+00  0.00000000000E+00  0.29697159867E+04  0.36955596643E+04  0.21995336302E+04 0.  0.
        5    1    3    3  502    0  0.81693598572E+03 -0.73564436272E+03  0.14342318928E+04  0.18070971876E+04  0.46999998093E+01 0.  1.
       -5    1    3    3    0  502 -0.81693598572E+03  0.73564436272E+03  0.15354840939E+04  0.18884624767E+04  0.46999998093E+01 0. -1.
</event>
<event>
 5   0  0.2581058E-06  0.2199845E+04  0.7818609E-02  0.8518493E-01
        2   -1    0    0  501    0  0.00000000000E+00  0.00000000000E+00  0.15820366186E+04  0.15820366186E+04  0.25500000920E-02 0. -1.
       -2   -1    0    0    0  501  0.00000000000E+00  0.00000000000E+00 -0.76472886296E+03  0.76472886296E+03  0.25500000920E-02 0.  1.
    10030    2    1    2    0    0  0.00000000000E+00  0.00000000000E+00  0.81730775569E+03  0.23467654816E+04  0.21998445986E+04 0.  0.
        1    1    3    3  502    0  0.51316361896E+03 -0.62136301673E+03 -0.38994154514E+03  0.89525600084E+03  0.50400001928E-02 0.  1.
       -1    1    3    3    0  502 -0.51316361896E+03  0.62136301673E+03  0.12072493008E+04  0.14515094808E+04  0.50400001928E-02 0. -1.
</event>
<event>
 5   0  0.1146827E-06  0.2200096E+04  0.7818609E-02  0.8518388E-01
        1   -1    0    0  501    0  0.00000000000E+00  0.00000000000E+00  0.13195752951E+04  0.13195752951E+04  0.50400001928E-02 0.  1.
       -1   -1    0    0    0  501  0.00000000000E+00  0.00000000000E+00 -0.91704173871E+03  0.91704173873E+03  0.50400001928E-02 0. -1.
    10030    2    1    2    0    0  0.00000000000E+00  0.00000000000E+00  0.40253355642E+03  0.22366170339E+04  0.22000960189E+04 0.  0.
        4    1    3    3  502    0  0.33285318420E+03  0.10319163315E+04  0.38998628060E+03  0.11522731749E+04  0.12699999809E+01 0.  1.
       -4    1    3    3    0  502 -0.33285318420E+03 -0.10319163315E+04  0.12547275817E+02  0.10843438590E+04  0.12699999809E+01 0. -1.
</event>
<event>
 5   0  0.2581058E-06  0.2199443E+04  0.7818609E-02  0.8518660E-01
        2   -1    0    0  501    0  0.00000000000E+00  0.00000000000E+00  0.15728448362E+04  0.15728448362E+04  0.25500000920E-02 0.  1.
       -2   -1    0    0    0  501  0.00000000000E+00  0.00000000000E+00 -0.76891738426E+03  0.76891738426E+03  0.25500000920E-02 0. -1.
    10030    2    1    2    0    0  0.00000000000E+00  0.00000000000E+00  0.80392745189E+03  0.23417622204E+04  0.21994433271E+04 0.  0.
        1    1    3    3  502    0  0.15193700879E+03 -0.49379379375E+03 -0.63166344829E+03  0.81603668871E+03  0.50400001928E-02 0. -1.
       -1    1    3    3    0  502 -0.15193700879E+03  0.49379379375E+03  0.14355909002E+04  0.15257255317E+04  0.50400001928E-02 0.  1.
</event>
<event>
 5   0  0.1082209E-06  0.2196328E+04  0.7818609E-02  0.8519958E-01
        1   -1    0    0  501    0  0.00000000000E+00  0.00000000000E+00  0.16266361722E+04  0.16266361722E+04  0.50400001928E-02 0.  1.
       -1   -1    0    0    0  501  0.00000000000E+00  0.00000000000E+00 -0.74138516121E+03  0.74138516123E+03  0.50400001928E-02 0. -1.
    10030    2    1    2    0    0  0.00000000000E+00  0.00000000000E+00  0.88525101098E+03  0.23680213334E+04  0.21963277722E+04 0.  0.
        2    1    3    3  502    0  0.10587611362E+04  0.24704580371E+03  0.60950616829E+03  0.12463966230E+04  0.25500000920E-02 0.  1.
       -2    1    3    3    0  502 -0.10587611362E+04 -0.24704580371E+03  0.27574484268E+03  0.11216247104E+04  0.25500000920E-02 0. -1.
</event>
<event>
 5   0  0.2532239E-06  0.2200086E+04  0.7818609E-02  0.8518392E-01
       -2   -1    0    0    0  501  0.00000000000E+00  0.00000000000E+00  0.47199054032E+03  0.47199054033E+03  0.25500000920E-02 0.  1.
        2   -1    0    0  501    0  0.00000000000E+00  0.00000000000E+00 -0.25638118682E+04  0.25638118682E+04  0.25500000920E-02 0. -1.
    10030    2    1    2    0    0  0.00000000000E+00  0.00000000000E+00 -0.20918213279E+04  0.30358024085E+04  0.22000863155E+04 0.  0.
        3    1    3    3  502    0  0.41503292758E+03 -0.39512031657E+03 -0.23415966268E+04  0.24106943333E+04  0.10100000352E+00 0. -1.
       -3    1    3    3    0  502 -0.41503292758E+03  0.39512031657E+03  0.24977529897E+03  0.62510807523E+03  0.10100000352E+00 0.  1.
</event>
<event>
 5   0  0.1146827E-06  0.2199255E+04  0.7818609E-02  0.8518738E-01
        1   -1    0    0  501    0  0.00000000000E+00  0.00000000000E+00  0.16628092197E+04  0.16628092197E+04  0.50400001928E-02 0.  1.
       -1   -1    0    0    0  501  0.00000000000E+00  0.00000000000E+00 -0.72719121873E+03  0.72719121875E+03  0.50400001928E-02 0. -1.
    10030    2    1    2    0    0  0.00000000000E+00  0.00000000000E+00  0.93561800093E+03  0.23900004384E+04  0.21992546583E+04 0.  0.
        4    1    3    3  502    0  0.52447523175E+03 -0.58366193517E+03 -0.36935782897E+03  0.86727293397E+03  0.12699999809E+01 0. -1.
       -4    1    3    3    0  502 -0.52447523175E+03  0.58366193517E+03  0.13049758299E+04  0.15227275044E+04  0.12699999809E+01 0.  1.
</event>
<event>
 5   0  0.1146827E-06  0.2200174E+04  0.7818609E-02  0.8518356E-01
       -1   -1    0    0    0  501  0.00000000000E+00  0.00000000000E+00  0.89144815303E+03  0.89144815305E+03  0.50400001928E-02 0.  1.
        1   -1    0    0  501    0  0.00000000000E+00  0.00000000000E+00 -0.13575562604E+04  0.13575562604E+04  0.50400001928E-02 0. -1.
    10030    2    1    2    0    0  0.00000000000E+00  0.00000000000E+00 -0.46610810740E+03  0.22490044135E+04  0.22001736486E+04 0.  0.
        4    1    3    3  502    0  0.49702956749E+03  0.45603158014E+03 -0.11213555135E+04  0.13086034516E+04  0.12699999809E+01 0. -1.
       -4    1    3    3    0  502 -0.49702956749E+03 -0.45603158014E+03  0.65524740608E+03  0.94040096189E+03  0.12699999809E+01 0.  1.
</event>
<event>
 5   0  0.2581058E-06  0.2199882E+04  0.7818609E-02  0.8518477E-01
       -2   -1    0    0    0  501  0.00000000000E+00  0.00000000000E+00  0.83434185496E+03  0.83434185496E+03  0.25500000920E-02 0. -1.
        2   -1    0    0  501    0  0.00000000000E+00  0.00000000000E+00 -0.14500889963E+04  0.14500889963E+04  0.25500000920E-02 0.  1.
    10030    2    1    2    0    0  0.00000000000E+00  0.00000000000E+00 -0.61574714133E+03  0.22844308512E+04  0.21998817632E+04 0.  0.
        1    1    3    3  502    0  0.88586004007E+03  0.92910747029E+02 -0.97803699106E+03  0.13228517579E+04  0.50400001928E-02 0.  1.
       -1    1    3    3    0  502 -0.88586004007E+03 -0.92910747029E+02  0.36228984973E+03  0.96157909334E+03  0.50400001928E-02 0. -1.
</event>
<event>
 5   0  0.2524749E-06  0.2197998E+04  0.7818609E-02  0.8519262E-01
        2   -1    0    0  501    0  0.00000000000E+00  0.00000000000E+00  0.87808296910E+03  0.87808296911E+03  0.25500000920E-02 0.  1.
       -2   -1    0    0    0  501  0.00000000000E+00  0.00000000000E+00 -0.13754955631E+04  0.13754955631E+04  0.25500000920E-02 0. -1.
    10030    2    1    2    0    0  0.00000000000E+00  0.00000000000E+00 -0.49741259400E+03  0.22535785322E+04  0.21979983877E+04 0.  0.
        4    1    3    3  502    0  0.92471926371E+03 -0.25154955408E+02  0.35964316880E+03  0.99251363226E+03  0.12699999809E+01 0.  1.
       -4    1    3    3    0  502 -0.92471926371E+03  0.25154955408E+02 -0.85705576280E+03  0.12610649000E+04  0.12699999809E+01 0. -1.
</event>
<event>
 5   0  0.1137869E-06  0.2200734E+04  0.7818609E-02  0.8518123E-01
       -1   -1    0    0    0  501  0.00000000000E+00  0.00000000000E+00  0.11317911570E+04  0.11317911570E+04  0.50400001928E-02 0.  1.
        1   -1    0    0  501    0  0.00000000000E+00  0.00000000000E+00 -0.10698153418E+04  0.10698153418E+04  0.50400001928E-02 0. -1.
    10030    2    1    2    0    0  0.00000000000E+00  0.00000000000E+00  0.61975815262E+02  0.22016064988E+04  0.22007340080E+04 0.  0.
        5    1    3    3  502    0 -0.64627004474E+03  0.32218677262E+03 -0.79959191369E+03  0.10774222040E+04  0.46999998093E+01 0. -1.
       -5    1    3    3    0  502  0.64627004474E+03 -0.32218677262E+03  0.86156772895E+03  0.11241842948E+04  0.46999998093E+01 0.  1.
</event>
<event>
 5   0  0.2581058E-06  0.2198750E+04  0.7818609E-02  0.8518949E-01
        2   -1    0    0  501    0  0.00000000000E+00  0.00000000000E+00  0.21859429739E+04  0.21859429739E+04  0.25500000920E-02 0. -1.
       -2   -1    0    0    0  501  0.00000000000E+00  0.00000000000E+00 -0.55290794865E+03  0.55290794866E+03  0.25500000920E-02 0.  1.
    10030    2    1    2    0    0  0.00000000000E+00  0.00000000000E+00  0.16330350252E+04  0.27388509226E+04  0.21987498681E+04 0.  0.
        1    1    3    3  502    0 -0.39694791637E+03 -0.32688229790E+03 -0.39387392951E+03  0.64773170168E+03  0.50400001928E-02 0.  1.
       -1    1    3    3    0  502  0.39694791637E+03  0.32688229790E+03  0.20269089548E+04  0.20911192209E+04  0.50400001928E-02 0. -1.
</event>
<event>
 5   0  0.2532239E-06  0.2200315E+04  0.7818609E-02  0.8518297E-01
        2   -1    0    0  501    0  0.00000000000E+00  0.00000000000E+00  0.19294680380E+04  0.19294680380E+04  0.25500000920E-02 0. -1.
       -2   -1    0    0    0  501  0.00000000000E+00  0.00000000000E+00 -0.62729535034E+03  0.62729535034E+03  0.25500000920E-02 0.  1.
    10030    2    1    2    0    0  0.00000000000E+00  0.00000000000E+00  0.13021726876E+04  0.25567633883E+04  0.22003148219E+04 0.  0.
        3    1    3    3  502    0 -0.35327352224E+03  0.21661297770E+03 -0.53313987714E+03  0.67524921504E+03  0.10100000352E+00 0.  1.
       -3    1    3    3    0  502  0.35327352224E+03 -0.21661297770E+03  0.18353125648E+04  0.18815141733E+04  0.10100000352E+00 0. -1.
</event>
<event>
 5   0  0.1107101E-06  0.2199619E+04  0.7818609E-02  0.8518587E-01
        1   -1    0    0  501    0  0.00000000000E+00  0.00000000000E+00  0.20325376184E+04  0.20325376184E+04  0.50400001928E-02 0.  1.
       -1   -1    0    0    0  501  0.00000000000E+00  0.00000000000E+00 -0.59510860239E+03  0.59510860242E+03  0.50400001928E-02 0. -1.
    10030    2    1    2    0    0  0.00000000000E+00  0.00000000000E+00  0.14374290160E+04  0.26276462208E+04  0.21996187137E+04 0.  0.
        1    1    3    3  502    0  0.97326059585E+03  0.49406481394E+03  0.55735884833E+03  0.12255550227E+04  0.50400001928E-02 0. -1.
       -1    1    3    3    0  502 -0.97326059585E+03 -0.49406481394E+03  0.88007016766E+03  0.14020911981E+04  0.50400001928E-02 0.  1.
</event>
<event>
 5   0  0.1107101E-06  0.2217152E+04  0.7818609E-02  0.8511323E-01
        1   -1    0    0  501    0  0.00000000000E+00  0.00000000000E+00  0.21567066226E+04  0.21567066226E+04  0.50400001928E-02 0.  1.
       -1   -1    0    0    0  501  0.00000000000E+00  0.00000000000E+00 -0.56982304791E+03  0.56982304793E+03  0.50400001928E-02 0. -1.
    10030    2    1    2    0    0  0.00000000000E+00  0.00000000000E+00  0.15868835747E+04  0.27265296705E+04  0.22171523549E+04 0.  0.
        1    1    3    3  502    0 -0.90435768781E+03  0.10329408576E+03  0.15286247153E+02  0.91036595116E+03  0.50400001928E-02 0. -1.
       -1    1    3    3    0  502  0.90435768781E+03 -0.10329408576E+03  0.15715973275E+04  0.18161637194E+04  0.50400001928E-02 0.  1.
</event>
<event>
 5   0  0.1144271E-06  0.2208733E+04  0.7818609E-02  0.8514802E-01
       -1   -1    0    0    0  501  0.00000000000E+00  0.00000000000E+00  0.65432911199E+03  0.65432911201E+03  0.50400001928E-02 0.  1.
        1   -1    0    0  501    0  0.00000000000E+00  0.00000000000E+00 -0.18639333734E+04  0.18639333734E+04  0.50400001928E-02 0. -1.
    10030    2    1    2    0    0  0.00000000000E+00  0.00000000000E+00 -0.12096042614E+04  0.25182624854E+04  0.22087334552E+04 0.  0.
        3    1    3    3  502    0  0.92833052776E+03 -0.58973847023E+03 -0.71902574578E+03  0.13139966002E+04  0.10100000352E+00 0.  1.
       -3    1    3    3    0  502 -0.92833052776E+03  0.58973847023E+03 -0.49057851559E+03  0.12042658852E+04  0.10100000352E+00 0. -1.
</event>
<event>
 5   0  0.1137869E-06  0.2194617E+04  0.7818609E-02  0.8520672E-01
       -1   -1    0    0    0  501  0.00000000000E+00  0.00000000000E+00  0.12935532642E+04  0.12935532642E+04  0.50400001928E-02 0. -1.
        1   -1    0    0  501    0  0.00000000000E+00  0.00000000000E+00 -0.93083632306E+03  0.93083632307E+03  0.50400001928E-02 0.  1.
    10030    2    1    2    0    0  0.00000000000E+00  0.00000000000E+00  0.36271694110E+03  0.22243895872E+04  0.21946173827E+04 0.  0.
        5    1    3    3  502    0 -0.37807631387E+03 -0.29613220978E+02 -0.86229250798E+03  0.94201332331E+03  0.46999998093E+01 0.  1.
       -5    1    3    3    0  502  0.37807631387E+03  0.29613220978E+02  0.12250094491E+04  0.12823762639E+04  0.46999998093E+01 0. -1.
</event>
<event>
 5   0  0.1144271E-06  0.2200319E+04  0.7818609E-02  0.8518295E-01
       -1   -1    0    0    0  501  0.00000000000E+00  0.00000000000E+00  0.11836403712E+04  0.11836403712E+04  0.50400001928E-02 0.  1.
        1   -1    0    0  501    0  0.00000000000E+00  0.00000000000E+00 -0.10225666275E+04  0.10225666275E+04  0.50400001928E-02 0. -1.
    10030    2    1    2    0    0  0.00000000000E+00  0.00000000000E+00  0.16107374368E+03  0.22062069988E+04  0.22003191974E+04 0.  0.
        3    1    3    3  502    0 -0.44348769045E+03 -0.14342987689E+03 -0.91867262207E+03  0.10301518616E+04  0.10100000352E+00 0. -1.
       -3    1    3    3    0  502  0.44348769045E+03  0.14342987689E+03  0.10797463657E+04  0.11760551372E+04  0.10100000352E+00 0.  1.
</event>
<event>
 5   0  0.2524749E-06  0.2192661E+04  0.7818609E-02  0.8521489E-01
       -2   -1    0    0    0  501  0.00000000000E+00  0.00000000000E+00  0.12925097930E+04  0.12925097930E+04  0.25500000920E-02 0.  1.
        2   -1    0    0  501    0  0.00000000000E+00  0.00000000000E+00 -0.92992753978E+03  0.92992753978E+03  0.25500000920E-02 0. -1.
    10030    2    1    2    0    0  0.00000000000E+00  0.00000000000E+00  0.36258225321E+03  0.22224373328E+04  0.21926608967E+04 0.  0.
        4    1    3    3  502    0 -0.41983808596E+03  0.20157799093E+03  0.11872616039E+04  0.12753389486E+04  0.12699999809E+01 0.  1.
       -4    1    3    3    0  502  0.41983808596E+03 -0.20157799093E+03 -0.82467935072E+03  0.94709838414E+03  0.12699999809E+01 0. -1.
</event>
<event>
 5   0  0.2581058E-06  0.2200190E+04  0.7818609E-02  0.8518349E-01
        2   -1    0    0  501    0  0.00000000000E+00  0.00000000000E+00  0.15183993318E+04  0.15183993318E+04  0.25500000920E-02 0. -1.
       -2   -1    0    0    0  501  0.00000000000E+00  0.00000000000E+00 -0.79702971594E+03  0.79702971594E+03  0.25500000920E-02 0.  1.
    10030    2    1    2    0    0  0.00000000000E+00  0.00000000000E+00  0.72136961591E+03  0.23154290478E+04  0.22001903446E+04 0.  0.
        1    1    3    3  502    0 -0.77580383535E+03 -0.60740438575E+02  0.11790038846E+04  0.14126610180E+04  0.50400001928E-02 0. -1.
       -1    1    3    3    0  502  0.77580383535E+03  0.60740438575E+02 -0.45763426865E+03  0.90276802984E+03  0.50400001928E-02 0.  1.
</event>
<event>
 5   0  0.1082209E-06  0.2200217E+04  0.7818609E-02  0.8518338E-01
       -1   -1    0    0    0  501  0.00000000000E+00  0.00000000000E+00  0.86384254934E+03  0.86384254936E+03  0.50400001928E-02 0.  1.
        1   -1    0    0  501    0  0.00000000000E+00  0.00000000000E+00 -0.14009944286E+04  0.14009944286E+04  0.50400001928E-02 0. -1.
    10030    2    1    2    0    0  0.00000000000E+00  0.00000000000E+00 -0.53715187923E+03  0.22648369779E+04  0.22002168973E+04 0.  0.
        2    1    3    3  502    0 -0.68789550890E+03  0.66922378106E+03 -0.82212230068E+03  0.12637032000E+04  0.25500000920E-02 0. -1.
       -2    1    3    3    0  502  0.68789550890E+03 -0.66922378106E+03  0.28497042145E+03  0.10011337780E+04  0.25500000920E-02 0.  1.
</event>
<event>
 5   0  0.2556869E-06  0.2200298E+04  0.7818609E-02  0.8518304E-01
       -2   -1    0    0    0  501  0.00000000000E+00  0.00000000000E+00  0.89474832769E+03  0.89474832769E+03  0.25500000920E-02 0.  1.
        2   -1    0    0  501    0  0.00000000000E+00  0.00000000000E+00 -0.13527022950E+04  0.13527022950E+04  0.25500000920E-02 0. -1.
    10030    2    1    2    0    0  0.00000000000E+00  0.00000000000E+00 -0.45795396728E+03  0.22474506227E+04  0.22002982673E+04 0.  0.
        5    1    3    3  502    0  0.65520638256E+03 -0.86117534275E+03 -0.26260695277E+02  0.10824186292E+04  0.46999998093E+01 0.  1.
       -5    1    3    3    0  502 -0.65520638256E+03  0.86117534275E+03 -0.43169327200E+03  0.11650319935E+04  0.46999998093E+01 0. -1.
</event>
<event>
 5   0  0.1082209E-06  0.2198241E+04  0.7818609E-02  0.8519160E-01
       -1   -1    0    0    0  501  0.00000000000E+00  0.00000000000E+00  0.12270334864E+04  0.12270334864E+04  0.50400001928E-02 0. -1.
        1   -1    0    0  501    0  0.00000000000E+00  0.00000000000E+00 -0.98454220967E+03  0.98454220969E+03  0.50400001928E-02 0.  1.
    10030    2    1    2    0    0  0.00000000000E+00  0.00000000000E+00  0.24249127668E+03  0.22115756961E+04  0.21982413517E+04 0.  0.
        2    1    3    3  502    0  0.32192333254E+03  0.10471084459E+04  0.21120576932E+03  0.11156516510E+04  0.25500000920E-02 0. -1.
       -2    1    3    3    0  502 -0.32192333254E+03 -0.10471084459E+04  0.31285507364E+02  0.10959240450E+04  0.25500000920E-02 0.  1.
</event>
<event>
 5   0  0.2606154E-06  0.2200905E+04  0.7818609E-02  0.8518051E-01
       -2   -1    0    0    0  501  0.00000000000E+00  0.00000000000E+00  0.82060495530E+03  0.82060495531E+03  0.25500000920E-02 0. -1.
        2   -1    0    0  501    0  0.00000000000E+00  0.00000000000E+00 -0.14757355503E+04  0.14757355503E+04  0.25500000920E-02 0.  1.
    10030    2    1    2    0    0  0.00000000000E+00  0.00000000000E+00 -0.65513059500E+03  0.22963405056E+04  0.22009051822E+04 0.  0.
        2    1    3    3  502    0  0.10794125800E+04 -0.10007500922E+03 -0.13001586866E+03  0.10918107214E+04  0.25500000920E-02 0. -1.
       -2    1    3    3    0  502 -0.10794125800E+04  0.10007500922E+03 -0.52511472633E+03  0.12045297842E+04  0.25500000920E-02 0.  1.
</event>
<event>
 5   0  0.2532239E-06  0.2196729E+04  0.7818609E-02  0.8519791E-01
        2   -1    0    0  501    0  0.00000000000E+00  0.00000000000E+00  0.23713680310E+04  0.23713680310E+04  0.25500000920E-02 0. -1.
       -2   -1    0    0    0  501  0.00000000000E+00  0.00000000000E+00 -0.50873784455E+03  0.50873784456E+03  0.25500000920E-02 0.  1.
    10030    2    1    2    0    0  0.00000000000E+00  0.00000000000E+00  0.18626301864E+04  0.28801058755E+04  0.21967290782E+04 0.  0.
        3    1    3    3  502    0 -0.89631248438E+03 -0.27797594700E+03  0.18300867793E+03  0.95610610455E+03  0.10100000352E+00 0.  1.
       -3    1    3    3    0  502  0.89631248438E+03  0.27797594700E+03  0.16796215085E+04  0.19239997710E+04  0.10100000352E+00 0. -1.
</event>
<event>
 5   0  0.8905000E-07  0.2199594E+04  0.7818609E-02  0.8518597E-01
        3   -1    0    0  501    0  0.00000000000E+00  0.00000000000E+00  0.15961869601E+04  0.15961869633E+04  0.10100000352E+00 0. -1.
       -3   -1    0    0    0  501  0.00000000000E+00  0.00000000000E+00 -0.75777698343E+03  0.75777699016E+03  0.10100000352E+00 0.  1.
    10030    2    1    2    0    0  0.00000000000E+00  0.00000000000E+00  0.83840997669E+03  0.23539639535E+04  0.21995942820E+04 0.  0.
        5    1    3    3  502    0 -0.10611097003E+04 -0.43992798951E+02  0.11342055645E+03  0.10680709129E+04  0.46999998093E+01 0. -1.
       -5    1    3    3    0  502  0.10611097003E+04  0.43992798951E+02  0.72498942024E+03  0.12858930406E+04  0.46999998093E+01 0.  1.
</event>
<event>
 5   0  0.2581058E-06  0.2198824E+04  0.7818609E-02  0.8518918E-01
        2   -1    0    0  501    0  0.00000000000E+00  0.00000000000E+00  0.15410592802E+04  0.15410592802E+04  0.25500000920E-02 0.  1.
       -2   -1    0    0    0  501  0.00000000000E+00  0.00000000000E+00 -0.78433468394E+03  0.78433468394E+03  0.25500000920E-02 0. -1.
    10030    2    1    2    0    0  0.00000000000E+00  0.00000000000E+00  0.75672459629E+03  0.23253939642E+04  0.21988235432E+04 0.  0.
        1    1    3    3  502    0  0.90514708988E+03 -0.27443529384E+02  0.10376760203E+04  0.13772494054E+04  0.50400001928E-02 0.  1.
       -1    1    3    3    0  502 -0.90514708988E+03  0.27443529384E+02 -0.28095142398E+03  0.94814455875E+03  0.50400001928E-02 0. -1.
</event>
<event>
 5   0  0.2524749E-06  0.2216471E+04  0.7818609E-02  0.8511604E-01
        2   -1    0    0  501    0  0.00000000000E+00  0.00000000000E+00  0.18980322153E+04  0.18980322153E+04  0.25500000920E-02 0. -1.
       -2   -1    0    0    0  501  0.00000000000E+00  0.00000000000E+00 -0.64708374055E+03  0.64708374055E+03  0.25500000920E-02 0.  1.
    10030    2    1    2    0    0  0.00000000000E+00  0.00000000000E+00  0.12509484748E+04  0.25451159559E+04  0.22164708756E+04 0.  0.
        4    1    3    3  502    0 -0.98687183572E+03 -0.50189029377E+03  0.68142577447E+03  0.13000586856E+04  0.12699999809E+01 0. -1.
       -4    1    3    3    0  502  0.98687183572E+03  0.50189029377E+03  0.56952270032E+03  0.12450572702E+04  0.12699999809E+01 0.  1.
</event>
<event>
 5   0  0.1137869E-06  0.2200294E+04  0.7818609E-02  0.8518306E-01
        1   -1    0    0  501    0  0.00000000000E+00  0.00000000000E+00  0.64581337092E+03  0.64581337094E+03  0.50400001928E-02 0. -1.
       -1   -1    0    0    0  501  0.00000000000E+00  0.00000000000E+00 -0.18741077428E+04  0.18741077429E+04  0.50400001928E-02 0.  1.
    10030    2    1    2    0    0  0.00000000000E+00  0.00000000000E+00 -0.12282943719E+04  0.25199211138E+04  0.22002943793E+04 0.  0.
        5    1    3    3  502    0 -0.43821861452E+03 -0.74388247563E+03 -0.13950343629E+04  0.16405912518E+04  0.46999998093E+01 0.  1.
       -5    1    3    3    0  502  0.43821861452E+03  0.74388247563E+03  0.16673999097E+03  0.87932986203E+03  0.46999998093E+01 0. -1.
</event>
<event>
 5   0  0.1146827E-06  0.2200548E+04  0.7818609E-02  0.8518200E-01
        1   -1    0    0  501    0  0.00000000000E+00  0.00000000000E+00  0.94730693035E+03  0.94730693036E+03  0.50400001928E-02 0. -1.
       -1   -1    0    0    0  501  0.00000000000E+00  0.00000000000E+00 -0.12779415276E+04  0.12779415276E+04  0.50400001928E-02 0.  1.
    10030    2    1    2    0    0  0.00000000000E+00  0.00000000000E+00 -0.33063459723E+03  0.22252484579E+04  0.22005479915E+04 0.  0.
        4    1    3    3  502    0  0.56880302670E+01  0.11615336198E+03 -0.12717086218E+04  0.12770154223E+04  0.12699999809E+01 0.  1.
       -4    1    3    3    0  502 -0.56880302670E+01 -0.11615336198E+03  0.94107402458E+03  0.94823303561E+03  0.12699999809E+01 0. -1.
</event>
<event>
 5   0  0.1137869E-06  0.2199779E+04  0.7818609E-02  0.8518520E-01
        1   -1    0    0  501    0  0.00000000000E+00  0.00000000000E+00  0.29857732152E+04  0.29857732152E+04  0.50400001928E-02 0. -1.
       -1   -1    0    0    0  501  0.00000000000E+00  0.00000000000E+00 -0.40517358149E+03  0.40517358152E+03  0.50400001928E-02 0.  1.
    10030    2    1    2    0    0  0.00000000000E+00  0.00000000000E+00  0.25805996337E+04  0.33909467968E+04  0.21997785590E+04 0.  0.
        5    1    3    3  502    0 -0.67081161912E+01  0.71679114787E+03  0.25762239991E+04  0.26740954979E+04  0.46999998093E+01 0. -1.
       -5    1    3    3    0  502  0.67081161912E+01 -0.71679114787E+03  0.43756346543E+01  0.71685129885E+03  0.46999998093E+01 0.  1.
</event>
<event>
 5   0  0.2532239E-06  0.2201562E+04  0.7818609E-02  0.8517778E-01
       -2   -1    0    0    0  501  0.00000000000E+00  0.00000000000E+00  0.82088936073E+03  0.82088936074E+03  0.25500000920E-02 0.  1.
        2   -1    0    0  501    0  0.00000000000E+00  0.00000000000E+00 -0.14761053730E+04  0.14761053730E+04  0.25500000920E-02 0. -1.
    10030    2    1    2    0    0  0.00000000000E+00  0.00000000000E+00 -0.65521601227E+03  0.22969947337E+04  0.22015623507E+04 0.  0.
        3    1    3    3  502    0  0.10281286021E+04 -0.38348955604E+03 -0.41860396914E+03  0.11744538966E+04  0.10100000352E+00 0. -1.
       -3    1    3    3    0  502 -0.10281286021E+04  0.38348955604E+03 -0.23661204313E+03  0.11225408372E+04  0.10100000352E+00 0.  1.
</event>
<event>
 5   0  0.2606154E-06  0.2199993E+04  0.7818609E-02  0.8518431E-01
        2   -1    0    0  501    0  0.00000000000E+00  0.00000000000E+00  0.14886469704E+04  0.14886469704E+04  0.25500000920E-02 0. -1.
       -2   -1    0    0    0  501  0.00000000000E+00  0.00000000000E+00 -0.81281315084E+03  0.81281315084E+03  0.25500000920E-02 0.  1.
    10030    2    1    2    0    0  0.00000000000E+00  0.00000000000E+00  0.67583381961E+03  0.23014601213E+04  0.21999925768E+04 0.  0.
        2    1    3    3  502    0 -0.98950438721E+03  0.46457751072E+03  0.20962024140E+03  0.11130551834E+04  0.25500000920E-02 0. -1.
       -2    1    3    3    0  502  0.98950438721E+03 -0.46457751072E+03  0.46621357821E+03  0.11884049378E+04  0.25500000920E-02 0.  1.
</event>
<event>
 5   0  0.2556869E-06  0.2200261E+04  0.7818609E-02  0.8518319E-01
       -2   -1    0    0    0  501  0.00000000000E+00  0.00000000000E+00  0.53828539390E+03  0.53828539391E+03  0.25500000920E-02 0.  1.
        2   -1    0    0  501    0  0.00000000000E+00  0.00000000000E+00 -0.22484123311E+04  0.22484123311E+04  0.25500000920E-02 0. -1.
    10030    2    1    2    0    0  0.00000000000E+00  0.00000000000E+00 -0.17101269372E+04  0.27866977250E+04  0.22002613638E+04 0.  0.
        5    1    3    3  502    0  0.29329845197E+03 -0.64436155943E+03 -0.19215388730E+04  0.20478182370E+04  0.46999998093E+01 0. -1.
       -5    1    3    3    0  502 -0.29329845197E+03  0.64436155943E+03  0.21141193583E+03  0.73887948801E+03  0.46999998093E+01 0.  1.
</event>
<event>
 5   0  0.1146827E-06  0.2200845E+04  0.7818609E-02  0.8518076E-01
       -1   -1    0    0    0  501  0.00000000000E+00  0.00000000000E+00  0.69474189012E+03  0.69474189014E+03  0.50400001928E-02 0.  1.
        1   -1    0    0  501    0  0.00000000000E+00  0.00000000000E+00 -0.17429928329E+04  0.17429928329E+04  0.50400001928E-02 0. -1.
    10030    2    1    2    0    0  0.00000000000E+00  0.00000000000E+00 -0.10482509428E+04  0.24377347231E+04  0.22008454151E+04 0.  0.
        4    1    3    3  502    0  0.10262298901E+04 -0.38526416018E+03 -0.63124169060E+03  0.12649284348E+04  0.12699999809E+01 0. -1.
       -4    1    3    3    0  502 -0.10262298901E+04  0.38526416018E+03 -0.41700925220E+03  0.11728062882E+04  0.12699999809E+01 0.  1.
</event>
<event>
 5   0  0.1107101E-06  0.2199553E+04  0.7818609E-02  0.8518614E-01
        1   -1    0    0  501    0  0.00000000000E+00  0.00000000000E+00  0.19367859824E+04  0.19367859824E+04  0.50400001928E-02 0. -1.
       -1   -1    0    0    0  501  0.00000000000E+00  0.00000000000E+00 -0.62449229892E+03  0.62449229894E+03  0.50400001928E-02 0.  1.
    10030    2    1    2    0    0  0.00000000000E+00  0.00000000000E+00  0.13122936835E+04  0.25612782814E+04  0.21995526188E+04 0.  0.
        1    1    3    3  502    0 -0.96713647651E+02 -0.71004450974E+03 -0.31531172803E+03  0.78290371140E+03  0.50400001928E-02 0.  1.
       -1    1    3    3    0  502  0.96713647651E+02  0.71004450974E+03  0.16276054115E+04  0.17783745700E+04  0.50400001928E-02 0. -1.
</event>
<event>
 5   0  0.2606154E-06  0.2188011E+04  0.7818609E-02  0.8523435E-01
       -2   -1    0    0    0  501  0.00000000000E+00  0.00000000000E+00  0.17127881055E+04  0.17127881055E+04  0.25500000920E-02 0.  1.
        2   -1    0    0  501    0  0.00000000000E+00  0.00000000000E+00 -0.69877199474E+03  0.69877199474E+03  0.25500000920E-02 0. -1.
    10030    2    1    2    0    0  0.00000000000E+00  0.00000000000E+00  0.10140161107E+04  0.24115601002E+04  0.21880112989E+04 0.  0.
        2    1    3    3  502    0  0.36409171452E+03 -0.10191638577E+04  0.68332290709E+03  0.12799171617E+04  0.25500000920E-02 0.  1.
       -2    1    3    3    0  502 -0.36409171452E+03  0.10191638577E+04  0.33069320365E+03  0.11316429385E+04  0.25500000920E-02 0. -1.
</event>
<event>
 5   0  0.8905000E-07  0.2201764E+04  0.7818609E-02  0.8517694E-01
        3   -1    0    0  501    0  0.00000000000E+00  0.00000000000E+00  0.20273857606E+04  0.20273857631E+04  0.10100000352E+00 0. -1.
       -3   -1    0    0    0  501  0.00000000000E+00  0.00000000000E+00 -0.59778543012E+03  0.59778543865E+03  0.10100000352E+00 0.  1.
    10030    2    1    2    0    0  0.00000000000E+00  0.00000000000E+00  0.14296003305E+04  0.26251712018E+04  0.22017644592E+04 0.  0.
        3    1    3    3  502    0  0.26743467614E+03  0.98289605195E+03  0.21697142880E+03  0.10414809485E+04  0.10100000352E+00 0. -1.
       -3    1    3    3    0  502 -0.26743467614E+03 -0.98289605195E+03  0.12126289017E+04  0.15836902533E+04  0.10100000352E+00 0.  1.
</event>
<event>
 5   0  0.1146827E-06  0.2201236E+04  0.7818609E-02  0.8517914E-01
        1   -1    0    0  501    0  0.00000000000E+00  0.00000000000E+00  0.14398873260E+04  0.14398873260E+04  0.50400001928E-02 0. -1.
       -1   -1    0    0    0  501  0.00000000000E+00  0.00000000000E+00 -0.84128774434E+03  0.84128774436E+03  0.50400001928E-02 0.  1.
    10030    2    1    2    0    0  0.00000000000E+00  0.00000000000E+00  0.59859958164E+03  0.22811750704E+04  0.22012356172E+04 0.  0.
        4    1    3    3  502    0 -0.72599570826E+03  0.15112723013E+02 -0.55781524795E+03  0.91567331869E+03  0.12699999809E+01 0.  1.
       -4    1    3    3    0  502  0.72599570826E+03 -0.15112723013E+02  0.11564148296E+04  0.13655017517E+04  0.12699999809E+01 0. -1.
</event>
<event>
 5   0  0.2524749E-06  0.2199708E+04  0.7818609E-02  0.8518549E-01
       -2   -1    0    0    0  501  0.00000000000E+00  0.00000000000E+00  0.11366192445E+04  0.11366192446E+04  0.25500000920E-02 0.  1.
        2   -1    0    0  501    0  0.00000000000E+00  0.00000000000E+00 -0.10642784517E+04  0.10642784517E+04  0.25500000920E-02 0. -1.
    10030    2    1    2    0    0  0.00000000000E+00  0.00000000000E+00  0.72340792863E+02  0.22008976962E+04  0.21997084986E+04 0.  0.
        4    1    3    3  502    0  0.10352020139E+04  0.13058424728E+03 -0.31184274553E+03  0.10890100854E+04  0.12699999809E+01 0. -1.
       -4    1    3    3    0  502 -0.10352020139E+04 -0.13058424728E+03  0.38418353839E+03  0.11118876109E+04  0.12699999809E+01 0.  1.
</event>
<event>
 5   0  0.1137869E-06  0.2199217E+04  0.7818609E-02  0.8518754E-01
       -1   -1    0    0    0  501  0.00000000000E+00  0.00000000000E+00  0.58189206983E+03  0.58189206985E+03  0.50400001928E-02 0. -1.
        1   -1    0    0  501    0  0.00000000000E+00  0.00000000000E+00 -0.20779436661E+04  0.20779436661E+04  0.50400001928E-02 0.  1.
    10030    2    1    2    0    0  0.00000000000E+00  0.00000000000E+00 -0.14960515962E+04  0.26598357359E+04  0.21992170797E+04 0.  0.
        5    1    3    3  502    0  0.58825493118E+03 -0.92713592578E+03 -0.67655617879E+03  0.12897190554E+04  0.46999998093E+01 0.  1.
       -5    1    3    3    0  502 -0.58825493118E+03  0.92713592578E+03 -0.81949541746E+03  0.13701166805E+04  0.46999998093E+01 0. -1.
</event>
<event>
 5   0  0.2556869E-06  0.2196731E+04  0.7818609E-02  0.8519790E-01
        2   -1    0    0  501    0  0.00000000000E+00  0.00000000000E+00  0.13961797233E+04  0.13961797233E+04  0.25500000920E-02 0. -1.
       -2   -1    0    0    0  501  0.00000000000E+00  0.00000000000E+00 -0.86407671709E+03  0.86407671709E+03  0.25500000920E-02 0.  1.
    10030    2    1    2    0    0  0.00000000000E+00  0.00000000000E+00  0.53210300618E+03  0.22602564404E+04  0.21967306542E+04 0.  0.
        5    1    3    3  502    0 -0.64092113458E+02  0.59257305893E+03  0.12152997226E+04  0.13535974789E+04  0.46999998093E+01 0. -1.
       -5    1    3    3    0  502  0.64092113458E+02 -0.59257305893E+03 -0.68319671638E+03  0.90665896149E+03  0.46999998093E+01 0.  1.
</event>
<event>
 5   0  0.2581058E-06  0.2199524E+04  0.7818609E-02  0.8518626E-01
       -2   -1    0    0    0  501  0.00000000000E+00  0.00000000000E+00  0.16008553227E+04  0.16008553227E+04  0.25500000920E-02 0. -1.
        2   -1    0    0  501    0  0.00000000000E+00  0.00000000000E+00 -0.75551916295E+03  0.75551916296E+03  0.25500000920E-02 0.  1.
    10030    2    1    2    0    0  0.00000000000E+00  0.00000000000E+00  0.84533615977E+03  0.23563744857E+04  0.21995243790E+04 0.  0.
        1    1    3    3  502    0  0.59448066194E+03  0.37392089215E+03  0.13293369249E+04  0.15034496170E+04  0.50400001928E-02 0. -1.
       -1    1    3    3    0  502 -0.59448066194E+03 -0.37392089215E+03 -0.48400076509E+03  0.85292486869E+03  0.50400001928E-02 0.  1.
</event>
<event>
 5   0  0.1144271E-06  0.2199732E+04  0.7818609E-02  0.8518540E-01
        1   -1    0    0  501    0  0.00000000000E+00  0.00000000000E+00  0.18925639476E+04  0.18925639476E+04  0.50400001928E-02 0.  1.
       -1   -1    0    0    0  501  0.00000000000E+00  0.00000000000E+00 -0.63918874051E+03  0.63918874053E+03  0.50400001928E-02 0. -1.
    10030    2    1    2    0    0  0.00000000000E+00  0.00000000000E+00  0.12533752071E+04  0.25317526882E+04  0.21997323165E+04 0.  0.
        3    1    3    3  502    0 -0.97966412930E+03  0.38866829043E+03  0.26473546370E+03  0.10866874998E+04  0.10100000352E+00 0. -1.
       -3    1    3    3    0  502  0.97966412930E+03 -0.38866829043E+03  0.98863974343E+03  0.14450651884E+04  0.10100000352E+00 0.  1.
</event>
<event>
 5   0  0.1146827E-06  0.2203693E+04  0.7818609E-02  0.8516893E-01
       -1   -1    0    0    0  501  0.00000000000E+00  0.00000000000E+00  0.15704932725E+04  0.15704932725E+04  0.50400001928E-02 0.  1.
        1   -1    0    0  501    0  0.00000000000E+00  0.00000000000E+00 -0.77304749981E+03  0.77304749983E+03  0.50400001928E-02 0. -1.
    10030    2    1    2    0    0  0.00000000000E+00  0.00000000000E+00  0.79744577273E+03  0.23435407724E+04  0.22036931709E+04 0.  0.
        4    1    3    3  502    0 -0.68951347414E+03  0.27526168835E+03 -0.46711066189E+03  0.87714982269E+03  0.12699999809E+01 0. -1.
       -4    1    3    3    0  502  0.68951347414E+03 -0.27526168835E+03  0.12645564346E+04  0.14663909497E+04  0.12699999809E+01 0.  1.
</event>
<event>
 5   0  0.1146827E-06  0.2200874E+04  0.7818609E-02  0.8518064E-01
       -1   -1    0    0    0  501  0.00000000000E+00  0.00000000000E+00  0.56994864891E+03  0.56994864894E+03  0.50400001928E-02 0. -1.
        1   -1    0    0  501    0  0.00000000000E+00  0.00000000000E+00 -0.21246854504E+04  0.21246854504E+04  0.50400001928E-02 0.  1.
    10030    2    1    2    0    0  0.00000000000E+00  0.00000000000E+00 -0.15547368015E+04  0.26946340993E+04  0.22008740099E+04 0.  0.
        4    1    3    3  502    0  0.71337947814E+03  0.63916580973E+03 -0.11405146739E+03  0.96459969016E+03  0.12699999809E+01 0. -1.
       -4    1    3    3    0  502 -0.71337947814E+03 -0.63916580973E+03 -0.14406853341E+04  0.17300344091E+04  0.12699999809E+01 0.  1.
</event>
<event>
 5   0  0.1146827E-06  0.2197356E+04  0.7818609E-02  0.8519529E-01
       -1   -1    0    0    0  501  0.00000000000E+00  0.00000000000E+00  0.77142110609E+03  0.77142110611E+03  0.50400001928E-02 0. -1.
        1   -1    0    0  501    0  0.00000000000E+00  0.00000000000E+00 -0.15647661360E+04  0.15647661360E+04  0.50400001928E-02 0.  1.
    10030    2    1    2    0    0  0.00000000000E+00  0.00000000000E+00 -0.79334502987E+03  0.23361872421E+04  0.21973562510E+04 0.  0.
        4    1    3    3  502    0 -0.10684058938E+04 -0.12483908531E+02 -0.12468721087E+03  0.10757302243E+04  0.12699999809E+01 0.  1.
       -4    1    3    3    0  502  0.10684058938E+04  0.12483908531E+02 -0.66865781900E+03  0.12604570178E+04  0.12699999809E+01 0. -1.
</event>
<event>
 5   0  0.1144271E-06  0.2199698E+04  0.7818609E-02  0.8518554E-01
        1   -1    0    0  501    0  0.00000000000E+00  0.00000000000E+00  0.21642533567E+04  0.21642533567E+04  0.50400001928E-02 0. -1.
       -1   -1    0    0    0  501  0.00000000000E+00  0.00000000000E+00 -0.55893094862E+03  0.55893094864E+03  0.50400001928E-02 0.  1.
    10030    2    1    2    0    0  0.00000000000E+00  0.00000000000E+00  0.16053224081E+04  0.27231843054E+04  0.21996983264E+04 0.  0.
        3    1    3    3  502    0  0.28932975364E+03  0.55249960288E+03 -0.31885693165E+03  0.70045504537E+03  0.10100000352E+00 0.  1.
       -3    1    3    3    0  502 -0.28932975364E+03 -0.55249960288E+03  0.19241793397E+04  0.20227292600E+04  0.10100000352E+00 0. -1.
</event>
<event>
 5   0  0.2556869E-06  0.2200812E+04  0.7818609E-02  0.8518090E-01
       -2   -1    0    0    0  501  0.00000000000E+00  0.00000000000E+00  0.69610981251E+03  0.69610981251E+03  0.25500000920E-02 0.  1.
        2   -1    0    0  501    0  0.00000000000E+00  0.00000000000E+00 -0.17395150602E+04  0.17395150602E+04  0.25500000920E-02 0. -1.
    10030    2    1    2    0    0  0.00000000000E+00  0.00000000000E+00 -0.10434052477E+04  0.24356248727E+04  0.22008121250E+04 0.  0.
        5    1    3    3  502    0  0.37078147802E+02 -0.10642819629E+04 -0.82839962555E+03  0.13491993608E+04  0.46999998093E+01 0.  1.
       -5    1    3    3    0  502 -0.37078147802E+02  0.10642819629E+04 -0.21500562218E+03  0.10864255120E+04  0.46999998093E+01 0. -1.
</event>
<event>
 5   0  0.2606154E-06  0.2200469E+04  0.7818609E-02  0.8518233E-01
       -2   -1    0    0    0  501  0.00000000000E+00  0.00000000000E+00  0.84973003480E+03  0.84973003481E+03  0.25500000920E-02 0.  1.
        2   -1    0    0  501    0  0.00000000000E+00  0.00000000000E+00 -0.14245894356E+04  0.14245894356E+04  0.25500000920E-02 0. -1.
    10030    2    1    2    0    0  0.00000000000E+00  0.00000000000E+00 -0.57485940078E+03  0.22743194704E+04  0.22004694324E+04 0.  0.
        2    1    3    3  502    0  0.29570277314E+03  0.98677285722E+03 -0.68686544546E+03  0.12381215376E+04  0.25500000920E-02 0. -1.
       -2    1    3    3    0  502 -0.29570277314E+03 -0.98677285722E+03  0.11200604467E+03  0.10361979328E+04  0.25500000920E-02 0.  1.
</event>
<event>
 5   0  0.1082209E-06  0.2196189E+04  0.7818609E-02  0.8520016E-01
       -1   -1    0    0    0  501  0.00000000000E+00  0.00000000000E+00  0.88102167297E+03  0.88102167298E+03  0.50400001928E-02 0. -1.
        1   -1    0    0  501    0  0.00000000000E+00  0.00000000000E+00 -0.13686511977E+04  0.13686511977E+04  0.50400001928E-02 0.  1.
    10030    2    1    2    0    0  0.00000000000E+00  0.00000000000E+00 -0.48762952472E+03  0.22496728707E+04  0.21961888516E+04 0.  0.
        2    1    3    3  502    0  0.27180656757E+03 -0.60662775403E+03  0.65150461706E+03  0.93077081400E+03  0.25500000920E-02 0. -1.
       -2    1    3    3    0  502 -0.27180656757E+03  0.60662775403E+03 -0.11391341418E+04  0.13189020567E+04  0.25500000920E-02 0.  1.
</event>
<event>
 5   0  0.1107101E-06  0.2202163E+04  0.7818609E-02  0.8517528E-01
        1   -1    0    0  501    0  0.00000000000E+00  0.00000000000E+00  0.12698809359E+04  0.12698809359E+04  0.50400001928E-02 0.  1.
       -1   -1    0    0    0  501  0.00000000000E+00  0.00000000000E+00 -0.95471960923E+03  0.95471960924E+03  0.50400001928E-02 0. -1.
    10030    2    1    2    0    0  0.00000000000E+00  0.00000000000E+00  0.31516132667E+03  0.22246005452E+04  0.22021627832E+04 0.  0.
        1    1    3    3  502    0 -0.48801419341E+03  0.15446506037E+03  0.11423791281E+04  0.12518176306E+04  0.50400001928E-02 0.  1.
       -1    1    3    3    0  502  0.48801419341E+03 -0.15446506037E+03 -0.82721780144E+03  0.97278291458E+03  0.50400001928E-02 0. -1.
</event>
<event>
 5   0  0.1144271E-06  0.2199238E+04  0.7818609E-02  0.8518745E-01
        1   -1    0    0  501    0  0.00000000000E+00  0.00000000000E+00  0.68592622888E+03  0.68592622890E+03  0.50400001928E-02 0.  1.
       -1   -1    0    0    0  501  0.00000000000E+00  0.00000000000E+00 -0.17628161825E+04  0.17628161825E+04  0.50400001928E-02 0. -1.
    10030    2    1    2    0    0  0.00000000000E+00  0.00000000000E+00 -0.10768899536E+04  0.24487424114E+04  0.21992379192E+04 0.  0.
        3    1    3    3  502    0  0.77285159892E+03 -0.10913051591E+03  0.32399608211E+03  0.84509321076E+03  0.10100000352E+00 0.  1.
       -3    1    3    3    0  502 -0.77285159892E+03  0.10913051591E+03 -0.14008860357E+04  0.16036492007E+04  0.10100000352E+00 0. -1.
</event>
<event>
 5   0  0.1107101E-06  0.2198978E+04  0.7818609E-02  0.8518854E-01
        1   -1    0    0  501    0  0.00000000000E+00  0.00000000000E+00  0.26008459257E+04  0.26008459257E+04  0.50400001928E-02 0. -1.
       -1   -1    0    0    0  501  0.00000000000E+00  0.00000000000E+00 -0.46480090269E+03  0.46480090272E+03  0.50400001928E-02 0.  1.
    10030    2    1    2    0    0  0.00000000000E+00  0.00000000000E+00  0.21360450230E+04  0.30656468284E+04  0.21989775206E+04 0.  0.
        1    1    3    3  502    0 -0.54557596929E+03 -0.40341349140E+03 -0.13809998349E+03  0.69243569288E+03  0.50400001928E-02 0.  1.
       -1    1    3    3    0  502  0.54557596929E+03  0.40341349140E+03  0.22741450065E+04  0.23732111355E+04  0.50400001928E-02 0. -1.
</event>
<event>
 5   0  0.1146827E-06  0.2207827E+04  0.7818609E-02  0.8515178E-01
       -1   -1    0    0    0  501  0.00000000000E+00  0.00000000000E+00  0.96822182900E+03  0.96822182902E+03  0.50400001928E-02 0. -1.
        1   -1    0    0  501    0  0.00000000000E+00  0.00000000000E+00 -0.12586212716E+04  0.12586212717E+04  0.50400001928E-02 0.  1.
    10030    2    1    2    0    0  0.00000000000E+00  0.00000000000E+00 -0.29039944264E+03  0.22268431007E+04  0.22078266143E+04 0.  0.
        4    1    3    3  502    0  0.18729203472E+03 -0.24199462010E+03  0.92458819259E+03  0.97391202950E+03  0.12699999809E+01 0. -1.
       -4    1    3    3    0  502 -0.18729203472E+03  0.24199462010E+03 -0.12149876352E+04  0.12529310712E+04  0.12699999809E+01 0.  1.
</event>
<event>
 5   0  0.1146827E-06  0.2199372E+04  0.7818609E-02  0.8518689E-01
        1   -1    0    0  501    0  0.00000000000E+00  0.00000000000E+00  0.12343143623E+04  0.12343143623E+04  0.50400001928E-02 0.  1.
       -1   -1    0    0    0  501  0.00000000000E+00  0.00000000000E+00 -0.97974186234E+03  0.97974186236E+03  0.50400001928E-02 0. -1.
    10030    2    1    2    0    0  0.00000000000E+00  0.00000000000E+00  0.25457249995E+03  0.22140562247E+04  0.21993721396E+04 0.  0.
        4    1    3    3  502    0  0.73748630913E+02 -0.28701957974E+03 -0.93878783098E+03  0.98445076272E+03  0.12699999809E+01 0. -1.
       -4    1    3    3    0  502 -0.73748630913E+02  0.28701957974E+03  0.11933603309E+04  0.12296054619E+04  0.12699999809E+01 0.  1.
</event>
<event>
 5   0  0.1144271E-06  0.2200055E+04  0.7818609E-02  0.8518405E-01
        1   -1    0    0  501    0  0.00000000000E+00  0.00000000000E+00  0.55741682028E+03  0.55741682031E+03  0.50400001928E-02 0.  1.
       -1   -1    0    0    0  501  0.00000000000E+00  0.00000000000E+00 -0.21708365135E+04  0.21708365135E+04  0.50400001928E-02 0. -1.
    10030    2    1    2    0    0  0.00000000000E+00  0.00000000000E+00 -0.16134196932E+04  0.27282533338E+04  0.22000552600E+04 0.  0.
        3    1    3    3  502    0 -0.25953226826E+03 -0.98311601759E+03 -0.13272301019E+04  0.16719491188E+04  0.10100000352E+00 0.  1.
       -3    1    3    3    0  502  0.25953226826E+03  0.98311601759E+03 -0.28618959137E+03  0.10563042150E+04  0.10100000352E+00 0. -1.
</event>
<event>
 5   0  0.2606154E-06  0.2200397E+04  0.7818609E-02  0.8518263E-01
        2   -1    0    0  501    0  0.00000000000E+00  0.00000000000E+00  0.12035409837E+04  0.12035409837E+04  0.25500000920E-02 0. -1.
       -2   -1    0    0    0  501  0.00000000000E+00  0.00000000000E+00 -0.10057296659E+04  0.10057296659E+04  0.25500000920E-02 0.  1.
    10030    2    1    2    0    0  0.00000000000E+00  0.00000000000E+00  0.19781131783E+03  0.22092706496E+04  0.22003971200E+04 0.  0.
        2    1    3    3  502    0 -0.10317172328E+04 -0.23769857413E+03  0.39927057833E+03  0.11315290784E+04  0.25500000920E-02 0. -1.
       -2    1    3    3    0  502  0.10317172328E+04  0.23769857413E+03 -0.20145926049E+03  0.10777415712E+04  0.25500000920E-02 0.  1.
</event>
<event>
 5   0  0.1137869E-06  0.2199590E+04  0.7818609E-02  0.8518599E-01
        1   -1    0    0  501    0  0.00000000000E+00  0.00000000000E+00  0.19393942536E+04  0.19393942536E+04  0.50400001928E-02 0. -1.
       -1   -1    0    0    0  501  0.00000000000E+00  0.00000000000E+00 -0.62367389765E+03  0.62367389767E+03  0.50400001928E-02 0.  1.
    10030    2    1    2    0    0  0.00000000000E+00  0.00000000000E+00  0.13157203560E+04  0.25630681513E+04  0.21995904830E+04 0.  0.
        5    1    3    3  502    0 -0.39181387595E+03  0.69067200199E+03  0.15445070505E+04  0.17366836346E+04  0.46999998093E+01 0. -1.
       -5    1    3    3    0  502  0.39181387595E+03 -0.69067200199E+03 -0.22878669457E+03  0.82638451663E+03  0.46999998093E+01 0.  1.
</event>
<event>
 5   0  0.2581058E-06  0.2199742E+04  0.7818609E-02  0.8518535E-01
        2   -1    0    0  501    0  0.00000000000E+00  0.00000000000E+00  0.56412172259E+03  0.56412172260E+03  0.25500000920E-02 0.  1.
       -2   -1    0    0    0  501  0.00000000000E+00  0.00000000000E+00 -0.21444245636E+04  0.21444245636E+04  0.25500000920E-02 0. -1.
    10030    2    1    2    0    0  0.00000000000E+00  0.00000000000E+00 -0.15803028410E+04  0.27085462862E+04  0.21997422384E+04 0.  0.
        1    1    3    3  502    0  0.10789754443E+03  0.97842255001E+03 -0.13943228213E+04  0.17067772838E+04  0.50400001928E-02 0. -1.
       -1    1    3    3    0  502 -0.10789754443E+03 -0.97842255001E+03 -0.18598001973E+03  0.10017690024E+04  0.50400001928E-02 0.  1.
</event>
<event>
 5   0  0.1144271E-06  0.2199905E+04  0.7818609E-02  0.8518468E-01
        1   -1    0    0  501    0  0.00000000000E+00  0.00000000000E+00  0.12086756177E+04  0.12086756177E+04  0.50400001928E-02 0.  1.
       -1   -1    0    0    0  501  0.00000000000E+00  0.00000000000E+00 -0.10010090456E+04  0.10010090456E+04  0.50400001928E-02 0. -1.
    10030    2    1    2    0    0  0.00000000000E+00  0.00000000000E+00  0.20766657213E+03  0.22096846633E+04  0.21999047493E+04 0.  0.
        3    1    3    3  502    0  0.25044507357E+03 -0.22201533639E+02 -0.97175846326E+03  0.10037580207E+04  0.10100000352E+00 0. -1.
       -3    1    3    3    0  502 -0.25044507357E+03  0.22201533639E+02  0.11794250354E+04  0.12059266426E+04  0.10100000352E+00 0.  1.
</event>
<event>
 5   0  0.2581058E-06  0.2198173E+04  0.7818609E-02  0.8519189E-01
        2   -1    0    0  501    0  0.00000000000E+00  0.00000000000E+00  0.22133481934E+04  0.22133481934E+04  0.25500000920E-02 0.  1.
       -2   -1    0    0    0  501  0.00000000000E+00  0.00000000000E+00 -0.54577552201E+03  0.54577552202E+03  0.25500000920E-02 0. -1.
    10030    2    1    2    0    0  0.00000000000E+00  0.00000000000E+00  0.16675726714E+04  0.27591237154E+04  0.21981731193E+04 0.  0.
        1    1    3    3  502    0  0.38733908421E+03 -0.62069788391E+03  0.18632665531E+04  0.20017641412E+04  0.50400001928E-02 0.  1.
       -1    1    3    3    0  502 -0.38733908421E+03  0.62069788391E+03 -0.19569388169E+03  0.75735957419E+03  0.50400001928E-02 0. -1.
</event>
<event>
 5   0  0.1107101E-06  0.2200010E+04  0.7818609E-02  0.8518424E-01
       -1   -1    0    0    0  501  0.00000000000E+00  0.00000000000E+00  0.60261740790E+03  0.60261740792E+03  0.50400001928E-02 0. -1.
        1   -1    0    0  501    0  0.00000000000E+00  0.00000000000E+00 -0.20079259801E+04  0.20079259801E+04  0.50400001928E-02 0.  1.
    10030    2    1    2    0    0  0.00000000000E+00  0.00000000000E+00 -0.14053085722E+04  0.26105433880E+04  0.22000101358E+04 0.  0.
        1    1    3    3  502    0  0.89588048553E+03 -0.11906699656E+03  0.41444945966E+02  0.90470795154E+03  0.50400001928E-02 0. -1.
       -1    1    3    3    0  502 -0.89588048553E+03  0.11906699656E+03 -0.14467535181E+04  0.17058354365E+04  0.50400001928E-02 0.  1.
</event>
<event>
 5   0  0.2556869E-06  0.2200011E+04  0.7818609E-02  0.8518423E-01
       -2   -1    0    0    0  501  0.00000000000E+00  0.00000000000E+00  0.10144886618E+04  0.10144886618E+04  0.25500000920E-02 0. -1.
        2   -1    0    0  501    0  0.00000000000E+00  0.00000000000E+00 -0.11927315416E+04  0.11927315416E+04  0.25500000920E-02 0.  1.
    10030    2    1    2    0    0  0.00000000000E+00  0.00000000000E+00 -0.17824287978E+03  0.22072202034E+04  0.22000114777E+04 0.  0.
        5    1    3    3  502    0  0.27261508131E+02 -0.79764069117E+03 -0.84858046193E+03  0.11649398063E+04  0.46999998093E+01 0.  1.
       -5    1    3    3    0  502 -0.27261508131E+02  0.79764069117E+03  0.67033758215E+03  0.10422803970E+04  0.46999998093E+01 0. -1.
</event>
<event>
 5   0  0.1082209E-06  0.2199264E+04  0.7818609E-02  0.8518735E-01
        1   -1    0    0  501    0  0.00000000000E+00  0.00000000000E+00  0.40628611125E+03  0.40628611129E+03  0.50400001928E-02 0.  1.
       -1   -1    0    0    0  501  0.00000000000E+00  0.00000000000E+00 -0.29762040488E+04  0.29762040488E+04  0.50400001928E-02 0. -1.
    10030    2    1    2    0    0  0.00000000000E+00  0.00000000000E+00 -0.25699179375E+04  0.33824901601E+04  0.21992638490E+04 0.  0.
        2    1    3    3  502    0  0.61600158748E+03  0.19449436792E+03  0.83701021902E+02  0.65137690779E+03  0.25500000920E-02 0.  1.
       -2    1    3    3    0  502 -0.61600158748E+03 -0.19449436792E+03 -0.26536189594E+04  0.27311132523E+04  0.25500000920E-02 0. -1.
</event>
<event>
 5   0  0.2532239E-06  0.2199836E+04  0.7818609E-02  0.8518496E-01
        2   -1    0    0  501    0  0.00000000000E+00  0.00000000000E+00  0.15891837909E+04  0.15891837909E+04  0.25500000920E-02 0.  1.
       -2   -1    0    0    0  501  0.00000000000E+00  0.00000000000E+00 -0.76128375296E+03  0.76128375296E+03  0.25500000920E-02 0. -1.
    10030    2    1    2    0    0  0.00000000000E+00  0.00000000000E+00  0.82790003797E+03  0.23504675439E+04  0.21998361762E+04 0.  0.
        3    1    3    3  502    0  0.33640759053E+03  0.56149070135E+03 -0.53053372005E+03  0.84256033195E+03  0.10100000352E+00 0. -1.
       -3    1    3    3    0  502 -0.33640759053E+03 -0.56149070135E+03  0.13584337580E+04  0.15079072119E+04  0.10100000352E+00 0.  1.
</event>
<event>
 5   0  0.2606154E-06  0.2201789E+04  0.7818609E-02  0.8517684E-01
       -2   -1    0    0    0  501  0.00000000000E+00  0.00000000000E+00  0.20269965760E+04  0.20269965760E+04  0.25500000920E-02 0.  1.
        2   -1    0    0  501    0  0.00000000000E+00  0.00000000000E+00 -0.59791342409E+03  0.59791342409E+03  0.25500000920E-02 0. -1.
    10030    2    1    2    0    0  0.00000000000E+00  0.00000000000E+00  0.14290831519E+04  0.26249100001E+04  0.22017887850E+04 0.  0.
        2    1    3    3  502    0 -0.76006813085E+03  0.53631930420E+03  0.14164325304E+04  0.16945864017E+04  0.25500000920E-02 0.  1.
       -2    1    3    3    0  502  0.76006813085E+03 -0.53631930420E+03  0.12650621548E+02  0.93032359845E+03  0.25500000920E-02 0. -1.
</event>
<event>
 5   0  0.1082209E-06  0.2200554E+04  0.7818609E-02  0.8518198E-01
       -1   -1    0    0    0  501  0.00000000000E+00  0.00000000000E+00  0.63081187022E+03  0.63081187024E+03  0.50400001928E-02 0.  1.
        1   -1    0    0  501    0  0.00000000000E+00  0.00000000000E+00 -0.19191284056E+04  0.19191284056E+04  0.50400001928E-02 0. -1.
    10030    2    1    2    0    0  0.00000000000E+00  0.00000000000E+00 -0.12883165354E+04  0.25499402759E+04  0.22005535474E+04 0.  0.
        2    1    3    3  502    0 -0.91984205285E+03  0.39254793222E+03 -0.11756870854E+04  0.15435165707E+04  0.25500000920E-02 0. -1.
       -2    1    3    3    0  502  0.91984205285E+03 -0.39254793222E+03 -0.11262945000E+03  0.10064237052E+04  0.25500000920E-02 0.  1.
</event>
<event>
 5   0  0.2556869E-06  0.2201412E+04  0.7818609E-02  0.8517841E-01
        2   -1    0    0  501    0  0.00000000000E+00  0.00000000000E+00  0.83550936555E+03  0.83550936555E+03  0.25500000920E-02 0. -1.
       -2   -1    0    0    0  501  0.00000000000E+00  0.00000000000E+00 -0.14500780482E+04  0.14500780482E+04  0.25500000920E-02 0.  1.
    10030    2    1    2    0    0  0.00000000000E+00  0.00000000000E+00 -0.61456868265E+03  0.22855874137E+04  0.22014120832E+04 0.  0.
        5    1    3    3  502    0 -0.56188529319E+03 -0.91469987204E+03 -0.55977187827E+03  0.12106847584E+04  0.46999998093E+01 0. -1.
       -5    1    3    3    0  502  0.56188529319E+03  0.91469987204E+03 -0.54796804381E+02  0.10749026553E+04  0.46999998093E+01 0.  1.
</event>
<event>
 5   0  0.2556869E-06  0.2200777E+04  0.7818609E-02  0.8518105E-01
       -2   -1    0    0    0  501  0.00000000000E+00  0.00000000000E+00  0.86240549019E+03  0.86240549020E+03  0.25500000920E-02 0. -1.
        2   -1    0    0  501    0  0.00000000000E+00  0.00000000000E+00 -0.14040434450E+04  0.14040434450E+04  0.25500000920E-02 0.  1.
    10030    2    1    2    0    0  0.00000000000E+00  0.00000000000E+00 -0.54163795482E+03  0.22664489352E+04  0.22007769314E+04 0.  0.
        5    1    3    3  502    0  0.39556263790E+03 -0.96967955550E+03  0.77023911725E+02  0.10500966688E+04  0.46999998093E+01 0. -1.
       -5    1    3    3    0  502 -0.39556263790E+03  0.96967955550E+03 -0.61866186655E+03  0.12163522664E+04  0.46999998093E+01 0.  1.
</event>
<event>
 5   0  0.2532239E-06  0.2199872E+04  0.7818609E-02  0.8518481E-01
       -2   -1    0    0    0  501  0.00000000000E+00  0.00000000000E+00  0.10454399323E+04  0.10454399323E+04  0.25500000920E-02 0. -1.
        2   -1    0    0  501    0  0.00000000000E+00  0.00000000000E+00 -0.11572729078E+04  0.11572729078E+04  0.25500000920E-02 0.  1.
    10030    2    1    2    0    0  0.00000000000E+00  0.00000000000E+00 -0.11183297554E+03  0.22027128401E+04  0.21998720966E+04 0.  0.
        3    1    3    3  502    0  0.37045697165E+03 -0.30153025880E+03 -0.10480039110E+04  0.11517252591E+04  0.10100000352E+00 0.  1.
       -3    1    3    3    0  502 -0.37045697165E+03  0.30153025880E+03  0.93617093546E+03  0.10509875810E+04  0.10100000352E+00 0. -1.
</event>
<event>
 5   0  0.2581058E-06  0.2200478E+04  0.7818609E-02  0.8518229E-01
       -2   -1    0    0    0  501  0.00000000000E+00  0.00000000000E+00  0.11573330011E+04  0.11573330011E+04  0.25500000920E-02 0.  1.
        2   -1    0    0  501    0  0.00000000000E+00  0.00000000000E+00 -0.10459611404E+04  0.10459611404E+04  0.25500000920E-02 0. -1.
    10030    2    1    2    0    0  0.00000000000E+00  0.00000000000E+00  0.11137186070E+03  0.22032941415E+04  0.22004775351E+04 0.  0.
        1    1    3    3  502    0 -0.12045605507E+03 -0.10575728811E+04  0.33452989010E+03  0.11157420434E+04  0.50400001928E-02 0.  1.
       -1    1    3    3    0  502  0.12045605507E+03  0.10575728811E+04 -0.22315802940E+03  0.10875520981E+04  0.50400001928E-02 0. -1.
</event>
<event>
 5   0  0.1137869E-06  0.2201152E+04  0.7818609E-02  0.8517949E-01
       -1   -1    0    0    0  501  0.00000000000E+00  0.00000000000E+00  0.14602025755E+04  0.14602025755E+04  0.50400001928E-02 0. -1.
        1   -1    0    0  501    0  0.00000000000E+00  0.00000000000E+00 -0.82951999910E+03  0.82951999911E+03  0.50400001928E-02 0.  1.
    10030    2    1    2    0    0  0.00000000000E+00  0.00000000000E+00  0.63068257641E+03  0.22897225746E+04  0.22011517341E+04 0.  0.
        5    1    3    3  502    0  0.31471848032E+02  0.10689519308E+04  0.58579615567E+03  0.12193555402E+04  0.46999998093E+01 0. -1.
       -5    1    3    3    0  502 -0.31471848032E+02 -0.10689519308E+04  0.44886420738E+02  0.10703670344E+04  0.46999998093E+01 0.  1.
</event>
<event>
 5   0  0.1107101E-06  0.2199652E+04  0.7818609E-02  0.8518573E-01
       -1   -1    0    0    0  501  0.00000000000E+00  0.00000000000E+00  0.94897347657E+03  0.94897347659E+03  0.50400001928E-02 0.  1.
        1   -1    0    0  501    0  0.00000000000E+00  0.00000000000E+00 -0.12746586264E+04  0.12746586264E+04  0.50400001928E-02 0. -1.
    10030    2    1    2    0    0  0.00000000000E+00  0.00000000000E+00 -0.32568514986E+03  0.22236321030E+04  0.21996519981E+04 0.  0.
        1    1    3    3  502    0  0.23799204564E+03  0.47970900530E+03 -0.11339694990E+04  0.12540525381E+04  0.50400001928E-02 0. -1.
       -1    1    3    3    0  502 -0.23799204564E+03 -0.47970900530E+03  0.80828434918E+03  0.96957956492E+03  0.50400001928E-02 0.  1.
</event>
<event>
 5   0  0.2606154E-06  0.2200131E+04  0.7818609E-02  0.8518374E-01
       -2   -1    0    0    0  501  0.00000000000E+00  0.00000000000E+00  0.10538176382E+04  0.10538176382E+04  0.25500000920E-02 0. -1.
        2   -1    0    0  501    0  0.00000000000E+00  0.00000000000E+00 -0.11483426959E+04  0.11483426959E+04  0.25500000920E-02 0.  1.
    10030    2    1    2    0    0  0.00000000000E+00  0.00000000000E+00 -0.94525057776E+02  0.22021603341E+04  0.22001307121E+04 0.  0.
        2    1    3    3  502    0  0.54449087005E+03  0.34539402831E+03 -0.93936271766E+03  0.11393724842E+04  0.25500000920E-02 0.  1.
       -2    1    3    3    0  502 -0.54449087005E+03 -0.34539402831E+03  0.84483765988E+03  0.10627878499E+04  0.25500000920E-02 0. -1.
</event>
<event>
 5   0  0.1082209E-06  0.2199788E+04  0.7818609E-02  0.8518516E-01
       -1   -1    0    0    0  501  0.00000000000E+00  0.00000000000E+00  0.13799175084E+04  0.13799175084E+04  0.50400001928E-02 0. -1.
        1   -1    0    0  501    0  0.00000000000E+00  0.00000000000E+00 -0.87669533475E+03  0.87669533476E+03  0.50400001928E-02 0.  1.
    10030    2    1    2    0    0  0.00000000000E+00  0.00000000000E+00  0.50322217364E+03  0.22566128432E+04  0.21997883916E+04 0.  0.
        2    1    3    3  502    0 -0.52891721195E+03 -0.45841743854E+03 -0.61875581168E+03  0.93421556375E+03  0.25500000920E-02 0.  1.
       -2    1    3    3    0  502  0.52891721195E+03  0.45841743854E+03  0.11219779853E+04  0.13223972794E+04  0.25500000920E-02 0. -1.
</event>
<event>
 5   0  0.2532239E-06  0.2198994E+04  0.7818609E-02  0.8518847E-01
        2   -1    0    0  501    0  0.00000000000E+00  0.00000000000E+00  0.89942286835E+03  0.89942286835E+03  0.25500000920E-02 0.  1.
       -2   -1    0    0    0  501  0.00000000000E+00  0.00000000000E+00 -0.13440767490E+04  0.13440767490E+04  0.25500000920E-02 0. -1.
    10030    2    1    2    0    0  0.00000000000E+00  0.00000000000E+00 -0.44465388061E+03  0.22434996173E+04  0.21989937379E+04 0.  0.
        3    1    3    3  502    0  0.37562114640E+03 -0.58842612675E+03  0.64431014561E+03  0.94998532947E+03  0.10100000352E+00 0.  1.
       -3    1    3    3    0  502 -0.37562114640E+03  0.58842612675E+03 -0.10889640262E+04  0.12935142878E+04  0.10100000352E+00 0. -1.
</event>
<event>
 5   0  0.2556869E-06  0.2200317E+04  0.7818609E-02  0.8518296E-01
       -2   -1    0    0    0  501  0.00000000000E+00  0.00000000000E+00  0.93962396581E+03  0.93962396581E+03  0.25500000920E-02 0. -1.
        2   -1    0    0  501    0  0.00000000000E+00  0.00000000000E+00 -0.12881202867E+04  0.12881202867E+04  0.25500000920E-02 0.  1.
    10030    2    1    2    0    0  0.00000000000E+00  0.00000000000E+00 -0.34849632086E+03  0.22277442525E+04  0.22003169701E+04 0.  0.
        5    1    3    3  502    0 -0.91530045576E+03 -0.59364392486E+02 -0.78929682045E+03  0.12100870283E+04  0.46999998093E+01 0.  1.
       -5    1    3    3    0  502  0.91530045576E+03  0.59364392486E+02  0.44080049958E+03  0.10176572241E+04  0.46999998093E+01 0. -1.
</event>
<event>
 5   0  0.1144271E-06  0.2200523E+04  0.7818609E-02  0.8518210E-01
       -1   -1    0    0    0  501  0.00000000000E+00  0.00000000000E+00  0.82206547147E+03  0.82206547149E+03  0.50400001928E-02 0.  1.
        1   -1    0    0  501    0  0.00000000000E+00  0.00000000000E+00 -0.14726021728E+04  0.14726021728E+04  0.50400001928E-02 0. -1.
    10030    2    1    2    0    0  0.00000000000E+00  0.00000000000E+00 -0.65053670137E+03  0.22946676443E+04  0.22005230283E+04 0.  0.
        3    1    3    3  502    0 -0.10116113572E+04 -0.28330221148E+03  0.15767408068E+02  0.10506504188E+04  0.10100000352E+00 0.  1.
       -3    1    3    3    0  502  0.10116113572E+04  0.28330221148E+03 -0.66630410944E+03  0.12440172256E+04  0.10100000352E+00 0. -1.
</event>
<event>
 5   0  0.1137869E-06  0.2200752E+04  0.7818609E-02  0.8518115E-01
       -1   -1    0    0    0  501  0.00000000000E+00  0.00000000000E+00  0.10081302158E+04  0.10081302158E+04  0.50400001928E-02 0. -1.
        1   -1    0    0  501    0  0.00000000000E+00  0.00000000000E+00 -0.12010627162E+04  0.12010627162E+04  0.50400001928E-02 0.  1.
    10030    2    1    2    0    0  0.00000000000E+00  0.00000000000E+00 -0.19293250040E+03  0.22091929320E+04  0.22007522489E+04 0.  0.
        5    1    3    3  502    0  0.38172074012E+03  0.10301099018E+04 -0.33229465978E+02  0.10990738922E+04  0.46999998093E+01 0. -1.
       -5    1    3    3    0  502 -0.38172074012E+03 -0.10301099018E+04 -0.15970303443E+03  0.11101190397E+04  0.46999998093E+01 0.  1.
</event>
<event>
 5   0  0.2581058E-06  0.2198451E+04  0.7818609E-02  0.8519073E-01
       -2   -1    0    0    0  501  0.00000000000E+00  0.00000000000E+00  0.75775210984E+03  0.75775210984E+03  0.25500000920E-02 0.  1.
        2   -1    0    0  501    0  0.00000000000E+00  0.00000000000E+00 -0.15945808124E+04  0.15945808124E+04  0.25500000920E-02 0. -1.
    10030    2    1    2    0    0  0.00000000000E+00  0.00000000000E+00 -0.83682870257E+03  0.23523329223E+04  0.21984512502E+04 0.  0.
        1    1    3    3  502    0 -0.29359073666E+03 -0.59102233719E+03 -0.13590335358E+04  0.15107862441E+04  0.50400001928E-02 0. -1.
       -1    1    3    3    0  502  0.29359073666E+03  0.59102233719E+03  0.52220483324E+03  0.84154667821E+03  0.50400001928E-02 0.  1.
</event>
<event>
 5   0  0.2524749E-06  0.2200219E+04  0.7818609E-02  0.8518337E-01
        2   -1    0    0  501    0  0.00000000000E+00  0.00000000000E+00  0.11386866303E+04  0.11386866303E+04  0.25500000920E-02 0.  1.
       -2   -1    0    0    0  501  0.00000000000E+00  0.00000000000E+00 -0.10628392416E+04  0.10628392416E+04  0.25500000920E-02 0. -1.
    10030    2    1    2    0    0  0.00000000000E+00  0.00000000000E+00  0.75847388696E+02  0.22015258719E+04  0.22002189296E+04 0.  0.
        4    1    3    3  502    0 -0.41532047295E+03  0.22792765554E+02 -0.98112548077E+03  0.10656544596E+04  0.12699999809E+01 0. -1.
       -4    1    3    3    0  502  0.41532047295E+03 -0.22792765554E+02  0.10569728695E+04  0.11358714122E+04  0.12699999809E+01 0.  1.
</event>
<event>
 5   0  0.1082209E-06  0.2200085E+04  0.7818609E-02  0.8518393E-01
       -1   -1    0    0    0  501  0.00000000000E+00  0.00000000000E+00  0.78275312039E+03  0.78275312041E+03  0.50400001928E-02 0. -1.
        1   -1    0    0  501    0  0.00000000000E+00  0.00000000000E+00 -0.15459455318E+04  0.15459455318E+04  0.50400001928E-02 0.  1.
    10030    2    1    2    0    0  0.00000000000E+00  0.00000000000E+00 -0.76319241140E+03  0.23286986522E+04  0.22000851702E+04 0.  0.
        2    1    3    3  502    0  0.59830633544E+03  0.47530294207E+03 -0.12191908897E+04  0.14388571101E+04  0.25500000920E-02 0.  1.
       -2    1    3    3    0  502 -0.59830633544E+03 -0.47530294207E+03  0.45599847832E+03  0.88984154208E+03  0.25500000920E-02 0. -1.
</event>
<event>
 5   0  0.1146827E-06  0.2200692E+04  0.7818609E-02  0.8518140E-01
        1   -1    0    0  501    0  0.00000000000E+00  0.00000000000E+00  0.10673418215E+04  0.10673418215E+04  0.50400001928E-02 0. -1.
       -1   -1    0    0    0  501  0.00000000000E+00  0.00000000000E+00 -0.11343702478E+04  0.11343702478E+04  0.50400001928E-02 0.  1.
    10030    2    1    2    0    0  0.00000000000E+00  0.00000000000E+00 -0.67028426284E+02  0.22017120693E+04  0.22006915337E+04 0.  0.
        4    1    3    3  502    0 -0.10679764764E+04 -0.74440959843E+02  0.22085550240E+03  0.10931120603E+04  0.12699999809E+01 0.  1.
       -4    1    3    3    0  502  0.10679764764E+04  0.74440959843E+02 -0.28788392869E+03  0.11086000090E+04  0.12699999809E+01 0. -1.
</event>
<event>
 5   0  0.2532239E-06  0.2199886E+04  0.7818609E-02  0.8518476E-01
       -2   -1    0    0    0  501  0.00000000000E+00  0.00000000000E+00  0.36131659527E+03  0.36131659528E+03  0.25500000920E-02 0.  1.
        2   -1    0    0  501    0  0.00000000000E+00  0.00000000000E+00 -0.33485169097E+04  0.33485169097E+04  0.25500000920E-02 0. -1.
    10030    2    1    2    0    0  0.00000000000E+00  0.00000000000E+00 -0.29872003145E+04  0.37098335050E+04  0.21998861144E+04 0.  0.
        3    1    3    3  502    0 -0.67986812737E+03  0.64662878551E+03 -0.52554839984E+03  0.10754304197E+04  0.10100000352E+00 0.  1.
       -3    1    3    3    0  502  0.67986812737E+03 -0.64662878551E+03 -0.24616519146E+04  0.26344030853E+04  0.10100000352E+00 0. -1.
</event>
<event>
 5   0  0.1107101E-06  0.2196963E+04  0.7818609E-02  0.8519693E-01
       -1   -1    0    0    0  501  0.00000000000E+00  0.00000000000E+00  0.92792257682E+03  0.92792257683E+03  0.50400001928E-02 0.  1.
        1   -1    0    0  501    0  0.00000000000E+00  0.00000000000E+00 -0.13003909735E+04  0.13003909736E+04  0.50400001928E-02 0. -1.
    10030    2    1    2    0    0  0.00000000000E+00  0.00000000000E+00 -0.37246839673E+03  0.22283135504E+04  0.21969634891E+04 0.  0.
        1    1    3    3  502    0 -0.99086451188E+02  0.60691004867E+03 -0.11094448824E+04  0.12684738385E+04  0.50400001928E-02 0. -1.
       -1    1    3    3    0  502  0.99086451188E+02 -0.60691004867E+03  0.73697648566E+03  0.95983971184E+03  0.50400001928E-02 0.  1.
</event>
<event>
 5   0  0.2556869E-06  0.2199372E+04  0.7818609E-02  0.8518690E-01
        2   -1    0    0  501    0  0.00000000000E+00  0.00000000000E+00  0.14578835554E+04  0.14578835554E+04  0.25500000920E-02 0.  1.
       -2   -1    0    0    0  501  0.00000000000E+00  0.00000000000E+00 -0.82949654355E+03  0.82949654355E+03  0.25500000920E-02 0. -1.
    10030    2    1    2    0    0  0.00000000000E+00  0.00000000000E+00  0.62838701185E+03  0.22873800989E+04  0.21993720650E+04 0.  0.
        5    1    3    3  502    0 -0.45942401974E+03 -0.55577279837E+03  0.11776775348E+04  0.13809056084E+04  0.46999998093E+01 0.  1.
       -5    1    3    3    0  502  0.45942401974E+03  0.55577279837E+03 -0.54929052299E+03  0.90647449052E+03  0.46999998093E+01 0. -1.
</event>
<event>
 5   0  0.1082209E-06  0.2197745E+04  0.7818609E-02  0.8519367E-01
       -1   -1    0    0    0  501  0.00000000000E+00  0.00000000000E+00  0.15487225538E+04  0.15487225538E+04  0.50400001928E-02 0. -1.
        1   -1    0    0  501    0  0.00000000000E+00  0.00000000000E+00 -0.77968839235E+03  0.77968839237E+03  0.50400001928E-02 0.  1.
    10030    2    1    2    0    0  0.00000000000E+00  0.00000000000E+00  0.76903416141E+03  0.23284109461E+04  0.21977452065E+04 0.  0.
        2    1    3    3  502    0 -0.39561928081E+02 -0.67555093588E+03 -0.53274460133E+03  0.86124968701E+03  0.25500000920E-02 0.  1.
       -2    1    3    3    0  502  0.39561928081E+02  0.67555093588E+03  0.13017787627E+04  0.14671612591E+04  0.25500000920E-02 0. -1.
</event>
<event>
 5   0  0.2581058E-06  0.2200106E+04  0.7818609E-02  0.8518384E-01
        2   -1    0    0  501    0  0.00000000000E+00  0.00000000000E+00  0.15924656301E+04  0.15924656301E+04  0.25500000920E-02 0. -1.
       -2   -1    0    0    0  501  0.00000000000E+00  0.00000000000E+00 -0.75990156204E+03  0.75990156205E+03  0.25500000920E-02 0.  1.
    10030    2    1    2    0    0  0.00000000000E+00  0.00000000000E+00  0.83256406802E+03  0.23523671921E+04  0.22001064700E+04 0.  0.
        1    1    3    3  502    0  0.23915381020E+03 -0.10731500879E+04  0.45440734569E+03  0.11896771377E+04  0.50400001928E-02 0.  1.
       -1    1    3    3    0  502 -0.23915381020E+03  0.10731500879E+04  0.37815672233E+03  0.11626900544E+04  0.50400001928E-02 0. -1.
</event>
<event>
 5   0  0.2606154E-06  0.2198504E+04  0.7818609E-02  0.8519051E-01
        2   -1    0    0  501    0  0.00000000000E+00  0.00000000000E+00  0.11750937954E+04  0.11750937955E+04  0.25500000920E-02 0.  1.
       -2   -1    0    0    0  501  0.00000000000E+00  0.00000000000E+00 -0.10283046832E+04  0.10283046832E+04  0.25500000920E-02 0. -1.
    10030    2    1    2    0    0  0.00000000000E+00  0.00000000000E+00  0.14678911223E+03  0.22033984787E+04  0.21985035393E+04 0.  0.
        2    1    3    3  502    0  0.33188644077E+03  0.73805273848E+03 -0.67222692443E+03  0.10520263743E+04  0.25500000920E-02 0. -1.
       -2    1    3    3    0  502 -0.33188644077E+03 -0.73805273848E+03  0.81901603667E+03  0.11513721043E+04  0.25500000920E-02 0.  1.
</event>
<event>
 5   0  0.8905000E-07  0.2200023E+04  0.7818609E-02  0.8518418E-01
        3   -1    0    0  501    0  0.00000000000E+00  0.00000000000E+00  0.80852524386E+03  0.80852525016E+03  0.10100000352E+00 0.  1.
       -3   -1    0    0    0  501  0.00000000000E+00  0.00000000000E+00 -0.14965837575E+04  0.14965837609E+04  0.10100000352E+00 0. -1.
    10030    2    1    2    0    0  0.00000000000E+00  0.00000000000E+00 -0.68805851364E+03  0.23051090111E+04  0.22000234169E+04 0.  0.
        4    1    3    3  502    0 -0.62171949168E+03  0.80656287812E+03  0.91701885949E+02  0.10224918833E+04  0.12699999809E+01 0.  1.
       -4    1    3    3    0  502  0.62171949168E+03 -0.80656287812E+03 -0.77976039959E+03  0.12826171277E+04  0.12699999809E+01 0. -1.
</event>
<event>
 5   0  0.1146827E-06  0.2200060E+04  0.7818609E-02  0.8518403E-01
       -1   -1    0    0    0  501  0.00000000000E+00  0.00000000000E+00  0.66894172518E+03  0.66894172520E+03  0.50400001928E-02 0. -1.
        1   -1    0    0  501    0  0.00000000000E+00  0.00000000000E+00 -0.18089253015E+04  0.18089253015E+04  0.50400001928E-02 0.  1.
    10030    2    1    2    0    0  0.00000000000E+00  0.00000000000E+00 -0.11399835763E+04  0.24778670267E+04  0.22000596464E+04 0.  0.
        4    1    3    3  502    0  0.26433741748E+02  0.18595864104E+03 -0.17907303707E+04  0.18005544236E+04  0.12699999809E+01 0.  1.
       -4    1    3    3    0  502 -0.26433741748E+02 -0.18595864104E+03  0.65074679444E+03  0.67731260305E+03  0.12699999809E+01 0. -1.
</event>
<event>
 5   0  0.2524749E-06  0.2199078E+04  0.7818609E-02  0.8518812E-01
       -2   -1    0    0    0  501  0.00000000000E+00  0.00000000000E+00  0.94637772597E+03  0.94637772597E+03  0.25500000920E-02 0.  1.
        2   -1    0    0  501    0  0.00000000000E+00  0.00000000000E+00 -0.12774881516E+04  0.12774881516E+04  0.25500000920E-02 0. -1.
    10030    2    1    2    0    0  0.00000000000E+00  0.00000000000E+00 -0.33111042565E+03  0.22238658776E+04  0.21990782905E+04 0.  0.
        4    1    3    3  502    0  0.71212167793E+03 -0.60102065424E+02 -0.10105907673E+04  0.12377499159E+04  0.12699999809E+01 0. -1.
       -4    1    3    3    0  502 -0.71212167793E+03  0.60102065424E+02  0.67948034161E+03  0.98611596173E+03  0.12699999809E+01 0.  1.
</event>
<event>
 5   0  0.2556869E-06  0.2196363E+04  0.7818609E-02  0.8519944E-01
        2   -1    0    0  501    0  0.00000000000E+00  0.00000000000E+00  0.17919156988E+04  0.17919156988E+04  0.25500000920E-02 0. -1.
       -2   -1    0    0    0  501  0.00000000000E+00  0.00000000000E+00 -0.67302401842E+03  0.67302401843E+03  0.25500000920E-02 0.  1.
    10030    2    1    2    0    0  0.00000000000E+00  0.00000000000E+00  0.11188916803E+04  0.24649397172E+04  0.21963627244E+04 0.  0.
        5    1    3    3  502    0  0.87343686203E+03  0.78995480986E+02 -0.18232097853E+03  0.89576518529E+03  0.46999998093E+01 0.  1.
       -5    1    3    3    0  502 -0.87343686203E+03 -0.78995480986E+02  0.13012126589E+04  0.15691745319E+04  0.46999998093E+01 0. -1.
</event>
<event>
 5   0  0.1107101E-06  0.2199795E+04  0.7818609E-02  0.8518513E-01
       -1   -1    0    0    0  501  0.00000000000E+00  0.00000000000E+00  0.62809586853E+03  0.62809586855E+03  0.50400001928E-02 0. -1.
        1   -1    0    0  501    0  0.00000000000E+00  0.00000000000E+00 -0.19260986297E+04  0.19260986297E+04  0.50400001928E-02 0.  1.
    10030    2    1    2    0    0  0.00000000000E+00  0.00000000000E+00 -0.12980027612E+04  0.25541944983E+04  0.21997950739E+04 0.  0.
        1    1    3    3  502    0  0.51381144224E+02  0.89263038133E+03  0.94782249296E+02  0.89911773115E+03  0.50400001928E-02 0.  1.
       -1    1    3    3    0  502 -0.51381144224E+02 -0.89263038133E+03 -0.13927850105E+04  0.16550767671E+04  0.50400001928E-02 0. -1.
</event>
<event>
 5   0  0.2524749E-06  0.2200069E+04  0.7818609E-02  0.8518399E-01
       -2   -1    0    0    0  501  0.00000000000E+00  0.00000000000E+00  0.64250667445E+03  0.64250667446E+03  0.25500000920E-02 0.  1.
        2   -1    0    0  501    0  0.00000000000E+00  0.00000000000E+00 -0.18833669709E+04  0.18833669709E+04  0.25500000920E-02 0. -1.
    10030    2    1    2    0    0  0.00000000000E+00  0.00000000000E+00 -0.12408602964E+04  0.25258736453E+04  0.22000689528E+04 0.  0.
        4    1    3    3  502    0  0.85408092053E+03 -0.38666080380E+03  0.40208130614E+02  0.93839176397E+03  0.12699999809E+01 0.  1.
       -4    1    3    3    0  502 -0.85408092053E+03  0.38666080380E+03 -0.12810684270E+04  0.15874818813E+04  0.12699999809E+01 0. -1.
</event>
<event>
 5   0  0.8905000E-07  0.2194739E+04  0.7818609E-02  0.8520621E-01
        3   -1    0    0  501    0  0.00000000000E+00  0.00000000000E+00  0.78256313399E+03  0.78256314051E+03  0.10100000352E+00 0. -1.
       -3   -1    0    0    0  501  0.00000000000E+00  0.00000000000E+00 -0.15388147648E+04  0.15388147681E+04  0.10100000352E+00 0.  1.
    10030    2    1    2    0    0  0.00000000000E+00  0.00000000000E+00 -0.75625163083E+03  0.23213779086E+04  0.21947389060E+04 0.  0.
        5    1    3    3  502    0  0.62885931579E+03 -0.26096653146E+03  0.53213039610E+03  0.86414837733E+03  0.46999998093E+01 0. -1.
       -5    1    3    3    0  502 -0.62885931579E+03  0.26096653146E+03 -0.12883820269E+04  0.14572295313E+04  0.46999998093E+01 0.  1.
</event>
<event>
 5   0  0.1144271E-06  0.2197817E+04  0.7818609E-02  0.8519337E-01
       -1   -1    0    0    0  501  0.00000000000E+00  0.00000000000E+00  0.17100817772E+04  0.17100817772E+04  0.50400001928E-02 0.  1.
        1   -1    0    0  501    0  0.00000000000E+00  0.00000000000E+00 -0.70616494830E+03  0.70616494832E+03  0.50400001928E-02 0. -1.
    10030    2    1    2    0    0  0.00000000000E+00  0.00000000000E+00  0.10039168289E+04  0.24162467255E+04  0.21978169258E+04 0.  0.
        3    1    3    3  502    0 -0.15912990000E+03 -0.34232405795E+03 -0.63264286208E+03  0.73671235016E+03  0.10100000352E+00 0. -1.
       -3    1    3    3    0  502  0.15912990000E+03  0.34232405795E+03  0.16365596910E+04  0.16795343754E+04  0.10100000352E+00 0.  1.
</event>
<event>
 5   0  0.1082209E-06  0.2200943E+04  0.7818609E-02  0.8518036E-01
        1   -1    0    0  501    0  0.00000000000E+00  0.00000000000E+00  0.21008217941E+04  0.21008217941E+04  0.50400001928E-02 0. -1.
       -1   -1    0    0    0  501  0.00000000000E+00  0.00000000000E+00 -0.57645890637E+03  0.57645890640E+03  0.50400001928E-02 0.  1.
    10030    2    1    2    0    0  0.00000000000E+00  0.00000000000E+00  0.15243628877E+04  0.26772807005E+04  0.22009429197E+04 0.  0.
        2    1    3    3  502    0  0.39801930524E+03  0.84040975069E+03  0.46318500431E+02  0.93104957971E+03  0.25500000920E-02 0.  1.
       -2    1    3    3    0  502 -0.39801930524E+03 -0.84040975069E+03  0.14780443873E+04  0.17462311208E+04  0.25500000920E-02 0. -1.
</event>
<event>
 5   0  0.1082209E-06  0.2199996E+04  0.7818609E-02  0.8518430E-01
        1   -1    0    0  501    0  0.00000000000E+00  0.00000000000E+00  0.62886794053E+03  0.62886794055E+03  0.50400001928E-02 0. -1.
       -1   -1    0    0    0  501  0.00000000000E+00  0.00000000000E+00 -0.19240845979E+04  0.19240845979E+04  0.50400001928E-02 0.  1.
    10030    2    1    2    0    0  0.00000000000E+00  0.00000000000E+00 -0.12952166573E+04  0.25529525384E+04  0.21999955623E+04 0.  0.
        2    1    3    3  502    0 -0.37592871363E+03  0.95149057115E+03 -0.11165999706E+04  0.15144148041E+04  0.25500000920E-02 0.  1.
       -2    1    3    3    0  502  0.37592871363E+03 -0.95149057115E+03 -0.17861668674E+03  0.10385377343E+04  0.25500000920E-02 0. -1.
</event>
<event>
 5   0  0.1107101E-06  0.2199749E+04  0.7818609E-02  0.8518533E-01
       -1   -1    0    0    0  501  0.00000000000E+00  0.00000000000E+00  0.67144196261E+03  0.67144196263E+03  0.50400001928E-02 0. -1.
        1   -1    0    0  501    0  0.00000000000E+00  0.00000000000E+00 -0.18016805429E+04  0.18016805429E+04  0.50400001928E-02 0.  1.
    10030    2    1    2    0    0  0.00000000000E+00  0.00000000000E+00 -0.11302385802E+04  0.24731225055E+04  0.21997490036E+04 0.  0.
        1    1    3    3  502    0  0.47892079147E+03 -0.92722740288E+03 -0.95556513661E+03  0.14149984140E+04  0.50400001928E-02 0.  1.
       -1    1    3    3    0  502 -0.47892079147E+03  0.92722740288E+03 -0.17467344363E+03  0.10581240915E+04  0.50400001928E-02 0. -1.
</event>
<event>
 5   0  0.1137869E-06  0.2201489E+04  0.7818609E-02  0.8517809E-01
       -1   -1    0    0    0  501  0.00000000000E+00  0.00000000000E+00  0.79465665750E+03  0.79465665752E+03  0.50400001928E-02 0.  1.
        1   -1    0    0  501    0  0.00000000000E+00  0.00000000000E+00 -0.15247316465E+04  0.15247316465E+04  0.50400001928E-02 0. -1.
    10030    2    1    2    0    0  0.00000000000E+00  0.00000000000E+00 -0.73007498897E+03  0.23193883040E+04  0.22014887270E+04 0.  0.
        5    1    3    3  502    0 -0.45014683848E+02  0.10222275012E+04  0.62452121278E+02  0.10251330369E+04  0.46999998093E+01 0. -1.
       -5    1    3    3    0  502  0.45014683848E+02 -0.10222275012E+04 -0.79252711025E+03  0.12942552671E+04  0.46999998093E+01 0.  1.
</event>
<event>
 5   0  0.1082209E-06  0.2195591E+04  0.7818609E-02  0.8520265E-01
        1   -1    0    0  501    0  0.00000000000E+00  0.00000000000E+00  0.19947393629E+04  0.19947393629E+04  0.50400001928E-02 0. -1.
       -1   -1    0    0    0  501  0.00000000000E+00  0.00000000000E+00 -0.60416663205E+03  0.60416663207E+03  0.50400001928E-02 0.  1.
    10030    2    1    2    0    0  0.00000000000E+00  0.00000000000E+00  0.13905727308E+04  0.25989059950E+04  0.21955910027E+04 0.  0.
        2    1    3    3  502    0 -0.10656183642E+04  0.20655811904E+03  0.88959314705E+03  0.14034189403E+04  0.25500000920E-02 0. -1.
       -2    1    3    3    0  502  0.10656183642E+04 -0.20655811904E+03  0.50097958380E+03  0.11954870547E+04  0.25500000920E-02 0.  1.
</event>
<event>
 5   0  0.2524749E-06  0.2200468E+04  0.7818609E-02  0.8518233E-01
       -2   -1    0    0    0  501  0.00000000000E+00  0.00000000000E+00  0.52125310762E+03  0.52125310762E+03  0.25500000920E-02 0.  1.
        2   -1    0    0  501    0  0.00000000000E+00  0.00000000000E+00 -0.23223174901E+04  0.23223174901E+04  0.25500000920E-02 0. -1.
    10030    2    1    2    0    0  0.00000000000E+00  0.00000000000E+00 -0.18010643825E+04  0.28435705977E+04  0.22004683216E+04 0.  0.
        4    1    3    3  502    0 -0.60524559800E+03 -0.39592959255E+03 -0.19719614167E+04  0.21004085122E+04  0.12699999809E+01 0. -1.
       -4    1    3    3    0  502  0.60524559800E+03  0.39592959255E+03  0.17089703424E+03  0.74316208553E+03  0.12699999809E+01 0.  1.
</event>
<event>
 5   0  0.2524749E-06  0.2199279E+04  0.7818609E-02  0.8518728E-01
        2   -1    0    0  501    0  0.00000000000E+00  0.00000000000E+00  0.93506548201E+03  0.93506548201E+03  0.25500000920E-02 0. -1.
       -2   -1    0    0    0  501  0.00000000000E+00  0.00000000000E+00 -0.12931785630E+04  0.12931785630E+04  0.25500000920E-02 0.  1.
    10030    2    1    2    0    0  0.00000000000E+00  0.00000000000E+00 -0.35811308096E+03  0.22282440450E+04  0.21992786420E+04 0.  0.
        4    1    3    3  502    0  0.84394059202E+03 -0.22483434803E+03 -0.85600209995E+03  0.12229175831E+04  0.12699999809E+01 0.  1.
       -4    1    3    3    0  502 -0.84394059202E+03  0.22483434803E+03  0.49788901899E+03  0.10053264619E+04  0.12699999809E+01 0. -1.
</event>
<event>
 5   0  0.2581058E-06  0.2197685E+04  0.7818609E-02  0.8519392E-01
       -2   -1    0    0    0  501  0.00000000000E+00  0.00000000000E+00  0.10188202659E+04  0.10188202659E+04  0.25500000920E-02 0. -1.
        2   -1    0    0  501    0  0.00000000000E+00  0.00000000000E+00 -0.11851503869E+04  0.11851503869E+04  0.25500000920E-02 0.  1.
    10030    2    1    2    0    0  0.00000000000E+00  0.00000000000E+00 -0.16633012098E+03  0.22039706528E+04  0.21976853572E+04 0.  0.
        1    1    3    3  502    0 -0.72174915272E+03  0.20351326800E+03  0.72232300998E+03  0.10411964370E+04  0.50400001928E-02 0. -1.
       -1    1    3    3    0  502  0.72174915272E+03 -0.20351326800E+03 -0.88865313096E+03  0.11627742158E+04  0.50400001928E-02 0.  1.
</event>
<event>
 5   0  0.1146827E-06  0.2202695E+04  0.7818609E-02  0.8517307E-01
        1   -1    0    0  501    0  0.00000000000E+00  0.00000000000E+00  0.12965058121E+04  0.12965058121E+04  0.50400001928E-02 0.  1.
       -1   -1    0    0    0  501  0.00000000000E+00  0.00000000000E+00 -0.93556552447E+03  0.93556552449E+03  0.50400001928E-02 0. -1.
    10030    2    1    2    0    0  0.00000000000E+00  0.00000000000E+00  0.36094028759E+03  0.22320713366E+04  0.22026948405E+04 0.  0.
        4    1    3    3  502    0  0.25357174033E+03  0.50032918112E+02  0.12653380304E+04  0.12914657814E+04  0.12699999809E+01 0.  1.
       -4    1    3    3    0  502 -0.25357174033E+03 -0.50032918112E+02 -0.90439774280E+03  0.94060555519E+03  0.12699999809E+01 0. -1.
</event>
<event>
 5   0  0.1146827E-06  0.2199442E+04  0.7818609E-02  0.8518660E-01
        1   -1    0    0  501    0  0.00000000000E+00  0.00000000000E+00  0.15465062802E+04  0.15465062803E+04  0.50400001928E-02 0.  1.
       -1   -1    0    0    0  501  0.00000000000E+00  0.00000000000E+00 -0.78201208940E+03  0.78201208942E+03  0.50400001928E-02 0. -1.
    10030    2    1    2    0    0  0.00000000000E+00  0.00000000000E+00  0.76449419084E+03  0.23285183697E+04  0.21994422998E+04 0.  0.
        4    1    3    3  502    0 -0.69675101061E+03  0.85074689783E+03  0.39533117026E+03  0.11685549204E+04  0.12699999809E+01 0.  1.
       -4    1    3    3    0  502  0.69675101061E+03 -0.85074689783E+03  0.36916302059E+03  0.11599634493E+04  0.12699999809E+01 0. -1.
</event>
<event>
 5   0  0.2556869E-06  0.2200430E+04  0.7818609E-02  0.8518249E-01
        2   -1    0    0  501    0  0.00000000000E+00  0.00000000000E+00  0.19778157263E+04  0.19778157263E+04  0.25500000920E-02 0.  1.
       -2   -1    0    0    0  501  0.00000000000E+00  0.00000000000E+00 -0.61202522168E+03  0.61202522168E+03  0.25500000920E-02 0. -1.
    10030    2    1    2    0    0  0.00000000000E+00  0.00000000000E+00  0.13657905046E+04  0.25898409480E+04  0.22004300565E+04 0.  0.
        5    1    3    3  502    0 -0.72145686408E+03  0.79066306363E+03  0.38328073623E+03  0.11369143766E+04  0.46999998093E+01 0. -1.
       -5    1    3    3    0  502  0.72145686408E+03 -0.79066306363E+03  0.98250976840E+03  0.14529265714E+04  0.46999998093E+01 0.  1.
</event>
<event>
 5   0  0.1137869E-06  0.2197383E+04  0.7818609E-02  0.8519518E-01
       -1   -1    0    0    0  501  0.00000000000E+00  0.00000000000E+00  0.16266803094E+04  0.16266803094E+04  0.50400001928E-02 0. -1.
        1   -1    0    0  501    0  0.00000000000E+00  0.00000000000E+00 -0.74207781915E+03  0.74207781916E+03  0.50400001928E-02 0.  1.
    10030    2    1    2    0    0  0.00000000000E+00  0.00000000000E+00  0.88460249025E+03  0.23687581286E+04  0.21973833316E+04 0.  0.
        5    1    3    3  502    0  0.10179474638E+04  0.41049406934E+03  0.38972374615E+03  0.11647442244E+04  0.46999998093E+01 0.  1.
       -5    1    3    3    0  502 -0.10179474638E+04 -0.41049406934E+03  0.49487874410E+03  0.12040139041E+04  0.46999998093E+01 0. -1.
</event>
<event>
 5   0  0.1137869E-06  0.2200082E+04  0.7818609E-02  0.8518394E-01
       -1   -1    0    0    0  501  0.00000000000E+00  0.00000000000E+00  0.77000527653E+03  0.77000527655E+03  0.50400001928E-02 0.  1.
        1   -1    0    0  501    0  0.00000000000E+00  0.00000000000E+00 -0.15715344724E+04  0.15715344724E+04  0.50400001928E-02 0. -1.
    10030    2    1    2    0    0  0.00000000000E+00  0.00000000000E+00 -0.80152919586E+03  0.23415397490E+04  0.22000816676E+04 0.  0.
        5    1    3    3  502    0 -0.35352979011E+03 -0.87931731154E+03  0.19361011410E+03  0.96731029828E+03  0.46999998093E+01 0.  1.
       -5    1    3    3    0  502  0.35352979011E+03  0.87931731154E+03 -0.99513930996E+03  0.13742294507E+04  0.46999998093E+01 0. -1.
</event>
<event>
 5   0  0.2606154E-06  0.2198918E+04  0.7818609E-02  0.8518879E-01
       -2   -1    0    0    0  501  0.00000000000E+00  0.00000000000E+00  0.16029766749E+04  0.16029766749E+04  0.25500000920E-02 0. -1.
        2   -1    0    0  501    0  0.00000000000E+00  0.00000000000E+00 -0.75410330089E+03  0.75410330090E+03  0.25500000920E-02 0.  1.
    10030    2    1    2    0    0  0.00000000000E+00  0.00000000000E+00  0.84887337403E+03  0.23570799758E+04  0.21989179174E+04 0.  0.
        2    1    3    3  502    0 -0.17744250555E+03 -0.78384107906E+03  0.12286802744E+04  0.14681784281E+04  0.25500000920E-02 0. -1.
       -2    1    3    3    0  502  0.17744250555E+03  0.78384107906E+03 -0.37980690036E+03  0.88890154774E+03  0.25500000920E-02 0.  1.
</event>
<event>
 5   0  0.1144271E-06  0.2199917E+04  0.7818609E-02  0.8518463E-01
        1   -1    0    0  501    0  0.00000000000E+00  0.00000000000E+00  0.13678863140E+04  0.13678863140E+04  0.50400001928E-02 0. -1.
       -1   -1    0    0    0  501  0.00000000000E+00  0.00000000000E+00 -0.88450982521E+03  0.88450982522E+03  0.50400001928E-02 0.  1.
    10030    2    1    2    0    0  0.00000000000E+00  0.00000000000E+00  0.48337648882E+03  0.22523961393E+04  0.21999171662E+04 0.  0.
        3    1    3    3  502    0  0.79265706697E+03 -0.66742301446E+03  0.61947570335E+03  0.12072733176E+04  0.10100000352E+00 0. -1.
       -3    1    3    3    0  502 -0.79265706697E+03  0.66742301446E+03 -0.13609921453E+03  0.10451228217E+04  0.10100000352E+00 0.  1.
</event>
<event>
 5   0  0.2532239E-06  0.2199626E+04  0.7818609E-02  0.8518584E-01
       -2   -1    0    0    0  501  0.00000000000E+00  0.00000000000E+00  0.60330320275E+03  0.60330320275E+03  0.25500000920E-02 0.  1.
        2   -1    0    0  501    0  0.00000000000E+00  0.00000000000E+00 -0.20049424938E+04  0.20049424938E+04  0.25500000920E-02 0. -1.
    10030    2    1    2    0    0  0.00000000000E+00  0.00000000000E+00 -0.14016392911E+04  0.26082456966E+04  0.21996256298E+04 0.  0.
        3    1    3    3  502    0  0.58177440042E+03 -0.62289331668E+03  0.12337926665E+03  0.86120844782E+03  0.10100000352E+00 0.  1.
       -3    1    3    3    0  502 -0.58177440042E+03  0.62289331668E+03 -0.15250185577E+04  0.17470372488E+04  0.10100000352E+00 0. -1.
</event>
<event>
 5   0  0.2524749E-06  0.2199560E+04  0.7818609E-02  0.8518611E-01
        2   -1    0    0  501    0  0.00000000000E+00  0.00000000000E+00  0.11465154610E+04  0.11465154610E+04  0.25500000920E-02 0.  1.
       -2   -1    0    0    0  501  0.00000000000E+00  0.00000000000E+00 -0.10549494752E+04  0.10549494752E+04  0.25500000920E-02 0. -1.
    10030    2    1    2    0    0  0.00000000000E+00  0.00000000000E+00  0.91565985769E+02  0.22014649362E+04  0.21995598504E+04 0.  0.
        4    1    3    3  502    0  0.37313848007E+02 -0.43132727506E+02  0.11450336277E+04  0.11464538268E+04  0.12699999809E+01 0.  1.
       -4    1    3    3    0  502 -0.37313848007E+02  0.43132727506E+02 -0.10534676419E+04  0.10550111094E+04  0.12699999809E+01 0. -1.
</event>
<event>
 5   0  0.2524749E-06  0.2199566E+04  0.7818609E-02  0.8518609E-01
       -2   -1    0    0    0  501  0.00000000000E+00  0.00000000000E+00  0.10681752792E+04  0.10681752792E+04  0.25500000920E-02 0. -1.
        2   -1    0    0  501    0  0.00000000000E+00  0.00000000000E+00 -0.11323263770E+04  0.11323263770E+04  0.25500000920E-02 0.  1.
    10030    2    1    2    0    0  0.00000000000E+00  0.00000000000E+00 -0.64151097893E+02  0.22005016562E+04  0.21995663608E+04 0.  0.
        4    1    3    3  502    0  0.26432832915E+02 -0.88160441114E+03 -0.68931486748E+03  0.11194112881E+04  0.12699999809E+01 0.  1.
       -4    1    3    3    0  502 -0.26432832915E+02  0.88160441114E+03  0.62516376958E+03  0.10810903681E+04  0.12699999809E+01 0. -1.
</event>
<event>
 5   0  0.1082209E-06  0.2200191E+04  0.7818609E-02  0.8518349E-01
       -1   -1    0    0    0  501  0.00000000000E+00  0.00000000000E+00  0.98453644473E+03  0.98453644474E+03  0.50400001928E-02 0. -1.
        1   -1    0    0  501    0  0.00000000000E+00  0.00000000000E+00 -0.12292182119E+04  0.12292182119E+04  0.50400001928E-02 0.  1.
    10030    2    1    2    0    0  0.00000000000E+00  0.00000000000E+00 -0.24468176715E+03  0.22137546566E+04  0.22001910173E+04 0.  0.
        2    1    3    3  502    0 -0.36208344499E+03 -0.10220244264E+04  0.64740237492E+02  0.10861996352E+04  0.25500000920E-02 0. -1.
       -2    1    3    3    0  502  0.36208344499E+03  0.10220244264E+04 -0.30942200464E+03  0.11275550214E+04  0.25500000920E-02 0.  1.
</event>
<event>
 5   0  0.2581058E-06  0.2200865E+04  0.7818609E-02  0.8518068E-01
       -2   -1    0    0    0  501  0.00000000000E+00  0.00000000000E+00  0.10107875630E+04  0.10107875630E+04  0.25500000920E-02 0. -1.
        2   -1    0    0  501    0  0.00000000000E+00  0.00000000000E+00 -0.11980281589E+04  0.11980281589E+04  0.25500000920E-02 0.  1.
    10030    2    1    2    0    0  0.00000000000E+00  0.00000000000E+00 -0.18724059590E+03  0.22088157219E+04  0.22008652509E+04 0.  0.
        1    1    3    3  502    0  0.19697791012E+03  0.10668076088E+04 -0.27887636538E+03  0.11201119580E+04  0.50400001928E-02 0.  1.
       -1    1    3    3    0  502 -0.19697791012E+03 -0.10668076088E+04  0.91635769481E+02  0.10887037639E+04  0.50400001928E-02 0. -1.
</event>
<event>
 5   0  0.1107101E-06  0.2200577E+04  0.7818609E-02  0.8518188E-01
        1   -1    0    0  501    0  0.00000000000E+00  0.00000000000E+00  0.10826622982E+04  0.10826622982E+04  0.50400001928E-02 0. -1.
       -1   -1    0    0    0  501  0.00000000000E+00  0.00000000000E+00 -0.11182014834E+04  0.11182014834E+04  0.50400001928E-02 0.  1.
    10030    2    1    2    0    0  0.00000000000E+00  0.00000000000E+00 -0.35539185255E+02  0.22008637816E+04  0.22005768224E+04 0.  0.
        1    1    3    3  502    0 -0.84808900037E+03  0.13829518818E+03 -0.70506665344E+03  0.11115302504E+04  0.50400001928E-02 0.  1.
       -1    1    3    3    0  502  0.84808900037E+03 -0.13829518818E+03  0.66952746819E+03  0.10893335312E+04  0.50400001928E-02 0. -1.
</event>
<event>
 5   0  0.1137869E-06  0.2200638E+04  0.7818609E-02  0.8518163E-01
       -1   -1    0    0    0  501  0.00000000000E+00  0.00000000000E+00  0.64569026073E+03  0.64569026075E+03  0.50400001928E-02 0. -1.
        1   -1    0    0  501    0  0.00000000000E+00  0.00000000000E+00 -0.18750507021E+04  0.18750507021E+04  0.50400001928E-02 0.  1.
    10030    2    1    2    0    0  0.00000000000E+00  0.00000000000E+00 -0.12293604413E+04  0.25207409628E+04  0.22006380681E+04 0.  0.
        5    1    3    3  502    0 -0.11000713306E+04 -0.22546899361E+02 -0.61030467633E+03  0.12582365370E+04  0.46999998093E+01 0. -1.
       -5    1    3    3    0  502  0.11000713306E+04  0.22546899361E+02 -0.61905576502E+03  0.12625044258E+04  0.46999998093E+01 0.  1.
</event>
<event>
 5   0  0.2581058E-06  0.2196606E+04  0.7818609E-02  0.8519842E-01
        2   -1    0    0  501    0  0.00000000000E+00  0.00000000000E+00  0.17445779282E+04  0.17445779282E+04  0.25500000920E-02 0.  1.
       -2   -1    0    0    0  501  0.00000000000E+00  0.00000000000E+00 -0.69143892337E+03  0.69143892338E+03  0.25500000920E-02 0. -1.
    10030    2    1    2    0    0  0.00000000000E+00  0.00000000000E+00  0.10531390049E+04  0.24360168516E+04  0.21966056400E+04 0.  0.
        1    1    3    3  502    0 -0.37237242066E+03  0.44144173800E+03 -0.50945470291E+03  0.77011435648E+03  0.50400001928E-02 0. -1.
       -1    1    3    3    0  502  0.37237242066E+03 -0.44144173800E+03  0.15625937078E+04  0.16659024951E+04  0.50400001928E-02 0.  1.
</event>
<event>
 5   0  0.1137869E-06  0.2198884E+04  0.7818609E-02  0.8518893E-01
        1   -1    0    0  501    0  0.00000000000E+00  0.00000000000E+00  0.16313898422E+04  0.16313898422E+04  0.50400001928E-02 0.  1.
       -1   -1    0    0    0  501  0.00000000000E+00  0.00000000000E+00 -0.74094646281E+03  0.74094646283E+03  0.50400001928E-02 0. -1.
    10030    2    1    2    0    0  0.00000000000E+00  0.00000000000E+00  0.89044337941E+03  0.23723363051E+04  0.21988838379E+04 0.  0.
        5    1    3    3  502    0  0.47368345785E+03 -0.40117684683E+03 -0.53378965138E+03  0.81870163221E+03  0.46999998093E+01 0. -1.
       -5    1    3    3    0  502 -0.47368345785E+03  0.40117684683E+03  0.14242330308E+04  0.15536346728E+04  0.46999998093E+01 0.  1.
</event>
<event>
 5   0  0.1144271E-06  0.2199574E+04  0.7818609E-02  0.8518606E-01
        1   -1    0    0  501    0  0.00000000000E+00  0.00000000000E+00  0.72834178602E+03  0.72834178604E+03  0.50400001928E-02 0.  1.
       -1   -1    0    0    0  501  0.00000000000E+00  0.00000000000E+00 -0.16606639170E+04  0.16606639170E+04  0.50400001928E-02 0. -1.
    10030    2    1    2    0    0  0.00000000000E+00  0.00000000000E+00 -0.93232213100E+03  0.23890057031E+04  0.21995735253E+04 0.  0.
        3    1    3    3  502    0 -0.89233815715E+03  0.30970929903E+03 -0.10780091816E+04  0.14332798200E+04  0.10100000352E+00 0. -1.
       -3    1    3    3    0  502  0.89233815715E+03 -0.30970929903E+03  0.14568705061E+03  0.95572588305E+03  0.10100000352E+00 0.  1.
</event>
<event>
 5   0  0.1146827E-06  0.2200280E+04  0.7818609E-02  0.8518311E-01
        1   -1    0    0  501    0  0.00000000000E+00  0.00000000000E+00  0.11998084230E+04  0.11998084231E+04  0.50400001928E-02 0.  1.
       -1   -1    0    0    0  501  0.00000000000E+00  0.00000000000E+00 -0.10087513358E+04  0.10087513359E+04  0.50400001928E-02 0. -1.
    10030    2    1    2    0    0  0.00000000000E+00  0.00000000000E+00  0.19105708720E+03  0.22085597589E+04  0.22002802999E+04 0.  0.
        4    1    3    3  502    0 -0.52566663740E+03 -0.96245533167E+03  0.76717184869E+01  0.10966796010E+04  0.12699999809E+01 0. -1.
       -4    1    3    3    0  502  0.52566663740E+03  0.96245533167E+03  0.18338536871E+03  0.11118801579E+04  0.12699999809E+01 0.  1.
</event>
<event>
 5   0  0.2556869E-06  0.2199002E+04  0.7818609E-02  0.8518844E-01
        2   -1    0    0  501    0  0.00000000000E+00  0.00000000000E+00  0.10186996090E+04  0.10186996090E+04  0.25500000920E-02 0. -1.
       -2   -1    0    0    0  501  0.00000000000E+00  0.00000000000E+00 -0.11867116757E+04  0.11867116757E+04  0.25500000920E-02 0.  1.
    10030    2    1    2    0    0  0.00000000000E+00  0.00000000000E+00 -0.16801206665E+03  0.22054112847E+04  0.21990022465E+04 0.  0.
        5    1    3    3  502    0 -0.87318921741E+03 -0.66087718106E+03  0.14578842848E+02  0.10951952751E+04  0.46999998093E+01 0. -1.
       -5    1    3    3    0  502  0.87318921741E+03  0.66087718106E+03 -0.18259090950E+03  0.11102160096E+04  0.46999998093E+01 0.  1.
</event>
<event>
 5   0  0.2581058E-06  0.2200637E+04  0.7818609E-02  0.8518163E-01
       -2   -1    0    0    0  501  0.00000000000E+00  0.00000000000E+00  0.61919495938E+03  0.61919495939E+03  0.25500000920E-02 0. -1.
        2   -1    0    0  501    0  0.00000000000E+00  0.00000000000E+00 -0.19552823744E+04  0.19552823744E+04  0.25500000920E-02 0.  1.
    10030    2    1    2    0    0  0.00000000000E+00  0.00000000000E+00 -0.13360874150E+04  0.25744773338E+04  0.22006371717E+04 0.  0.
        1    1    3    3  502    0  0.76931084113E+03  0.11556670356E+03  0.24228850328E+03  0.81479970060E+03  0.50400001928E-02 0. -1.
       -1    1    3    3    0  502 -0.76931084113E+03 -0.11556670356E+03 -0.15783759183E+04  0.17596776332E+04  0.50400001928E-02 0.  1.
</event>
<event>
 5   0  0.1082209E-06  0.2201752E+04  0.7818609E-02  0.8517699E-01
        1   -1    0    0  501    0  0.00000000000E+00  0.00000000000E+00  0.62163104389E+03  0.62163104391E+03  0.50400001928E-02 0. -1.
       -1   -1    0    0    0  501  0.00000000000E+00  0.00000000000E+00 -0.19495930393E+04  0.19495930393E+04  0.50400001928E-02 0.  1.
    10030    2    1    2    0    0  0.00000000000E+00  0.00000000000E+00 -0.13279619954E+04  0.25712240832E+04  0.22017516265E+04 0.  0.
        2    1    3    3  502    0 -0.47330835571E+03  0.67246897071E+03  0.19074965490E+03  0.84416867213E+03  0.25500000920E-02 0. -1.
       -2    1    3    3    0  502  0.47330835571E+03 -0.67246897071E+03 -0.15187116503E+04  0.17270554111E+04  0.25500000920E-02 0.  1.
</event>
<event>
 5   0  0.1137869E-06  0.2200887E+04  0.7818609E-02  0.8518059E-01
       -1   -1    0    0    0  501  0.00000000000E+00  0.00000000000E+00  0.55774843699E+03  0.55774843701E+03  0.50400001928E-02 0.  1.
        1   -1    0    0  501    0  0.00000000000E+00  0.00000000000E+00 -0.21711874520E+04  0.21711874520E+04  0.50400001928E-02 0. -1.
    10030    2    1    2    0    0  0.00000000000E+00  0.00000000000E+00 -0.16134390150E+04  0.27289358890E+04  0.22008874645E+04 0.  0.
        5    1    3    3  502    0 -0.54443502502E+03  0.12261571387E+03  0.36925672459E+03  0.66919110007E+03  0.46999998093E+01 0.  1.
       -5    1    3    3    0  502  0.54443502502E+03 -0.12261571387E+03 -0.19826957396E+04  0.20597447889E+04  0.46999998093E+01 0. -1.
</event>
<event>
 5   0  0.2532239E-06  0.2200201E+04  0.7818609E-02  0.8518344E-01
        2   -1    0    0  501    0  0.00000000000E+00  0.00000000000E+00  0.11482290418E+04  0.11482290418E+04  0.25500000920E-02 0.  1.
       -2   -1    0    0    0  501  0.00000000000E+00  0.00000000000E+00 -0.10539896189E+04  0.10539896189E+04  0.25500000920E-02 0. -1.
    10030    2    1    2    0    0  0.00000000000E+00  0.00000000000E+00  0.94239422856E+02  0.22022186608E+04  0.22002013456E+04 0.  0.
        3    1    3    3  502    0  0.36636266219E+03 -0.10247991895E+04 -0.11360928062E+03  0.10942312634E+04  0.10100000352E+00 0. -1.
       -3    1    3    3    0  502 -0.36636266219E+03  0.10247991895E+04  0.20784870348E+03  0.11079873974E+04  0.10100000352E+00 0.  1.
</event>
<event>
 5   0  0.2581058E-06  0.2201213E+04  0.7818609E-02  0.8517923E-01
       -2   -1    0    0    0  501  0.00000000000E+00  0.00000000000E+00  0.99117668002E+03  0.99117668003E+03  0.25500000920E-02 0.  1.
        2   -1    0    0  501    0  0.00000000000E+00  0.00000000000E+00 -0.12221176673E+04  0.12221176673E+04  0.25500000920E-02 0. -1.
    10030    2    1    2    0    0  0.00000000000E+00  0.00000000000E+00 -0.23094098729E+03  0.22132943473E+04  0.22012128767E+04 0.  0.
        1    1    3    3  502    0 -0.67886419148E+03  0.33514739222E+03 -0.91870052001E+03  0.11904583195E+04  0.50400001928E-02 0. -1.
       -1    1    3    3    0  502  0.67886419148E+03 -0.33514739222E+03  0.68775953272E+03  0.10228360278E+04  0.50400001928E-02 0.  1.
</event>
<event>
 5   0  0.1137869E-06  0.2194094E+04  0.7818609E-02  0.8520890E-01
        1   -1    0    0  501    0  0.00000000000E+00  0.00000000000E+00  0.15630352466E+04  0.15630352466E+04  0.50400001928E-02 0. -1.
       -1   -1    0    0    0  501  0.00000000000E+00  0.00000000000E+00 -0.76998412408E+03  0.76998412409E+03  0.50400001928E-02 0.  1.
    10030    2    1    2    0    0  0.00000000000E+00  0.00000000000E+00  0.79305112253E+03  0.23330193707E+04  0.21940941869E+04 0.  0.
        5    1    3    3  502    0  0.37010123847E+03  0.67430108037E+03  0.12282503683E+04  0.14492335668E+04  0.46999998093E+01 0. -1.
       -5    1    3    3    0  502 -0.37010123847E+03 -0.67430108037E+03 -0.43519924581E+03  0.88378580395E+03  0.46999998093E+01 0.  1.
</event>
<event>
 5   0  0.1082209E-06  0.2200059E+04  0.7818609E-02  0.8518404E-01
        1   -1    0    0  501    0  0.00000000000E+00  0.00000000000E+00  0.22919979509E+04  0.22919979509E+04  0.50400001928E-02 0. -1.
       -1   -1    0    0    0  501  0.00000000000E+00  0.00000000000E+00 -0.52795192051E+03  0.52795192054E+03  0.50400001928E-02 0.  1.
    10030    2    1    2    0    0  0.00000000000E+00  0.00000000000E+00  0.17640460304E+04  0.28199498715E+04  0.22000588356E+04 0.  0.
        2    1    3    3  502    0  0.54803916126E+03  0.91911475098E+03  0.12086731713E+04  0.16143139976E+04  0.25500000920E-02 0. -1.
       -2    1    3    3    0  502 -0.54803916126E+03 -0.91911475098E+03  0.55537285909E+03  0.12056358739E+04  0.25500000920E-02 0.  1.
</event>
<event>
 5   0  0.1137869E-06  0.2200518E+04  0.7818609E-02  0.8518212E-01
        1   -1    0    0  501    0  0.00000000000E+00  0.00000000000E+00  0.15641326628E+04  0.15641326628E+04  0.50400001928E-02 0.  1.
       -1   -1    0    0    0  501  0.00000000000E+00  0.00000000000E+00 -0.77395608562E+03  0.77395608563E+03  0.50400001928E-02 0. -1.
    10030    2    1    2    0    0  0.00000000000E+00  0.00000000000E+00  0.79017657720E+03  0.23380887485E+04  0.22005181146E+04 0.  0.
        5    1    3    3  502    0  0.13919627499E+03  0.10907017849E+04  0.43681041857E+03  0.11831447157E+04  0.46999998093E+01 0. -1.
       -5    1    3    3    0  502 -0.13919627499E+03 -0.10907017849E+04  0.35336615864E+03  0.11549440327E+04  0.46999998093E+01 0.  1.
</event>
<event>
 5   0  0.1082209E-06  0.2199289E+04  0.7818609E-02  0.8518724E-01
       -1   -1    0    0    0  501  0.00000000000E+00  0.00000000000E+00  0.82041310960E+03  0.82041310962E+03  0.50400001928E-02 0. -1.
        1   -1    0    0  501    0  0.00000000000E+00  0.00000000000E+00 -0.14739139852E+04  0.14739139852E+04  0.50400001928E-02 0.  1.
    10030    2    1    2    0    0  0.00000000000E+00  0.00000000000E+00 -0.65350087555E+03  0.22943270948E+04  0.21992892996E+04 0.  0.
        2    1    3    3  502    0  0.51976816949E+03 -0.77450422856E+03 -0.93432916904E+03  0.13202222336E+04  0.25500000920E-02 0.  1.
       -2    1    3    3    0  502 -0.51976816949E+03  0.77450422856E+03  0.28082829349E+03  0.97410486114E+03  0.25500000920E-02 0. -1.
</event>
<event>
 5   0  0.1137869E-06  0.2200455E+04  0.7818609E-02  0.8518239E-01
       -1   -1    0    0    0  501  0.00000000000E+00  0.00000000000E+00  0.70842542792E+03  0.70842542794E+03  0.50400001928E-02 0.  1.
        1   -1    0    0  501    0  0.00000000000E+00  0.00000000000E+00 -0.17087199978E+04  0.17087199978E+04  0.50400001928E-02 0. -1.
    10030    2    1    2    0    0  0.00000000000E+00  0.00000000000E+00 -0.10002945699E+04  0.24171454258E+04  0.22004551308E+04 0.  0.
        5    1    3    3  502    0 -0.40356098518E+03  0.46163117425E+03 -0.15036233617E+04  0.16238442393E+04  0.46999998093E+01 0. -1.
       -5    1    3    3    0  502  0.40356098518E+03 -0.46163117425E+03  0.50332879177E+03  0.79330118645E+03  0.46999998093E+01 0.  1.
</event>
<event>
 5   0  0.1082209E-06  0.2196948E+04  0.7818609E-02  0.8519699E-01
       -1   -1    0    0    0  501  0.00000000000E+00  0.00000000000E+00  0.71966938407E+03  0.71966938409E+03  0.50400001928E-02 0.  1.
        1   -1    0    0  501    0  0.00000000000E+00  0.00000000000E+00 -0.16766666212E+04  0.16766666212E+04  0.50400001928E-02 0. -1.
    10030    2    1    2    0    0  0.00000000000E+00  0.00000000000E+00 -0.95699723716E+03  0.23963360053E+04  0.21969484606E+04 0.  0.
        2    1    3    3  502    0 -0.21472756376E+03 -0.50656917673E+03  0.55853810048E+03  0.78401853750E+03  0.25500000920E-02 0.  1.
       -2    1    3    3    0  502  0.21472756376E+03  0.50656917673E+03 -0.15155353376E+04  0.16123174678E+04  0.25500000920E-02 0. -1.
</event>
<event>
 5   0  0.2532239E-06  0.2199685E+04  0.7818609E-02  0.8518559E-01
       -2   -1    0    0    0  501  0.00000000000E+00  0.00000000000E+00  0.91332511019E+03  0.91332511019E+03  0.25500000920E-02 0. -1.
        2   -1    0    0  501    0  0.00000000000E+00  0.00000000000E+00 -0.13244497329E+04  0.13244497329E+04  0.25500000920E-02 0.  1.
    10030    2    1    2    0    0  0.00000000000E+00  0.00000000000E+00 -0.41112462271E+03  0.22377748431E+04  0.21996847031E+04 0.  0.
        3    1    3    3  502    0  0.30819186557E+02 -0.99490497042E+02 -0.13194213326E+04  0.13235259138E+04  0.10100000352E+00 0.  1.
       -3    1    3    3    0  502 -0.30819186557E+02  0.99490497042E+02  0.90829670992E+03  0.91424892930E+03  0.10100000352E+00 0. -1.
</event>
<event>
 5   0  0.2606154E-06  0.2199176E+04  0.7818609E-02  0.8518771E-01
        2   -1    0    0  501    0  0.00000000000E+00  0.00000000000E+00  0.15457051694E+04  0.15457051694E+04  0.25500000920E-02 0. -1.
       -2   -1    0    0    0  501  0.00000000000E+00  0.00000000000E+00 -0.78222761264E+03  0.78222761265E+03  0.25500000920E-02 0.  1.
    10030    2    1    2    0    0  0.00000000000E+00  0.00000000000E+00  0.76347755673E+03  0.23279327820E+04  0.21991755405E+04 0.  0.
        2    1    3    3  502    0 -0.31461994208E+03  0.10529985856E+04  0.41992779871E+03  0.11764910052E+04  0.25500000920E-02 0.  1.
       -2    1    3    3    0  502  0.31461994208E+03 -0.10529985856E+04  0.34354975802E+03  0.11514417768E+04  0.25500000920E-02 0. -1.
</event>
<event>
 5   0  0.2581058E-06  0.2202492E+04  0.7818609E-02  0.8517392E-01
        2   -1    0    0  501    0  0.00000000000E+00  0.00000000000E+00  0.12718281856E+04  0.12718281856E+04  0.25500000920E-02 0. -1.
       -2   -1    0    0    0  501  0.00000000000E+00  0.00000000000E+00 -0.95354283294E+03  0.95354283295E+03  0.25500000920E-02 0.  1.
    10030    2    1    2    0    0  0.00000000000E+00  0.00000000000E+00  0.31828535270E+03  0.22253710186E+04  0.22024919080E+04 0.  0.
        1    1    3    3  502    0 -0.73133518168E+03 -0.77926160568E+02 -0.66901732847E+03  0.99423730582E+03  0.50400001928E-02 0.  1.
       -1    1    3    3    0  502  0.73133518168E+03  0.77926160568E+02  0.98730268117E+03  0.12311337128E+04  0.50400001928E-02 0. -1.
</event>
<event>
 5   0  0.1082209E-06  0.2199866E+04  0.7818609E-02  0.8518484E-01
       -1   -1    0    0    0  501  0.00000000000E+00  0.00000000000E+00  0.14137336929E+04  0.14137336929E+04  0.50400001928E-02 0.  1.
        1   -1    0    0  501    0  0.00000000000E+00  0.00000000000E+00 -0.85578509666E+03  0.85578509668E+03  0.50400001928E-02 0. -1.
    10030    2    1    2    0    0  0.00000000000E+00  0.00000000000E+00  0.55794859622E+03  0.22695187896E+04  0.21998656550E+04 0.  0.
        2    1    3    3  502    0 -0.69411800774E+03 -0.72481315201E+03 -0.18550107067E+03  0.10205707037E+04  0.25500000920E-02 0. -1.
       -2    1    3    3    0  502  0.69411800774E+03  0.72481315201E+03  0.74344966689E+03  0.12489480859E+04  0.25500000920E-02 0.  1.
</event>
<event>
 5   0  0.2524749E-06  0.2200000E+04  0.7818609E-02  0.8518428E-01
        2   -1    0    0  501    0  0.00000000000E+00  0.00000000000E+00  0.70572578992E+03  0.70572578993E+03  0.25500000920E-02 0. -1.
       -2   -1    0    0    0  501  0.00000000000E+00  0.00000000000E+00 -0.17145463866E+04  0.17145463866E+04  0.25500000920E-02 0.  1.
    10030    2    1    2    0    0  0.00000000000E+00  0.00000000000E+00 -0.10088205966E+04  0.24202721765E+04  0.21999996391E+04 0.  0.
        4    1    3    3  502    0  0.89052787529E+03  0.57454761385E+03 -0.18019437341E+03  0.10749960383E+04  0.12699999809E+01 0. -1.
       -4    1    3    3    0  502 -0.89052787529E+03 -0.57454761385E+03 -0.82862622323E+03  0.13452761382E+04  0.12699999809E+01 0.  1.
</event>
<event>
 5   0  0.1107101E-06  0.2199690E+04  0.7818609E-02  0.8518557E-01
       -1   -1    0    0    0  501  0.00000000000E+00  0.00000000000E+00  0.92134979084E+03  0.92134979086E+03  0.50400001928E-02 0. -1.
        1   -1    0    0  501    0  0.00000000000E+00  0.00000000000E+00 -0.13129203671E+04  0.13129203671E+04  0.50400001928E-02 0.  1.
    10030    2    1    2    0    0  0.00000000000E+00  0.00000000000E+00 -0.39157057626E+03  0.22342701580E+04  0.21996898924E+04 0.  0.
        1    1    3    3  502    0  0.96626596990E+03 -0.23171230377E+03 -0.67468258280E+03  0.12010649874E+04  0.50400001928E-02 0.  1.
       -1    1    3    3    0  502 -0.96626596990E+03  0.23171230377E+03  0.28311200654E+03  0.10332051706E+04  0.50400001928E-02 0. -1.
</event>
<event>
 5   0  0.1146827E-06  0.2203326E+04  0.7818609E-02  0.8517045E-01
       -1   -1    0    0    0  501  0.00000000000E+00  0.00000000000E+00  0.74694678315E+03  0.74694678317E+03  0.50400001928E-02 0. -1.
        1   -1    0    0  501    0  0.00000000000E+00  0.00000000000E+00 -0.16248297404E+04  0.16248297404E+04  0.50400001928E-02 0.  1.
    10030    2    1    2    0    0  0.00000000000E+00  0.00000000000E+00 -0.87788295729E+03  0.23717765236E+04  0.22033259839E+04 0.  0.
        4    1    3    3  502    0 -0.70153355566E+03  0.83553559817E+03 -0.27430868980E+03  0.11249515259E+04  0.12699999809E+01 0. -1.
       -4    1    3    3    0  502  0.70153355566E+03 -0.83553559817E+03 -0.60357426749E+03  0.12468249977E+04  0.12699999809E+01 0.  1.
</event>
<event>
 5   0  0.2532239E-06  0.2200495E+04  0.7818609E-02  0.8518222E-01
       -2   -1    0    0    0  501  0.00000000000E+00  0.00000000000E+00  0.14717959223E+04  0.14717959223E+04  0.25500000920E-02 0. -1.
        2   -1    0    0  501    0  0.00000000000E+00  0.00000000000E+00 -0.82249508336E+03  0.82249508337E+03  0.25500000920E-02 0.  1.
    10030    2    1    2    0    0  0.00000000000E+00  0.00000000000E+00  0.64930083896E+03  0.22942910057E+04  0.22004953168E+04 0.  0.
        3    1    3    3  502    0  0.95129262195E+03  0.53586993136E+03  0.46619672603E+03  0.11872041246E+04  0.10100000352E+00 0.  1.
       -3    1    3    3    0  502 -0.95129262195E+03 -0.53586993136E+03  0.18310411294E+03  0.11070868811E+04  0.10100000352E+00 0. -1.
</event>
<event>
 5   0  0.1137869E-06  0.2199779E+04  0.7818609E-02  0.8518520E-01
       -1   -1    0    0    0  501  0.00000000000E+00  0.00000000000E+00  0.16388759873E+04  0.16388759874E+04  0.50400001928E-02 0. -1.
        1   -1    0    0  501    0  0.00000000000E+00  0.00000000000E+00 -0.73816264823E+03  0.73816264825E+03  0.50400001928E-02 0.  1.
    10030    2    1    2    0    0  0.00000000000E+00  0.00000000000E+00  0.90071333911E+03  0.23770386356E+04  0.21997791152E+04 0.  0.
        5    1    3    3  502    0  0.10146250860E+04  0.34637534405E+03  0.71569368101E+03  0.12890614722E+04  0.46999998093E+01 0.  1.
       -5    1    3    3    0  502 -0.10146250860E+04 -0.34637534405E+03  0.18501965810E+03  0.10879771634E+04  0.46999998093E+01 0. -1.
</event>
<event>
 5   0  0.2532239E-06  0.2204282E+04  0.7818609E-02  0.8516648E-01
       -2   -1    0    0    0  501  0.00000000000E+00  0.00000000000E+00  0.71440651346E+03  0.71440651347E+03  0.25500000920E-02 0.  1.
        2   -1    0    0  501    0  0.00000000000E+00  0.00000000000E+00 -0.17003130163E+04  0.17003130163E+04  0.25500000920E-02 0. -1.
    10030    2    1    2    0    0  0.00000000000E+00  0.00000000000E+00 -0.98590650284E+03  0.24147195298E+04  0.22042819183E+04 0.  0.
        3    1    3    3  502    0 -0.16837998318E+03 -0.10553376360E+04 -0.19773470173E+03  0.10868249018E+04  0.10100000352E+00 0.  1.
       -3    1    3    3    0  502  0.16837998318E+03  0.10553376360E+04 -0.78817180111E+03  0.13278946280E+04  0.10100000352E+00 0. -1.
</event>
<event>
 5   0  0.1146827E-06  0.2200448E+04  0.7818609E-02  0.8518242E-01
        1   -1    0    0  501    0  0.00000000000E+00  0.00000000000E+00  0.16073337452E+04  0.16073337452E+04  0.50400001928E-02 0.  1.
       -1   -1    0    0    0  501  0.00000000000E+00  0.00000000000E+00 -0.75310633763E+03  0.75310633765E+03  0.50400001928E-02 0. -1.
    10030    2    1    2    0    0  0.00000000000E+00  0.00000000000E+00  0.85422740758E+03  0.23604400829E+04  0.22004483454E+04 0.  0.
        4    1    3    3  502    0 -0.48900719233E+02 -0.17580231869E+03  0.15909872597E+04  0.16014180619E+04  0.12699999809E+01 0.  1.
       -4    1    3    3    0  502  0.48900719233E+02  0.17580231869E+03 -0.73675985215E+03  0.75902202092E+03  0.12699999809E+01 0. -1.
</event>
<event>
 5   0  0.1137869E-06  0.2198976E+04  0.7818609E-02  0.8518854E-01
       -1   -1    0    0    0  501  0.00000000000E+00  0.00000000000E+00  0.98778128514E+03  0.98778128516E+03  0.50400001928E-02 0. -1.
        1   -1    0    0  501    0  0.00000000000E+00  0.00000000000E+00 -0.12238278518E+04  0.12238278518E+04  0.50400001928E-02 0.  1.
    10030    2    1    2    0    0  0.00000000000E+00  0.00000000000E+00 -0.23604656662E+03  0.22116091369E+04  0.21989763512E+04 0.  0.
        5    1    3    3  502    0  0.47131534220E+03 -0.64510650756E+03 -0.87771130831E+03  0.11868865947E+04  0.46999998093E+01 0.  1.
       -5    1    3    3    0  502 -0.47131534220E+03  0.64510650756E+03  0.64166474169E+03  0.10247225423E+04  0.46999998093E+01 0. -1.
</event>
<event>
 5   0  0.2556869E-06  0.2199788E+04  0.7818609E-02  0.8518516E-01
       -2   -1    0    0    0  501  0.00000000000E+00  0.00000000000E+00  0.79164958347E+03  0.79164958348E+03  0.25500000920E-02 0. -1.
        2   -1    0    0  501    0  0.00000000000E+00  0.00000000000E+00 -0.15281590209E+04  0.15281590209E+04  0.25500000920E-02 0.  1.
    10030    2    1    2    0    0  0.00000000000E+00  0.00000000000E+00 -0.73650943744E+03  0.23198086044E+04  0.21997876737E+04 0.  0.
        5    1    3    3  502    0 -0.56904395815E+03 -0.46326278018E+03  0.49579052789E+03  0.88558103376E+03  0.46999998093E+01 0. -1.
       -5    1    3    3    0  502  0.56904395815E+03  0.46326278018E+03 -0.12322999653E+04  0.14342275706E+04  0.46999998093E+01 0.  1.
</event>
<event>
 5   0  0.1107101E-06  0.2199344E+04  0.7818609E-02  0.8518701E-01
        1   -1    0    0  501    0  0.00000000000E+00  0.00000000000E+00  0.14198606667E+04  0.14198606667E+04  0.50400001928E-02 0. -1.
       -1   -1    0    0    0  501  0.00000000000E+00  0.00000000000E+00 -0.85168791495E+03  0.85168791496E+03  0.50400001928E-02 0.  1.
    10030    2    1    2    0    0  0.00000000000E+00  0.00000000000E+00  0.56817275176E+03  0.22715485817E+04  0.21993436937E+04 0.  0.
        1    1    3    3  502    0 -0.10706762974E+03  0.32611961513E+03  0.13631150272E+04  0.14056671221E+04  0.50400001928E-02 0. -1.
       -1    1    3    3    0  502  0.10706762974E+03 -0.32611961513E+03 -0.79494227546E+03  0.86588145958E+03  0.50400001928E-02 0.  1.
</event>
<event>
 5   0  0.2556869E-06  0.2199648E+04  0.7818609E-02  0.8518575E-01
       -2   -1    0    0    0  501  0.00000000000E+00  0.00000000000E+00  0.24619220642E+04  0.24619220642E+04  0.25500000920E-02 0.  1.
        2   -1    0    0  501    0  0.00000000000E+00  0.00000000000E+00 -0.49132860494E+03  0.49132860495E+03  0.25500000920E-02 0. -1.
    10030    2    1    2    0    0  0.00000000000E+00  0.00000000000E+00  0.19705934593E+04  0.29532506692E+04  0.21996479112E+04 0.  0.
        5    1    3    3  502    0  0.20671208239E+03  0.75536468891E+03 -0.51453314807E+02  0.78484089589E+03  0.46999998093E+01 0. -1.
       -5    1    3    3    0  502 -0.20671208239E+03 -0.75536468891E+03  0.20220467741E+04  0.21684097733E+04  0.46999998093E+01 0.  1.
</event>
<event>
 5   0  0.1082209E-06  0.2196423E+04  0.7818609E-02  0.8519918E-01
        1   -1    0    0  501    0  0.00000000000E+00  0.00000000000E+00  0.72515735176E+03  0.72515735178E+03  0.50400001928E-02 0.  1.
       -1   -1    0    0    0  501  0.00000000000E+00  0.00000000000E+00 -0.16631822717E+04  0.16631822717E+04  0.50400001928E-02 0. -1.
    10030    2    1    2    0    0  0.00000000000E+00  0.00000000000E+00 -0.93802491995E+03  0.23883396235E+04  0.21964233214E+04 0.  0.
        2    1    3    3  502    0  0.88450002700E+03  0.62989431753E+03 -0.64755992761E+03  0.12642946685E+04  0.25500000920E-02 0.  1.
       -2    1    3    3    0  502 -0.88450002700E+03 -0.62989431753E+03 -0.29046499234E+03  0.11240449550E+04  0.25500000920E-02 0. -1.
</event>
<event>
 5   0  0.1144271E-06  0.2200359E+04  0.7818609E-02  0.8518279E-01
        1   -1    0    0  501    0  0.00000000000E+00  0.00000000000E+00  0.13268922651E+04  0.13268922651E+04  0.50400001928E-02 0.  1.
       -1   -1    0    0    0  501  0.00000000000E+00  0.00000000000E+00 -0.91220259516E+03  0.91220259517E+03  0.50400001928E-02 0. -1.
    10030    2    1    2    0    0  0.00000000000E+00  0.00000000000E+00  0.41468966993E+03  0.22390948603E+04  0.22003586687E+04 0.  0.
        3    1    3    3  502    0 -0.39240399652E+03  0.43148386947E+03  0.11566314782E+04  0.12953592600E+04  0.10100000352E+00 0.  1.
       -3    1    3    3    0  502  0.39240399652E+03 -0.43148386947E+03 -0.74194180824E+03  0.94373560022E+03  0.10100000352E+00 0. -1.
</event>
<event>
 5   0  0.1137869E-06  0.2200001E+04  0.7818609E-02  0.8518427E-01
        1   -1    0    0  501    0  0.00000000000E+00  0.00000000000E+00  0.11050250411E+04  0.11050250411E+04  0.50400001928E-02 0. -1.
       -1   -1    0    0    0  501  0.00000000000E+00  0.00000000000E+00 -0.10949992780E+04  0.10949992780E+04  0.50400001928E-02 0.  1.
    10030    2    1    2    0    0  0.00000000000E+00  0.00000000000E+00  0.10025763046E+02  0.22000243191E+04  0.22000014747E+04 0.  0.
        5    1    3    3  502    0 -0.52923306253E+03 -0.93205836983E+03  0.25231909472E+03  0.11011391623E+04  0.46999998093E+01 0. -1.
       -5    1    3    3    0  502  0.52923306253E+03  0.93205836983E+03 -0.24229333168E+03  0.10988851568E+04  0.46999998093E+01 0.  1.
</event>
<event>
 5   0  0.2606154E-06  0.2198193E+04  0.7818609E-02  0.8519180E-01
       -2   -1    0    0    0  501  0.00000000000E+00  0.00000000000E+00  0.93831419722E+03  0.93831419723E+03  0.25500000920E-02 0.  1.
        2   -1    0    0  501    0  0.00000000000E+00  0.00000000000E+00 -0.12874295983E+04  0.12874295983E+04  0.25500000920E-02 0. -1.
    10030    2    1    2    0    0  0.00000000000E+00  0.00000000000E+00 -0.34911540103E+03  0.22257437955E+04  0.21981933218E+04 0.  0.
        2    1    3    3  502    0  0.62606556117E+03  0.82969033755E+03 -0.53634437910E+03  0.11696193552E+04  0.25500000920E-02 0. -1.
       -2    1    3    3    0  502 -0.62606556117E+03 -0.82969033755E+03  0.18722897806E+03  0.10561244403E+04  0.25500000920E-02 0.  1.
</event>
<event>
 5   0  0.2581058E-06  0.2198624E+04  0.7818609E-02  0.8519001E-01
        2   -1    0    0  501    0  0.00000000000E+00  0.00000000000E+00  0.69251344641E+03  0.69251344641E+03  0.25500000920E-02 0.  1.
       -2   -1    0    0    0  501  0.00000000000E+00  0.00000000000E+00 -0.17450735295E+04  0.17450735295E+04  0.25500000920E-02 0. -1.
    10030    2    1    2    0    0  0.00000000000E+00  0.00000000000E+00 -0.10525600831E+04  0.24375869759E+04  0.21986240098E+04 0.  0.
        1    1    3    3  502    0  0.62746362882E+02 -0.70757875271E+03  0.40388306714E+03  0.81714523145E+03  0.50400001928E-02 0.  1.
       -1    1    3    3    0  502 -0.62746362882E+02  0.70757875271E+03 -0.14564431502E+04  0.16204417445E+04  0.50400001928E-02 0. -1.
</event>
<event>
 5   0  0.1107101E-06  0.2199830E+04  0.7818609E-02  0.8518499E-01
       -1   -1    0    0    0  501  0.00000000000E+00  0.00000000000E+00  0.54759134566E+03  0.54759134568E+03  0.50400001928E-02 0.  1.
        1   -1    0    0  501    0  0.00000000000E+00  0.00000000000E+00 -0.22093350474E+04  0.22093350474E+04  0.50400001928E-02 0. -1.
    10030    2    1    2    0    0  0.00000000000E+00  0.00000000000E+00 -0.16617437017E+04  0.27569263931E+04  0.21998297676E+04 0.  0.
        1    1    3    3  502    0  0.85474661612E+03  0.59256592529E+03 -0.38234552151E+03  0.11081129236E+04  0.50400001928E-02 0.  1.
       -1    1    3    3    0  502 -0.85474661612E+03 -0.59256592529E+03 -0.12793981802E+04  0.16488134695E+04  0.50400001928E-02 0. -1.
</event>
<event>
 5   0  0.1144271E-06  0.2198902E+04  0.7818609E-02  0.8518885E-01
       -1   -1    0    0    0  501  0.00000000000E+00  0.00000000000E+00  0.56194507944E+03  0.56194507946E+03  0.50400001928E-02 0. -1.
        1   -1    0    0  501    0  0.00000000000E+00  0.00000000000E+00 -0.21510864332E+04  0.21510864332E+04  0.50400001928E-02 0.  1.
    10030    2    1    2    0    0  0.00000000000E+00  0.00000000000E+00 -0.15891413538E+04  0.27130315127E+04  0.21989019411E+04 0.  0.
        3    1    3    3  502    0  0.97421690617E+02  0.33752239685E+03 -0.20799754179E+04  0.21094335978E+04  0.10100000352E+00 0.  1.
       -3    1    3    3    0  502 -0.97421690617E+02 -0.33752239685E+03  0.49083406412E+03  0.60359791491E+03  0.10100000352E+00 0. -1.
</event>
<event>
 5   0  0.1144271E-06  0.2199991E+04  0.7818609E-02  0.8518432E-01
       -1   -1    0    0    0  501  0.00000000000E+00  0.00000000000E+00  0.99667213025E+03  0.99667213026E+03  0.50400001928E-02 0. -1.
        1   -1    0    0  501    0  0.00000000000E+00  0.00000000000E+00 -0.12140304685E+04  0.12140304685E+04  0.50400001928E-02 0.  1.
    10030    2    1    2    0    0  0.00000000000E+00  0.00000000000E+00 -0.21735833826E+03  0.22107025988E+04  0.21999912120E+04 0.  0.
        3    1    3    3  502    0  0.62483043095E+03 -0.80576894546E+03  0.30602091118E+03  0.10645776013E+04  0.10100000352E+00 0. -1.
       -3    1    3    3    0  502 -0.62483043095E+03  0.80576894546E+03 -0.52337924943E+03  0.11461249975E+04  0.10100000352E+00 0.  1.
</event>
<event>
 5   0  0.1082209E-06  0.2202265E+04  0.7818609E-02  0.8517486E-01
       -1   -1    0    0    0  501  0.00000000000E+00  0.00000000000E+00  0.75360129581E+03  0.75360129583E+03  0.50400001928E-02 0.  1.
        1   -1    0    0  501    0  0.00000000000E+00  0.00000000000E+00 -0.16089313483E+04  0.16089313483E+04  0.50400001928E-02 0. -1.
    10030    2    1    2    0    0  0.00000000000E+00  0.00000000000E+00 -0.85533005245E+03  0.23625326441E+04  0.22022649695E+04 0.  0.
        2    1    3    3  502    0  0.10463062824E+04 -0.27289666591E+03 -0.20452977836E+03  0.11004825565E+04  0.25500000920E-02 0. -1.
       -2    1    3    3    0  502 -0.10463062824E+04  0.27289666591E+03 -0.65080027409E+03  0.12620500876E+04  0.25500000920E-02 0.  1.
</event>
<event>
 5   0  0.2581058E-06  0.2199907E+04  0.7818609E-02  0.8518467E-01
        2   -1    0    0  501    0  0.00000000000E+00  0.00000000000E+00  0.10946276486E+04  0.10946276486E+04  0.25500000920E-02 0.  1.
       -2   -1    0    0    0  501  0.00000000000E+00  0.00000000000E+00 -0.11053054192E+04  0.11053054192E+04  0.25500000920E-02 0. -1.
    10030    2    1    2    0    0  0.00000000000E+00  0.00000000000E+00 -0.10677770556E+02  0.21999330678E+04  0.21999071544E+04 0.  0.
        1    1    3    3  502    0  0.65291103471E+02 -0.49808985294E+03 -0.98389087710E+03  0.11047161119E+04  0.50400001928E-02 0. -1.
       -1    1    3    3    0  502 -0.65291103471E+02  0.49808985294E+03  0.97321310655E+03  0.10952169559E+04  0.50400001928E-02 0.  1.
</event>
<event>
 5   0  0.2532239E-06  0.2200196E+04  0.7818609E-02  0.8518347E-01
       -2   -1    0    0    0  501  0.00000000000E+00  0.00000000000E+00  0.84184143196E+03  0.84184143197E+03  0.25500000920E-02 0. -1.
        2   -1    0    0  501    0  0.00000000000E+00  0.00000000000E+00 -0.14375814744E+04  0.14375814744E+04  0.25500000920E-02 0.  1.
    10030    2    1    2    0    0  0.00000000000E+00  0.00000000000E+00 -0.59574004247E+03  0.22794229064E+04  0.22001960340E+04 0.  0.
        3    1    3    3  502    0 -0.69784844185E+03  0.43480116234E+03  0.45931800958E+03  0.94181608751E+03  0.10100000352E+00 0. -1.
       -3    1    3    3    0  502  0.69784844185E+03 -0.43480116234E+03 -0.10550580520E+04  0.13376068189E+04  0.10100000352E+00 0.  1.
</event>
<event>
 5   0  0.1144271E-06  0.2200330E+04  0.7818609E-02  0.8518291E-01
        1   -1    0    0  501    0  0.00000000000E+00  0.00000000000E+00  0.92167059914E+03  0.92167059915E+03  0.50400001928E-02 0.  1.
       -1   -1    0    0    0  501  0.00000000000E+00  0.00000000000E+00 -0.13132269339E+04  0.13132269340E+04  0.50400001928E-02 0. -1.
    10030    2    1    2    0    0  0.00000000000E+00  0.00000000000E+00 -0.39155633481E+03  0.22348975331E+04  0.22003296617E+04 0.  0.
        3    1    3    3  502    0 -0.31334345704E+03  0.29181884174E+03 -0.12251194097E+04  0.12977904056E+04  0.10100000352E+00 0. -1.
       -3    1    3    3    0  502  0.31334345704E+03 -0.29181884174E+03  0.83356307491E+03  0.93710712756E+03  0.10100000352E+00 0.  1.
</event>
<event>
 5   0  0.2524749E-06  0.2199797E+04  0.7818609E-02  0.8518513E-01
       -2   -1    0    0    0  501  0.00000000000E+00  0.00000000000E+00  0.49027148555E+03  0.49027148556E+03  0.25500000920E-02 0.  1.
        2   -1    0    0  501    0  0.00000000000E+00  0.00000000000E+00 -0.24675647455E+04  0.24675647455E+04  0.25500000920E-02 0. -1.
    10030    2    1    2    0    0  0.00000000000E+00  0.00000000000E+00 -0.19772932600E+04  0.29578362311E+04  0.21997969302E+04 0.  0.
        4    1    3    3  502    0  0.47645631594E+03 -0.12106753762E+03  0.33433320399E+03  0.59451515864E+03  0.12699999809E+01 0.  1.
       -4    1    3    3    0  502 -0.47645631594E+03  0.12106753762E+03 -0.23116264639E+04  0.23633210724E+04  0.12699999809E+01 0. -1.
</event>
<event>
 5   0  0.1144271E-06  0.2201902E+04  0.7818609E-02  0.8517637E-01
        1   -1    0    0  501    0  0.00000000000E+00  0.00000000000E+00  0.25600716208E+04  0.25600716208E+04  0.50400001928E-02 0.  1.
       -1   -1    0    0    0  501  0.00000000000E+00  0.00000000000E+00 -0.47346079718E+03  0.47346079720E+03  0.50400001928E-02 0. -1.
    10030    2    1    2    0    0  0.00000000000E+00  0.00000000000E+00  0.20866108236E+04  0.30335324180E+04  0.22019024052E+04 0.  0.
        3    1    3    3  502    0 -0.76032491356E+03  0.70887067195E+03  0.15428987616E+04  0.18604107618E+04  0.10100000352E+00 0. -1.
       -3    1    3    3    0  502  0.76032491356E+03 -0.70887067195E+03  0.54371206199E+03  0.11731216562E+04  0.10100000352E+00 0.  1.
</event>
<event>
 5   0  0.1144271E-06  0.2198269E+04  0.7818609E-02  0.8519149E-01
       -1   -1    0    0    0  501  0.00000000000E+00  0.00000000000E+00  0.12225027734E+04  0.12225027734E+04  0.50400001928E-02 0. -1.
        1   -1    0    0  501    0  0.00000000000E+00  0.00000000000E+00 -0.98821588921E+03  0.98821588922E+03  0.50400001928E-02 0.  1.
    10030    2    1    2    0    0  0.00000000000E+00  0.00000000000E+00  0.23428688415E+03  0.22107186626E+04  0.21982690147E+04 0.  0.
        3    1    3    3  502    0 -0.42423823847E+03 -0.13021845922E+03 -0.89411683944E+03  0.99818829029E+03  0.10100000352E+00 0.  1.
       -3    1    3    3    0  502  0.42423823847E+03  0.13021845922E+03  0.11284037236E+04  0.12125303723E+04  0.10100000352E+00 0. -1.
</event>
<event>
 5   0  0.2556869E-06  0.2200539E+04  0.7818609E-02  0.8518204E-01
       -2   -1    0    0    0  501  0.00000000000E+00  0.00000000000E+00  0.63443872643E+03  0.63443872643E+03  0.25500000920E-02 0. -1.
        2   -1    0    0  501    0  0.00000000000E+00  0.00000000000E+00 -0.19081330518E+04  0.19081330518E+04  0.25500000920E-02 0.  1.
    10030    2    1    2    0    0  0.00000000000E+00  0.00000000000E+00 -0.12736943254E+04  0.25425717783E+04  0.22005394823E+04 0.  0.
        5    1    3    3  502    0  0.57691783403E+03  0.88645970423E+03 -0.98716659454E+03  0.14467774431E+04  0.46999998093E+01 0.  1.
       -5    1    3    3    0  502 -0.57691783403E+03 -0.88645970423E+03 -0.28652773086E+03  0.10957943352E+04  0.46999998093E+01 0. -1.
</event>
<event>
 5   0  0.1146827E-06  0.2193029E+04  0.7818609E-02  0.8521335E-01
       -1   -1    0    0    0  501  0.00000000000E+00  0.00000000000E+00  0.12850819507E+04  0.12850819507E+04  0.50400001928E-02 0.  1.
        1   -1    0    0  501    0  0.00000000000E+00  0.00000000000E+00 -0.93561622412E+03  0.93561622413E+03  0.50400001928E-02 0. -1.
    10030    2    1    2    0    0  0.00000000000E+00  0.00000000000E+00  0.34946572660E+03  0.22206981749E+04  0.21930285200E+04 0.  0.
        4    1    3    3  502    0  0.74572861836E+03  0.76929195563E+03 -0.61492766634E+02  0.10731748499E+04  0.12699999809E+01 0. -1.
       -4    1    3    3    0  502 -0.74572861836E+03 -0.76929195563E+03  0.41095849323E+03  0.11475233249E+04  0.12699999809E+01 0.  1.
</event>
<event>
 5   0  0.1144271E-06  0.2201692E+04  0.7818609E-02  0.8517724E-01
       -1   -1    0    0    0  501  0.00000000000E+00  0.00000000000E+00  0.50144234926E+03  0.50144234928E+03  0.50400001928E-02 0.  1.
        1   -1    0    0  501    0  0.00000000000E+00  0.00000000000E+00 -0.24167520182E+04  0.24167520182E+04  0.50400001928E-02 0. -1.
    10030    2    1    2    0    0  0.00000000000E+00  0.00000000000E+00 -0.19153096689E+04  0.29181943674E+04  0.22016919036E+04 0.  0.
        3    1    3    3  502    0  0.46873114766E+03 -0.67163231439E+03 -0.19326030876E+04  0.20989886991E+04  0.10100000352E+00 0. -1.
       -3    1    3    3    0  502 -0.46873114766E+03  0.67163231439E+03  0.17293418711E+02  0.81920566834E+03  0.10100000352E+00 0.  1.
</event>
<event>
 5   0  0.2606154E-06  0.2199814E+04  0.7818609E-02  0.8518505E-01
        2   -1    0    0  501    0  0.00000000000E+00  0.00000000000E+00  0.14384317146E+04  0.14384317146E+04  0.25500000920E-02 0.  1.
       -2   -1    0    0    0  501  0.00000000000E+00  0.00000000000E+00 -0.84105183419E+03  0.84105183419E+03  0.25500000920E-02 0. -1.
    10030    2    1    2    0    0  0.00000000000E+00  0.00000000000E+00  0.59737988044E+03  0.22794835488E+04  0.21998142030E+04 0.  0.
        2    1    3    3  502    0 -0.94408569088E+03 -0.11540259282E+03  0.87112806851E+03  0.12897595365E+04  0.25500000920E-02 0. -1.
       -2    1    3    3    0  502  0.94408569088E+03  0.11540259282E+03 -0.27374818807E+03  0.98972401236E+03  0.25500000920E-02 0.  1.
</event>
<event>
 5   0  0.1146827E-06  0.2199694E+04  0.7818609E-02  0.8518556E-01
       -1   -1    0    0    0  501  0.00000000000E+00  0.00000000000E+00  0.10454833627E+04  0.10454833627E+04  0.50400001928E-02 0. -1.
        1   -1    0    0  501    0  0.00000000000E+00  0.00000000000E+00 -0.11570373006E+04  0.11570373007E+04  0.50400001928E-02 0.  1.
    10030    2    1    2    0    0  0.00000000000E+00  0.00000000000E+00 -0.11155393799E+03  0.22025206633E+04  0.21996938404E+04 0.  0.
        4    1    3    3  502    0 -0.16934897274E+03  0.37259510069E+03  0.96639508938E+03  0.10494890496E+04  0.12699999809E+01 0. -1.
       -4    1    3    3    0  502  0.16934897274E+03 -0.37259510069E+03 -0.10779490274E+04  0.11530316137E+04  0.12699999809E+01 0.  1.
</event>
<event>
 5   0  0.2581058E-06  0.2200214E+04  0.7818609E-02  0.8518339E-01
        2   -1    0    0  501    0  0.00000000000E+00  0.00000000000E+00  0.11691670290E+04  0.11691670290E+04  0.25500000920E-02 0.  1.
       -2   -1    0    0    0  501  0.00000000000E+00  0.00000000000E+00 -0.10351266444E+04  0.10351266444E+04  0.25500000920E-02 0. -1.
    10030    2    1    2    0    0  0.00000000000E+00  0.00000000000E+00  0.13404038465E+03  0.22042936734E+04  0.22002144836E+04 0.  0.
        1    1    3    3  502    0  0.48431215023E+03 -0.81737960118E+03 -0.48859639337E+03  0.10683604761E+04  0.50400001928E-02 0. -1.
       -1    1    3    3    0  502 -0.48431215023E+03  0.81737960118E+03  0.62263677801E+03  0.11359331973E+04  0.50400001928E-02 0.  1.
</event>
<event>
 5   0  0.1082209E-06  0.2200486E+04  0.7818609E-02  0.8518226E-01
        1   -1    0    0  501    0  0.00000000000E+00  0.00000000000E+00  0.21831543844E+04  0.21831543844E+04  0.50400001928E-02 0. -1.
       -1   -1    0    0    0  501  0.00000000000E+00  0.00000000000E+00 -0.55448857640E+03  0.55448857643E+03  0.50400001928E-02 0.  1.
    10030    2    1    2    0    0  0.00000000000E+00  0.00000000000E+00  0.16286658080E+04  0.27376429609E+04  0.22004855525E+04 0.  0.
        2    1    3    3  502    0  0.10924002371E+04 -0.10921001781E+03  0.72402518273E+03  0.13150960312E+04  0.25500000920E-02 0.  1.
       -2    1    3    3    0  502 -0.10924002371E+04  0.10921001781E+03  0.90464062530E+03  0.14225469296E+04  0.25500000920E-02 0. -1.
</event>
<event>
 5   0  0.1146827E-06  0.2202130E+04  0.7818609E-02  0.8517542E-01
        1   -1    0    0  501    0  0.00000000000E+00  0.00000000000E+00  0.22643575920E+04  0.22643575920E+04  0.50400001928E-02 0. -1.
       -1   -1    0    0    0  501  0.00000000000E+00  0.00000000000E+00 -0.53540329493E+03  0.53540329496E+03  0.50400001928E-02 0.  1.
    10030    2    1    2    0    0  0.00000000000E+00  0.00000000000E+00  0.17289542971E+04  0.27997608870E+04  0.22021303465E+04 0.  0.
        4    1    3    3  502    0 -0.36126906126E+02  0.10741574281E+04  0.56034285617E+03  0.12120664433E+04  0.12699999809E+01 0. -1.
       -4    1    3    3    0  502  0.36126906126E+02 -0.10741574281E+04  0.11686114409E+04  0.15876944437E+04  0.12699999809E+01 0.  1.
</event>
<event>
 5   0  0.2532239E-06  0.2200133E+04  0.7818609E-02  0.8518373E-01
       -2   -1    0    0    0  501  0.00000000000E+00  0.00000000000E+00  0.67947701064E+03  0.67947701064E+03  0.25500000920E-02 0. -1.
        2   -1    0    0  501    0  0.00000000000E+00  0.00000000000E+00 -0.17809960196E+04  0.17809960196E+04  0.25500000920E-02 0.  1.
    10030    2    1    2    0    0  0.00000000000E+00  0.00000000000E+00 -0.11015190090E+04  0.24604730303E+04  0.22001325882E+04 0.  0.
        3    1    3    3  502    0  0.18791657019E+03  0.10838970618E+04 -0.55008548596E+03  0.12299347666E+04  0.10100000352E+00 0. -1.
       -3    1    3    3    0  502 -0.18791657019E+03 -0.10838970618E+04 -0.55143352303E+03  0.12305382637E+04  0.10100000352E+00 0.  1.
</event>
<event>
 5   0  0.1144271E-06  0.2199329E+04  0.7818609E-02  0.8518707E-01
       -1   -1    0    0    0  501  0.00000000000E+00  0.00000000000E+00  0.69047373214E+03  0.69047373216E+03  0.50400001928E-02 0. -1.
        1   -1    0    0  501    0  0.00000000000E+00  0.00000000000E+00 -0.17513514531E+04  0.17513514531E+04  0.50400001928E-02 0.  1.
    10030    2    1    2    0    0  0.00000000000E+00  0.00000000000E+00 -0.10608777209E+04  0.24418251852E+04  0.21993291469E+04 0.  0.
        3    1    3    3  502    0 -0.54838532492E+02 -0.10335252875E+04 -0.11787581448E+03  0.10416700545E+04  0.10100000352E+00 0. -1.
       -3    1    3    3    0  502  0.54838532492E+02  0.10335252875E+04 -0.94300190644E+03  0.14001551308E+04  0.10100000352E+00 0.  1.
</event>
<event>
 5   0  0.2606154E-06  0.2198858E+04  0.7818609E-02  0.8518903E-01
       -2   -1    0    0    0  501  0.00000000000E+00  0.00000000000E+00  0.11782503590E+04  0.11782503590E+04  0.25500000920E-02 0. -1.
        2   -1    0    0  501    0  0.00000000000E+00  0.00000000000E+00 -0.10258809241E+04  0.10258809241E+04  0.25500000920E-02 0.  1.
    10030    2    1    2    0    0  0.00000000000E+00  0.00000000000E+00  0.15236943494E+03  0.22041312831E+04  0.21988584012E+04 0.  0.
        2    1    3    3  502    0  0.36375462407E+02 -0.30277040918E+03  0.11350090901E+04  0.11752611325E+04  0.25500000920E-02 0. -1.
       -2    1    3    3    0  502 -0.36375462407E+02  0.30277040918E+03 -0.98263965515E+03  0.10288701506E+04  0.25500000920E-02 0.  1.
</event>
<event>
 5   0  0.2532239E-06  0.2199019E+04  0.7818609E-02  0.8518836E-01
       -2   -1    0    0    0  501  0.00000000000E+00  0.00000000000E+00  0.12875853305E+04  0.12875853305E+04  0.25500000920E-02 0. -1.
        2   -1    0    0  501    0  0.00000000000E+00  0.00000000000E+00 -0.93890584744E+03  0.93890584745E+03  0.25500000920E-02 0.  1.
    10030    2    1    2    0    0  0.00000000000E+00  0.00000000000E+00  0.34867948308E+03  0.22264911780E+04  0.21990192322E+04 0.  0.
        3    1    3    3  502    0 -0.11670029615E+03 -0.50471352855E+03  0.11562837985E+04  0.12670228640E+04  0.10100000352E+00 0. -1.
       -3    1    3    3    0  502  0.11670029615E+03  0.50471352855E+03 -0.80760431542E+03  0.95946831397E+03  0.10100000352E+00 0.  1.
</event>
<event>
 5   0  0.2606154E-06  0.2198873E+04  0.7818609E-02  0.8518897E-01
       -2   -1    0    0    0  501  0.00000000000E+00  0.00000000000E+00  0.72067167327E+03  0.72067167328E+03  0.25500000920E-02 0. -1.
        2   -1    0    0  501    0  0.00000000000E+00  0.00000000000E+00 -0.16772696600E+04  0.16772696600E+04  0.25500000920E-02 0.  1.
    10030    2    1    2    0    0  0.00000000000E+00  0.00000000000E+00 -0.95659798671E+03  0.23979413333E+04  0.21988731045E+04 0.  0.
        2    1    3    3  502    0 -0.84386333977E+03 -0.64106513579E+03 -0.15906751600E+03  0.10716213507E+04  0.25500000920E-02 0. -1.
       -2    1    3    3    0  502  0.84386333977E+03  0.64106513579E+03 -0.79753047072E+03  0.13263199826E+04  0.25500000920E-02 0.  1.
</event>
<event>
 5   0  0.2524749E-06  0.2194037E+04  0.7818609E-02  0.8520914E-01
        2   -1    0    0  501    0  0.00000000000E+00  0.00000000000E+00  0.94916207241E+03  0.94916207241E+03  0.25500000920E-02 0. -1.
       -2   -1    0    0    0  501  0.00000000000E+00  0.00000000000E+00 -0.12679077962E+04  0.12679077962E+04  0.25500000920E-02 0.  1.
    10030    2    1    2    0    0  0.00000000000E+00  0.00000000000E+00 -0.31874572375E+03  0.22170698686E+04  0.21940373665E+04 0.  0.
        4    1    3    3  502    0 -0.73661476734E+03 -0.75500535804E+03  0.14514424597E+03  0.10647548409E+04  0.12699999809E+01 0. -1.
       -4    1    3    3    0  502  0.73661476734E+03  0.75500535804E+03 -0.46388996973E+03  0.11523150277E+04  0.12699999809E+01 0.  1.
</event>
<event>
 5   0  0.1137869E-06  0.2198312E+04  0.7818609E-02  0.8519131E-01
       -1   -1    0    0    0  501  0.00000000000E+00  0.00000000000E+00  0.95657215887E+03  0.95657215888E+03  0.50400001928E-02 0. -1.
        1   -1    0    0  501    0  0.00000000000E+00  0.00000000000E+00 -0.12629928862E+04  0.12629928862E+04  0.50400001928E-02 0.  1.
    10030    2    1    2    0    0  0.00000000000E+00  0.00000000000E+00 -0.30642072732E+03  0.22195650451E+04  0.21983119267E+04 0.  0.
        5    1    3    3  502    0 -0.10211375857E+04  0.36901674715E+03  0.19399782721E+02  0.10859529318E+04  0.46999998093E+01 0. -1.
       -5    1    3    3    0  502  0.10211375857E+04 -0.36901674715E+03 -0.32582051004E+03  0.11336121133E+04  0.46999998093E+01 0.  1.
</event>
<event>
 5   0  0.1146827E-06  0.2207264E+04  0.7818609E-02  0.8515411E-01
        1   -1    0    0  501    0  0.00000000000E+00  0.00000000000E+00  0.47701055060E+03  0.47701055063E+03  0.50400001928E-02 0.  1.
       -1   -1    0    0    0  501  0.00000000000E+00  0.00000000000E+00 -0.25534106833E+04  0.25534106833E+04  0.50400001928E-02 0. -1.
    10030    2    1    2    0    0  0.00000000000E+00  0.00000000000E+00 -0.20764001327E+04  0.30304212340E+04  0.22072642216E+04 0.  0.
        4    1    3    3  502    0  0.61802113348E+03  0.81537900542E+03 -0.16062835977E+04  0.19044531113E+04  0.12699999809E+01 0. -1.
       -4    1    3    3    0  502 -0.61802113348E+03 -0.81537900542E+03 -0.47011653503E+03  0.11259681227E+04  0.12699999809E+01 0.  1.
</event>
<event>
 5   0  0.2606154E-06  0.2199786E+04  0.7818609E-02  0.8518517E-01
       -2   -1    0    0    0  501  0.00000000000E+00  0.00000000000E+00  0.17669473902E+04  0.17669473902E+04  0.25500000920E-02 0. -1.
        2   -1    0    0  501    0  0.00000000000E+00  0.00000000000E+00 -0.68466388130E+03  0.68466388131E+03  0.25500000920E-02 0.  1.
    10030    2    1    2    0    0  0.00000000000E+00  0.00000000000E+00  0.10822835089E+04  0.24516112715E+04  0.21997864062E+04 0.  0.
        2    1    3    3  502    0  0.17790605907E+03  0.10271230196E+04  0.15006863629E+03  0.10531632632E+04  0.25500000920E-02 0.  1.
       -2    1    3    3    0  502 -0.17790605907E+03 -0.10271230196E+04  0.93221487257E+03  0.13984480083E+04  0.25500000920E-02 0. -1.
</event>
<event>
 5   0  0.2606154E-06  0.2216224E+04  0.7818609E-02  0.8511706E-01
       -2   -1    0    0    0  501  0.00000000000E+00  0.00000000000E+00  0.11290972926E+04  0.11290972926E+04  0.25500000920E-02 0.  1.
        2   -1    0    0  501    0  0.00000000000E+00  0.00000000000E+00 -0.10875163220E+04  0.10875163220E+04  0.25500000920E-02 0. -1.
    10030    2    1    2    0    0  0.00000000000E+00  0.00000000000E+00  0.41580970664E+02  0.22166136146E+04  0.22162235761E+04 0.  0.
        2    1    3    3  502    0 -0.14008797977E+02 -0.65695596491E+03  0.91320552155E+03  0.11250474260E+04  0.25500000920E-02 0.  1.
       -2    1    3    3    0  502  0.14008797977E+02  0.65695596491E+03 -0.87162455089E+03  0.10915661885E+04  0.25500000920E-02 0. -1.
</event>
<event>
 5   0  0.8905000E-07  0.2199779E+04  0.7818609E-02  0.8518520E-01
        3   -1    0    0  501    0  0.00000000000E+00  0.00000000000E+00  0.92755053582E+03  0.92755054132E+03  0.10100000352E+00 0.  1.
       -3   -1    0    0    0  501  0.00000000000E+00  0.00000000000E+00 -0.13042487517E+04  0.13042487556E+04  0.10100000352E+00 0. -1.
    10030    2    1    2    0    0  0.00000000000E+00  0.00000000000E+00 -0.37669821589E+03  0.22317992969E+04  0.21997787516E+04 0.  0.
        3    1    3    3  502    0 -0.16325178896E+03 -0.28972435390E+03  0.87532266581E+03  0.93636591530E+03  0.10100000352E+00 0.  1.
       -3    1    3    3    0  502  0.16325178896E+03  0.28972435390E+03 -0.12520208817E+04  0.12954333816E+04  0.10100000352E+00 0. -1.
</event>
<event>
 5   0  0.2532239E-06  0.2200014E+04  0.7818609E-02  0.8518422E-01
       -2   -1    0    0    0  501  0.00000000000E+00  0.00000000000E+00  0.80663853847E+03  0.80663853848E+03  0.25500000920E-02 0.  1.
        2   -1    0    0  501    0  0.00000000000E+00  0.00000000000E+00 -0.15000710870E+04  0.15000710870E+04  0.25500000920E-02 0. -1.
    10030    2    1    2    0    0  0.00000000000E+00  0.00000000000E+00 -0.69343254853E+03  0.23067096255E+04  0.22000137720E+04 0.  0.
        3    1    3    3  502    0  0.98308687140E+03  0.27348361450E+03 -0.77744608556E+03  0.12828388481E+04  0.10100000352E+00 0.  1.
       -3    1    3    3    0  502 -0.98308687140E+03 -0.27348361450E+03  0.84013537026E+02  0.10238707774E+04  0.10100000352E+00 0. -1.
</event>
<event>
 5   0  0.1082209E-06  0.2202682E+04  0.7818609E-02  0.8517312E-01
        1   -1    0    0  501    0  0.00000000000E+00  0.00000000000E+00  0.10477897126E+04  0.10477897126E+04  0.50400001928E-02 0.  1.
       -1   -1    0    0    0  501  0.00000000000E+00  0.00000000000E+00 -0.11576296255E+04  0.11576296255E+04  0.50400001928E-02 0. -1.
    10030    2    1    2    0    0  0.00000000000E+00  0.00000000000E+00 -0.10983991293E+03  0.22054193381E+04  0.22026823762E+04 0.  0.
        2    1    3    3  502    0  0.48051098886E+03 -0.74403690383E+03 -0.71031003063E+03  0.11353510754E+04  0.25500000920E-02 0. -1.
       -2    1    3    3    0  502 -0.48051098886E+03  0.74403690383E+03  0.60047011771E+03  0.10700682627E+04  0.25500000920E-02 0.  1.
</event>
<event>
 5   0  0.1107101E-06  0.2200939E+04  0.7818609E-02  0.8518038E-01
        1   -1    0    0  501    0  0.00000000000E+00  0.00000000000E+00  0.19784108993E+04  0.19784108993E+04  0.50400001928E-02 0.  1.
       -1   -1    0    0    0  501  0.00000000000E+00  0.00000000000E+00 -0.61212393381E+03  0.61212393383E+03  0.50400001928E-02 0. -1.
    10030    2    1    2    0    0  0.00000000000E+00  0.00000000000E+00  0.13662869655E+04  0.25905348331E+04  0.22009385838E+04 0.  0.
        1    1    3    3  502    0  0.90474843223E+00 -0.72195706647E+03 -0.29442277853E+03  0.77968429312E+03  0.50400001928E-02 0. -1.
       -1    1    3    3    0  502 -0.90474843223E+00  0.72195706647E+03  0.16607097440E+04  0.18108505400E+04  0.50400001928E-02 0.  1.
</event>
<event>
 5   0  0.2606154E-06  0.2199555E+04  0.7818609E-02  0.8518613E-01
        2   -1    0    0  501    0  0.00000000000E+00  0.00000000000E+00  0.10901219056E+04  0.10901219056E+04  0.25500000920E-02 0. -1.
       -2   -1    0    0    0  501  0.00000000000E+00  0.00000000000E+00 -0.11095183507E+04  0.11095183507E+04  0.25500000920E-02 0.  1.
    10030    2    1    2    0    0  0.00000000000E+00  0.00000000000E+00 -0.19396445122E+02  0.21996402562E+04  0.21995547356E+04 0.  0.
        2    1    3    3  502    0 -0.62968008496E+03  0.55362453402E+02 -0.90970446271E+03  0.11077563902E+04  0.25500000920E-02 0.  1.
       -2    1    3    3    0  502  0.62968008496E+03 -0.55362453402E+02  0.89030801759E+03  0.10918838660E+04  0.25500000920E-02 0. -1.
</event>
<event>
 5   0  0.2556869E-06  0.2199159E+04  0.7818609E-02  0.8518778E-01
        2   -1    0    0  501    0  0.00000000000E+00  0.00000000000E+00  0.11119892880E+04  0.11119892880E+04  0.25500000920E-02 0. -1.
       -2   -1    0    0    0  501  0.00000000000E+00  0.00000000000E+00 -0.10873081780E+04  0.10873081780E+04  0.25500000920E-02 0.  1.
    10030    2    1    2    0    0  0.00000000000E+00  0.00000000000E+00  0.24681109958E+02  0.21992974660E+04  0.21991589726E+04 0.  0.
        5    1    3    3  502    0  0.58723357987E+03  0.24237937432E+03  0.90987237637E+03  0.11097210774E+04  0.46999998093E+01 0. -1.
       -5    1    3    3    0  502 -0.58723357987E+03 -0.24237937432E+03 -0.88519126641E+03  0.10895763886E+04  0.46999998093E+01 0.  1.
</event>
<event>
 5   0  0.1082209E-06  0.2200110E+04  0.7818609E-02  0.8518383E-01
        1   -1    0    0  501    0  0.00000000000E+00  0.00000000000E+00  0.16447845724E+04  0.16447845724E+04  0.50400001928E-02 0.  1.
       -1   -1    0    0    0  501  0.00000000000E+00  0.00000000000E+00 -0.73573193532E+03  0.73573193533E+03  0.50400001928E-02 0. -1.
    10030    2    1    2    0    0  0.00000000000E+00  0.00000000000E+00  0.90905263706E+03  0.23805165077E+04  0.22001095760E+04 0.  0.
        2    1    3    3  502    0 -0.10694283048E+04 -0.18037929080E+03  0.65376389137E+03  0.12663415074E+04  0.25500000920E-02 0.  1.
       -2    1    3    3    0  502  0.10694283048E+04  0.18037929080E+03  0.25528874569E+03  0.11141750003E+04  0.25500000920E-02 0. -1.
</event>
<event>
 5   0  0.1137869E-06  0.2201426E+04  0.7818609E-02  0.8517835E-01
       -1   -1    0    0    0  501  0.00000000000E+00  0.00000000000E+00  0.24104728469E+04  0.24104728469E+04  0.50400001928E-02 0.  1.
        1   -1    0    0  501    0  0.00000000000E+00  0.00000000000E+00 -0.50262698340E+03  0.50262698342E+03  0.50400001928E-02 0. -1.
    10030    2    1    2    0    0  0.00000000000E+00  0.00000000000E+00  0.19078458635E+04  0.29130998304E+04  0.22014256250E+04 0.  0.
        5    1    3    3  502    0  0.85203084906E+03  0.59873404603E+03  0.48214559364E+03  0.11475737402E+04  0.46999998093E+01 0. -1.
       -5    1    3    3    0  502 -0.85203084906E+03 -0.59873404603E+03  0.14257002699E+04  0.17655260902E+04  0.46999998093E+01 0.  1.
</event>
<event>
 5   0  0.2524749E-06  0.2195969E+04  0.7818609E-02  0.8520108E-01
       -2   -1    0    0    0  501  0.00000000000E+00  0.00000000000E+00  0.78761218941E+03  0.78761218942E+03  0.25500000920E-02 0. -1.
        2   -1    0    0  501    0  0.00000000000E+00  0.00000000000E+00 -0.15306645355E+04  0.15306645355E+04  0.25500000920E-02 0.  1.
    10030    2    1    2    0    0  0.00000000000E+00  0.00000000000E+00 -0.74305234608E+03  0.23182767249E+04  0.21959690763E+04 0.  0.
        4    1    3    3  502    0  0.41029046391E+03  0.22505396288E+02 -0.14464323615E+04  0.15036665012E+04  0.12699999809E+01 0.  1.
       -4    1    3    3    0  502 -0.41029046391E+03 -0.22505396288E+02  0.70338001538E+03  0.81461022371E+03  0.12699999809E+01 0. -1.
</event>
<event>
 5   0  0.1144271E-06  0.2199141E+04  0.7818609E-02  0.8518786E-01
       -1   -1    0    0    0  501  0.00000000000E+00  0.00000000000E+00  0.87969097427E+03  0.87969097428E+03  0.50400001928E-02 0.  1.
        1   -1    0    0  501    0  0.00000000000E+00  0.00000000000E+00 -0.13744088785E+04  0.13744088785E+04  0.50400001928E-02 0. -1.
    10030    2    1    2    0    0  0.00000000000E+00  0.00000000000E+00 -0.49471790422E+03  0.22540998528E+04  0.21991408189E+04 0.  0.
        3    1    3    3  502    0 -0.39908026808E+03 -0.91505031666E+03  0.22510852342E+03  0.10233552657E+04  0.10100000352E+00 0.  1.
       -3    1    3    3    0  502  0.39908026808E+03  0.91505031666E+03 -0.71982642764E+03  0.12307445870E+04  0.10100000352E+00 0. -1.
</event>
<event>
 5   0  0.1082209E-06  0.2198776E+04  0.7818609E-02  0.8518938E-01
       -1   -1    0    0    0  501  0.00000000000E+00  0.00000000000E+00  0.86825896509E+03  0.86825896510E+03  0.50400001928E-02 0. -1.
        1   -1    0    0  501    0  0.00000000000E+00  0.00000000000E+00 -0.13920426939E+04  0.13920426939E+04  0.50400001928E-02 0.  1.
    10030    2    1    2    0    0  0.00000000000E+00  0.00000000000E+00 -0.52378372882E+03  0.22603016590E+04  0.21987756127E+04 0.  0.
        2    1    3    3  502    0 -0.40730817568E+03 -0.10190732455E+04 -0.19492833399E+03  0.11146332513E+04  0.25500000920E-02 0. -1.
       -2    1    3    3    0  502  0.40730817568E+03  0.10190732455E+04 -0.32885539483E+03  0.11456684077E+04  0.25500000920E-02 0.  1.
</event>
<event>
 5   0  0.2606154E-06  0.2200462E+04  0.7818609E-02  0.8518236E-01
        2   -1    0    0  501    0  0.00000000000E+00  0.00000000000E+00  0.16284557401E+04  0.16284557401E+04  0.25500000920E-02 0. -1.
       -2   -1    0    0    0  501  0.00000000000E+00  0.00000000000E+00 -0.74334738542E+03  0.74334738542E+03  0.25500000920E-02 0.  1.
    10030    2    1    2    0    0  0.00000000000E+00  0.00000000000E+00  0.88510835470E+03  0.23718031255E+04  0.22004620576E+04 0.  0.
        2    1    3    3  502    0 -0.58562780055E+01  0.90044602425E+03  0.11239760337E+04  0.14401942448E+04  0.25500000920E-02 0. -1.
       -2    1    3    3    0  502  0.58562780055E+01 -0.90044602425E+03 -0.23886767895E+03  0.93160888072E+03  0.25500000920E-02 0.  1.
</event>
<event>
 5   0  0.2556869E-06  0.2199856E+04  0.7818609E-02  0.8518488E-01
        2   -1    0    0  501    0  0.00000000000E+00  0.00000000000E+00  0.16610729701E+04  0.16610729701E+04  0.25500000920E-02 0.  1.
       -2   -1    0    0    0  501  0.00000000000E+00  0.00000000000E+00 -0.72834971402E+03  0.72834971403E+03  0.25500000920E-02 0. -1.
    10030    2    1    2    0    0  0.00000000000E+00  0.00000000000E+00  0.93272325604E+03  0.23894226841E+04  0.21998563796E+04 0.  0.
        5    1    3    3  502    0  0.18086695749E+03  0.58134364341E+03  0.14613490376E+04  0.15831097207E+04  0.46999998093E+01 0.  1.
       -5    1    3    3    0  502 -0.18086695749E+03 -0.58134364341E+03 -0.52862578155E+03  0.80631296341E+03  0.46999998093E+01 0. -1.
</event>
<event>
 5   0  0.1146827E-06  0.2200490E+04  0.7818609E-02  0.8518224E-01
       -1   -1    0    0    0  501  0.00000000000E+00  0.00000000000E+00  0.12467323334E+04  0.12467323335E+04  0.50400001928E-02 0. -1.
        1   -1    0    0  501    0  0.00000000000E+00  0.00000000000E+00 -0.97096919039E+03  0.97096919040E+03  0.50400001928E-02 0.  1.
    10030    2    1    2    0    0  0.00000000000E+00  0.00000000000E+00  0.27576314306E+03  0.22177015239E+04  0.22004896587E+04 0.  0.
        4    1    3    3  502    0  0.53844107211E+03  0.61623333582E+03  0.87907595623E+03  0.12010155961E+04  0.12699999809E+01 0. -1.
       -4    1    3    3    0  502 -0.53844107211E+03 -0.61623333582E+03 -0.60331281317E+03  0.10166859278E+04  0.12699999809E+01 0.  1.
</event>
<event>
 5   0  0.2556869E-06  0.2201917E+04  0.7818609E-02  0.8517631E-01
        2   -1    0    0  501    0  0.00000000000E+00  0.00000000000E+00  0.98647867988E+03  0.98647867988E+03  0.25500000920E-02 0. -1.
       -2   -1    0    0    0  501  0.00000000000E+00  0.00000000000E+00 -0.12287237371E+04  0.12287237371E+04  0.25500000920E-02 0.  1.
    10030    2    1    2    0    0  0.00000000000E+00  0.00000000000E+00 -0.24224505723E+03  0.22152024170E+04  0.22019171375E+04 0.  0.
        5    1    3    3  502    0 -0.66588725536E+03  0.20856858683E+03  0.73559104892E+03  0.10139146776E+04  0.46999998093E+01 0. -1.
       -5    1    3    3    0  502  0.66588725536E+03 -0.20856858683E+03 -0.97783610615E+03  0.12012877394E+04  0.46999998093E+01 0.  1.
</event>
<event>
 5   0  0.1144271E-06  0.2201046E+04  0.7818609E-02  0.8517993E-01
        1   -1    0    0  501    0  0.00000000000E+00  0.00000000000E+00  0.19906863467E+04  0.19906863467E+04  0.50400001928E-02 0.  1.
       -1   -1    0    0    0  501  0.00000000000E+00  0.00000000000E+00 -0.60840842260E+03  0.60840842262E+03  0.50400001928E-02 0. -1.
    10030    2    1    2    0    0  0.00000000000E+00  0.00000000000E+00  0.13822779241E+04  0.25990947693E+04  0.22010455153E+04 0.  0.
        3    1    3    3  502    0  0.15633394709E+03 -0.85164880748E+02  0.19735703602E+04  0.19815835427E+04  0.10100000352E+00 0.  1.
       -3    1    3    3    0  502 -0.15633394709E+03  0.85164880748E+02 -0.59129243605E+03  0.61751122666E+03  0.10100000352E+00 0. -1.
</event>
<event>
 5   0  0.2606154E-06  0.2200867E+04  0.7818609E-02  0.8518067E-01
       -2   -1    0    0    0  501  0.00000000000E+00  0.00000000000E+00  0.89497235363E+03  0.89497235363E+03  0.25500000920E-02 0. -1.
        2   -1    0    0  501    0  0.00000000000E+00  0.00000000000E+00 -0.13530629843E+04  0.13530629843E+04  0.25500000920E-02 0.  1.
    10030    2    1    2    0    0  0.00000000000E+00  0.00000000000E+00 -0.45809063065E+03  0.22480353379E+04  0.22008670688E+04 0.  0.
        2    1    3    3  502    0  0.26348385066E+03  0.12271694390E+03 -0.13131451701E+04  0.13449287809E+04  0.25500000920E-02 0.  1.
       -2    1    3    3    0  502 -0.26348385066E+03 -0.12271694390E+03  0.85505453946E+03  0.90310655702E+03  0.25500000920E-02 0. -1.
</event>
<event>
 5   0  0.2532239E-06  0.2200083E+04  0.7818609E-02  0.8518394E-01
       -2   -1    0    0    0  501  0.00000000000E+00  0.00000000000E+00  0.99292396971E+03  0.99292396972E+03  0.25500000920E-02 0. -1.
        2   -1    0    0  501    0  0.00000000000E+00  0.00000000000E+00 -0.12187151007E+04  0.12187151007E+04  0.25500000920E-02 0.  1.
    10030    2    1    2    0    0  0.00000000000E+00  0.00000000000E+00 -0.22579113098E+03  0.22116390704E+04  0.22000831218E+04 0.  0.
        3    1    3    3  502    0  0.41464030597E+03 -0.37290102532E+03 -0.10660899999E+04  0.12031332661E+04  0.10100000352E+00 0.  1.
       -3    1    3    3    0  502 -0.41464030597E+03  0.37290102532E+03  0.84029886889E+03  0.10085058043E+04  0.10100000352E+00 0. -1.
</event>
<event>
 5   0  0.2581058E-06  0.2200544E+04  0.7818609E-02  0.8518202E-01
       -2   -1    0    0    0  501  0.00000000000E+00  0.00000000000E+00  0.87350919566E+03  0.87350919566E+03  0.25500000920E-02 0. -1.
        2   -1    0    0  501    0  0.00000000000E+00  0.00000000000E+00 -0.13859028907E+04  0.13859028907E+04  0.25500000920E-02 0.  1.
    10030    2    1    2    0    0  0.00000000000E+00  0.00000000000E+00 -0.51239369500E+03  0.22594120863E+04  0.22005444047E+04 0.  0.
        1    1    3    3  502    0 -0.56117359542E+03  0.68390120366E+03 -0.92788555428E+03  0.12820328632E+04  0.50400001928E-02 0.  1.
       -1    1    3    3    0  502  0.56117359542E+03 -0.68390120366E+03  0.41549185928E+03  0.97737922308E+03  0.50400001928E-02 0. -1.
</event>
<event>
 5   0  0.1107101E-06  0.2199085E+04  0.7818609E-02  0.8518809E-01
       -1   -1    0    0    0  501  0.00000000000E+00  0.00000000000E+00  0.73826976001E+03  0.73826976003E+03  0.50400001928E-02 0. -1.
        1   -1    0    0  501    0  0.00000000000E+00  0.00000000000E+00 -0.16376040587E+04  0.16376040587E+04  0.50400001928E-02 0.  1.
    10030    2    1    2    0    0  0.00000000000E+00  0.00000000000E+00 -0.89933429864E+03  0.23758738187E+04  0.21990848600E+04 0.  0.
        1    1    3    3  502    0 -0.96833830730E+03 -0.26449666517E+03  0.35134024079E+02  0.10044261859E+04  0.50400001928E-02 0. -1.
       -1    1    3    3    0  502  0.96833830730E+03  0.26449666517E+03 -0.93446832272E+03  0.13714476328E+04  0.50400001928E-02 0.  1.
</event>
<event>
 5   0  0.2532239E-06  0.2200426E+04  0.7818609E-02  0.8518251E-01
        2   -1    0    0  501    0  0.00000000000E+00  0.00000000000E+00  0.20816144059E+04  0.20816144059E+04  0.25500000920E-02 0.  1.
       -2   -1    0    0    0  501  0.00000000000E+00  0.00000000000E+00 -0.58150477317E+03  0.58150477318E+03  0.25500000920E-02 0. -1.
    10030    2    1    2    0    0  0.00000000000E+00  0.00000000000E+00  0.15001096327E+04  0.26631191791E+04  0.22004260614E+04 0.  0.
        3    1    3    3  502    0 -0.31787485473E+03 -0.36730743318E+03 -0.44469471085E+03  0.65856857639E+03  0.10100000352E+00 0. -1.
       -3    1    3    3    0  502  0.31787485473E+03  0.36730743318E+03  0.19448043436E+04  0.20045506027E+04  0.10100000352E+00 0.  1.
</event>
<event>
 5   0  0.1146827E-06  0.2199721E+04  0.7818609E-02  0.8518544E-01
        1   -1    0    0  501    0  0.00000000000E+00  0.00000000000E+00  0.14819722461E+04  0.14819722462E+04  0.50400001928E-02 0. -1.
       -1   -1    0    0    0  501  0.00000000000E+00  0.00000000000E+00 -0.81627214129E+03  0.81627214131E+03  0.50400001928E-02 0.  1.
    10030    2    1    2    0    0  0.00000000000E+00  0.00000000000E+00  0.66570010485E+03  0.22982443875E+04  0.21997205811E+04 0.  0.
        4    1    3    3  502    0 -0.79817078350E+03  0.56016677716E+03  0.86438767077E+03  0.13030852145E+04  0.12699999809E+01 0. -1.
       -4    1    3    3    0  502  0.79817078350E+03 -0.56016677716E+03 -0.19868756591E+03  0.99515917300E+03  0.12699999809E+01 0.  1.
</event>
<event>
 5   0  0.2556869E-06  0.2199967E+04  0.7818609E-02  0.8518442E-01
       -2   -1    0    0    0  501  0.00000000000E+00  0.00000000000E+00  0.11003070153E+04  0.11003070153E+04  0.25500000920E-02 0.  1.
        2   -1    0    0  501    0  0.00000000000E+00  0.00000000000E+00 -0.10996597009E+04  0.10996597009E+04  0.25500000920E-02 0. -1.
    10030    2    1    2    0    0  0.00000000000E+00  0.00000000000E+00  0.64731435216E+00  0.21999667162E+04  0.21999666210E+04 0.  0.
        5    1    3    3  502    0 -0.50826289624E+03  0.97208581032E+03  0.81927576314E+02  0.11000073691E+04  0.46999998093E+01 0.  1.
       -5    1    3    3    0  502  0.50826289624E+03 -0.97208581032E+03 -0.81280261961E+02  0.10999593471E+04  0.46999998093E+01 0. -1.
</event>
<event>
 5   0  0.1146827E-06  0.2200255E+04  0.7818609E-02  0.8518322E-01
       -1   -1    0    0    0  501  0.00000000000E+00  0.00000000000E+00  0.71434351068E+03  0.71434351070E+03  0.50400001928E-02 0. -1.
        1   -1    0    0  501    0  0.00000000000E+00  0.00000000000E+00 -0.16942552662E+04  0.16942552662E+04  0.50400001928E-02 0.  1.
    10030    2    1    2    0    0  0.00000000000E+00  0.00000000000E+00 -0.97991175555E+03  0.24085987769E+04  0.22002547624E+04 0.  0.
        4    1    3    3  502    0 -0.42340352917E+03 -0.36068692533E+03  0.54908570186E+03  0.78157682124E+03  0.12699999809E+01 0. -1.
       -4    1    3    3    0  502  0.42340352917E+03  0.36068692533E+03 -0.15289974574E+04  0.16270219557E+04  0.12699999809E+01 0.  1.
</event>
<event>
 5   0  0.1144271E-06  0.2200598E+04  0.7818609E-02  0.8518179E-01
        1   -1    0    0  501    0  0.00000000000E+00  0.00000000000E+00  0.11339184249E+04  0.11339184250E+04  0.50400001928E-02 0.  1.
       -1   -1    0    0    0  501  0.00000000000E+00  0.00000000000E+00 -0.10676766423E+04  0.10676766424E+04  0.50400001928E-02 0. -1.
    10030    2    1    2    0    0  0.00000000000E+00  0.00000000000E+00  0.66241782598E+02  0.22015950673E+04  0.22005982974E+04 0.  0.
        3    1    3    3  502    0  0.90073797457E+03  0.56948871982E+03 -0.24088617963E+03  0.10925531852E+04  0.10100000352E+00 0.  1.
       -3    1    3    3    0  502 -0.90073797457E+03 -0.56948871982E+03  0.30712796223E+03  0.11090418821E+04  0.10100000352E+00 0. -1.
</event>
<event>
 5   0  0.2581058E-06  0.2186517E+04  0.7818609E-02  0.8524061E-01
       -2   -1    0    0    0  501  0.00000000000E+00  0.00000000000E+00  0.43859435047E+03  0.43859435048E+03  0.25500000920E-02 0.  1.
        2   -1    0    0  501    0  0.00000000000E+00  0.00000000000E+00 -0.27251019646E+04  0.27251019646E+04  0.25500000920E-02 0. -1.
    10030    2    1    2    0    0  0.00000000000E+00  0.00000000000E+00 -0.22865076141E+04  0.31636963151E+04  0.21865171631E+04 0.  0.
        1    1    3    3  502    0  0.79161756261E+03 -0.60294746013E+03 -0.48812037751E+03  0.11083616324E+04  0.50400001928E-02 0.  1.
       -1    1    3    3    0  502 -0.79161756261E+03  0.60294746013E+03 -0.17983872366E+04  0.20553346827E+04  0.50400001928E-02 0. -1.
</event>
<event>
 5   0  0.2524749E-06  0.2199531E+04  0.7818609E-02  0.8518623E-01
       -2   -1    0    0    0  501  0.00000000000E+00  0.00000000000E+00  0.75986426169E+03  0.75986426169E+03  0.25500000920E-02 0.  1.
        2   -1    0    0  501    0  0.00000000000E+00  0.00000000000E+00 -0.15917107413E+04  0.15917107413E+04  0.25500000920E-02 0. -1.
    10030    2    1    2    0    0  0.00000000000E+00  0.00000000000E+00 -0.83184647963E+03  0.23515750030E+04  0.21995309566E+04 0.  0.
        4    1    3    3  502    0 -0.48995309530E+03  0.43154783341E+03 -0.13620812904E+04  0.15104815863E+04  0.12699999809E+01 0. -1.
       -4    1    3    3    0  502  0.48995309530E+03 -0.43154783341E+03  0.53023481077E+03  0.84109341667E+03  0.12699999809E+01 0.  1.
</event>
<event>
 5   0  0.2532239E-06  0.2189327E+04  0.7818609E-02  0.8522884E-01
       -2   -1    0    0    0  501  0.00000000000E+00  0.00000000000E+00  0.72099768844E+03  0.72099768844E+03  0.25500000920E-02 0.  1.
        2   -1    0    0  501    0  0.00000000000E+00  0.00000000000E+00 -0.16619854999E+04  0.16619854999E+04  0.25500000920E-02 0. -1.
    10030    2    1    2    0    0  0.00000000000E+00  0.00000000000E+00 -0.94098781151E+03  0.23829831884E+04  0.21893265665E+04 0.  0.
        3    1    3    3  502    0  0.45874221263E+03 -0.48702860450E+03  0.47254180441E+03  0.81910746937E+03  0.10100000352E+00 0.  1.
       -3    1    3    3    0  502 -0.45874221263E+03  0.48702860450E+03 -0.14135296159E+04  0.15638757190E+04  0.10100000352E+00 0. -1.
</event>
<event>
 5   0  0.1146827E-06  0.2198618E+04  0.7818609E-02  0.8519003E-01
       -1   -1    0    0    0  501  0.00000000000E+00  0.00000000000E+00  0.98986553110E+03  0.98986553111E+03  0.50400001928E-02 0. -1.
        1   -1    0    0  501    0  0.00000000000E+00  0.00000000000E+00 -0.12208533950E+04  0.12208533950E+04  0.50400001928E-02 0.  1.
    10030    2    1    2    0    0  0.00000000000E+00  0.00000000000E+00 -0.23098786390E+03  0.22107189261E+04  0.21986183791E+04 0.  0.
        4    1    3    3  502    0 -0.38390328674E+03  0.71613460582E+03 -0.86000718090E+03  0.11831502319E+04  0.12699999809E+01 0.  1.
       -4    1    3    3    0  502  0.38390328674E+03 -0.71613460582E+03  0.62901931700E+03  0.10275686942E+04  0.12699999809E+01 0. -1.
</event>
<event>
 5   0  0.1082209E-06  0.2199719E+04  0.7818609E-02  0.8518545E-01
       -1   -1    0    0    0  501  0.00000000000E+00  0.00000000000E+00  0.13616857868E+04  0.13616857868E+04  0.50400001928E-02 0. -1.
        1   -1    0    0  501    0  0.00000000000E+00  0.00000000000E+00 -0.88837754740E+03  0.88837754741E+03  0.50400001928E-02 0.  1.
    10030    2    1    2    0    0  0.00000000000E+00  0.00000000000E+00  0.47330823942E+03  0.22500633342E+04  0.21997191454E+04 0.  0.
        2    1    3    3  502    0  0.53296135718E+03 -0.35829899027E+03 -0.67667832600E+03  0.93290917648E+03  0.25500000920E-02 0. -1.
       -2    1    3    3    0  502 -0.53296135718E+03  0.35829899027E+03  0.11499865654E+04  0.13171541578E+04  0.25500000920E-02 0.  1.
</event>
<event>
 5   0  0.2556869E-06  0.2199872E+04  0.7818609E-02  0.8518481E-01
        2   -1    0    0  501    0  0.00000000000E+00  0.00000000000E+00  0.21081832822E+04  0.21081832822E+04  0.25500000920E-02 0.  1.
       -2   -1    0    0    0  501  0.00000000000E+00  0.00000000000E+00 -0.57388708543E+03  0.57388708544E+03  0.25500000920E-02 0. -1.
    10030    2    1    2    0    0  0.00000000000E+00  0.00000000000E+00  0.15342961968E+04  0.26820703677E+04  0.21998719594E+04 0.  0.
        5    1    3    3  502    0 -0.34147073750E+03  0.11366771470E+03 -0.50005976040E+03  0.61612049787E+03  0.46999998093E+01 0. -1.
       -5    1    3    3    0  502  0.34147073750E+03 -0.11366771470E+03  0.20343559572E+04  0.20659498698E+04  0.46999998093E+01 0.  1.
</event>
<event>
 5   0  0.1107101E-06  0.2200036E+04  0.7818609E-02  0.8518413E-01
       -1   -1    0    0    0  501  0.00000000000E+00  0.00000000000E+00  0.54577506600E+03  0.54577506602E+03  0.50400001928E-02 0.  1.
        1   -1    0    0  501    0  0.00000000000E+00  0.00000000000E+00 -0.22171025195E+04  0.22171025195E+04  0.50400001928E-02 0. -1.
    10030    2    1    2    0    0  0.00000000000E+00  0.00000000000E+00 -0.16713274535E+04  0.27628775855E+04  0.22000357033E+04 0.  0.
        1    1    3    3  502    0 -0.21320513642E+03 -0.10595778726E+04 -0.57866990690E+03  0.12259773895E+04  0.50400001928E-02 0.  1.
       -1    1    3    3    0  502  0.21320513642E+03  0.10595778726E+04 -0.10926575466E+04  0.15369001960E+04  0.50400001928E-02 0. -1.
</event>
<event>
 5   0  0.2532239E-06  0.2199352E+04  0.7818609E-02  0.8518698E-01
       -2   -1    0    0    0  501  0.00000000000E+00  0.00000000000E+00  0.87854085592E+03  0.87854085592E+03  0.25500000920E-02 0. -1.
        2   -1    0    0  501    0  0.00000000000E+00  0.00000000000E+00 -0.13764727025E+04  0.13764727025E+04  0.25500000920E-02 0.  1.
    10030    2    1    2    0    0  0.00000000000E+00  0.00000000000E+00 -0.49793184663E+03  0.22550135585E+04  0.21993521830E+04 0.  0.
        3    1    3    3  502    0 -0.22168750750E+03 -0.84474837521E+03 -0.93411597484E+03  0.12787954618E+04  0.10100000352E+00 0.  1.
       -3    1    3    3    0  502  0.22168750750E+03  0.84474837521E+03  0.43618412822E+03  0.97621809669E+03  0.10100000352E+00 0. -1.
</event>
<event>
 5   0  0.1082209E-06  0.2199652E+04  0.7818609E-02  0.8518573E-01
       -1   -1    0    0    0  501  0.00000000000E+00  0.00000000000E+00  0.14249409471E+04  0.14249409471E+04  0.50400001928E-02 0. -1.
        1   -1    0    0  501    0  0.00000000000E+00  0.00000000000E+00 -0.84888921001E+03  0.84888921003E+03  0.50400001928E-02 0.  1.
    10030    2    1    2    0    0  0.00000000000E+00  0.00000000000E+00  0.57605173712E+03  0.22738301572E+04  0.21996517860E+04 0.  0.
        2    1    3    3  502    0  0.23535915595E+03  0.13550654815E+03  0.13897343373E+04  0.14160217107E+04  0.25500000920E-02 0. -1.
       -2    1    3    3    0  502 -0.23535915595E+03 -0.13550654815E+03 -0.81368260022E+03  0.85780844644E+03  0.25500000920E-02 0.  1.
</event>
<event>
 5   0  0.1146827E-06  0.2204933E+04  0.7818609E-02  0.8516378E-01
        1   -1    0    0  501    0  0.00000000000E+00  0.00000000000E+00  0.95078365614E+03  0.95078365616E+03  0.50400001928E-02 0.  1.
       -1   -1    0    0    0  501  0.00000000000E+00  0.00000000000E+00 -0.12783481138E+04  0.12783481138E+04  0.50400001928E-02 0. -1.
    10030    2    1    2    0    0  0.00000000000E+00  0.00000000000E+00 -0.32756445764E+03  0.22291317699E+04  0.22049330996E+04 0.  0.
        4    1    3    3  502    0 -0.86225941793E+03  0.56290711453E+02  0.52840034541E+03  0.10128516604E+04  0.12699999809E+01 0.  1.
       -4    1    3    3    0  502  0.86225941793E+03 -0.56290711453E+02 -0.85596480304E+03  0.12162801096E+04  0.12699999809E+01 0. -1.
</event>
<event>
 5   0  0.8905000E-07  0.2200573E+04  0.7818609E-02  0.8518190E-01
       -3   -1    0    0    0  501  0.00000000000E+00  0.00000000000E+00  0.66725052264E+03  0.66725053029E+03  0.10100000352E+00 0.  1.
        3   -1    0    0  501    0  0.00000000000E+00  0.00000000000E+00 -0.18143571369E+04  0.18143571397E+04  0.10100000352E+00 0. -1.
    10030    2    1    2    0    0  0.00000000000E+00  0.00000000000E+00 -0.11471066143E+04  0.24816076700E+04  0.22005733442E+04 0.  0.
        2    1    3    3  502    0 -0.54111072819E+03 -0.78664391345E+03 -0.11902169344E+04  0.15258524888E+04  0.25500000920E-02 0. -1.
       -2    1    3    3    0  502  0.54111072819E+03  0.78664391345E+03  0.43110320075E+02  0.95575518122E+03  0.25500000920E-02 0.  1.
</event>
<event>
 5   0  0.2524749E-06  0.2200111E+04  0.7818609E-02  0.8518382E-01
        2   -1    0    0  501    0  0.00000000000E+00  0.00000000000E+00  0.17824015867E+04  0.17824015867E+04  0.25500000920E-02 0.  1.
       -2   -1    0    0    0  501  0.00000000000E+00  0.00000000000E+00 -0.67892816336E+03  0.67892816337E+03  0.25500000920E-02 0. -1.
    10030    2    1    2    0    0  0.00000000000E+00  0.00000000000E+00  0.11034734233E+04  0.24613297501E+04  0.22001114841E+04 0.  0.
        4    1    3    3  502    0  0.44872230779E+03  0.32697214118E+03  0.16141520259E+04  0.17069712553E+04  0.12699999809E+01 0.  1.
       -4    1    3    3    0  502 -0.44872230779E+03 -0.32697214118E+03 -0.51067860259E+03  0.75435849479E+03  0.12699999809E+01 0. -1.
</event>
<event>
 5   0  0.1137869E-06  0.2200066E+04  0.7818609E-02  0.8518401E-01
       -1   -1    0    0    0  501  0.00000000000E+00  0.00000000000E+00  0.10123354004E+04  0.10123354004E+04  0.50400001928E-02 0. -1.
        1   -1    0    0  501    0  0.00000000000E+00  0.00000000000E+00 -0.11953279798E+04  0.11953279798E+04  0.50400001928E-02 0.  1.
    10030    2    1    2    0    0  0.00000000000E+00  0.00000000000E+00 -0.18299257945E+03  0.22076633802E+04  0.22000662072E+04 0.  0.
        5    1    3    3  502    0  0.87286589938E+02  0.57403502126E+03 -0.10290220877E+04  0.11815429325E+04  0.46999998093E+01 0.  1.
       -5    1    3    3    0  502 -0.87286589938E+02 -0.57403502126E+03  0.84602950823E+03  0.10261204477E+04  0.46999998093E+01 0. -1.
</event>
<event>
 5   0  0.2606154E-06  0.2200174E+04  0.7818609E-02  0.8518356E-01
        2   -1    0    0  501    0  0.00000000000E+00  0.00000000000E+00  0.16473940993E+04  0.16473940993E+04  0.25500000920E-02 0. -1.
       -2   -1    0    0    0  501  0.00000000000E+00  0.00000000000E+00 -0.73460927340E+03  0.73460927340E+03  0.25500000920E-02 0.  1.
    10030    2    1    2    0    0  0.00000000000E+00  0.00000000000E+00  0.91278482585E+03  0.23820033727E+04  0.22001736134E+04 0.  0.
        2    1    3    3  502    0  0.26674268656E+03 -0.78317672921E+03  0.12413450911E+04  0.14917959261E+04  0.25500000920E-02 0. -1.
       -2    1    3    3    0  502 -0.26674268656E+03  0.78317672921E+03 -0.32856026522E+03  0.89020744655E+03  0.25500000920E-02 0.  1.
</event>
<event>
 5   0  0.1146827E-06  0.2200049E+04  0.7818609E-02  0.8518408E-01
        1   -1    0    0  501    0  0.00000000000E+00  0.00000000000E+00  0.12020027892E+04  0.12020027892E+04  0.50400001928E-02 0.  1.
       -1   -1    0    0    0  501  0.00000000000E+00  0.00000000000E+00 -0.10066980814E+04  0.10066980814E+04  0.50400001928E-02 0. -1.
    10030    2    1    2    0    0  0.00000000000E+00  0.00000000000E+00  0.19530470779E+03  0.22087008706E+04  0.22000490011E+04 0.  0.
        4    1    3    3  502    0 -0.60772820366E+03  0.32662738853E+03 -0.76247432867E+03  0.10282936036E+04  0.12699999809E+01 0. -1.
       -4    1    3    3    0  502  0.60772820366E+03 -0.32662738853E+03  0.95777903645E+03  0.11804072670E+04  0.12699999809E+01 0.  1.
</event>
<event>
 5   0  0.1107101E-06  0.2201176E+04  0.7818609E-02  0.8517939E-01
        1   -1    0    0  501    0  0.00000000000E+00  0.00000000000E+00  0.50345426613E+03  0.50345426615E+03  0.50400001928E-02 0.  1.
       -1   -1    0    0    0  501  0.00000000000E+00  0.00000000000E+00 -0.24059666332E+04  0.24059666332E+04  0.50400001928E-02 0. -1.
    10030    2    1    2    0    0  0.00000000000E+00  0.00000000000E+00 -0.19025123671E+04  0.29094208993E+04  0.22011761998E+04 0.  0.
        1    1    3    3  502    0 -0.46965356919E+03 -0.70718436523E+03 -0.18770620492E+04  0.20601082831E+04  0.50400001928E-02 0. -1.
       -1    1    3    3    0  502  0.46965356919E+03  0.70718436523E+03 -0.25450317889E+02  0.84931261628E+03  0.50400001928E-02 0.  1.
</event>
<event>
 5   0  0.2606154E-06  0.2200367E+04  0.7818609E-02  0.8518276E-01
       -2   -1    0    0    0  501  0.00000000000E+00  0.00000000000E+00  0.14919647987E+04  0.14919647987E+04  0.25500000920E-02 0.  1.
        2   -1    0    0  501    0  0.00000000000E+00  0.00000000000E+00 -0.81128141649E+03  0.81128141649E+03  0.25500000920E-02 0. -1.
    10030    2    1    2    0    0  0.00000000000E+00  0.00000000000E+00  0.68068338222E+03  0.23032462152E+04  0.22003666197E+04 0.  0.
        2    1    3    3  502    0  0.66712439644E+03  0.61121513106E+03  0.99551743859E+03  0.13452486266E+04  0.25500000920E-02 0.  1.
       -2    1    3    3    0  502 -0.66712439644E+03 -0.61121513106E+03 -0.31483405638E+03  0.95799758863E+03  0.25500000920E-02 0. -1.
</event>
<event>
 5   0  0.2581058E-06  0.2200951E+04  0.7818609E-02  0.8518033E-01
        2   -1    0    0  501    0  0.00000000000E+00  0.00000000000E+00  0.15558063986E+04  0.15558063986E+04  0.25500000920E-02 0. -1.
       -2   -1    0    0    0  501  0.00000000000E+00  0.00000000000E+00 -0.77840392258E+03  0.77840392258E+03  0.25500000920E-02 0.  1.
    10030    2    1    2    0    0  0.00000000000E+00  0.00000000000E+00  0.77740247604E+03  0.23342103212E+04  0.22009505251E+04 0.  0.
        1    1    3    3  502    0  0.85658574343E+03  0.68872510798E+03  0.44644400767E+03  0.11863362349E+04  0.50400001928E-02 0. -1.
       -1    1    3    3    0  502 -0.85658574343E+03 -0.68872510798E+03  0.33095846837E+03  0.11478740863E+04  0.50400001928E-02 0.  1.
</event>
<event>
 5   0  0.1082209E-06  0.2200302E+04  0.7818609E-02  0.8518302E-01
        1   -1    0    0  501    0  0.00000000000E+00  0.00000000000E+00  0.13751227321E+04  0.13751227321E+04  0.50400001928E-02 0.  1.
       -1   -1    0    0    0  501  0.00000000000E+00  0.00000000000E+00 -0.88016333227E+03  0.88016333228E+03  0.50400001928E-02 0. -1.
    10030    2    1    2    0    0  0.00000000000E+00  0.00000000000E+00  0.49495939987E+03  0.22552860644E+04  0.22003023485E+04 0.  0.
        2    1    3    3  502    0  0.63225406336E+03  0.37844040030E+03 -0.58986196505E+03  0.94387471363E+03  0.25500000920E-02 0. -1.
       -2    1    3    3    0  502 -0.63225406336E+03 -0.37844040030E+03  0.10848213649E+04  0.13114113508E+04  0.25500000920E-02 0.  1.
</event>
<event>
 5   0  0.1107101E-06  0.2199981E+04  0.7818609E-02  0.8518436E-01
        1   -1    0    0  501    0  0.00000000000E+00  0.00000000000E+00  0.10850027909E+04  0.10850027909E+04  0.50400001928E-02 0.  1.
       -1   -1    0    0    0  501  0.00000000000E+00  0.00000000000E+00 -0.11151849656E+04  0.11151849656E+04  0.50400001928E-02 0. -1.
    10030    2    1    2    0    0  0.00000000000E+00  0.00000000000E+00 -0.30182174704E+02  0.22001877565E+04  0.21999807272E+04 0.  0.
        1    1    3    3  502    0  0.10198552459E+04 -0.91123130684E+02  0.38690525986E+03  0.10945792925E+04  0.50400001928E-02 0.  1.
       -1    1    3    3    0  502 -0.10198552459E+04  0.91123130684E+02 -0.41708743457E+03  0.11056084640E+04  0.50400001928E-02 0. -1.
</event>
<event>
 5   0  0.1146827E-06  0.2200223E+04  0.7818609E-02  0.8518335E-01
       -1   -1    0    0    0  501  0.00000000000E+00  0.00000000000E+00  0.13632481130E+04  0.13632481130E+04  0.50400001928E-02 0. -1.
        1   -1    0    0  501    0  0.00000000000E+00  0.00000000000E+00 -0.88776631297E+03  0.88776631299E+03  0.50400001928E-02 0.  1.
    10030    2    1    2    0    0  0.00000000000E+00  0.00000000000E+00  0.47548180000E+03  0.22510144260E+04  0.22002233986E+04 0.  0.
        4    1    3    3  502    0  0.21928894678E+03 -0.10746884621E+04  0.15092203613E+03  0.11071684635E+04  0.12699999809E+01 0.  1.
       -4    1    3    3    0  502 -0.21928894678E+03  0.10746884621E+04  0.32455976386E+03  0.11438459625E+04  0.12699999809E+01 0. -1.
</event>
<event>
 5   0  0.2524749E-06  0.2200458E+04  0.7818609E-02  0.8518237E-01
       -2   -1    0    0    0  501  0.00000000000E+00  0.00000000000E+00  0.62327141188E+03  0.62327141189E+03  0.25500000920E-02 0.  1.
        2   -1    0    0  501    0  0.00000000000E+00  0.00000000000E+00 -0.19421783734E+04  0.19421783734E+04  0.25500000920E-02 0. -1.
    10030    2    1    2    0    0  0.00000000000E+00  0.00000000000E+00 -0.13189069615E+04  0.25654497853E+04  0.22004583676E+04 0.  0.
        4    1    3    3  502    0  0.88612207577E+03  0.51275275606E+03 -0.18965691254E+03  0.10412007873E+04  0.12699999809E+01 0. -1.
       -4    1    3    3    0  502 -0.88612207577E+03 -0.51275275606E+03 -0.11292500490E+04  0.15242489980E+04  0.12699999809E+01 0.  1.
</event>
<event>
 5   0  0.1144271E-06  0.2199677E+04  0.7818609E-02  0.8518563E-01
        1   -1    0    0  501    0  0.00000000000E+00  0.00000000000E+00  0.10089216106E+04  0.10089216106E+04  0.50400001928E-02 0.  1.
       -1   -1    0    0    0  501  0.00000000000E+00  0.00000000000E+00 -0.11989479583E+04  0.11989479583E+04  0.50400001928E-02 0. -1.
    10030    2    1    2    0    0  0.00000000000E+00  0.00000000000E+00 -0.19002634775E+03  0.22078695689E+04  0.21996767991E+04 0.  0.
        3    1    3    3  502    0  0.25121509025E+03 -0.15645978398E+03 -0.11582298232E+04  0.11954434404E+04  0.10100000352E+00 0. -1.
       -3    1    3    3    0  502 -0.25121509025E+03  0.15645978398E+03  0.96820347546E+03  0.10124261285E+04  0.10100000352E+00 0.  1.
</event>
<event>
 5   0  0.1107101E-06  0.2199938E+04  0.7818609E-02  0.8518454E-01
        1   -1    0    0  501    0  0.00000000000E+00  0.00000000000E+00  0.14396629330E+04  0.14396629330E+04  0.50400001928E-02 0.  1.
       -1   -1    0    0    0  501  0.00000000000E+00  0.00000000000E+00 -0.84042708139E+03  0.84042708141E+03  0.50400001928E-02 0. -1.
    10030    2    1    2    0    0  0.00000000000E+00  0.00000000000E+00  0.59923585159E+03  0.22800900144E+04  0.21999379237E+04 0.  0.
        1    1    3    3  502    0 -0.62548670225E+03  0.83038611810E+02 -0.63420989762E+03  0.89462350741E+03  0.50400001928E-02 0. -1.
       -1    1    3    3    0  502  0.62548670225E+03 -0.83038611810E+02  0.12334457492E+04  0.13854665070E+04  0.50400001928E-02 0.  1.
</event>
<event>
 5   0  0.1107101E-06  0.2201135E+04  0.7818609E-02  0.8517956E-01
       -1   -1    0    0    0  501  0.00000000000E+00  0.00000000000E+00  0.12328133721E+04  0.12328133721E+04  0.50400001928E-02 0.  1.
        1   -1    0    0  501    0  0.00000000000E+00  0.00000000000E+00 -0.98250785750E+03  0.98250785751E+03  0.50400001928E-02 0. -1.
    10030    2    1    2    0    0  0.00000000000E+00  0.00000000000E+00  0.25030551458E+03  0.22153212296E+04  0.22011350026E+04 0.  0.
        1    1    3    3  502    0 -0.87415681599E+03 -0.39600887931E+03 -0.41709196674E+03  0.10463932722E+04  0.50400001928E-02 0. -1.
       -1    1    3    3    0  502  0.87415681599E+03  0.39600887931E+03  0.66739748132E+03  0.11689279574E+04  0.50400001928E-02 0.  1.
</event>
<event>
 5   0  0.2524749E-06  0.2199360E+04  0.7818609E-02  0.8518695E-01
        2   -1    0    0  501    0  0.00000000000E+00  0.00000000000E+00  0.12072040026E+04  0.12072040026E+04  0.25500000920E-02 0. -1.
       -2   -1    0    0    0  501  0.00000000000E+00  0.00000000000E+00 -0.10017329953E+04  0.10017329953E+04  0.25500000920E-02 0.  1.
    10030    2    1    2    0    0  0.00000000000E+00  0.00000000000E+00  0.20547100738E+03  0.22089369979E+04  0.21993599809E+04 0.  0.
        4    1    3    3  502    0  0.82606162558E+03  0.64527168192E+03 -0.23118949496E+03  0.10734074474E+04  0.12699999809E+01 0.  1.
       -4    1    3    3    0  502 -0.82606162558E+03 -0.64527168192E+03  0.43666050234E+03  0.11355295505E+04  0.12699999809E+01 0. -1.
</event>
<event>
 5   0  0.2532239E-06  0.2200496E+04  0.7818609E-02  0.8518222E-01
        2   -1    0    0  501    0  0.00000000000E+00  0.00000000000E+00  0.10839439738E+04  0.10839439739E+04  0.25500000920E-02 0.  1.
       -2   -1    0    0    0  501  0.00000000000E+00  0.00000000000E+00 -0.11167975780E+04  0.11167975780E+04  0.25500000920E-02 0. -1.
    10030    2    1    2    0    0  0.00000000000E+00  0.00000000000E+00 -0.32853604131E+02  0.22007415518E+04  0.22004963119E+04 0.  0.
        3    1    3    3  502    0  0.43443199423E+03 -0.10075323453E+04 -0.98249183650E+02  0.11015922552E+04  0.10100000352E+00 0.  1.
       -3    1    3    3    0  502 -0.43443199423E+03  0.10075323453E+04  0.65395579519E+02  0.10991492967E+04  0.10100000352E+00 0. -1.
</event>
<event>
 5   0  0.2556869E-06  0.2198957E+04  0.7818609E-02  0.8518862E-01
       -2   -1    0    0    0  501  0.00000000000E+00  0.00000000000E+00  0.70874805022E+03  0.70874805022E+03  0.25500000920E-02 0.  1.
        2   -1    0    0  501    0  0.00000000000E+00  0.00000000000E+00 -0.17056175213E+04  0.17056175213E+04  0.25500000920E-02 0. -1.
    10030    2    1    2    0    0  0.00000000000E+00  0.00000000000E+00 -0.99686947104E+03  0.24143655715E+04  0.21989571097E+04 0.  0.
        5    1    3    3  502    0 -0.14270411092E+03  0.88962547292E+03 -0.11902650770E+04  0.14928332087E+04  0.46999998093E+01 0. -1.
       -5    1    3    3    0  502  0.14270411092E+03 -0.88962547292E+03  0.19339560595E+03  0.92153236283E+03  0.46999998093E+01 0.  1.
</event>
<event>
 5   0  0.2532239E-06  0.2199501E+04  0.7818609E-02  0.8518636E-01
       -2   -1    0    0    0  501  0.00000000000E+00  0.00000000000E+00  0.70860739592E+03  0.70860739593E+03  0.25500000920E-02 0. -1.
        2   -1    0    0  501    0  0.00000000000E+00  0.00000000000E+00 -0.17068008073E+04  0.17068008073E+04  0.25500000920E-02 0.  1.
    10030    2    1    2    0    0  0.00000000000E+00  0.00000000000E+00 -0.99819341139E+03  0.24154082032E+04  0.21995014666E+04 0.  0.
        3    1    3    3  502    0  0.43073353575E+03  0.91133930811E+03 -0.98201441051E+03  0.14072750357E+04  0.10100000352E+00 0.  1.
       -3    1    3    3    0  502 -0.43073353575E+03 -0.91133930811E+03 -0.16179000882E+02  0.10081331676E+04  0.10100000352E+00 0. -1.
</event>
<event>
 5   0  0.1137869E-06  0.2201371E+04  0.7818609E-02  0.8517858E-01
       -1   -1    0    0    0  501  0.00000000000E+00  0.00000000000E+00  0.14722103325E+04  0.14722103325E+04  0.50400001928E-02 0.  1.
        1   -1    0    0  501    0  0.00000000000E+00  0.00000000000E+00 -0.82291827236E+03  0.82291827238E+03  0.50400001928E-02 0. -1.
    10030    2    1    2    0    0  0.00000000000E+00  0.00000000000E+00  0.64929206010E+03  0.22951286049E+04  0.22013711939E+04 0.  0.
        5    1    3    3  502    0 -0.29427623546E+03  0.18602826871E+03  0.14132830598E+04  0.14555398025E+04  0.46999998093E+01 0.  1.
       -5    1    3    3    0  502  0.29427623546E+03 -0.18602826871E+03 -0.76399099967E+03  0.83958880239E+03  0.46999998093E+01 0. -1.
</event>
<event>
 5   0  0.2556869E-06  0.2198600E+04  0.7818609E-02  0.8519011E-01
        2   -1    0    0  501    0  0.00000000000E+00  0.00000000000E+00  0.14253829220E+04  0.14253829220E+04  0.25500000920E-02 0.  1.
       -2   -1    0    0    0  501  0.00000000000E+00  0.00000000000E+00 -0.84781478875E+03  0.84781478875E+03  0.25500000920E-02 0. -1.
    10030    2    1    2    0    0  0.00000000000E+00  0.00000000000E+00  0.57756813329E+03  0.22731977108E+04  0.21986002101E+04 0.  0.
        5    1    3    3  502    0  0.19790565541E+03  0.14023050113E+03 -0.81979256133E+03  0.85493460306E+03  0.46999998093E+01 0. -1.
       -5    1    3    3    0  502 -0.19790565541E+03 -0.14023050113E+03  0.13973606946E+04  0.14182631077E+04  0.46999998093E+01 0.  1.
</event>
<event>
 5   0  0.2606154E-06  0.2197523E+04  0.7818609E-02  0.8519460E-01
       -2   -1    0    0    0  501  0.00000000000E+00  0.00000000000E+00  0.85480349712E+03  0.85480349713E+03  0.25500000920E-02 0. -1.
        2   -1    0    0  501    0  0.00000000000E+00  0.00000000000E+00 -0.14123444660E+04  0.14123444660E+04  0.25500000920E-02 0.  1.
    10030    2    1    2    0    0  0.00000000000E+00  0.00000000000E+00 -0.55754096888E+03  0.22671479631E+04  0.21975231409E+04 0.  0.
        2    1    3    3  502    0  0.10552764693E+04  0.13891939039E+03  0.25783990681E+01  0.10643841750E+04  0.25500000920E-02 0. -1.
       -2    1    3    3    0  502 -0.10552764693E+04 -0.13891939039E+03 -0.56011936795E+03  0.12027637882E+04  0.25500000920E-02 0.  1.
</event>
<event>
 5   0  0.2556869E-06  0.2199911E+04  0.7818609E-02  0.8518465E-01
        2   -1    0    0  501    0  0.00000000000E+00  0.00000000000E+00  0.23239800913E+04  0.23239800913E+04  0.25500000920E-02 0.  1.
       -2   -1    0    0    0  501  0.00000000000E+00  0.00000000000E+00 -0.52061659767E+03  0.52061659768E+03  0.25500000920E-02 0. -1.
    10030    2    1    2    0    0  0.00000000000E+00  0.00000000000E+00  0.18033634937E+04  0.28445966890E+04  0.21999114602E+04 0.  0.
        5    1    3    3  502    0 -0.40388742878E+03 -0.70741155606E+03  0.18574239819E+04  0.20282016920E+04  0.46999998093E+01 0.  1.
       -5    1    3    3    0  502  0.40388742878E+03  0.70741155606E+03 -0.54060488263E+02  0.81639499702E+03  0.46999998093E+01 0. -1.
</event>
<event>
 5   0  0.1107101E-06  0.2200072E+04  0.7818609E-02  0.8518398E-01
        1   -1    0    0  501    0  0.00000000000E+00  0.00000000000E+00  0.77699469542E+03  0.77699469543E+03  0.50400001928E-02 0. -1.
       -1   -1    0    0    0  501  0.00000000000E+00  0.00000000000E+00 -0.15573845493E+04  0.15573845493E+04  0.50400001928E-02 0.  1.
    10030    2    1    2    0    0  0.00000000000E+00  0.00000000000E+00 -0.78038985384E+03  0.23343792447E+04  0.22000723020E+04 0.  0.
        1    1    3    3  502    0  0.52503153441E+03  0.47209124565E+03  0.50483500822E+03  0.86797848009E+03  0.50400001928E-02 0.  1.
       -1    1    3    3    0  502 -0.52503153441E+03 -0.47209124565E+03 -0.12852248621E+04  0.14664007646E+04  0.50400001928E-02 0. -1.
</event>
<event>
 5   0  0.2606154E-06  0.2200120E+04  0.7818609E-02  0.8518378E-01
       -2   -1    0    0    0  501  0.00000000000E+00  0.00000000000E+00  0.79755403881E+03  0.79755403881E+03  0.25500000920E-02 0. -1.
        2   -1    0    0  501    0  0.00000000000E+00  0.00000000000E+00 -0.15173038225E+04  0.15173038225E+04  0.25500000920E-02 0.  1.
    10030    2    1    2    0    0  0.00000000000E+00  0.00000000000E+00 -0.71974978369E+03  0.23148578613E+04  0.22001198074E+04 0.  0.
        2    1    3    3  502    0 -0.40602512626E+03 -0.89205556217E+03 -0.88543687840E+03  0.13208398823E+04  0.25500000920E-02 0.  1.
       -2    1    3    3    0  502  0.40602512626E+03  0.89205556217E+03  0.16568709470E+03  0.99401797897E+03  0.25500000920E-02 0. -1.
</event>
<event>
 5   0  0.1137869E-06  0.2199342E+04  0.7818609E-02  0.8518702E-01
        1   -1    0    0  501    0  0.00000000000E+00  0.00000000000E+00  0.11149228901E+04  0.11149228901E+04  0.50400001928E-02 0.  1.
       -1   -1    0    0    0  501  0.00000000000E+00  0.00000000000E+00 -0.10846275172E+04  0.10846275173E+04  0.50400001928E-02 0. -1.
    10030    2    1    2    0    0  0.00000000000E+00  0.00000000000E+00  0.30295372839E+02  0.21995504073E+04  0.21993417617E+04 0.  0.
        5    1    3    3  502    0  0.96913337588E+03 -0.48337693222E+03  0.20590433891E+03  0.11024025787E+04  0.46999998093E+01 0.  1.
       -5    1    3    3    0  502 -0.96913337588E+03  0.48337693222E+03 -0.17560896607E+03  0.10971478286E+04  0.46999998093E+01 0. -1.
</event>
<event>
 5   0  0.1144271E-06  0.2213389E+04  0.7818609E-02  0.8512876E-01
       -1   -1    0    0    0  501  0.00000000000E+00  0.00000000000E+00  0.47174800822E+03  0.47174800825E+03  0.50400001928E-02 0. -1.
        1   -1    0    0  501    0  0.00000000000E+00  0.00000000000E+00 -0.25962435330E+04  0.25962435330E+04  0.50400001928E-02 0.  1.
    10030    2    1    2    0    0  0.00000000000E+00  0.00000000000E+00 -0.21244955248E+04  0.30679915413E+04  0.22133889994E+04 0.  0.
        3    1    3    3  502    0  0.63357309767E+03 -0.88032874948E+03 -0.13671253011E+04  0.17451146599E+04  0.10100000352E+00 0.  1.
       -3    1    3    3    0  502 -0.63357309767E+03  0.88032874948E+03 -0.75737022374E+03  0.13228768814E+04  0.10100000352E+00 0. -1.
</event>
<event>
 5   0  0.2524749E-06  0.2200690E+04  0.7818609E-02  0.8518141E-01
        2   -1    0    0  501    0  0.00000000000E+00  0.00000000000E+00  0.18880445986E+04  0.18880445986E+04  0.25500000920E-02 0. -1.
       -2   -1    0    0    0  501  0.00000000000E+00  0.00000000000E+00 -0.64127659989E+03  0.64127659989E+03  0.25500000920E-02 0.  1.
    10030    2    1    2    0    0  0.00000000000E+00  0.00000000000E+00  0.12467679987E+04  0.25293211985E+04  0.22006897288E+04 0.  0.
        4    1    3    3  502    0  0.46490972137E+03 -0.27556973161E+01 -0.52284466470E+03  0.69965477144E+03  0.12699999809E+01 0.  1.
       -4    1    3    3    0  502 -0.46490972137E+03  0.27556973161E+01  0.17696126634E+04  0.18296664270E+04  0.12699999809E+01 0. -1.
</event>
<event>
 5   0  0.1137869E-06  0.2200711E+04  0.7818609E-02  0.8518132E-01
        1   -1    0    0  501    0  0.00000000000E+00  0.00000000000E+00  0.18060413461E+04  0.18060413461E+04  0.50400001928E-02 0.  1.
       -1   -1    0    0    0  501  0.00000000000E+00  0.00000000000E+00 -0.67040668355E+03  0.67040668357E+03  0.50400001928E-02 0. -1.
    10030    2    1    2    0    0  0.00000000000E+00  0.00000000000E+00  0.11356346625E+04  0.24764480297E+04  0.22007109662E+04 0.  0.
        5    1    3    3  502    0 -0.32671196925E+03  0.33371557672E+03 -0.55333598703E+03  0.72409226038E+03  0.46999998093E+01 0. -1.
       -5    1    3    3    0  502  0.32671196925E+03 -0.33371557672E+03  0.16889706496E+04  0.17523557693E+04  0.46999998093E+01 0.  1.
</event>
<event>
 5   0  0.1107101E-06  0.2200173E+04  0.7818609E-02  0.8518356E-01
        1   -1    0    0  501    0  0.00000000000E+00  0.00000000000E+00  0.96785160924E+03  0.96785160925E+03  0.50400001928E-02 0.  1.
       -1   -1    0    0    0  501  0.00000000000E+00  0.00000000000E+00 -0.12503887106E+04  0.12503887106E+04  0.50400001928E-02 0. -1.
    10030    2    1    2    0    0  0.00000000000E+00  0.00000000000E+00 -0.28253710131E+03  0.22182403198E+04  0.22001733802E+04 0.  0.
        1    1    3    3  502    0  0.65183662174E+03  0.10095948096E+03 -0.10288996263E+04  0.12221776627E+04  0.50400001928E-02 0. -1.
       -1    1    3    3    0  502 -0.65183662174E+03 -0.10095948096E+03  0.74636252495E+03  0.99606265712E+03  0.50400001928E-02 0.  1.
</event>
<event>
 5   0  0.1144271E-06  0.2197965E+04  0.7818609E-02  0.8519275E-01
        1   -1    0    0  501    0  0.00000000000E+00  0.00000000000E+00  0.15024812570E+04  0.15024812570E+04  0.50400001928E-02 0. -1.
       -1   -1    0    0    0  501  0.00000000000E+00  0.00000000000E+00 -0.80384568491E+03  0.80384568492E+03  0.50400001928E-02 0.  1.
    10030    2    1    2    0    0  0.00000000000E+00  0.00000000000E+00  0.69863557207E+03  0.23063269419E+04  0.21979654912E+04 0.  0.
        3    1    3    3  502    0 -0.18968914732E+03  0.78181981770E+03 -0.43628473357E+03  0.91518772878E+03  0.10100000352E+00 0.  1.
       -3    1    3    3    0  502  0.18968914732E+03 -0.78181981770E+03  0.11349203056E+04  0.13911392131E+04  0.10100000352E+00 0. -1.
</event>
<event>
 5   0  0.2556869E-06  0.2199108E+04  0.7818609E-02  0.8518800E-01
        2   -1    0    0  501    0  0.00000000000E+00  0.00000000000E+00  0.14446209632E+04  0.14446209632E+04  0.25500000920E-02 0.  1.
       -2   -1    0    0    0  501  0.00000000000E+00  0.00000000000E+00 -0.83691070536E+03  0.83691070537E+03  0.25500000920E-02 0. -1.
    10030    2    1    2    0    0  0.00000000000E+00  0.00000000000E+00  0.60771025785E+03  0.22815316686E+04  0.21991077730E+04 0.  0.
        5    1    3    3  502    0 -0.28322514278E+02  0.48423248400E+03  0.13276090076E+04  0.14134535827E+04  0.46999998093E+01 0.  1.
       -5    1    3    3    0  502  0.28322514278E+02 -0.48423248400E+03 -0.71989874973E+03  0.86807808591E+03  0.46999998093E+01 0. -1.
</event>
<event>
 5   0  0.1146827E-06  0.2200652E+04  0.7818609E-02  0.8518157E-01
        1   -1    0    0  501    0  0.00000000000E+00  0.00000000000E+00  0.92932881030E+03  0.92932881031E+03  0.50400001928E-02 0. -1.
       -1   -1    0    0    0  501  0.00000000000E+00  0.00000000000E+00 -0.13027867973E+04  0.13027867973E+04  0.50400001928E-02 0.  1.
    10030    2    1    2    0    0  0.00000000000E+00  0.00000000000E+00 -0.37345798698E+03  0.22321156076E+04  0.22006519983E+04 0.  0.
        4    1    3    3  502    0 -0.66065989365E+03 -0.64679922718E+03  0.41836972091E+03  0.10148179993E+04  0.12699999809E+01 0. -1.
       -4    1    3    3    0  502  0.66065989365E+03  0.64679922718E+03 -0.79182770789E+03  0.12172976083E+04  0.12699999809E+01 0.  1.
</event>
<event>
 5   0  0.1137869E-06  0.2198303E+04  0.7818609E-02  0.8519135E-01
        1   -1    0    0  501    0  0.00000000000E+00  0.00000000000E+00  0.97368646088E+03  0.97368646090E+03  0.50400001928E-02 0. -1.
       -1   -1    0    0    0  501  0.00000000000E+00  0.00000000000E+00 -0.12407829998E+04  0.12407829998E+04  0.50400001928E-02 0.  1.
    10030    2    1    2    0    0  0.00000000000E+00  0.00000000000E+00 -0.26709653887E+03  0.22144694607E+04  0.21983026250E+04 0.  0.
        5    1    3    3  502    0  0.57472961792E+03  0.78699230673E+03 -0.64565737452E+03  0.11690023780E+04  0.46999998093E+01 0.  1.
       -5    1    3    3    0  502 -0.57472961792E+03 -0.78699230673E+03  0.37856083565E+03  0.10454670826E+04  0.46999998093E+01 0. -1.
</event>
<event>
 5   0  0.2556869E-06  0.2203031E+04  0.7818609E-02  0.8517167E-01
       -2   -1    0    0    0  501  0.00000000000E+00  0.00000000000E+00  0.68155817691E+03  0.68155817691E+03  0.25500000920E-02 0.  1.
        2   -1    0    0  501    0  0.00000000000E+00  0.00000000000E+00 -0.17802396504E+04  0.17802396504E+04  0.25500000920E-02 0. -1.
    10030    2    1    2    0    0  0.00000000000E+00  0.00000000000E+00 -0.10986814735E+04  0.24617978273E+04  0.22030314483E+04 0.  0.
        5    1    3    3  502    0 -0.27428078390E+03 -0.75274990877E+03  0.29539667388E+03  0.85389909152E+03  0.46999998093E+01 0.  1.
       -5    1    3    3    0  502  0.27428078390E+03  0.75274990877E+03 -0.13940781474E+04  0.16078987358E+04  0.46999998093E+01 0. -1.
</event>
<event>
 5   0  0.1137869E-06  0.2199983E+04  0.7818609E-02  0.8518435E-01
       -1   -1    0    0    0  501  0.00000000000E+00  0.00000000000E+00  0.10642463026E+04  0.10642463026E+04  0.50400001928E-02 0.  1.
        1   -1    0    0  501    0  0.00000000000E+00  0.00000000000E+00 -0.11369371926E+04  0.11369371926E+04  0.50400001928E-02 0. -1.
    10030    2    1    2    0    0  0.00000000000E+00  0.00000000000E+00 -0.72690889970E+02  0.22011834952E+04  0.21999829122E+04 0.  0.
        5    1    3    3  502    0  0.36752755687E+02  0.67876702343E+03  0.82892917897E+03  0.10720173090E+04  0.46999998093E+01 0. -1.
       -5    1    3    3    0  502 -0.36752755687E+02 -0.67876702343E+03 -0.90162006894E+03  0.11291661861E+04  0.46999998093E+01 0.  1.
</event>
<event>
 5   0  0.2524749E-06  0.2199683E+04  0.7818609E-02  0.8518560E-01
        2   -1    0    0  501    0  0.00000000000E+00  0.00000000000E+00  0.98578822254E+03  0.98578822255E+03  0.25500000920E-02 0.  1.
       -2   -1    0    0    0  501  0.00000000000E+00  0.00000000000E+00 -0.12270908830E+04  0.12270908830E+04  0.25500000920E-02 0. -1.
    10030    2    1    2    0    0  0.00000000000E+00  0.00000000000E+00 -0.24130266050E+03  0.22128791056E+04  0.21996833777E+04 0.  0.
        4    1    3    3  502    0  0.26597742428E+03  0.23767008529E+03 -0.11672862786E+04  0.12205695100E+04  0.12699999809E+01 0. -1.
       -4    1    3    3    0  502 -0.26597742428E+03 -0.23767008529E+03  0.92598361808E+03  0.99230959560E+03  0.12699999809E+01 0.  1.
</event>
<event>
 5   0  0.1146827E-06  0.2198714E+04  0.7818609E-02  0.8518964E-01
        1   -1    0    0  501    0  0.00000000000E+00  0.00000000000E+00  0.16753448023E+04  0.16753448023E+04  0.50400001928E-02 0. -1.
       -1   -1    0    0    0  501  0.00000000000E+00  0.00000000000E+00 -0.72139510374E+03  0.72139510376E+03  0.50400001928E-02 0.  1.
    10030    2    1    2    0    0  0.00000000000E+00  0.00000000000E+00  0.95394969856E+03  0.23967399061E+04  0.21987137490E+04 0.  0.
        4    1    3    3  502    0  0.17044451841E+03 -0.26430300196E+03  0.16252617539E+04  0.16554107624E+04  0.12699999809E+01 0. -1.
       -4    1    3    3    0  502 -0.17044451841E+03  0.26430300196E+03 -0.67131205534E+03  0.74132914367E+03  0.12699999809E+01 0.  1.
</event>
<event>
 5   0  0.1082209E-06  0.2198089E+04  0.7818609E-02  0.8519224E-01
        1   -1    0    0  501    0  0.00000000000E+00  0.00000000000E+00  0.70415739557E+03  0.70415739559E+03  0.50400001928E-02 0.  1.
       -1   -1    0    0    0  501  0.00000000000E+00  0.00000000000E+00 -0.17153810703E+04  0.17153810704E+04  0.50400001928E-02 0. -1.
    10030    2    1    2    0    0  0.00000000000E+00  0.00000000000E+00 -0.10112236748E+04  0.24195384659E+04  0.21980885032E+04 0.  0.
        2    1    3    3  502    0 -0.66973597018E+03 -0.49857943121E+03 -0.12922957692E+04  0.15385564904E+04  0.25500000920E-02 0. -1.
       -2    1    3    3    0  502  0.66973597018E+03  0.49857943121E+03  0.28107209444E+03  0.88098197556E+03  0.25500000920E-02 0.  1.
</event>
<event>
 5   0  0.1144271E-06  0.2201531E+04  0.7818609E-02  0.8517791E-01
       -1   -1    0    0    0  501  0.00000000000E+00  0.00000000000E+00  0.12457417312E+04  0.12457417312E+04  0.50400001928E-02 0. -1.
        1   -1    0    0  501    0  0.00000000000E+00  0.00000000000E+00 -0.97266152892E+03  0.97266152893E+03  0.50400001928E-02 0.  1.
    10030    2    1    2    0    0  0.00000000000E+00  0.00000000000E+00  0.27308020228E+03  0.22184032601E+04  0.22015313370E+04 0.  0.
        3    1    3    3  502    0  0.15173601597E+03 -0.92965306593E+03 -0.43739175819E+03  0.10385519736E+04  0.10100000352E+00 0.  1.
       -3    1    3    3    0  502 -0.15173601597E+03  0.92965306593E+03  0.71047196047E+03  0.11798512865E+04  0.10100000352E+00 0. -1.
</event>
<event>
 5   0  0.2532239E-06  0.2199871E+04  0.7818609E-02  0.8518482E-01
       -2   -1    0    0    0  501  0.00000000000E+00  0.00000000000E+00  0.68741492027E+03  0.68741492027E+03  0.25500000920E-02 0.  1.
        2   -1    0    0  501    0  0.00000000000E+00  0.00000000000E+00 -0.17600107755E+04  0.17600107755E+04  0.25500000920E-02 0. -1.
    10030    2    1    2    0    0  0.00000000000E+00  0.00000000000E+00 -0.10725958552E+04  0.24474256958E+04  0.21998706025E+04 0.  0.
        3    1    3    3  502    0 -0.38046572926E+03 -0.21035759138E+03 -0.16603696431E+04  0.17163425792E+04  0.10100000352E+00 0. -1.
       -3    1    3    3    0  502  0.38046572926E+03  0.21035759138E+03  0.58777378786E+03  0.73108311654E+03  0.10100000352E+00 0.  1.
</event>
<event>
 5   0  0.1082209E-06  0.2198873E+04  0.7818609E-02  0.8518897E-01
        1   -1    0    0  501    0  0.00000000000E+00  0.00000000000E+00  0.81014072865E+03  0.81014072867E+03  0.50400001928E-02 0.  1.
       -1   -1    0    0    0  501  0.00000000000E+00  0.00000000000E+00 -0.14920381985E+04  0.14920381985E+04  0.50400001928E-02 0. -1.
    10030    2    1    2    0    0  0.00000000000E+00  0.00000000000E+00 -0.68189746980E+03  0.23021789271E+04  0.21988732690E+04 0.  0.
        2    1    3    3  502    0  0.17237313736E+03  0.10539888427E+04 -0.67616588289E+02  0.10701294231E+04  0.25500000920E-02 0.  1.
       -2    1    3    3    0  502 -0.17237313736E+03 -0.10539888427E+04 -0.61428088151E+03  0.12320495041E+04  0.25500000920E-02 0. -1.
</event>
<event>
 5   0  0.1082209E-06  0.2200367E+04  0.7818609E-02  0.8518275E-01
       -1   -1    0    0    0  501  0.00000000000E+00  0.00000000000E+00  0.69197908650E+03  0.69197908652E+03  0.50400001928E-02 0.  1.
        1   -1    0    0  501    0  0.00000000000E+00  0.00000000000E+00 -0.17491913521E+04  0.17491913521E+04  0.50400001928E-02 0. -1.
    10030    2    1    2    0    0  0.00000000000E+00  0.00000000000E+00 -0.10572122656E+04  0.24411704386E+04  0.22003670912E+04 0.  0.
        2    1    3    3  502    0  0.27920092313E+03  0.10399366722E+04 -0.27810304526E+03  0.11120983507E+04  0.25500000920E-02 0.  1.
       -2    1    3    3    0  502 -0.27920092313E+03 -0.10399366722E+04 -0.77910922032E+03  0.13290720879E+04  0.25500000920E-02 0. -1.
</event>
<event>
 5   0  0.2556869E-06  0.2201075E+04  0.7818609E-02  0.8517981E-01
       -2   -1    0    0    0  501  0.00000000000E+00  0.00000000000E+00  0.80345493299E+03  0.80345493299E+03  0.25500000920E-02 0.  1.
        2   -1    0    0  501    0  0.00000000000E+00  0.00000000000E+00 -0.15074683403E+04  0.15074683403E+04  0.25500000920E-02 0. -1.
    10030    2    1    2    0    0  0.00000000000E+00  0.00000000000E+00 -0.70401340727E+03  0.23109232733E+04  0.22010750776E+04 0.  0.
        5    1    3    3  502    0 -0.50843720884E+03 -0.93549776165E+03 -0.59731999555E+02  0.10664213328E+04  0.46999998093E+01 0.  1.
       -5    1    3    3    0  502  0.50843720884E+03  0.93549776165E+03 -0.64428140772E+03  0.12445019404E+04  0.46999998093E+01 0. -1.
</event>
<event>
 5   0  0.2524749E-06  0.2197467E+04  0.7818609E-02  0.8519483E-01
        2   -1    0    0  501    0  0.00000000000E+00  0.00000000000E+00  0.17837981557E+04  0.17837981557E+04  0.25500000920E-02 0. -1.
       -2   -1    0    0    0  501  0.00000000000E+00  0.00000000000E+00 -0.67676666248E+03  0.67676666248E+03  0.25500000920E-02 0.  1.
    10030    2    1    2    0    0  0.00000000000E+00  0.00000000000E+00  0.11070314932E+04  0.24605648182E+04  0.21974668365E+04 0.  0.
        4    1    3    3  502    0 -0.40867190160E+03 -0.10008583770E+04  0.33385693992E+03  0.11314558247E+04  0.12699999809E+01 0. -1.
       -4    1    3    3    0  502  0.40867190160E+03  0.10008583770E+04  0.77317455332E+03  0.13291089935E+04  0.12699999809E+01 0.  1.
</event>
<event>
 5   0  0.1082209E-06  0.2200239E+04  0.7818609E-02  0.8518328E-01
       -1   -1    0    0    0  501  0.00000000000E+00  0.00000000000E+00  0.50406563995E+03  0.50406563998E+03  0.50400001928E-02 0. -1.
        1   -1    0    0  501    0  0.00000000000E+00  0.00000000000E+00 -0.24010034990E+04  0.24010034990E+04  0.50400001928E-02 0.  1.
    10030    2    1    2    0    0  0.00000000000E+00  0.00000000000E+00 -0.18969378591E+04  0.29050691390E+04  0.22002394100E+04 0.  0.
        2    1    3    3  502    0  0.67410901286E+03 -0.17651153816E+03 -0.20724549096E+04  0.21864694456E+04  0.25500000920E-02 0.  1.
       -2    1    3    3    0  502 -0.67410901286E+03  0.17651153816E+03  0.17551705052E+03  0.71859969339E+03  0.25500000920E-02 0. -1.
</event>
<event>
 5   0  0.1107101E-06  0.2199829E+04  0.7818609E-02  0.8518499E-01
        1   -1    0    0  501    0  0.00000000000E+00  0.00000000000E+00  0.13231459184E+04  0.13231459184E+04  0.50400001928E-02 0. -1.
       -1   -1    0    0    0  501  0.00000000000E+00  0.00000000000E+00 -0.91434486990E+03  0.91434486991E+03  0.50400001928E-02 0.  1.
    10030    2    1    2    0    0  0.00000000000E+00  0.00000000000E+00  0.40880104851E+03  0.22374907883E+04  0.21998287957E+04 0.  0.
        1    1    3    3  502    0 -0.83615546698E+03 -0.43200346343E+03  0.78338128089E+03  0.12245281494E+04  0.50400001928E-02 0. -1.
       -1    1    3    3    0  502  0.83615546698E+03  0.43200346343E+03 -0.37458023238E+03  0.10129626389E+04  0.50400001928E-02 0.  1.
</event>
<event>
 5   0  0.1144271E-06  0.2200745E+04  0.7818609E-02  0.8518118E-01
       -1   -1    0    0    0  501  0.00000000000E+00  0.00000000000E+00  0.44936710103E+03  0.44936710105E+03  0.50400001928E-02 0.  1.
        1   -1    0    0  501    0  0.00000000000E+00  0.00000000000E+00 -0.26945000291E+04  0.26945000291E+04  0.50400001928E-02 0. -1.
    10030    2    1    2    0    0  0.00000000000E+00  0.00000000000E+00 -0.22451329281E+04  0.31438671302E+04  0.22007450255E+04 0.  0.
        3    1    3    3  502    0  0.43902307882E+03  0.52974264632E+03  0.10419768156E+03  0.69586327832E+03  0.10100000352E+00 0.  1.
       -3    1    3    3    0  502 -0.43902307882E+03 -0.52974264632E+03 -0.23493306096E+04  0.24480038519E+04  0.10100000352E+00 0. -1.
</event>
<event>
 5   0  0.2606154E-06  0.2200106E+04  0.7818609E-02  0.8518384E-01
       -2   -1    0    0    0  501  0.00000000000E+00  0.00000000000E+00  0.10168695833E+04  0.10168695833E+04  0.25500000920E-02 0. -1.
        2   -1    0    0  501    0  0.00000000000E+00  0.00000000000E+00 -0.11900406181E+04  0.11900406181E+04  0.25500000920E-02 0.  1.
    10030    2    1    2    0    0  0.00000000000E+00  0.00000000000E+00 -0.17317103481E+03  0.22069102015E+04  0.22001055498E+04 0.  0.
        2    1    3    3  502    0  0.65857880563E+03  0.37979761726E+03 -0.88411931926E+03  0.11660356958E+04  0.25500000920E-02 0.  1.
       -2    1    3    3    0  502 -0.65857880563E+03 -0.37979761726E+03  0.71094828445E+03  0.10408745056E+04  0.25500000920E-02 0. -1.
</event>
<event>
 5   0  0.1107101E-06  0.2198855E+04  0.7818609E-02  0.8518905E-01
        1   -1    0    0  501    0  0.00000000000E+00  0.00000000000E+00  0.10104042304E+04  0.10104042304E+04  0.50400001928E-02 0. -1.
       -1   -1    0    0    0  501  0.00000000000E+00  0.00000000000E+00 -0.11962944113E+04  0.11962944113E+04  0.50400001928E-02 0.  1.
    10030    2    1    2    0    0  0.00000000000E+00  0.00000000000E+00 -0.18589018089E+03  0.22066986417E+04  0.21988550966E+04 0.  0.
        1    1    3    3  502    0  0.35329405073E+03 -0.61775790066E+03  0.74807732925E+03  0.10325023974E+04  0.50400001928E-02 0. -1.
       -1    1    3    3    0  502 -0.35329405073E+03  0.61775790066E+03 -0.93396751014E+03  0.11741962443E+04  0.50400001928E-02 0.  1.
</event>
<event>
 5   0  0.2556869E-06  0.2200224E+04  0.7818609E-02  0.8518335E-01
        2   -1    0    0  501    0  0.00000000000E+00  0.00000000000E+00  0.20856804863E+04  0.20856804863E+04  0.25500000920E-02 0.  1.
       -2   -1    0    0    0  501  0.00000000000E+00  0.00000000000E+00 -0.58026434005E+03  0.58026434006E+03  0.25500000920E-02 0. -1.
    10030    2    1    2    0    0  0.00000000000E+00  0.00000000000E+00  0.15054161463E+04  0.26659448264E+04  0.22002236350E+04 0.  0.
        5    1    3    3  502    0 -0.25198378136E+03  0.82072068448E+03  0.15861623101E+04  0.18036106098E+04  0.46999998093E+01 0.  1.
       -5    1    3    3    0  502  0.25198378136E+03 -0.82072068448E+03 -0.80746163834E+02  0.86233421652E+03  0.46999998093E+01 0. -1.
</event>
<event>
 5   0  0.1144271E-06  0.2198967E+04  0.7818609E-02  0.8518858E-01
        1   -1    0    0  501    0  0.00000000000E+00  0.00000000000E+00  0.22306056115E+04  0.22306056115E+04  0.50400001928E-02 0.  1.
       -1   -1    0    0    0  501  0.00000000000E+00  0.00000000000E+00 -0.54194444079E+03  0.54194444082E+03  0.50400001928E-02 0. -1.
    10030    2    1    2    0    0  0.00000000000E+00  0.00000000000E+00  0.16886611707E+04  0.27725500523E+04  0.21989673129E+04 0.  0.
        3    1    3    3  502    0  0.92513011502E+02 -0.37066484669E+03 -0.45556816018E+03  0.59455314702E+03  0.10100000352E+00 0. -1.
       -3    1    3    3    0  502 -0.92513011502E+02  0.37066484669E+03  0.21442293308E+04  0.21779969053E+04  0.10100000352E+00 0.  1.
</event>
<event>
 5   0  0.2606154E-06  0.2200212E+04  0.7818609E-02  0.8518340E-01
        2   -1    0    0  501    0  0.00000000000E+00  0.00000000000E+00  0.17844112047E+04  0.17844112047E+04  0.25500000920E-02 0.  1.
       -2   -1    0    0    0  501  0.00000000000E+00  0.00000000000E+00 -0.67822579576E+03  0.67822579577E+03  0.25500000920E-02 0. -1.
    10030    2    1    2    0    0  0.00000000000E+00  0.00000000000E+00  0.11061854089E+04  0.24626370005E+04  0.22002124527E+04 0.  0.
        2    1    3    3  502    0  0.88124731046E+03  0.51276406769E+03  0.10155430767E+04  0.14390453613E+04  0.25500000920E-02 0.  1.
       -2    1    3    3    0  502 -0.88124731046E+03 -0.51276406769E+03  0.90642332203E+02  0.10235916391E+04  0.25500000920E-02 0. -1.
</event>
<event>
 5   0  0.8905000E-07  0.2199605E+04  0.7818609E-02  0.8518592E-01
        3   -1    0    0  501    0  0.00000000000E+00  0.00000000000E+00  0.10421439501E+04  0.10421439550E+04  0.10100000352E+00 0. -1.
       -3   -1    0    0    0  501  0.00000000000E+00  0.00000000000E+00 -0.11606516044E+04  0.11606516088E+04  0.10100000352E+00 0.  1.
    10030    2    1    2    0    0  0.00000000000E+00  0.00000000000E+00 -0.11850765434E+03  0.22027955637E+04  0.21996054718E+04 0.  0.
        3    1    3    3  502    0  0.91834749249E+03  0.30878143850E+03 -0.58044877656E+03  0.11294374202E+04  0.10100000352E+00 0.  1.
       -3    1    3    3    0  502 -0.91834749249E+03 -0.30878143850E+03  0.46194112223E+03  0.10733581435E+04  0.10100000352E+00 0. -1.
</event>
<event>
 5   0  0.2556869E-06  0.2201667E+04  0.7818609E-02  0.8517735E-01
       -2   -1    0    0    0  501  0.00000000000E+00  0.00000000000E+00  0.67693734405E+03  0.67693734405E+03  0.25500000920E-02 0. -1.
        2   -1    0    0  501    0  0.00000000000E+00  0.00000000000E+00 -0.17901723501E+04  0.17901723501E+04  0.25500000920E-02 0.  1.
    10030    2    1    2    0    0  0.00000000000E+00  0.00000000000E+00 -0.11132350061E+04  0.24671096942E+04  0.22016671103E+04 0.  0.
        5    1    3    3  502    0  0.53094825224E+03  0.73961831077E+03  0.13674941593E+03  0.92068658344E+03  0.46999998093E+01 0. -1.
       -5    1    3    3    0  502 -0.53094825224E+03 -0.73961831077E+03 -0.12499844220E+04  0.15464231108E+04  0.46999998093E+01 0.  1.
</event>
<event>
 5   0  0.1107101E-06  0.2200789E+04  0.7818609E-02  0.8518100E-01
        1   -1    0    0  501    0  0.00000000000E+00  0.00000000000E+00  0.97759081835E+03  0.97759081836E+03  0.50400001928E-02 0. -1.
       -1   -1    0    0    0  501  0.00000000000E+00  0.00000000000E+00 -0.12386249276E+04  0.12386249277E+04  0.50400001928E-02 0.  1.
    10030    2    1    2    0    0  0.00000000000E+00  0.00000000000E+00 -0.26103410930E+03  0.22162157460E+04  0.22007892736E+04 0.  0.
        1    1    3    3  502    0 -0.77114501517E+03  0.77990717457E+03 -0.22029646441E+03  0.11186824248E+04  0.50400001928E-02 0.  1.
       -1    1    3    3    0  502  0.77114501517E+03 -0.77990717457E+03 -0.40737644891E+02  0.10975333212E+04  0.50400001928E-02 0. -1.
</event>
<event>
 5   0  0.1146827E-06  0.2189717E+04  0.7818609E-02  0.8522720E-01
        1   -1    0    0  501    0  0.00000000000E+00  0.00000000000E+00  0.14591018733E+04  0.14591018733E+04  0.50400001928E-02 0.  1.
       -1   -1    0    0    0  501  0.00000000000E+00  0.00000000000E+00 -0.82154291069E+03  0.82154291071E+03  0.50400001928E-02 0. -1.
    10030    2    1    2    0    0  0.00000000000E+00  0.00000000000E+00  0.63755896256E+03  0.22806447840E+04  0.21897166940E+04 0.  0.
        4    1    3    3  502    0 -0.10050112641E+04  0.29218670121E+03 -0.15957785893E+02  0.10467458972E+04  0.12699999809E+01 0. -1.
       -4    1    3    3    0  502  0.10050112641E+04 -0.29218670121E+03  0.65351674846E+03  0.12338988868E+04  0.12699999809E+01 0.  1.
</event>
<event>
 5   0  0.2532239E-06  0.2196212E+04  0.7818609E-02  0.8520006E-01
       -2   -1    0    0    0  501  0.00000000000E+00  0.00000000000E+00  0.11168618998E+04  0.11168618998E+04  0.25500000920E-02 0.  1.
        2   -1    0    0  501    0  0.00000000000E+00  0.00000000000E+00 -0.10796652691E+04  0.10796652691E+04  0.25500000920E-02 0. -1.
    10030    2    1    2    0    0  0.00000000000E+00  0.00000000000E+00  0.37196630640E+02  0.21965271689E+04  0.21962121971E+04 0.  0.
        3    1    3    3  502    0 -0.10720561627E+04 -0.23481376384E+03  0.55954358013E+02  0.10988961826E+04  0.10100000352E+00 0. -1.
       -3    1    3    3    0  502  0.10720561627E+04  0.23481376384E+03 -0.18757727373E+02  0.10976309864E+04  0.10100000352E+00 0.  1.
</event>
<event>
 5   0  0.1137869E-06  0.2199924E+04  0.7818609E-02  0.8518460E-01
       -1   -1    0    0    0  501  0.00000000000E+00  0.00000000000E+00  0.74993043997E+03  0.74993043998E+03  0.50400001928E-02 0.  1.
        1   -1    0    0  501    0  0.00000000000E+00  0.00000000000E+00 -0.16133717427E+04  0.16133717427E+04  0.50400001928E-02 0. -1.
    10030    2    1    2    0    0  0.00000000000E+00  0.00000000000E+00 -0.86344130269E+03  0.23633021826E+04  0.21999241631E+04 0.  0.
        5    1    3    3  502    0 -0.10137594238E+04  0.36003540450E+03 -0.18543299294E+03  0.10916689730E+04  0.46999998093E+01 0.  1.
       -5    1    3    3    0  502  0.10137594238E+04 -0.36003540450E+03 -0.67800830976E+03  0.12716332096E+04  0.46999998093E+01 0. -1.
</event>
<event>
 5   0  0.2581058E-06  0.2207514E+04  0.7818609E-02  0.8515307E-01
        2   -1    0    0  501    0  0.00000000000E+00  0.00000000000E+00  0.11961681533E+04  0.11961681533E+04  0.25500000920E-02 0. -1.
       -2   -1    0    0    0  501  0.00000000000E+00  0.00000000000E+00 -0.10184855879E+04  0.10184855879E+04  0.25500000920E-02 0.  1.
    10030    2    1    2    0    0  0.00000000000E+00  0.00000000000E+00  0.17768256534E+03  0.22146537412E+04  0.22075144619E+04 0.  0.
        1    1    3    3  502    0  0.68146513109E+03  0.16397515563E+03  0.94424024723E+03  0.11759558755E+04  0.50400001928E-02 0. -1.
       -1    1    3    3    0  502 -0.68146513109E+03 -0.16397515563E+03 -0.76655768189E+03  0.10386978657E+04  0.50400001928E-02 0.  1.
</event>
<event>
 5   0  0.1107101E-06  0.2201185E+04  0.7818609E-02  0.8517935E-01
        1   -1    0    0  501    0  0.00000000000E+00  0.00000000000E+00  0.13096829004E+04  0.13096829004E+04  0.50400001928E-02 0. -1.
       -1   -1    0    0    0  501  0.00000000000E+00  0.00000000000E+00 -0.92488322832E+03  0.92488322834E+03  0.50400001928E-02 0.  1.
    10030    2    1    2    0    0  0.00000000000E+00  0.00000000000E+00  0.38479967204E+03  0.22345661287E+04  0.22011849073E+04 0.  0.
        1    1    3    3  502    0  0.72677090989E+01 -0.21362644488E+03  0.12884090059E+04  0.13060194654E+04  0.50400001928E-02 0. -1.
       -1    1    3    3    0  502 -0.72677090989E+01  0.21362644488E+03 -0.90360933389E+03  0.92854666326E+03  0.50400001928E-02 0.  1.
</event>
<event>
 5   0  0.2606154E-06  0.2195333E+04  0.7818609E-02  0.8520373E-01
       -2   -1    0    0    0  501  0.00000000000E+00  0.00000000000E+00  0.50142053535E+03  0.50142053536E+03  0.25500000920E-02 0.  1.
        2   -1    0    0  501    0  0.00000000000E+00  0.00000000000E+00 -0.24029157407E+04  0.24029157407E+04  0.25500000920E-02 0. -1.
    10030    2    1    2    0    0  0.00000000000E+00  0.00000000000E+00 -0.19014952053E+04  0.29043362760E+04  0.21953325918E+04 0.  0.
        2    1    3    3  502    0 -0.75087230710E+03 -0.74953401251E+03 -0.57829080181E+03  0.12083173047E+04  0.25500000920E-02 0.  1.
       -2    1    3    3    0  502  0.75087230710E+03  0.74953401251E+03 -0.13232044035E+04  0.16960189713E+04  0.25500000920E-02 0. -1.
</event>
<event>
 5   0  0.1144271E-06  0.2201339E+04  0.7818609E-02  0.8517871E-01
        1   -1    0    0  501    0  0.00000000000E+00  0.00000000000E+00  0.25242801637E+04  0.25242801637E+04  0.50400001928E-02 0. -1.
       -1   -1    0    0    0  501  0.00000000000E+00  0.00000000000E+00 -0.47992841724E+03  0.47992841727E+03  0.50400001928E-02 0.  1.
    10030    2    1    2    0    0  0.00000000000E+00  0.00000000000E+00  0.20443517465E+04  0.30042085810E+04  0.22013393956E+04 0.  0.
        3    1    3    3  502    0 -0.45650611082E+03  0.24827343490E+02 -0.34421988317E+03  0.57227752391E+03  0.10100000352E+00 0.  1.
       -3    1    3    3    0  502  0.45650611082E+03 -0.24827343490E+02  0.23885716297E+04  0.24319310571E+04  0.10100000352E+00 0. -1.
</event>
<event>
 5   0  0.2524749E-06  0.2200349E+04  0.7818609E-02  0.8518283E-01
        2   -1    0    0  501    0  0.00000000000E+00  0.00000000000E+00  0.69085291942E+03  0.69085291943E+03  0.25500000920E-02 0.  1.
       -2   -1    0    0    0  501  0.00000000000E+00  0.00000000000E+00 -0.17520145514E+04  0.17520145514E+04  0.25500000920E-02 0. -1.
    10030    2    1    2    0    0  0.00000000000E+00  0.00000000000E+00 -0.10611616319E+04  0.24428674708E+04  0.22003493974E+04 0.  0.
        4    1    3    3  502    0 -0.66496577784E+03  0.56107699626E+02 -0.15016599941E+04  0.16432625811E+04  0.12699999809E+01 0. -1.
       -4    1    3    3    0  502  0.66496577784E+03 -0.56107699626E+02  0.44049836216E+03  0.79960488970E+03  0.12699999809E+01 0.  1.
</event>
<event>
 5   0  0.2581058E-06  0.2201853E+04  0.7818609E-02  0.8517657E-01
        2   -1    0    0  501    0  0.00000000000E+00  0.00000000000E+00  0.12027461921E+04  0.12027461921E+04  0.25500000920E-02 0. -1.
       -2   -1    0    0    0  501  0.00000000000E+00  0.00000000000E+00 -0.10077267493E+04  0.10077267493E+04  0.25500000920E-02 0.  1.
    10030    2    1    2    0    0  0.00000000000E+00  0.00000000000E+00  0.19501944283E+03  0.22104729414E+04  0.22018533197E+04 0.  0.
        1    1    3    3  502    0  0.91994449485E+03 -0.11606184343E+03  0.69335765926E+03  0.11578052810E+04  0.50400001928E-02 0. -1.
       -1    1    3    3    0  502 -0.91994449485E+03  0.11606184343E+03 -0.49833821643E+03  0.10526676603E+04  0.50400001928E-02 0.  1.
</event>
<event>
 5   0  0.1144271E-06  0.2199555E+04  0.7818609E-02  0.8518614E-01
        1   -1    0    0  501    0  0.00000000000E+00  0.00000000000E+00  0.67650957787E+03  0.67650957789E+03  0.50400001928E-02 0.  1.
       -1   -1    0    0    0  501  0.00000000000E+00  0.00000000000E+00 -0.17878682929E+04  0.17878682929E+04  0.50400001928E-02 0. -1.
    10030    2    1    2    0    0  0.00000000000E+00  0.00000000000E+00 -0.11113587151E+04  0.24643778708E+04  0.21995545223E+04 0.  0.
        3    1    3    3  502    0  0.73691715943E+02  0.10971660452E+04 -0.57528518801E+03  0.12410305627E+04  0.10100000352E+00 0. -1.
       -3    1    3    3    0  502 -0.73691715943E+02 -0.10971660452E+04 -0.53607352706E+03  0.12233473081E+04  0.10100000352E+00 0.  1.
</event>
<event>
 5   0  0.1137869E-06  0.2200146E+04  0.7818609E-02  0.8518367E-01
        1   -1    0    0  501    0  0.00000000000E+00  0.00000000000E+00  0.17313373058E+04  0.17313373058E+04  0.50400001928E-02 0. -1.
       -1   -1    0    0    0  501  0.00000000000E+00  0.00000000000E+00 -0.69897469334E+03  0.69897469336E+03  0.50400001928E-02 0.  1.
    10030    2    1    2    0    0  0.00000000000E+00  0.00000000000E+00  0.10323626124E+04  0.24303119991E+04  0.22001463246E+04 0.  0.
        5    1    3    3  502    0 -0.26640379034E+03  0.35994531907E+03 -0.59372596950E+03  0.74368288208E+03  0.46999998093E+01 0.  1.
       -5    1    3    3    0  502  0.26640379034E+03 -0.35994531907E+03  0.16260885819E+04  0.16866291170E+04  0.46999998093E+01 0. -1.
</event>
<event>
 5   0  0.1144271E-06  0.2197979E+04  0.7818609E-02  0.8519270E-01
       -1   -1    0    0    0  501  0.00000000000E+00  0.00000000000E+00  0.10281305207E+04  0.10281305207E+04  0.50400001928E-02 0. -1.
        1   -1    0    0  501    0  0.00000000000E+00  0.00000000000E+00 -0.11747323843E+04  0.11747323844E+04  0.50400001928E-02 0.  1.
    10030    2    1    2    0    0  0.00000000000E+00  0.00000000000E+00 -0.14660186362E+03  0.22028629051E+04  0.21979792702E+04 0.  0.
        3    1    3    3  502    0 -0.43551215839E+03 -0.72549715763E+03 -0.77611593847E+03  0.11482042179E+04  0.10100000352E+00 0.  1.
       -3    1    3    3    0  502  0.43551215839E+03  0.72549715763E+03  0.62951407484E+03  0.10546586872E+04  0.10100000352E+00 0. -1.
</event>
<event>
 5   0  0.1137869E-06  0.2200011E+04  0.7818609E-02  0.8518423E-01
       -1   -1    0    0    0  501  0.00000000000E+00  0.00000000000E+00  0.79199929677E+03  0.79199929678E+03  0.50400001928E-02 0. -1.
        1   -1    0    0  501    0  0.00000000000E+00  0.00000000000E+00 -0.15277948234E+04  0.15277948234E+04  0.50400001928E-02 0.  1.
    10030    2    1    2    0    0  0.00000000000E+00  0.00000000000E+00 -0.73579552664E+03  0.23197941202E+04  0.22000112961E+04 0.  0.
        5    1    3    3  502    0  0.10317858879E+04 -0.35747691252E+03 -0.22793623330E+03  0.11155038673E+04  0.46999998093E+01 0.  1.
       -5    1    3    3    0  502 -0.10317858879E+04  0.35747691252E+03 -0.50785929334E+03  0.12042902529E+04  0.46999998093E+01 0. -1.
</event>
<event>
 5   0  0.2606154E-06  0.2198710E+04  0.7818609E-02  0.8518965E-01
        2   -1    0    0  501    0  0.00000000000E+00  0.00000000000E+00  0.12908917244E+04  0.12908917244E+04  0.25500000920E-02 0. -1.
       -2   -1    0    0    0  501  0.00000000000E+00  0.00000000000E+00 -0.93623722961E+03  0.93623722962E+03  0.25500000920E-02 0.  1.
    10030    2    1    2    0    0  0.00000000000E+00  0.00000000000E+00  0.35465449479E+03  0.22271289540E+04  0.21987095231E+04 0.  0.
        2    1    3    3  502    0  0.27723203721E+03 -0.34422103760E+03  0.11969338376E+04  0.12759295971E+04  0.25500000920E-02 0. -1.
       -2    1    3    3    0  502 -0.27723203721E+03  0.34422103760E+03 -0.84227934283E+03  0.95119935689E+03  0.25500000920E-02 0.  1.
</event>
<event>
 5   0  0.1144271E-06  0.2199978E+04  0.7818609E-02  0.8518437E-01
        1   -1    0    0  501    0  0.00000000000E+00  0.00000000000E+00  0.12824169168E+04  0.12824169169E+04  0.50400001928E-02 0. -1.
       -1   -1    0    0    0  501  0.00000000000E+00  0.00000000000E+00 -0.94351223795E+03  0.94351223796E+03  0.50400001928E-02 0.  1.
    10030    2    1    2    0    0  0.00000000000E+00  0.00000000000E+00  0.33890467890E+03  0.22259291548E+04  0.21999782319E+04 0.  0.
        3    1    3    3  502    0  0.66379865005E+03 -0.24212247121E+03 -0.68353675200E+03  0.98309431918E+03  0.10100000352E+00 0.  1.
       -3    1    3    3    0  502 -0.66379865005E+03  0.24212247121E+03  0.10224414309E+04  0.12428348356E+04  0.10100000352E+00 0. -1.
</event>
<event>
 5   0  0.2581058E-06  0.2198078E+04  0.7818609E-02  0.8519229E-01
       -2   -1    0    0    0  501  0.00000000000E+00  0.00000000000E+00  0.72078084718E+03  0.72078084718E+03  0.25500000920E-02 0. -1.
        2   -1    0    0  501    0  0.00000000000E+00  0.00000000000E+00 -0.16758025215E+04  0.16758025215E+04  0.25500000920E-02 0.  1.
    10030    2    1    2    0    0  0.00000000000E+00  0.00000000000E+00 -0.95502167430E+03  0.23965833687E+04  0.21980776703E+04 0.  0.
        1    1    3    3  502    0  0.97755221531E+03  0.29758297053E+03 -0.91867838874E+03  0.13740938614E+04  0.50400001928E-02 0.  1.
       -1    1    3    3    0  502 -0.97755221531E+03 -0.29758297053E+03 -0.36343285560E+02  0.10224895073E+04  0.50400001928E-02 0. -1.
</event>
<event>
 5   0  0.2524749E-06  0.2199597E+04  0.7818609E-02  0.8518596E-01
        2   -1    0    0  501    0  0.00000000000E+00  0.00000000000E+00  0.10067820303E+04  0.10067820303E+04  0.25500000920E-02 0. -1.
       -2   -1    0    0    0  501  0.00000000000E+00  0.00000000000E+00 -0.12014092675E+04  0.12014092675E+04  0.25500000920E-02 0.  1.
    10030    2    1    2    0    0  0.00000000000E+00  0.00000000000E+00 -0.19462723719E+03  0.22081912977E+04  0.21995974736E+04 0.  0.
        4    1    3    3  502    0  0.49451198117E+03  0.92939771064E+03 -0.41672875229E+03  0.11322485019E+04  0.12699999809E+01 0.  1.
       -4    1    3    3    0  502 -0.49451198117E+03 -0.92939771064E+03  0.22210151511E+03  0.10759427959E+04  0.12699999809E+01 0. -1.
</event>
<event>
 5   0  0.1144271E-06  0.2200646E+04  0.7818609E-02  0.8518159E-01
       -1   -1    0    0    0  501  0.00000000000E+00  0.00000000000E+00  0.25395197112E+04  0.25395197112E+04  0.50400001928E-02 0. -1.
        1   -1    0    0  501    0  0.00000000000E+00  0.00000000000E+00 -0.47674789245E+03  0.47674789248E+03  0.50400001928E-02 0.  1.
    10030    2    1    2    0    0  0.00000000000E+00  0.00000000000E+00  0.20627718188E+04  0.30162676037E+04  0.22006459690E+04 0.  0.
        3    1    3    3  502    0 -0.88139699311E+03  0.33276507393E+03  0.18104978598E+04  0.20409546209E+04  0.10100000352E+00 0. -1.
       -3    1    3    3    0  502  0.88139699311E+03 -0.33276507393E+03  0.25227395894E+03  0.97531298281E+03  0.10100000352E+00 0.  1.
</event>
<event>
 5   0  0.2532239E-06  0.2200613E+04  0.7818609E-02  0.8518173E-01
       -2   -1    0    0    0  501  0.00000000000E+00  0.00000000000E+00  0.51356647482E+03  0.51356647483E+03  0.25500000920E-02 0.  1.
        2   -1    0    0  501    0  0.00000000000E+00  0.00000000000E+00 -0.23573867510E+04  0.23573867510E+04  0.25500000920E-02 0. -1.
    10030    2    1    2    0    0  0.00000000000E+00  0.00000000000E+00 -0.18438202762E+04  0.28709532258E+04  0.22006133722E+04 0.  0.
        3    1    3    3  502    0 -0.24032076455E+03  0.28186783428E+03  0.42978134556E+03  0.56737603145E+03  0.10100000352E+00 0.  1.
       -3    1    3    3    0  502  0.24032076455E+03 -0.28186783428E+03 -0.22736016217E+04  0.23035771943E+04  0.10100000352E+00 0. -1.
</event>
<event>
 5   0  0.2532239E-06  0.2197625E+04  0.7818609E-02  0.8519417E-01
        2   -1    0    0  501    0  0.00000000000E+00  0.00000000000E+00  0.89788287388E+03  0.89788287388E+03  0.25500000920E-02 0.  1.
       -2   -1    0    0    0  501  0.00000000000E+00  0.00000000000E+00 -0.13447066684E+04  0.13447066684E+04  0.25500000920E-02 0. -1.
    10030    2    1    2    0    0  0.00000000000E+00  0.00000000000E+00 -0.44682379455E+03  0.22425895423E+04  0.21976251618E+04 0.  0.
        3    1    3    3  502    0 -0.27795553478E+03 -0.67918315740E+03  0.61114760209E+03  0.95501332052E+03  0.10100000352E+00 0.  1.
       -3    1    3    3    0  502  0.27795553478E+03  0.67918315740E+03 -0.10579713966E+04  0.12875762218E+04  0.10100000352E+00 0. -1.
</event>
<event>
 5   0  0.1082209E-06  0.2198790E+04  0.7818609E-02  0.8518932E-01
       -1   -1    0    0    0  501  0.00000000000E+00  0.00000000000E+00  0.10290131257E+04  0.10290131257E+04  0.50400001928E-02 0.  1.
        1   -1    0    0  501    0  0.00000000000E+00  0.00000000000E+00 -0.11745905621E+04  0.11745905621E+04  0.50400001928E-02 0. -1.
    10030    2    1    2    0    0  0.00000000000E+00  0.00000000000E+00 -0.14557743645E+03  0.22036036878E+04  0.21987897633E+04 0.  0.
        2    1    3    3  502    0 -0.75453573656E+03  0.52039557446E+03  0.53560986745E+03  0.10616089967E+04  0.25500000920E-02 0.  1.
       -2    1    3    3    0  502  0.75453573656E+03 -0.52039557446E+03 -0.68118730390E+03  0.11419946912E+04  0.25500000920E-02 0. -1.
</event>
<event>
 5   0  0.1137869E-06  0.2198922E+04  0.7818609E-02  0.8518877E-01
       -1   -1    0    0    0  501  0.00000000000E+00  0.00000000000E+00  0.88663365012E+03  0.88663365014E+03  0.50400001928E-02 0.  1.
        1   -1    0    0  501    0  0.00000000000E+00  0.00000000000E+00 -0.13633753781E+04  0.13633753781E+04  0.50400001928E-02 0. -1.
    10030    2    1    2    0    0  0.00000000000E+00  0.00000000000E+00 -0.47674172798E+03  0.22500090282E+04  0.21989219977E+04 0.  0.
        5    1    3    3  502    0  0.21838226780E+02 -0.48485674450E+03  0.77107272194E+03  0.91111920370E+03  0.46999998093E+01 0.  1.
       -5    1    3    3    0  502 -0.21838226780E+02  0.48485674450E+03 -0.12478144499E+04  0.13388898245E+04  0.46999998093E+01 0. -1.
</event>
<event>
 5   0  0.1107101E-06  0.2201067E+04  0.7818609E-02  0.8517984E-01
        1   -1    0    0  501    0  0.00000000000E+00  0.00000000000E+00  0.25451021695E+04  0.25451021695E+04  0.50400001928E-02 0. -1.
       -1   -1    0    0    0  501  0.00000000000E+00  0.00000000000E+00 -0.47588408940E+03  0.47588408943E+03  0.50400001928E-02 0.  1.
    10030    2    1    2    0    0  0.00000000000E+00  0.00000000000E+00  0.20692180801E+04  0.30209862589E+04  0.22010666763E+04 0.  0.
        1    1    3    3  502    0  0.37086642050E+03  0.48165272250E+03  0.22937644896E+04  0.23729489629E+04  0.50400001928E-02 0. -1.
       -1    1    3    3    0  502 -0.37086642050E+03 -0.48165272250E+03 -0.22454640950E+03  0.64803729599E+03  0.50400001928E-02 0.  1.
</event>
<event>
 5   0  0.2556869E-06  0.2200035E+04  0.7818609E-02  0.8518413E-01
       -2   -1    0    0    0  501  0.00000000000E+00  0.00000000000E+00  0.38106103708E+03  0.38106103709E+03  0.25500000920E-02 0. -1.
        2   -1    0    0  501    0  0.00000000000E+00  0.00000000000E+00 -0.31754463956E+04  0.31754463956E+04  0.25500000920E-02 0.  1.
    10030    2    1    2    0    0  0.00000000000E+00  0.00000000000E+00 -0.27943853585E+04  0.35565074327E+04  0.22000353604E+04 0.  0.
        5    1    3    3  502    0  0.62230301077E+03  0.90630137458E+03 -0.14571058483E+04  0.18253281245E+04  0.46999998093E+01 0.  1.
       -5    1    3    3    0  502 -0.62230301077E+03 -0.90630137458E+03 -0.13372795101E+04  0.17311793082E+04  0.46999998093E+01 0. -1.
</event>
<event>
 5   0  0.2532239E-06  0.2200683E+04  0.7818609E-02  0.8518144E-01
       -2   -1    0    0    0  501  0.00000000000E+00  0.00000000000E+00  0.13559649938E+04  0.13559649938E+04  0.25500000920E-02 0. -1.
        2   -1    0    0  501    0  0.00000000000E+00  0.00000000000E+00 -0.89290792711E+03  0.89290792711E+03  0.25500000920E-02 0.  1.
    10030    2    1    2    0    0  0.00000000000E+00  0.00000000000E+00  0.46305706673E+03  0.22488729209E+04  0.22006834319E+04 0.  0.
        3    1    3    3  502    0 -0.46082670129E+03 -0.85777325246E+03 -0.29215349253E+03  0.10166070404E+04  0.10100000352E+00 0.  1.
       -3    1    3    3    0  502  0.46082670129E+03  0.85777325246E+03  0.75521055926E+03  0.12322658805E+04  0.10100000352E+00 0. -1.
</event>
<event>
 5   0  0.2524749E-06  0.2198485E+04  0.7818609E-02  0.8519059E-01
        2   -1    0    0  501    0  0.00000000000E+00  0.00000000000E+00  0.14555705445E+04  0.14555705445E+04  0.25500000920E-02 0. -1.
       -2   -1    0    0    0  501  0.00000000000E+00  0.00000000000E+00 -0.83014490675E+03  0.83014490676E+03  0.25500000920E-02 0.  1.
    10030    2    1    2    0    0  0.00000000000E+00  0.00000000000E+00  0.62542563774E+03  0.22857154513E+04  0.21984853640E+04 0.  0.
        4    1    3    3  502    0  0.39758615778E+02  0.63308798185E+03 -0.62065559277E+03  0.88746612219E+03  0.12699999809E+01 0.  1.
       -4    1    3    3    0  502 -0.39758615778E+02 -0.63308798185E+03  0.12460812305E+04  0.13982493291E+04  0.12699999809E+01 0. -1.
</event>
<event>
 5   0  0.2532239E-06  0.2199412E+04  0.7818609E-02  0.8518673E-01
        2   -1    0    0  501    0  0.00000000000E+00  0.00000000000E+00  0.24854695816E+04  0.24854695816E+04  0.25500000920E-02 0. -1.
       -2   -1    0    0    0  501  0.00000000000E+00  0.00000000000E+00 -0.48656931962E+03  0.48656931962E+03  0.25500000920E-02 0.  1.
    10030    2    1    2    0    0  0.00000000000E+00  0.00000000000E+00  0.19989002620E+04  0.29720389013E+04  0.21994119608E+04 0.  0.
        3    1    3    3  502    0  0.10951960707E+03 -0.82111397252E+03  0.22093775350E+02  0.82868018277E+03  0.10100000352E+00 0.  1.
       -3    1    3    3    0  502 -0.10951960707E+03  0.82111397252E+03  0.19768064867E+04  0.21433587185E+04  0.10100000352E+00 0. -1.
</event>
<event>
 5   0  0.1137869E-06  0.2200153E+04  0.7818609E-02  0.8518364E-01
        1   -1    0    0  501    0  0.00000000000E+00  0.00000000000E+00  0.13540087050E+04  0.13540087050E+04  0.50400001928E-02 0. -1.
       -1   -1    0    0    0  501  0.00000000000E+00  0.00000000000E+00 -0.89376701304E+03  0.89376701305E+03  0.50400001928E-02 0.  1.
    10030    2    1    2    0    0  0.00000000000E+00  0.00000000000E+00  0.46024169195E+03  0.22477757180E+04  0.22001530091E+04 0.  0.
        5    1    3    3  502    0  0.58969005420E+03 -0.19971355713E+03 -0.69644225980E+03  0.93417010023E+03  0.46999998093E+01 0.  1.
       -5    1    3    3    0  502 -0.58969005420E+03  0.19971355713E+03  0.11566839518E+04  0.13136056178E+04  0.46999998093E+01 0. -1.
</event>
<event>
 5   0  0.1146827E-06  0.2199631E+04  0.7818609E-02  0.8518582E-01
       -1   -1    0    0    0  501  0.00000000000E+00  0.00000000000E+00  0.63953927191E+03  0.63953927193E+03  0.50400001928E-02 0.  1.
        1   -1    0    0  501    0  0.00000000000E+00  0.00000000000E+00 -0.18913530749E+04  0.18913530749E+04  0.50400001928E-02 0. -1.
    10030    2    1    2    0    0  0.00000000000E+00  0.00000000000E+00 -0.12518138030E+04  0.25308923468E+04  0.21996313950E+04 0.  0.
        4    1    3    3  502    0 -0.26080406586E+03 -0.53977321138E+01 -0.18552420311E+04  0.18734920611E+04  0.12699999809E+01 0. -1.
       -4    1    3    3    0  502  0.26080406586E+03  0.53977321138E+01  0.60342822811E+03  0.65740028571E+03  0.12699999809E+01 0.  1.
</event>
<event>
 5   0  0.1137869E-06  0.2201291E+04  0.7818609E-02  0.8517891E-01
        1   -1    0    0  501    0  0.00000000000E+00  0.00000000000E+00  0.11750297833E+04  0.11750297834E+04  0.50400001928E-02 0.  1.
       -1   -1    0    0    0  501  0.00000000000E+00  0.00000000000E+00 -0.10309702102E+04  0.10309702102E+04  0.50400001928E-02 0. -1.
    10030    2    1    2    0    0  0.00000000000E+00  0.00000000000E+00  0.14405957317E+03  0.22059999935E+04  0.22012911690E+04 0.  0.
        5    1    3    3  502    0  0.17770342620E+03 -0.74418006091E+03 -0.72087452858E+03  0.10512205509E+04  0.46999998093E+01 0. -1.
       -5    1    3    3    0  502 -0.17770342620E+03  0.74418006091E+03  0.86493410174E+03  0.11547794426E+04  0.46999998093E+01 0.  1.
</event>
<event>
 5   0  0.1146827E-06  0.2202299E+04  0.7818609E-02  0.8517472E-01
        1   -1    0    0  501    0  0.00000000000E+00  0.00000000000E+00  0.18756319394E+04  0.18756319394E+04  0.50400001928E-02 0. -1.
       -1   -1    0    0    0  501  0.00000000000E+00  0.00000000000E+00 -0.64646481924E+03  0.64646481926E+03  0.50400001928E-02 0.  1.
    10030    2    1    2    0    0  0.00000000000E+00  0.00000000000E+00  0.12291671202E+04  0.25220967587E+04  0.22022988559E+04 0.  0.
        4    1    3    3  502    0 -0.78773953082E+03  0.46918104914E+03  0.13129406931E+04  0.16013991701E+04  0.12699999809E+01 0. -1.
       -4    1    3    3    0  502  0.78773953082E+03 -0.46918104914E+03 -0.83773572940E+02  0.92069758863E+03  0.12699999809E+01 0.  1.
</event>
<event>
 5   0  0.2532239E-06  0.2200937E+04  0.7818609E-02  0.8518038E-01
        2   -1    0    0  501    0  0.00000000000E+00  0.00000000000E+00  0.12300722039E+04  0.12300722039E+04  0.25500000920E-02 0.  1.
       -2   -1    0    0    0  501  0.00000000000E+00  0.00000000000E+00 -0.98451996727E+03  0.98451996727E+03  0.25500000920E-02 0. -1.
    10030    2    1    2    0    0  0.00000000000E+00  0.00000000000E+00  0.24555223660E+03  0.22145921711E+04  0.22009367514E+04 0.  0.
        3    1    3    3  502    0  0.26832549841E+03 -0.52213658132E+03 -0.81380799417E+03  0.10034483765E+04  0.10100000352E+00 0. -1.
       -3    1    3    3    0  502 -0.26832549841E+03  0.52213658132E+03  0.10593602308E+04  0.12111437947E+04  0.10100000352E+00 0.  1.
</event>
<event>
 5   0  0.1144271E-06  0.2199939E+04  0.7818609E-02  0.8518454E-01
       -1   -1    0    0    0  501  0.00000000000E+00  0.00000000000E+00  0.71196340174E+03  0.71196340176E+03  0.50400001928E-02 0.  1.
        1   -1    0    0  501    0  0.00000000000E+00  0.00000000000E+00 -0.16994309418E+04  0.16994309418E+04  0.50400001928E-02 0. -1.
    10030    2    1    2    0    0  0.00000000000E+00  0.00000000000E+00 -0.98746754007E+03  0.24113943436E+04  0.21999387577E+04 0.  0.
        3    1    3    3  502    0  0.86617968008E+02  0.66520682867E+03 -0.14492639139E+04  0.15969873824E+04  0.10100000352E+00 0. -1.
       -3    1    3    3    0  502 -0.86617968008E+02 -0.66520682867E+03  0.46179637383E+03  0.81440696115E+03  0.10100000352E+00 0.  1.
</event>
<event>
 5   0  0.8905000E-07  0.2199532E+04  0.7818609E-02  0.8518623E-01
       -4   -1    0    0    0  501  0.00000000000E+00  0.00000000000E+00  0.67620290724E+03  0.67620409986E+03  0.12699999809E+01 0. -1.
        4   -1    0    0  501    0  0.00000000000E+00  0.00000000000E+00 -0.17886400498E+04  0.17886405006E+04  0.12699999809E+01 0.  1.
    10030    2    1    2    0    0  0.00000000000E+00  0.00000000000E+00 -0.11124371425E+04  0.24648446005E+04  0.21995323386E+04 0.  0.
        2    1    3    3  502    0 -0.70003834893E+03  0.69158298794E+03 -0.59201839500E+01  0.98406085572E+03  0.25500000920E-02 0. -1.
       -2    1    3    3    0  502  0.70003834893E+03 -0.69158298794E+03 -0.11065169586E+04  0.14807837448E+04  0.25500000920E-02 0.  1.
</event>
<event>
 5   0  0.2532239E-06  0.2200591E+04  0.7818609E-02  0.8518182E-01
        2   -1    0    0  501    0  0.00000000000E+00  0.00000000000E+00  0.91832712790E+03  0.91832712791E+03  0.25500000920E-02 0. -1.
       -2   -1    0    0    0  501  0.00000000000E+00  0.00000000000E+00 -0.13183213241E+04  0.13183213241E+04  0.25500000920E-02 0.  1.
    10030    2    1    2    0    0  0.00000000000E+00  0.00000000000E+00 -0.39999419616E+03  0.22366484520E+04  0.22005910435E+04 0.  0.
        3    1    3    3  502    0 -0.70257037883E+02  0.55410903209E+03  0.76352190982E+03  0.94601193851E+03  0.10100000352E+00 0. -1.
       -3    1    3    3    0  502  0.70257037883E+02 -0.55410903209E+03 -0.11635161060E+04  0.12906365135E+04  0.10100000352E+00 0.  1.
</event>
<event>
 5   0  0.1144271E-06  0.2204987E+04  0.7818609E-02  0.8516355E-01
       -1   -1    0    0    0  501  0.00000000000E+00  0.00000000000E+00  0.77146483634E+03  0.77146483635E+03  0.50400001928E-02 0. -1.
        1   -1    0    0  501    0  0.00000000000E+00  0.00000000000E+00 -0.15755634836E+04  0.15755634836E+04  0.50400001928E-02 0.  1.
    10030    2    1    2    0    0  0.00000000000E+00  0.00000000000E+00 -0.80409864727E+03  0.23470283200E+04  0.22049869161E+04 0.  0.
        3    1    3    3  502    0  0.58389445966E+03 -0.37545590318E+03 -0.13137233640E+04  0.14858563062E+04  0.10100000352E+00 0.  1.
       -3    1    3    3    0  502 -0.58389445966E+03  0.37545590318E+03  0.50962471673E+03  0.86117201380E+03  0.10100000352E+00 0. -1.
</event>
<event>
 5   0  0.2524749E-06  0.2199417E+04  0.7818609E-02  0.8518671E-01
       -2   -1    0    0    0  501  0.00000000000E+00  0.00000000000E+00  0.15409304886E+04  0.15409304886E+04  0.25500000920E-02 0. -1.
        2   -1    0    0  501    0  0.00000000000E+00  0.00000000000E+00 -0.78482364210E+03  0.78482364211E+03  0.25500000920E-02 0.  1.
    10030    2    1    2    0    0  0.00000000000E+00  0.00000000000E+00  0.75610684654E+03  0.23257541308E+04  0.21994169030E+04 0.  0.
        4    1    3    3  502    0 -0.37056123832E+03  0.86282797240E+03 -0.22715902878E+03  0.96612140984E+03  0.12699999809E+01 0.  1.
       -4    1    3    3    0  502  0.37056123832E+03 -0.86282797240E+03  0.98326587532E+03  0.13596327209E+04  0.12699999809E+01 0. -1.
</event>
<event>
 5   0  0.8905000E-07  0.2199762E+04  0.7818609E-02  0.8518527E-01
        4   -1    0    0  501    0  0.00000000000E+00  0.00000000000E+00  0.16136931414E+04  0.16136936411E+04  0.12699999809E+01 0. -1.
       -4   -1    0    0    0  501  0.00000000000E+00  0.00000000000E+00 -0.74966957923E+03  0.74967065497E+03  0.12699999809E+01 0.  1.
    10030    2    1    2    0    0  0.00000000000E+00  0.00000000000E+00  0.86402356213E+03  0.23633642961E+04  0.21997622781E+04 0.  0.
        1    1    3    3  502    0  0.62806632374E+03  0.89561646115E+03  0.55517803241E+03  0.12267105609E+04  0.50400001928E-02 0. -1.
       -1    1    3    3    0  502 -0.62806632374E+03 -0.89561646115E+03  0.30884552971E+03  0.11366537352E+04  0.50400001928E-02 0.  1.
</event>
<event>
 5   0  0.1082209E-06  0.2199619E+04  0.7818609E-02  0.8518587E-01
        1   -1    0    0  501    0  0.00000000000E+00  0.00000000000E+00  0.10666408900E+04  0.10666408900E+04  0.50400001928E-02 0.  1.
       -1   -1    0    0    0  501  0.00000000000E+00  0.00000000000E+00 -0.11340093658E+04  0.11340093658E+04  0.50400001928E-02 0. -1.
    10030    2    1    2    0    0  0.00000000000E+00  0.00000000000E+00 -0.67368475842E+02  0.22006502558E+04  0.21996188390E+04 0.  0.
        2    1    3    3  502    0  0.90136844385E+03 -0.31020256703E+02 -0.66338657771E+03  0.11196021969E+04  0.25500000920E-02 0.  1.
       -2    1    3    3    0  502 -0.90136844385E+03  0.31020256703E+02  0.59601810187E+03  0.10810480589E+04  0.25500000920E-02 0. -1.
</event>
<event>
 5   0  0.1146827E-06  0.2199870E+04  0.7818609E-02  0.8518482E-01
       -1   -1    0    0    0  501  0.00000000000E+00  0.00000000000E+00  0.13968870644E+04  0.13968870644E+04  0.50400001928E-02 0. -1.
        1   -1    0    0  501    0  0.00000000000E+00  0.00000000000E+00 -0.86610903477E+03  0.86610903479E+03  0.50400001928E-02 0.  1.
    10030    2    1    2    0    0  0.00000000000E+00  0.00000000000E+00  0.53077802959E+03  0.22629960992E+04  0.21998695480E+04 0.  0.
        4    1    3    3  502    0 -0.54413524691E+03  0.95436884991E+03  0.20949925815E+03  0.11183892975E+04  0.12699999809E+01 0.  1.
       -4    1    3    3    0  502  0.54413524691E+03 -0.95436884991E+03  0.32127877144E+03  0.11446068017E+04  0.12699999809E+01 0. -1.
</event>
<event>
 5   0  0.1144271E-06  0.2200743E+04  0.7818609E-02  0.8518119E-01
        1   -1    0    0  501    0  0.00000000000E+00  0.00000000000E+00  0.15121225079E+04  0.15121225079E+04  0.50400001928E-02 0. -1.
       -1   -1    0    0    0  501  0.00000000000E+00  0.00000000000E+00 -0.80074027256E+03  0.80074027258E+03  0.50400001928E-02 0.  1.
    10030    2    1    2    0    0  0.00000000000E+00  0.00000000000E+00  0.71138223532E+03  0.23128627805E+04  0.22007429556E+04 0.  0.
        3    1    3    3  502    0  0.15889634348E+03  0.15405882424E+01 -0.78861861127E+03  0.80446861071E+03  0.10100000352E+00 0.  1.
       -3    1    3    3    0  502 -0.15889634348E+03 -0.15405882424E+01  0.15000008466E+04  0.15083941698E+04  0.10100000352E+00 0. -1.
</event>
<event>
 5   0  0.1137869E-06  0.2193383E+04  0.7818609E-02  0.8521187E-01
       -1   -1    0    0    0  501  0.00000000000E+00  0.00000000000E+00  0.90935120485E+03  0.90935120487E+03  0.50400001928E-02 0.  1.
        1   -1    0    0  501    0  0.00000000000E+00  0.00000000000E+00 -0.13226262888E+04  0.13226262888E+04  0.50400001928E-02 0. -1.
    10030    2    1    2    0    0  0.00000000000E+00  0.00000000000E+00 -0.41327508398E+03  0.22319774937E+04  0.21933826017E+04 0.  0.
        5    1    3    3  502    0 -0.44086947170E+03  0.38726841542E+03  0.73614585101E+03  0.94142207357E+03  0.46999998093E+01 0.  1.
       -5    1    3    3    0  502  0.44086947170E+03 -0.38726841542E+03 -0.11494209350E+04  0.12905554201E+04  0.46999998093E+01 0. -1.
</event>
<event>
 5   0  0.2532239E-06  0.2200177E+04  0.7818609E-02  0.8518355E-01
       -2   -1    0    0    0  501  0.00000000000E+00  0.00000000000E+00  0.21211106532E+04  0.21211106532E+04  0.25500000920E-02 0.  1.
        2   -1    0    0  501    0  0.00000000000E+00  0.00000000000E+00 -0.57054744247E+03  0.57054744247E+03  0.25500000920E-02 0. -1.
    10030    2    1    2    0    0  0.00000000000E+00  0.00000000000E+00  0.15505632107E+04  0.26916580956E+04  0.22001765914E+04 0.  0.
        3    1    3    3  502    0  0.72745595315E+03 -0.57525791541E+03  0.14991277428E+04  0.17628096416E+04  0.10100000352E+00 0.  1.
       -3    1    3    3    0  502 -0.72745595315E+03  0.57525791541E+03  0.51435467871E+02  0.92884845404E+03  0.10100000352E+00 0. -1.
</event>
<event>
 5   0  0.1107101E-06  0.2200755E+04  0.7818609E-02  0.8518114E-01
       -1   -1    0    0    0  501  0.00000000000E+00  0.00000000000E+00  0.55402738234E+03  0.55402738236E+03  0.50400001928E-02 0. -1.
        1   -1    0    0  501    0  0.00000000000E+00  0.00000000000E+00 -0.21855059215E+04  0.21855059215E+04  0.50400001928E-02 0.  1.
    10030    2    1    2    0    0  0.00000000000E+00  0.00000000000E+00 -0.16314785391E+04  0.27395333038E+04  0.22007545295E+04 0.  0.
        1    1    3    3  502    0 -0.53810980649E+03  0.18457023037E+03  0.35676973040E+03  0.67150053934E+03  0.50400001928E-02 0. -1.
       -1    1    3    3    0  502  0.53810980649E+03 -0.18457023037E+03 -0.19882482695E+04  0.20680327645E+04  0.50400001928E-02 0.  1.
</event>
<event>
 5   0  0.2581058E-06  0.2199884E+04  0.7818609E-02  0.8518477E-01
       -2   -1    0    0    0  501  0.00000000000E+00  0.00000000000E+00  0.82913678714E+03  0.82913678714E+03  0.25500000920E-02 0.  1.
        2   -1    0    0  501    0  0.00000000000E+00  0.00000000000E+00 -0.14591948135E+04  0.14591948135E+04  0.25500000920E-02 0. -1.
    10030    2    1    2    0    0  0.00000000000E+00  0.00000000000E+00 -0.63005802636E+03  0.22883316006E+04  0.21998837237E+04 0.  0.
        1    1    3    3  502    0  0.94067973630E+03  0.56654861538E+03 -0.24910590307E+03  0.11260148537E+04  0.50400001928E-02 0. -1.
       -1    1    3    3    0  502 -0.94067973630E+03 -0.56654861538E+03 -0.38095212329E+03  0.11623167469E+04  0.50400001928E-02 0.  1.
</event>
<event>
 5   0  0.1144271E-06  0.2199865E+04  0.7818609E-02  0.8518484E-01
       -1   -1    0    0    0  501  0.00000000000E+00  0.00000000000E+00  0.98136096005E+03  0.98136096006E+03  0.50400001928E-02 0. -1.
        1   -1    0    0  501    0  0.00000000000E+00  0.00000000000E+00 -0.12328297522E+04  0.12328297522E+04  0.50400001928E-02 0.  1.
    10030    2    1    2    0    0  0.00000000000E+00  0.00000000000E+00 -0.25146879212E+03  0.22141907122E+04  0.21998645315E+04 0.  0.
        3    1    3    3  502    0  0.97134849405E+03 -0.45560020929E+03 -0.36972080772E+03  0.11348052403E+04  0.10100000352E+00 0. -1.
       -3    1    3    3    0  502 -0.97134849405E+03  0.45560020929E+03  0.11825201560E+03  0.10793854719E+04  0.10100000352E+00 0.  1.
</event>
<event>
 5   0  0.1082209E-06  0.2198616E+04  0.7818609E-02  0.8519004E-01
        1   -1    0    0  501    0  0.00000000000E+00  0.00000000000E+00  0.12993576491E+04  0.12993576491E+04  0.50400001928E-02 0.  1.
       -1   -1    0    0    0  501  0.00000000000E+00  0.00000000000E+00 -0.93005841870E+03  0.93005841872E+03  0.50400001928E-02 0. -1.
    10030    2    1    2    0    0  0.00000000000E+00  0.00000000000E+00  0.36929923036E+03  0.22294160678E+04  0.21986164017E+04 0.  0.
        2    1    3    3  502    0  0.58906014822E+02 -0.66866803923E+03  0.10674148594E+04  0.12609366944E+04  0.25500000920E-02 0.  1.
       -2    1    3    3    0  502 -0.58906014822E+02  0.66866803923E+03 -0.69811562899E+03  0.96847937341E+03  0.25500000920E-02 0. -1.
</event>
<event>
 5   0  0.1137869E-06  0.2202782E+04  0.7818609E-02  0.8517271E-01
        1   -1    0    0  501    0  0.00000000000E+00  0.00000000000E+00  0.13204296724E+04  0.13204296725E+04  0.50400001928E-02 0. -1.
       -1   -1    0    0    0  501  0.00000000000E+00  0.00000000000E+00 -0.91868781486E+03  0.91868781487E+03  0.50400001928E-02 0.  1.
    10030    2    1    2    0    0  0.00000000000E+00  0.00000000000E+00  0.40174185758E+03  0.22391174873E+04  0.22027824681E+04 0.  0.
        5    1    3    3  502    0 -0.35330661779E+03  0.82464376938E+03  0.85029723998E+03  0.12360786378E+04  0.46999998093E+01 0. -1.
       -5    1    3    3    0  502  0.35330661779E+03 -0.82464376938E+03 -0.44855538239E+03  0.10030388495E+04  0.46999998093E+01 0.  1.
</event>
<event>
 5   0  0.2556869E-06  0.2203463E+04  0.7818609E-02  0.8516988E-01
       -2   -1    0    0    0  501  0.00000000000E+00  0.00000000000E+00  0.11367758723E+04  0.11367758723E+04  0.25500000920E-02 0. -1.
        2   -1    0    0  501    0  0.00000000000E+00  0.00000000000E+00 -0.10677677346E+04  0.10677677346E+04  0.25500000920E-02 0.  1.
    10030    2    1    2    0    0  0.00000000000E+00  0.00000000000E+00  0.69008137727E+02  0.22045436069E+04  0.22034632722E+04 0.  0.
        5    1    3    3  502    0  0.52183372630E+03 -0.23072444944E+03  0.97743434601E+03  0.11317880545E+04  0.46999998093E+01 0. -1.
       -5    1    3    3    0  502 -0.52183372630E+03  0.23072444944E+03 -0.90842620829E+03  0.10727555525E+04  0.46999998093E+01 0.  1.
</event>
<event>
 5   0  0.2556869E-06  0.2200248E+04  0.7818609E-02  0.8518325E-01
        2   -1    0    0  501    0  0.00000000000E+00  0.00000000000E+00  0.13673695185E+04  0.13673695185E+04  0.25500000920E-02 0. -1.
       -2   -1    0    0    0  501  0.00000000000E+00  0.00000000000E+00 -0.88511063101E+03  0.88511063101E+03  0.25500000920E-02 0.  1.
    10030    2    1    2    0    0  0.00000000000E+00  0.00000000000E+00  0.48225888749E+03  0.22524801495E+04  0.22002484381E+04 0.  0.
        5    1    3    3  502    0  0.41166128781E+02  0.63983863996E+03 -0.67405147116E+03  0.93029866769E+03  0.46999998093E+01 0.  1.
       -5    1    3    3    0  502 -0.41166128781E+02 -0.63983863996E+03  0.11563103587E+04  0.13221814818E+04  0.46999998093E+01 0. -1.
</event>
<event>
 5   0  0.2556869E-06  0.2200296E+04  0.7818609E-02  0.8518305E-01
        2   -1    0    0  501    0  0.00000000000E+00  0.00000000000E+00  0.93436267892E+03  0.93436267893E+03  0.25500000920E-02 0. -1.
       -2   -1    0    0    0  501  0.00000000000E+00  0.00000000000E+00 -0.12953487210E+04  0.12953487210E+04  0.25500000920E-02 0.  1.
    10030    2    1    2    0    0  0.00000000000E+00  0.00000000000E+00 -0.36098604205E+03  0.22297113999E+04  0.22002958902E+04 0.  0.
        5    1    3    3  502    0  0.10716025851E+04 -0.15731214341E+03  0.15022056697E+02  0.10832021801E+04  0.46999998093E+01 0.  1.
       -5    1    3    3    0  502 -0.10716025851E+04  0.15731214341E+03 -0.37600809874E+03  0.11465092198E+04  0.46999998093E+01 0. -1.
</event>
<event>
 5   0  0.1146827E-06  0.2199980E+04  0.7818609E-02  0.8518436E-01
        1   -1    0    0  501    0  0.00000000000E+00  0.00000000000E+00  0.56803115724E+03  0.56803115726E+03  0.50400001928E-02 0.  1.
       -1   -1    0    0    0  501  0.00000000000E+00  0.00000000000E+00 -0.21301268645E+04  0.21301268645E+04  0.50400001928E-02 0. -1.
    10030    2    1    2    0    0  0.00000000000E+00  0.00000000000E+00 -0.15620957073E+04  0.26981580218E+04  0.21999803890E+04 0.  0.
        4    1    3    3  502    0  0.90045269265E+03 -0.32310564025E+03 -0.11518288505E+03  0.96357719793E+03  0.12699999809E+01 0. -1.
       -4    1    3    3    0  502 -0.90045269265E+03  0.32310564025E+03 -0.14469128222E+04  0.17345808239E+04  0.12699999809E+01 0.  1.
</event>
<event>
 5   0  0.2606154E-06  0.2200154E+04  0.7818609E-02  0.8518364E-01
        2   -1    0    0  501    0  0.00000000000E+00  0.00000000000E+00  0.10998571938E+04  0.10998571938E+04  0.25500000920E-02 0. -1.
       -2   -1    0    0    0  501  0.00000000000E+00  0.00000000000E+00 -0.11002967416E+04  0.11002967416E+04  0.25500000920E-02 0.  1.
    10030    2    1    2    0    0  0.00000000000E+00  0.00000000000E+00 -0.43954786523E+00  0.22001539354E+04  0.22001538915E+04 0.  0.
        2    1    3    3  502    0 -0.64495747318E+03 -0.88939214099E+03 -0.56618036091E+02  0.11000882350E+04  0.25500000920E-02 0.  1.
       -2    1    3    3    0  502  0.64495747318E+03  0.88939214099E+03  0.56178488226E+02  0.11000657004E+04  0.25500000920E-02 0. -1.
</event>
<event>
 5   0  0.2532239E-06  0.2199582E+04  0.7818609E-02  0.8518602E-01
        2   -1    0    0  501    0  0.00000000000E+00  0.00000000000E+00  0.95454449213E+03  0.95454449213E+03  0.25500000920E-02 0.  1.
       -2   -1    0    0    0  501  0.00000000000E+00  0.00000000000E+00 -0.12671386792E+04  0.12671386792E+04  0.25500000920E-02 0. -1.
    10030    2    1    2    0    0  0.00000000000E+00  0.00000000000E+00 -0.31259418703E+03  0.22216831713E+04  0.21995820030E+04 0.  0.
        3    1    3    3  502    0  0.76005355662E+03 -0.38433340648E+03 -0.85909496585E+03  0.12097263107E+04  0.10100000352E+00 0. -1.
       -3    1    3    3    0  502 -0.76005355662E+03  0.38433340648E+03  0.54650077881E+03  0.10119568606E+04  0.10100000352E+00 0.  1.
</event>
<event>
 5   0  0.1107101E-06  0.2199877E+04  0.7818609E-02  0.8518479E-01
        1   -1    0    0  501    0  0.00000000000E+00  0.00000000000E+00  0.89857863881E+03  0.89857863882E+03  0.50400001928E-02 0. -1.
       -1   -1    0    0    0  501  0.00000000000E+00  0.00000000000E+00 -0.13464205077E+04  0.13464205077E+04  0.50400001928E-02 0.  1.
    10030    2    1    2    0    0  0.00000000000E+00  0.00000000000E+00 -0.44784186888E+03  0.22449991465E+04  0.21998770030E+04 0.  0.
        1    1    3    3  502    0 -0.48988032417E+03 -0.98240330340E+03 -0.29437113730E+03  0.11365532759E+04  0.50400001928E-02 0. -1.
       -1    1    3    3    0  502  0.48988032417E+03  0.98240330340E+03 -0.15347073158E+03  0.11084458706E+04  0.50400001928E-02 0.  1.
</event>
<event>
 5   0  0.2532239E-06  0.2201703E+04  0.7818609E-02  0.8517719E-01
        2   -1    0    0  501    0  0.00000000000E+00  0.00000000000E+00  0.11969952951E+04  0.11969952951E+04  0.25500000920E-02 0.  1.
       -2   -1    0    0    0  501  0.00000000000E+00  0.00000000000E+00 -0.10124303801E+04  0.10124303801E+04  0.25500000920E-02 0. -1.
    10030    2    1    2    0    0  0.00000000000E+00  0.00000000000E+00  0.18456491502E+03  0.22094256752E+04  0.22017033420E+04 0.  0.
        3    1    3    3  502    0  0.87076805769E+03  0.39563990829E+03  0.63926898629E+03  0.11504054913E+04  0.10100000352E+00 0.  1.
       -3    1    3    3    0  502 -0.87076805769E+03 -0.39563990829E+03 -0.45470407127E+03  0.10590201839E+04  0.10100000352E+00 0. -1.
</event>
<event>
 5   0  0.1146827E-06  0.2200610E+04  0.7818609E-02  0.8518174E-01
        1   -1    0    0  501    0  0.00000000000E+00  0.00000000000E+00  0.69849063264E+03  0.69849063266E+03  0.50400001928E-02 0. -1.
       -1   -1    0    0    0  501  0.00000000000E+00  0.00000000000E+00 -0.17332680007E+04  0.17332680007E+04  0.50400001928E-02 0.  1.
    10030    2    1    2    0    0  0.00000000000E+00  0.00000000000E+00 -0.10347773680E+04  0.24317586333E+04  0.22006103357E+04 0.  0.
        4    1    3    3  502    0 -0.78337805517E+03 -0.76031342306E+03 -0.36542213223E+03  0.11512135450E+04  0.12699999809E+01 0. -1.
       -4    1    3    3    0  502  0.78337805517E+03  0.76031342306E+03 -0.66935523579E+03  0.12805450883E+04  0.12699999809E+01 0.  1.
</event>
<event>
 5   0  0.2556869E-06  0.2197794E+04  0.7818609E-02  0.8519347E-01
        2   -1    0    0  501    0  0.00000000000E+00  0.00000000000E+00  0.11352700512E+04  0.11352700512E+04  0.25500000920E-02 0. -1.
       -2   -1    0    0    0  501  0.00000000000E+00  0.00000000000E+00 -0.10636891752E+04  0.10636891752E+04  0.25500000920E-02 0.  1.
    10030    2    1    2    0    0  0.00000000000E+00  0.00000000000E+00  0.71580876002E+02  0.21989592264E+04  0.21977938615E+04 0.  0.
        5    1    3    3  502    0 -0.92121691923E+03 -0.12190462023E+03  0.62266008601E+03  0.11185834888E+04  0.46999998093E+01 0. -1.
       -5    1    3    3    0  502  0.92121691923E+03  0.12190462023E+03 -0.55107921001E+03  0.10803757376E+04  0.46999998093E+01 0.  1.
</event>
<event>
 5   0  0.1144271E-06  0.2197815E+04  0.7818609E-02  0.8519338E-01
        1   -1    0    0  501    0  0.00000000000E+00  0.00000000000E+00  0.96686833000E+03  0.96686833002E+03  0.50400001928E-02 0. -1.
       -1   -1    0    0    0  501  0.00000000000E+00  0.00000000000E+00 -0.12489785766E+04  0.12489785766E+04  0.50400001928E-02 0.  1.
    10030    2    1    2    0    0  0.00000000000E+00  0.00000000000E+00 -0.28211024655E+03  0.22158469066E+04  0.21978151247E+04 0.  0.
        3    1    3    3  502    0  0.25675391170E+03 -0.50637659473E+03  0.80754575478E+03  0.98715246194E+03  0.10100000352E+00 0. -1.
       -3    1    3    3    0  502 -0.25675391170E+03  0.50637659473E+03 -0.10896560013E+04  0.12286944446E+04  0.10100000352E+00 0.  1.
</event>
<event>
 5   0  0.2606154E-06  0.2196123E+04  0.7818609E-02  0.8520044E-01
        2   -1    0    0  501    0  0.00000000000E+00  0.00000000000E+00  0.18024091196E+04  0.18024091196E+04  0.25500000920E-02 0. -1.
       -2   -1    0    0    0  501  0.00000000000E+00  0.00000000000E+00 -0.66895960073E+03  0.66895960074E+03  0.25500000920E-02 0.  1.
    10030    2    1    2    0    0  0.00000000000E+00  0.00000000000E+00  0.11334495188E+04  0.24713687203E+04  0.21961228426E+04 0.  0.
        2    1    3    3  502    0 -0.27224616372E+03 -0.27427120801E+03  0.17233544456E+04  0.17661520927E+04  0.25500000920E-02 0. -1.
       -2    1    3    3    0  502  0.27224616372E+03  0.27427120801E+03 -0.58990492680E+03  0.70521662762E+03  0.25500000920E-02 0.  1.
</event>
<event>
 5   0  0.1137869E-06  0.2198888E+04  0.7818609E-02  0.8518891E-01
       -1   -1    0    0    0  501  0.00000000000E+00  0.00000000000E+00  0.70103546625E+03  0.70103546627E+03  0.50400001928E-02 0.  1.
        1   -1    0    0  501    0  0.00000000000E+00  0.00000000000E+00 -0.17242741632E+04  0.17242741632E+04  0.50400001928E-02 0. -1.
    10030    2    1    2    0    0  0.00000000000E+00  0.00000000000E+00 -0.10232386970E+04  0.24253096295E+04  0.21988882118E+04 0.  0.
        5    1    3    3  502    0  0.56470201491E+02  0.19649080153E+03 -0.17031126449E+04  0.17153461137E+04  0.46999998093E+01 0. -1.
       -5    1    3    3    0  502 -0.56470201491E+02 -0.19649080153E+03  0.67987394789E+03  0.70996351579E+03  0.46999998093E+01 0.  1.
</event>
<event>
 5   0  0.1082209E-06  0.2196316E+04  0.7818609E-02  0.8519963E-01
        1   -1    0    0  501    0  0.00000000000E+00  0.00000000000E+00  0.11664104538E+04  0.11664104538E+04  0.50400001928E-02 0.  1.
       -1   -1    0    0    0  501  0.00000000000E+00  0.00000000000E+00 -0.10338989833E+04  0.10338989833E+04  0.50400001928E-02 0. -1.
    10030    2    1    2    0    0  0.00000000000E+00  0.00000000000E+00  0.13251147051E+03  0.22003094370E+04  0.21963156260E+04 0.  0.
        2    1    3    3  502    0  0.10568445935E+03 -0.10685406262E+03 -0.10235475449E+04  0.10345223885E+04  0.25500000920E-02 0. -1.
       -2    1    3    3    0  502 -0.10568445935E+03  0.10685406262E+03  0.11560590154E+04  0.11657870486E+04  0.25500000920E-02 0.  1.
</event>
<event>
 5   0  0.1137869E-06  0.2199552E+04  0.7818609E-02  0.8518615E-01
        1   -1    0    0  501    0  0.00000000000E+00  0.00000000000E+00  0.15382092906E+04  0.15382092907E+04  0.50400001928E-02 0.  1.
       -1   -1    0    0    0  501  0.00000000000E+00  0.00000000000E+00 -0.78630851247E+03  0.78630851249E+03  0.50400001928E-02 0. -1.
    10030    2    1    2    0    0  0.00000000000E+00  0.00000000000E+00  0.75190077817E+03  0.23245178031E+04  0.21995518264E+04 0.  0.
        5    1    3    3  502    0  0.82369884032E+03  0.58004765036E+03  0.84208805566E+03  0.13130382476E+04  0.46999998093E+01 0.  1.
       -5    1    3    3    0  502 -0.82369884032E+03 -0.58004765036E+03 -0.90187277487E+02  0.10114795555E+04  0.46999998093E+01 0. -1.
</event>
<event>
 5   0  0.2556869E-06  0.2199410E+04  0.7818609E-02  0.8518674E-01
        2   -1    0    0  501    0  0.00000000000E+00  0.00000000000E+00  0.11090909531E+04  0.11090909531E+04  0.25500000920E-02 0. -1.
       -2   -1    0    0    0  501  0.00000000000E+00  0.00000000000E+00 -0.10903981843E+04  0.10903981843E+04  0.25500000920E-02 0.  1.
    10030    2    1    2    0    0  0.00000000000E+00  0.00000000000E+00  0.18692768791E+02  0.21994891375E+04  0.21994097041E+04 0.  0.
        5    1    3    3  502    0  0.93083702139E+03  0.56830597676E+03 -0.13172404256E+03  0.10985456554E+04  0.46999998093E+01 0. -1.
       -5    1    3    3    0  502 -0.93083702139E+03 -0.56830597676E+03  0.15041681135E+03  0.11009434821E+04  0.46999998093E+01 0.  1.
</event>
<event>
 5   0  0.1137869E-06  0.2199883E+04  0.7818609E-02  0.8518477E-01
       -1   -1    0    0    0  501  0.00000000000E+00  0.00000000000E+00  0.11475254497E+04  0.11475254497E+04  0.50400001928E-02 0. -1.
        1   -1    0    0  501    0  0.00000000000E+00  0.00000000000E+00 -0.10543307865E+04  0.10543307865E+04  0.50400001928E-02 0.  1.
    10030    2    1    2    0    0  0.00000000000E+00  0.00000000000E+00  0.93194663170E+02  0.22018562362E+04  0.21998830968E+04 0.  0.
        5    1    3    3  502    0  0.67510951678E+03 -0.60970048357E+03 -0.57229519153E+03  0.10747331834E+04  0.46999998093E+01 0.  1.
       -5    1    3    3    0  502 -0.67510951678E+03  0.60970048357E+03  0.66548985470E+03  0.11271230527E+04  0.46999998093E+01 0. -1.
</event>
<event>
 5   0  0.2581058E-06  0.2197684E+04  0.7818609E-02  0.8519393E-01
       -2   -1    0    0    0  501  0.00000000000E+00  0.00000000000E+00  0.64398655132E+03  0.64398655133E+03  0.25500000920E-02 0. -1.
        2   -1    0    0  501    0  0.00000000000E+00  0.00000000000E+00 -0.18749664998E+04  0.18749664998E+04  0.25500000920E-02 0.  1.
    10030    2    1    2    0    0  0.00000000000E+00  0.00000000000E+00 -0.12309799485E+04  0.25189530511E+04  0.21976835169E+04 0.  0.
        1    1    3    3  502    0  0.64035120560E+03  0.81269132534E+03 -0.10396349249E+04  0.14667507061E+04  0.50400001928E-02 0.  1.
       -1    1    3    3    0  502 -0.64035120560E+03 -0.81269132534E+03 -0.19134502359E+03  0.10522023450E+04  0.50400001928E-02 0. -1.
</event>
<event>
 5   0  0.2556869E-06  0.2200217E+04  0.7818609E-02  0.8518338E-01
       -2   -1    0    0    0  501  0.00000000000E+00  0.00000000000E+00  0.10796498767E+04  0.10796498767E+04  0.25500000920E-02 0.  1.
        2   -1    0    0  501    0  0.00000000000E+00  0.00000000000E+00 -0.11209549000E+04  0.11209549000E+04  0.25500000920E-02 0. -1.
    10030    2    1    2    0    0  0.00000000000E+00  0.00000000000E+00 -0.41305023261E+02  0.22006047766E+04  0.22002170979E+04 0.  0.
        5    1    3    3  502    0 -0.99073182711E+03  0.38364914288E+03 -0.30615072131E+03  0.11056611471E+04  0.46999998093E+01 0. -1.
       -5    1    3    3    0  502  0.99073182711E+03 -0.38364914288E+03  0.26484569805E+03  0.10949436295E+04  0.46999998093E+01 0.  1.
</event>
<event>
 5   0  0.2556869E-06  0.2199924E+04  0.7818609E-02  0.8518460E-01
        2   -1    0    0  501    0  0.00000000000E+00  0.00000000000E+00  0.42402130216E+03  0.42402130217E+03  0.25500000920E-02 0. -1.
       -2   -1    0    0    0  501  0.00000000000E+00  0.00000000000E+00 -0.28534330665E+04  0.28534330665E+04  0.25500000920E-02 0.  1.
    10030    2    1    2    0    0  0.00000000000E+00  0.00000000000E+00 -0.24294117644E+04  0.32774543687E+04  0.21999240028E+04 0.  0.
        5    1    3    3  502    0 -0.38165217262E+03  0.45243166996E+03 -0.25959244407E+04  0.26625548987E+04  0.46999998093E+01 0.  1.
       -5    1    3    3    0  502  0.38165217262E+03 -0.45243166996E+03  0.16651267631E+03  0.61489947001E+03  0.46999998093E+01 0. -1.
</event>
<event>
 5   0  0.1137869E-06  0.2197891E+04  0.7818609E-02  0.8519307E-01
        1   -1    0    0  501    0  0.00000000000E+00  0.00000000000E+00  0.14314759133E+04  0.14314759133E+04  0.50400001928E-02 0. -1.
       -1   -1    0    0    0  501  0.00000000000E+00  0.00000000000E+00 -0.84366128153E+03  0.84366128155E+03  0.50400001928E-02 0.  1.
    10030    2    1    2    0    0  0.00000000000E+00  0.00000000000E+00  0.58781463176E+03  0.22751371948E+04  0.21978906283E+04 0.  0.
        5    1    3    3  502    0  0.47798025650E+03 -0.50866315911E+03  0.11725353524E+04  0.13645748707E+04  0.46999998093E+01 0. -1.
       -5    1    3    3    0  502 -0.47798025650E+03  0.50866315911E+03 -0.58472072065E+03  0.91056232417E+03  0.46999998093E+01 0.  1.
</event>
<event>
 5   0  0.1137869E-06  0.2200242E+04  0.7818609E-02  0.8518327E-01
        1   -1    0    0  501    0  0.00000000000E+00  0.00000000000E+00  0.15189602115E+04  0.15189602115E+04  0.50400001928E-02 0.  1.
       -1   -1    0    0    0  501  0.00000000000E+00  0.00000000000E+00 -0.79677293031E+03  0.79677293033E+03  0.50400001928E-02 0. -1.
    10030    2    1    2    0    0  0.00000000000E+00  0.00000000000E+00  0.72218728121E+03  0.23157331419E+04  0.22002421492E+04 0.  0.
        5    1    3    3  502    0 -0.15058060290E+03  0.73954951118E+03 -0.48131691450E+03  0.89515141716E+03  0.46999998093E+01 0. -1.
       -5    1    3    3    0  502  0.15058060290E+03 -0.73954951118E+03  0.12035041957E+04  0.14205817247E+04  0.46999998093E+01 0.  1.
</event>
<event>
 5   0  0.2556869E-06  0.2199871E+04  0.7818609E-02  0.8518482E-01
       -2   -1    0    0    0  501  0.00000000000E+00  0.00000000000E+00  0.15540766461E+04  0.15540766461E+04  0.25500000920E-02 0. -1.
        2   -1    0    0  501    0  0.00000000000E+00  0.00000000000E+00 -0.77850622374E+03  0.77850622375E+03  0.25500000920E-02 0.  1.
    10030    2    1    2    0    0  0.00000000000E+00  0.00000000000E+00  0.77557042234E+03  0.23325828698E+04  0.21998712155E+04 0.  0.
        5    1    3    3  502    0  0.15739567327E+03  0.91464183930E+03 -0.23816091112E+03  0.95816794027E+03  0.46999998093E+01 0.  1.
       -5    1    3    3    0  502 -0.15739567327E+03 -0.91464183930E+03  0.10137313335E+04  0.13744149296E+04  0.46999998093E+01 0. -1.
</event>
<event>
 5   0  0.1146827E-06  0.2199193E+04  0.7818609E-02  0.8518764E-01
        1   -1    0    0  501    0  0.00000000000E+00  0.00000000000E+00  0.71081342381E+03  0.71081342383E+03  0.50400001928E-02 0. -1.
       -1   -1    0    0    0  501  0.00000000000E+00  0.00000000000E+00 -0.17010271967E+04  0.17010271968E+04  0.50400001928E-02 0.  1.
    10030    2    1    2    0    0  0.00000000000E+00  0.00000000000E+00 -0.99021377293E+03  0.24118406206E+04  0.21991934574E+04 0.  0.
        4    1    3    3  502    0  0.47627271987E+03  0.27851243193E+03  0.54802451615E+03  0.77764861065E+03  0.12699999809E+01 0. -1.
       -4    1    3    3    0  502 -0.47627271987E+03 -0.27851243193E+03 -0.15382382891E+04  0.16341920099E+04  0.12699999809E+01 0.  1.
</event>
<event>
 5   0  0.2581058E-06  0.2200196E+04  0.7818609E-02  0.8518347E-01
       -2   -1    0    0    0  501  0.00000000000E+00  0.00000000000E+00  0.75323071011E+03  0.75323071012E+03  0.25500000920E-02 0. -1.
        2   -1    0    0  501    0  0.00000000000E+00  0.00000000000E+00 -0.16066995681E+04  0.16066995681E+04  0.25500000920E-02 0.  1.
    10030    2    1    2    0    0  0.00000000000E+00  0.00000000000E+00 -0.85346885794E+03  0.23599302782E+04  0.22001958609E+04 0.  0.
        1    1    3    3  502    0  0.95550847987E+03 -0.46132236041E+03 -0.11512484604E+03  0.10672715238E+04  0.50400001928E-02 0. -1.
       -1    1    3    3    0  502 -0.95550847987E+03  0.46132236041E+03 -0.73834401190E+03  0.12926587544E+04  0.50400001928E-02 0.  1.
</event>
<event>
 5   0  0.1137869E-06  0.2199552E+04  0.7818609E-02  0.8518615E-01
        1   -1    0    0  501    0  0.00000000000E+00  0.00000000000E+00  0.11761290844E+04  0.11761290844E+04  0.50400001928E-02 0.  1.
       -1   -1    0    0    0  501  0.00000000000E+00  0.00000000000E+00 -0.10283793348E+04  0.10283793348E+04  0.50400001928E-02 0. -1.
    10030    2    1    2    0    0  0.00000000000E+00  0.00000000000E+00  0.14774974955E+03  0.22045084192E+04  0.21995516320E+04 0.  0.
        5    1    3    3  502    0 -0.38578064686E+03 -0.91642192287E+03 -0.39710848394E+03  0.10706881368E+04  0.46999998093E+01 0. -1.
       -5    1    3    3    0  502  0.38578064686E+03  0.91642192287E+03  0.54485823349E+03  0.11338202824E+04  0.46999998093E+01 0.  1.
</event>
<event>
 5   0  0.1107101E-06  0.2200811E+04  0.7818609E-02  0.8518091E-01
        1   -1    0    0  501    0  0.00000000000E+00  0.00000000000E+00  0.13029362981E+04  0.13029362981E+04  0.50400001928E-02 0.  1.
       -1   -1    0    0    0  501  0.00000000000E+00  0.00000000000E+00 -0.92935622670E+03  0.92935622672E+03  0.50400001928E-02 0. -1.
    10030    2    1    2    0    0  0.00000000000E+00  0.00000000000E+00  0.37358007138E+03  0.22322925248E+04  0.22008107248E+04 0.  0.
        1    1    3    3  502    0 -0.39966737799E+03 -0.29510988327E+03  0.11827050247E+04  0.12828152758E+04  0.50400001928E-02 0.  1.
       -1    1    3    3    0  502  0.39966737799E+03  0.29510988327E+03 -0.80912495336E+03  0.94947724902E+03  0.50400001928E-02 0. -1.
</event>
<event>
 5   0  0.1107101E-06  0.2200231E+04  0.7818609E-02  0.8518332E-01
       -1   -1    0    0    0  501  0.00000000000E+00  0.00000000000E+00  0.12523370833E+04  0.12523370833E+04  0.50400001928E-02 0. -1.
        1   -1    0    0  501    0  0.00000000000E+00  0.00000000000E+00 -0.96639645852E+03  0.96639645854E+03  0.50400001928E-02 0.  1.
    10030    2    1    2    0    0  0.00000000000E+00  0.00000000000E+00  0.28594062473E+03  0.22187335418E+04  0.22002310080E+04 0.  0.
        1    1    3    3  502    0  0.18070109206E+03  0.56477060493E+03  0.10773884572E+04  0.12297904735E+04  0.50400001928E-02 0. -1.
       -1    1    3    3    0  502 -0.18070109206E+03 -0.56477060493E+03 -0.79144783248E+03  0.98894306834E+03  0.50400001928E-02 0.  1.
</event>
<event>
 5   0  0.1146827E-06  0.2201416E+04  0.7818609E-02  0.8517839E-01
       -1   -1    0    0    0  501  0.00000000000E+00  0.00000000000E+00  0.91128952436E+03  0.91128952438E+03  0.50400001928E-02 0.  1.
        1   -1    0    0  501    0  0.00000000000E+00  0.00000000000E+00 -0.13294982518E+04  0.13294982518E+04  0.50400001928E-02 0. -1.
    10030    2    1    2    0    0  0.00000000000E+00  0.00000000000E+00 -0.41820872743E+03  0.22407877762E+04  0.22014157531E+04 0.  0.
        4    1    3    3  502    0  0.47629390124E+03 -0.77174034907E+03 -0.84405337908E+03  0.12388973995E+04  0.12699999809E+01 0. -1.
       -4    1    3    3    0  502 -0.47629390124E+03  0.77174034907E+03  0.42584465165E+03  0.10018903767E+04  0.12699999809E+01 0.  1.
</event>
<event>
 5   0  0.2524749E-06  0.2199042E+04  0.7818609E-02  0.8518827E-01
       -2   -1    0    0    0  501  0.00000000000E+00  0.00000000000E+00  0.97294924907E+03  0.97294924908E+03  0.25500000920E-02 0.  1.
        2   -1    0    0  501    0  0.00000000000E+00  0.00000000000E+00 -0.12425582366E+04  0.12425582366E+04  0.25500000920E-02 0. -1.
    10030    2    1    2    0    0  0.00000000000E+00  0.00000000000E+00 -0.26960898748E+03  0.22155074856E+04  0.21990417033E+04 0.  0.
        4    1    3    3  502    0  0.37273376779E+03 -0.88418102309E+03  0.40609345463E+03  0.10419309238E+04  0.12699999809E+01 0.  1.
       -4    1    3    3    0  502 -0.37273376779E+03  0.88418102309E+03 -0.67570244211E+03  0.11735765618E+04  0.12699999809E+01 0. -1.
</event>
<event>
 5   0  0.2532239E-06  0.2198677E+04  0.7818609E-02  0.8518979E-01
       -2   -1    0    0    0  501  0.00000000000E+00  0.00000000000E+00  0.13416646806E+04  0.13416646806E+04  0.25500000920E-02 0.  1.
        2   -1    0    0  501    0  0.00000000000E+00  0.00000000000E+00 -0.90078033147E+03  0.90078033147E+03  0.25500000920E-02 0. -1.
    10030    2    1    2    0    0  0.00000000000E+00  0.00000000000E+00  0.44088434916E+03  0.22424450121E+04  0.21986770165E+04 0.  0.
        3    1    3    3  502    0 -0.47983924450E+03 -0.97272545388E+03  0.37697704783E+02  0.10852933411E+04  0.10100000352E+00 0.  1.
       -3    1    3    3    0  502  0.47983924450E+03  0.97272545388E+03  0.40318664437E+03  0.11571516710E+04  0.10100000352E+00 0. -1.
</event>
<event>
 5   0  0.1146827E-06  0.2184625E+04  0.7818609E-02  0.8524855E-01
        1   -1    0    0  501    0  0.00000000000E+00  0.00000000000E+00  0.20466874544E+04  0.20466874544E+04  0.50400001928E-02 0. -1.
       -1   -1    0    0    0  501  0.00000000000E+00  0.00000000000E+00 -0.58296468572E+03  0.58296468574E+03  0.50400001928E-02 0.  1.
    10030    2    1    2    0    0  0.00000000000E+00  0.00000000000E+00  0.14637227687E+04  0.26296521401E+04  0.21846249185E+04 0.  0.
        4    1    3    3  502    0 -0.72570742970E+03  0.39623891164E+03 -0.12732729653E+03  0.83658257331E+03  0.12699999809E+01 0.  1.
       -4    1    3    3    0  502  0.72570742970E+03 -0.39623891164E+03  0.15910500652E+04  0.17930695668E+04  0.12699999809E+01 0. -1.
</event>
<event>
 5   0  0.2556869E-06  0.2199526E+04  0.7818609E-02  0.8518626E-01
        2   -1    0    0  501    0  0.00000000000E+00  0.00000000000E+00  0.17546931099E+04  0.17546931099E+04  0.25500000920E-02 0.  1.
       -2   -1    0    0    0  501  0.00000000000E+00  0.00000000000E+00 -0.68928198485E+03  0.68928198486E+03  0.25500000920E-02 0. -1.
    10030    2    1    2    0    0  0.00000000000E+00  0.00000000000E+00  0.10654111250E+04  0.24439750947E+04  0.21995257212E+04 0.  0.
        5    1    3    3  502    0  0.25299331957E+03  0.99254767282E+03  0.97757663098E+03  0.14159218418E+04  0.46999998093E+01 0.  1.
       -5    1    3    3    0  502 -0.25299331957E+03 -0.99254767282E+03  0.87834494038E+02  0.10280532530E+04  0.46999998093E+01 0. -1.
</event>
<event>
 5   0  0.2532239E-06  0.2199052E+04  0.7818609E-02  0.8518823E-01
       -2   -1    0    0    0  501  0.00000000000E+00  0.00000000000E+00  0.11830669441E+04  0.11830669441E+04  0.25500000920E-02 0. -1.
        2   -1    0    0  501    0  0.00000000000E+00  0.00000000000E+00 -0.10218843044E+04  0.10218843044E+04  0.25500000920E-02 0.  1.
    10030    2    1    2    0    0  0.00000000000E+00  0.00000000000E+00  0.16118263970E+03  0.22049512485E+04  0.21990521060E+04 0.  0.
        3    1    3    3  502    0  0.16532213209E+03  0.32564906974E+03 -0.95929194699E+03  0.10264598257E+04  0.10100000352E+00 0.  1.
       -3    1    3    3    0  502 -0.16532213209E+03 -0.32564906974E+03  0.11204745867E+04  0.11784914228E+04  0.10100000352E+00 0. -1.
</event>
<event>
 5   0  0.2524749E-06  0.2200152E+04  0.7818609E-02  0.8518365E-01
        2   -1    0    0  501    0  0.00000000000E+00  0.00000000000E+00  0.18001678891E+04  0.18001678891E+04  0.25500000920E-02 0.  1.
       -2   -1    0    0    0  501  0.00000000000E+00  0.00000000000E+00 -0.67225264894E+03  0.67225264895E+03  0.25500000920E-02 0. -1.
    10030    2    1    2    0    0  0.00000000000E+00  0.00000000000E+00  0.11279152402E+04  0.24724205381E+04  0.22001523874E+04 0.  0.
        4    1    3    3  502    0  0.63956104191E+03  0.11415762258E+03  0.15615636550E+04  0.16913169279E+04  0.12699999809E+01 0.  1.
       -4    1    3    3    0  502 -0.63956104191E+03 -0.11415762258E+03 -0.43364841486E+03  0.78110361012E+03  0.12699999809E+01 0. -1.
</event>
<event>
 5   0  0.2606154E-06  0.2204653E+04  0.7818609E-02  0.8516494E-01
        2   -1    0    0  501    0  0.00000000000E+00  0.00000000000E+00  0.15133652627E+04  0.15133652627E+04  0.25500000920E-02 0. -1.
       -2   -1    0    0    0  501  0.00000000000E+00  0.00000000000E+00 -0.80292817796E+03  0.80292817796E+03  0.25500000920E-02 0.  1.
    10030    2    1    2    0    0  0.00000000000E+00  0.00000000000E+00  0.71043708472E+03  0.23162934407E+04  0.22046529096E+04 0.  0.
        2    1    3    3  502    0 -0.10611138381E+03 -0.99510195357E+03 -0.13039485642E+03  0.10092028252E+04  0.25500000920E-02 0.  1.
       -2    1    3    3    0  502  0.10611138381E+03  0.99510195357E+03  0.84083194114E+03  0.13070906155E+04  0.25500000920E-02 0. -1.
</event>
<event>
 5   0  0.2606154E-06  0.2200133E+04  0.7818609E-02  0.8518373E-01
       -2   -1    0    0    0  501  0.00000000000E+00  0.00000000000E+00  0.10807497300E+04  0.10807497300E+04  0.25500000920E-02 0.  1.
        2   -1    0    0  501    0  0.00000000000E+00  0.00000000000E+00 -0.11197287830E+04  0.11197287830E+04  0.25500000920E-02 0. -1.
    10030    2    1    2    0    0  0.00000000000E+00  0.00000000000E+00 -0.38979052945E+02  0.22004785130E+04  0.22001332505E+04 0.  0.
        2    1    3    3  502    0  0.53089865303E+03 -0.26442971389E+03  0.90713852855E+03  0.10838250612E+04  0.25500000920E-02 0.  1.
       -2    1    3    3    0  502 -0.53089865303E+03  0.26442971389E+03 -0.94611758150E+03  0.11166534518E+04  0.25500000920E-02 0. -1.
</event>
<event>
 5   0  0.2606154E-06  0.2190565E+04  0.7818609E-02  0.8522365E-01
        2   -1    0    0  501    0  0.00000000000E+00  0.00000000000E+00  0.22289640368E+04  0.22289640368E+04  0.25500000920E-02 0. -1.
       -2   -1    0    0    0  501  0.00000000000E+00  0.00000000000E+00 -0.53820710412E+03  0.53820710412E+03  0.25500000920E-02 0.  1.
    10030    2    1    2    0    0  0.00000000000E+00  0.00000000000E+00  0.16907569327E+04  0.27671711409E+04  0.21905654790E+04 0.  0.
        2    1    3    3  502    0  0.57442675687E+03 -0.93256428777E+03  0.84357883422E+03  0.13824859852E+04  0.25500000920E-02 0. -1.
       -2    1    3    3    0  502 -0.57442675687E+03  0.93256428777E+03  0.84717809846E+03  0.13846851557E+04  0.25500000920E-02 0.  1.
</event>
<event>
 5   0  0.2532239E-06  0.2199290E+04  0.7818609E-02  0.8518724E-01
        2   -1    0    0  501    0  0.00000000000E+00  0.00000000000E+00  0.98791217175E+03  0.98791217176E+03  0.25500000920E-02 0. -1.
       -2   -1    0    0    0  501  0.00000000000E+00  0.00000000000E+00 -0.12240147253E+04  0.12240147253E+04  0.25500000920E-02 0.  1.
    10030    2    1    2    0    0  0.00000000000E+00  0.00000000000E+00 -0.23610255355E+03  0.22119268971E+04  0.21992899268E+04 0.  0.
        3    1    3    3  502    0  0.55532551571E+03  0.77540531663E+03  0.43243198013E+03  0.10472044982E+04  0.10100000352E+00 0. -1.
       -3    1    3    3    0  502 -0.55532551571E+03 -0.77540531663E+03 -0.66853453367E+03  0.11647223988E+04  0.10100000352E+00 0.  1.
</event>
<event>
 5   0  0.2524749E-06  0.2199360E+04  0.7818609E-02  0.8518695E-01
       -2   -1    0    0    0  501  0.00000000000E+00  0.00000000000E+00  0.93227986057E+03  0.93227986057E+03  0.25500000920E-02 0.  1.
        2   -1    0    0  501    0  0.00000000000E+00  0.00000000000E+00 -0.12971382454E+04  0.12971382455E+04  0.25500000920E-02 0. -1.
    10030    2    1    2    0    0  0.00000000000E+00  0.00000000000E+00 -0.36485838488E+03  0.22294181060E+04  0.21993597819E+04 0.  0.
        4    1    3    3  502    0 -0.10353516538E+03 -0.11654527748E+03  0.92102151847E+03  0.93412235952E+03  0.12699999809E+01 0.  1.
       -4    1    3    3    0  502  0.10353516538E+03  0.11654527748E+03 -0.12858799033E+04  0.12952957465E+04  0.12699999809E+01 0. -1.
</event>
<event>
 5   0  0.2581058E-06  0.2200093E+04  0.7818609E-02  0.8518389E-01
       -2   -1    0    0    0  501  0.00000000000E+00  0.00000000000E+00  0.95326381134E+03  0.95326381135E+03  0.25500000920E-02 0. -1.
        2   -1    0    0  501    0  0.00000000000E+00  0.00000000000E+00 -0.12694306464E+04  0.12694306464E+04  0.25500000920E-02 0.  1.
    10030    2    1    2    0    0  0.00000000000E+00  0.00000000000E+00 -0.31616683507E+03  0.22226944578E+04  0.22000929946E+04 0.  0.
        1    1    3    3  502    0  0.29663924523E+03 -0.51594525617E+03 -0.10927404065E+04  0.12442973701E+04  0.50400001928E-02 0.  1.
       -1    1    3    3    0  502 -0.29663924523E+03  0.51594525617E+03  0.77657357147E+03  0.97839708764E+03  0.50400001928E-02 0. -1.
</event>
<event>
 5   0  0.1107101E-06  0.2198677E+04  0.7818609E-02  0.8518979E-01
        1   -1    0    0  501    0  0.00000000000E+00  0.00000000000E+00  0.10459795260E+04  0.10459795260E+04  0.50400001928E-02 0.  1.
       -1   -1    0    0    0  501  0.00000000000E+00  0.00000000000E+00 -0.11554197021E+04  0.11554197021E+04  0.50400001928E-02 0. -1.
    10030    2    1    2    0    0  0.00000000000E+00  0.00000000000E+00 -0.10944017616E+03  0.22013992281E+04  0.21986771954E+04 0.  0.
        1    1    3    3  502    0 -0.46751433679E+03 -0.50489880748E+03 -0.91313377396E+03  0.11433747199E+04  0.50400001928E-02 0. -1.
       -1    1    3    3    0  502  0.46751433679E+03  0.50489880748E+03  0.80369359780E+03  0.10580245083E+04  0.50400001928E-02 0.  1.
</event>
<event>
 5   0  0.1144271E-06  0.2199875E+04  0.7818609E-02  0.8518480E-01
        1   -1    0    0  501    0  0.00000000000E+00  0.00000000000E+00  0.95891646433E+03  0.95891646435E+03  0.50400001928E-02 0. -1.
       -1   -1    0    0    0  501  0.00000000000E+00  0.00000000000E+00 -0.12616974293E+04  0.12616974293E+04  0.50400001928E-02 0.  1.
    10030    2    1    2    0    0  0.00000000000E+00  0.00000000000E+00 -0.30278096496E+03  0.22206138937E+04  0.21998749401E+04 0.  0.
        3    1    3    3  502    0  0.82593869393E+03  0.10374358756E+03  0.57436247744E+03  0.10113504456E+04  0.10100000352E+00 0. -1.
       -3    1    3    3    0  502 -0.82593869393E+03 -0.10374358756E+03 -0.87714344241E+03  0.12092634481E+04  0.10100000352E+00 0.  1.
</event>
<event>
 5   0  0.1107101E-06  0.2199779E+04  0.7818609E-02  0.8518520E-01
        1   -1    0    0  501    0  0.00000000000E+00  0.00000000000E+00  0.96638690013E+03  0.96638690014E+03  0.50400001928E-02 0. -1.
       -1   -1    0    0    0  501  0.00000000000E+00  0.00000000000E+00 -0.12518355242E+04  0.12518355242E+04  0.50400001928E-02 0.  1.
    10030    2    1    2    0    0  0.00000000000E+00  0.00000000000E+00 -0.28544862403E+03  0.22182224243E+04  0.21997794905E+04 0.  0.
        1    1    3    3  502    0  0.11235048483E+03 -0.10918246217E+04 -0.71038098083E+02  0.10998863793E+04  0.50400001928E-02 0.  1.
       -1    1    3    3    0  502 -0.11235048483E+03  0.10918246217E+04 -0.21441052595E+03  0.11183360450E+04  0.50400001928E-02 0. -1.
</event>
<event>
 5   0  0.2524749E-06  0.2200053E+04  0.7818609E-02  0.8518406E-01
       -2   -1    0    0    0  501  0.00000000000E+00  0.00000000000E+00  0.50635949631E+03  0.50635949631E+03  0.25500000920E-02 0. -1.
        2   -1    0    0  501    0  0.00000000000E+00  0.00000000000E+00 -0.23897221398E+04  0.23897221398E+04  0.25500000920E-02 0.  1.
    10030    2    1    2    0    0  0.00000000000E+00  0.00000000000E+00 -0.18833626435E+04  0.28960816362E+04  0.22000531803E+04 0.  0.
        4    1    3    3  502    0 -0.79552997124E+03 -0.68964922788E+03 -0.13612147135E+04  0.17208692867E+04  0.12699999809E+01 0.  1.
       -4    1    3    3    0  502  0.79552997124E+03  0.68964922788E+03 -0.52214793003E+03  0.11752123495E+04  0.12699999809E+01 0. -1.
</event>
<event>
 5   0  0.2606154E-06  0.2201711E+04  0.7818609E-02  0.8517716E-01
        2   -1    0    0  501    0  0.00000000000E+00  0.00000000000E+00  0.10089040513E+04  0.10089040513E+04  0.25500000920E-02 0. -1.
       -2   -1    0    0    0  501  0.00000000000E+00  0.00000000000E+00 -0.12011875205E+04  0.12011875205E+04  0.25500000920E-02 0.  1.
    10030    2    1    2    0    0  0.00000000000E+00  0.00000000000E+00 -0.19228346915E+03  0.22100915718E+04  0.22017111126E+04 0.  0.
        2    1    3    3  502    0  0.69393104329E+02 -0.10163976323E+04 -0.51486665479E+03  0.11414758964E+04  0.25500000920E-02 0.  1.
       -2    1    3    3    0  502 -0.69393104329E+02  0.10163976323E+04  0.32258318564E+03  0.10686156753E+04  0.25500000920E-02 0. -1.
</event>
<event>
 5   0  0.2606154E-06  0.2200189E+04  0.7818609E-02  0.8518349E-01
       -2   -1    0    0    0  501  0.00000000000E+00  0.00000000000E+00  0.48293416571E+03  0.48293416571E+03  0.25500000920E-02 0. -1.
        2   -1    0    0  501    0  0.00000000000E+00  0.00000000000E+00 -0.25059483093E+04  0.25059483093E+04  0.25500000920E-02 0.  1.
    10030    2    1    2    0    0  0.00000000000E+00  0.00000000000E+00 -0.20230141436E+04  0.29888824751E+04  0.22001891338E+04 0.  0.
        2    1    3    3  502    0  0.71836566244E+03  0.73487167129E+03 -0.15448196004E+04  0.18554118670E+04  0.25500000920E-02 0. -1.
       -2    1    3    3    0  502 -0.71836566244E+03 -0.73487167129E+03 -0.47819454323E+03  0.11334706081E+04  0.25500000920E-02 0.  1.
</event>
<event>
 5   0  0.2581058E-06  0.2199010E+04  0.7818609E-02  0.8518840E-01
        2   -1    0    0  501    0  0.00000000000E+00  0.00000000000E+00  0.20375715213E+04  0.20375715213E+04  0.25500000920E-02 0. -1.
       -2   -1    0    0    0  501  0.00000000000E+00  0.00000000000E+00 -0.59330991844E+03  0.59330991844E+03  0.25500000920E-02 0.  1.
    10030    2    1    2    0    0  0.00000000000E+00  0.00000000000E+00  0.14442616028E+04  0.26308814397E+04  0.21990101347E+04 0.  0.
        1    1    3    3  502    0 -0.98544965580E+03  0.10397189779E+03  0.15212718276E+03  0.10025287325E+04  0.50400001928E-02 0.  1.
       -1    1    3    3    0  502  0.98544965580E+03 -0.10397189779E+03  0.12921344201E+04  0.16283527072E+04  0.50400001928E-02 0. -1.
</event>
<event>
 5   0  0.2556869E-06  0.2191588E+04  0.7818609E-02  0.8521938E-01
       -2   -1    0    0    0  501  0.00000000000E+00  0.00000000000E+00  0.87025704396E+03  0.87025704396E+03  0.25500000920E-02 0.  1.
        2   -1    0    0  501    0  0.00000000000E+00  0.00000000000E+00 -0.13797809536E+04  0.13797809536E+04  0.25500000920E-02 0. -1.
    10030    2    1    2    0    0  0.00000000000E+00  0.00000000000E+00 -0.50952390961E+03  0.22500379975E+04  0.21915876382E+04 0.  0.
        5    1    3    3  502    0  0.71099866706E+03  0.73051576071E+03 -0.66743952588E+03  0.12184703492E+04  0.46999998093E+01 0. -1.
       -5    1    3    3    0  502 -0.71099866706E+03 -0.73051576071E+03  0.15791561627E+03  0.10315676483E+04  0.46999998093E+01 0.  1.
</event>
<event>
 5   0  0.1082209E-06  0.2200336E+04  0.7818609E-02  0.8518288E-01
       -1   -1    0    0    0  501  0.00000000000E+00  0.00000000000E+00  0.12124295707E+04  0.12124295707E+04  0.50400001928E-02 0. -1.
        1   -1    0    0  501    0  0.00000000000E+00  0.00000000000E+00 -0.99830099164E+03  0.99830099165E+03  0.50400001928E-02 0.  1.
    10030    2    1    2    0    0  0.00000000000E+00  0.00000000000E+00  0.21412857901E+03  0.22107305623E+04  0.22003360132E+04 0.  0.
        2    1    3    3  502    0  0.60223692672E+03 -0.11110802454E+03 -0.81122016906E+03  0.10164214046E+04  0.25500000920E-02 0.  1.
       -2    1    3    3    0  502 -0.60223692672E+03  0.11110802454E+03  0.10253487481E+04  0.11943091577E+04  0.25500000920E-02 0. -1.
</event>
<event>
 5   0  0.1144271E-06  0.2201913E+04  0.7818609E-02  0.8517632E-01
       -1   -1    0    0    0  501  0.00000000000E+00  0.00000000000E+00  0.12513154497E+04  0.12513154497E+04  0.50400001928E-02 0.  1.
        1   -1    0    0  501    0  0.00000000000E+00  0.00000000000E+00 -0.96866456253E+03  0.96866456254E+03  0.50400001928E-02 0. -1.
    10030    2    1    2    0    0  0.00000000000E+00  0.00000000000E+00  0.28265088718E+03  0.22199800123E+04  0.22019127437E+04 0.  0.
        3    1    3    3  502    0  0.73592813829E+03 -0.23483828221E+03 -0.64956366444E+03  0.10092929247E+04  0.10100000352E+00 0. -1.
       -3    1    3    3    0  502 -0.73592813829E+03  0.23483828221E+03  0.93221455161E+03  0.12106870876E+04  0.10100000352E+00 0.  1.
</event>
<event>
 5   0  0.1107101E-06  0.2200880E+04  0.7818609E-02  0.8518062E-01
       -1   -1    0    0    0  501  0.00000000000E+00  0.00000000000E+00  0.93766945532E+03  0.93766945533E+03  0.50400001928E-02 0. -1.
        1   -1    0    0  501    0  0.00000000000E+00  0.00000000000E+00 -0.12914655666E+04  0.12914655666E+04  0.50400001928E-02 0.  1.
    10030    2    1    2    0    0  0.00000000000E+00  0.00000000000E+00 -0.35379611126E+03  0.22291350219E+04  0.22008796554E+04 0.  0.
        1    1    3    3  502    0 -0.52431605557E+03  0.88353778194E+03 -0.57619463883E+03  0.11779416794E+04  0.50400001928E-02 0.  1.
       -1    1    3    3    0  502  0.52431605557E+03 -0.88353778194E+03  0.22239852757E+03  0.10511933425E+04  0.50400001928E-02 0. -1.
</event>
<event>
 5   0  0.1082209E-06  0.2199761E+04  0.7818609E-02  0.8518527E-01
        1   -1    0    0  501    0  0.00000000000E+00  0.00000000000E+00  0.71962973967E+03  0.71962973969E+03  0.50400001928E-02 0. -1.
       -1   -1    0    0    0  501  0.00000000000E+00  0.00000000000E+00 -0.16810556282E+04  0.16810556282E+04  0.50400001928E-02 0.  1.
    10030    2    1    2    0    0  0.00000000000E+00  0.00000000000E+00 -0.96142588854E+03  0.24006853679E+04  0.21997614635E+04 0.  0.
        2    1    3    3  502    0  0.86475904503E+03 -0.46191276842E+03  0.63389314203E+02  0.98244074466E+03  0.25500000920E-02 0. -1.
       -2    1    3    3    0  502 -0.86475904503E+03  0.46191276842E+03 -0.10248152027E+04  0.14182446232E+04  0.25500000920E-02 0.  1.
</event>
<event>
 5   0  0.2532239E-06  0.2200233E+04  0.7818609E-02  0.8518331E-01
        2   -1    0    0  501    0  0.00000000000E+00  0.00000000000E+00  0.12010729138E+04  0.12010729138E+04  0.25500000920E-02 0. -1.
       -2   -1    0    0    0  501  0.00000000000E+00  0.00000000000E+00 -0.10076461632E+04  0.10076461632E+04  0.25500000920E-02 0.  1.
    10030    2    1    2    0    0  0.00000000000E+00  0.00000000000E+00  0.19342675055E+03  0.22087190770E+04  0.22002331816E+04 0.  0.
        3    1    3    3  502    0 -0.89265025729E+03 -0.13931608595E+03  0.72684690058E+03  0.11595429620E+04  0.10100000352E+00 0. -1.
       -3    1    3    3    0  502  0.89265025729E+03  0.13931608595E+03 -0.53342015003E+03  0.10491761150E+04  0.10100000352E+00 0.  1.
</event>
<event>
 5   0  0.1082209E-06  0.2200519E+04  0.7818609E-02  0.8518212E-01
       -1   -1    0    0    0  501  0.00000000000E+00  0.00000000000E+00  0.70355450533E+03  0.70355450535E+03  0.50400001928E-02 0. -1.
        1   -1    0    0  501    0  0.00000000000E+00  0.00000000000E+00 -0.17206504250E+04  0.17206504250E+04  0.50400001928E-02 0.  1.
    10030    2    1    2    0    0  0.00000000000E+00  0.00000000000E+00 -0.10170959197E+04  0.24242049304E+04  0.22005193557E+04 0.  0.
        2    1    3    3  502    0 -0.25416533919E+03 -0.49628834124E+02  0.66950225066E+03  0.71784142014E+03  0.25500000920E-02 0. -1.
       -2    1    3    3    0  502  0.25416533919E+03  0.49628834124E+02 -0.16865981704E+04  0.17063635103E+04  0.25500000920E-02 0.  1.
</event>
<event>
 5   0  0.2556869E-06  0.2199955E+04  0.7818609E-02  0.8518447E-01
       -2   -1    0    0    0  501  0.00000000000E+00  0.00000000000E+00  0.14762753787E+04  0.14762753787E+04  0.25500000920E-02 0.  1.
        2   -1    0    0  501    0  0.00000000000E+00  0.00000000000E+00 -0.81959704631E+03  0.81959704631E+03  0.25500000920E-02 0. -1.
    10030    2    1    2    0    0  0.00000000000E+00  0.00000000000E+00  0.65667833243E+03  0.22958724251E+04  0.21999553995E+04 0.  0.
        5    1    3    3  502    0  0.34747386064E+03 -0.79100865506E+03 -0.38214909266E+03  0.94471836821E+03  0.46999998093E+01 0. -1.
       -5    1    3    3    0  502 -0.34747386064E+03  0.79100865506E+03  0.10388274251E+04  0.13511540568E+04  0.46999998093E+01 0.  1.
</event>
<event>
 5   0  0.2581058E-06  0.2200376E+04  0.7818609E-02  0.8518272E-01
        2   -1    0    0  501    0  0.00000000000E+00  0.00000000000E+00  0.15389884764E+04  0.15389884764E+04  0.25500000920E-02 0.  1.
       -2   -1    0    0    0  501  0.00000000000E+00  0.00000000000E+00 -0.78649918588E+03  0.78649918589E+03  0.25500000920E-02 0. -1.
    10030    2    1    2    0    0  0.00000000000E+00  0.00000000000E+00  0.75248929052E+03  0.23254876623E+04  0.22003755896E+04 0.  0.
        1    1    3    3  502    0  0.40879196821E+03 -0.97116965938E+03  0.71067311368E+03  0.12709593444E+04  0.50400001928E-02 0.  1.
       -1    1    3    3    0  502 -0.40879196821E+03  0.97116965938E+03  0.41816176835E+02  0.10545283179E+04  0.50400001928E-02 0. -1.
</event>
<event>
 5   0  0.1137869E-06  0.2200391E+04  0.7818609E-02  0.8518265E-01
       -1   -1    0    0    0  501  0.00000000000E+00  0.00000000000E+00  0.53467888000E+03  0.53467888003E+03  0.50400001928E-02 0. -1.
        1   -1    0    0  501    0  0.00000000000E+00  0.00000000000E+00 -0.22638448821E+04  0.22638448821E+04  0.50400001928E-02 0.  1.
    10030    2    1    2    0    0  0.00000000000E+00  0.00000000000E+00 -0.17291660021E+04  0.27985237621E+04  0.22003909163E+04 0.  0.
        5    1    3    3  502    0  0.38796547741E+00  0.97999904492E+03 -0.22865556048E+03  0.10063318210E+04  0.46999998093E+01 0.  1.
       -5    1    3    3    0  502 -0.38796547741E+00 -0.97999904492E+03 -0.15005104416E+04  0.17921919411E+04  0.46999998093E+01 0. -1.
</event>
<event>
 5   0  0.1144271E-06  0.2200542E+04  0.7818609E-02  0.8518203E-01
        1   -1    0    0  501    0  0.00000000000E+00  0.00000000000E+00  0.22750607329E+04  0.22750607329E+04  0.50400001928E-02 0.  1.
       -1   -1    0    0    0  501  0.00000000000E+00  0.00000000000E+00 -0.53211578388E+03  0.53211578390E+03  0.50400001928E-02 0. -1.
    10030    2    1    2    0    0  0.00000000000E+00  0.00000000000E+00  0.17429449491E+04  0.28071765168E+04  0.22005415018E+04 0.  0.
        3    1    3    3  502    0  0.39496035965E+03 -0.31723779600E+03 -0.37449224193E+03  0.62998250323E+03  0.10100000352E+00 0. -1.
       -3    1    3    3    0  502 -0.39496035965E+03  0.31723779600E+03  0.21174371910E+04  0.21771940136E+04  0.10100000352E+00 0.  1.
</event>
<event>
 5   0  0.1107101E-06  0.2199649E+04  0.7818609E-02  0.8518574E-01
        1   -1    0    0  501    0  0.00000000000E+00  0.00000000000E+00  0.16462800359E+04  0.16462800359E+04  0.50400001928E-02 0. -1.
       -1   -1    0    0    0  501  0.00000000000E+00  0.00000000000E+00 -0.73475562496E+03  0.73475562497E+03  0.50400001928E-02 0.  1.
    10030    2    1    2    0    0  0.00000000000E+00  0.00000000000E+00  0.91152441098E+03  0.23810356609E+04  0.21996486235E+04 0.  0.
        1    1    3    3  502    0  0.10419310397E+03 -0.10920655115E+04  0.54065256106E+03  0.12230161389E+04  0.50400001928E-02 0. -1.
       -1    1    3    3    0  502 -0.10419310397E+03  0.10920655115E+04  0.37087184992E+03  0.11580195220E+04  0.50400001928E-02 0.  1.
</event>
<event>
 5   0  0.1137869E-06  0.2200548E+04  0.7818609E-02  0.8518200E-01
       -1   -1    0    0    0  501  0.00000000000E+00  0.00000000000E+00  0.89990745647E+03  0.89990745649E+03  0.50400001928E-02 0.  1.
        1   -1    0    0  501    0  0.00000000000E+00  0.00000000000E+00 -0.13452528117E+04  0.13452528117E+04  0.50400001928E-02 0. -1.
    10030    2    1    2    0    0  0.00000000000E+00  0.00000000000E+00 -0.44534535521E+03  0.22451602682E+04  0.22005481464E+04 0.  0.
        5    1    3    3  502    0  0.39086264232E+03  0.86057909541E+03 -0.79730568178E+03  0.12365631504E+04  0.46999998093E+01 0. -1.
       -5    1    3    3    0  502 -0.39086264232E+03 -0.86057909541E+03  0.35196032657E+03  0.10085971178E+04  0.46999998093E+01 0.  1.
</event>
<event>
 5   0  0.2606154E-06  0.2199367E+04  0.7818609E-02  0.8518692E-01
       -2   -1    0    0    0  501  0.00000000000E+00  0.00000000000E+00  0.43534797297E+03  0.43534797298E+03  0.25500000920E-02 0.  1.
        2   -1    0    0  501    0  0.00000000000E+00  0.00000000000E+00 -0.27777867294E+04  0.27777867294E+04  0.25500000920E-02 0. -1.
    10030    2    1    2    0    0  0.00000000000E+00  0.00000000000E+00 -0.23424387565E+04  0.32131347024E+04  0.21993670199E+04 0.  0.
        2    1    3    3  502    0  0.45956163570E+03 -0.79828298299E+03 -0.20488167291E+04  0.22463531796E+04  0.25500000920E-02 0. -1.
       -2    1    3    3    0  502 -0.45956163570E+03  0.79828298299E+03 -0.29362202736E+03  0.96678152283E+03  0.25500000920E-02 0.  1.
</event>
<event>
 5   0  0.1082209E-06  0.2199751E+04  0.7818609E-02  0.8518532E-01
       -1   -1    0    0    0  501  0.00000000000E+00  0.00000000000E+00  0.92430623918E+03  0.92430623920E+03  0.50400001928E-02 0. -1.
        1   -1    0    0  501    0  0.00000000000E+00  0.00000000000E+00 -0.13087932785E+04  0.13087932785E+04  0.50400001928E-02 0.  1.
    10030    2    1    2    0    0  0.00000000000E+00  0.00000000000E+00 -0.38448703930E+03  0.22330995177E+04  0.21997507069E+04 0.  0.
        2    1    3    3  502    0  0.38985641778E+03 -0.12120519502E+03 -0.12290234102E+04  0.12950587896E+04  0.25500000920E-02 0.  1.
       -2    1    3    3    0  502 -0.38985641778E+03  0.12120519502E+03  0.84453637088E+03  0.93804072807E+03  0.25500000920E-02 0. -1.
</event>
<event>
 5   0  0.2556869E-06  0.2199838E+04  0.7818609E-02  0.8518496E-01
       -2   -1    0    0    0  501  0.00000000000E+00  0.00000000000E+00  0.11992573504E+04  0.11992573504E+04  0.25500000920E-02 0. -1.
        2   -1    0    0  501    0  0.00000000000E+00  0.00000000000E+00 -0.10088087690E+04  0.10088087690E+04  0.25500000920E-02 0.  1.
    10030    2    1    2    0    0  0.00000000000E+00  0.00000000000E+00  0.19044858142E+03  0.22080661193E+04  0.21998375679E+04 0.  0.
        5    1    3    3  502    0 -0.96524041690E+03 -0.40025999598E+03  0.43987744415E+03  0.11337598435E+04  0.46999998093E+01 0. -1.
       -5    1    3    3    0  502  0.96524041690E+03  0.40025999598E+03 -0.24942886273E+03  0.10743062759E+04  0.46999998093E+01 0.  1.
</event>
<event>
 5   0  0.1107101E-06  0.2199992E+04  0.7818609E-02  0.8518431E-01
        1   -1    0    0  501    0  0.00000000000E+00  0.00000000000E+00  0.17052927430E+04  0.17052927430E+04  0.50400001928E-02 0.  1.
       -1   -1    0    0    0  501  0.00000000000E+00  0.00000000000E+00 -0.70955071341E+03  0.70955071343E+03  0.50400001928E-02 0. -1.
    10030    2    1    2    0    0  0.00000000000E+00  0.00000000000E+00  0.99574202956E+03  0.24148434564E+04  0.21999924385E+04 0.  0.
        1    1    3    3  502    0  0.19046935313E+03 -0.17047306474E+03 -0.67649787596E+03  0.72317979541E+03  0.50400001928E-02 0. -1.
       -1    1    3    3    0  502 -0.19046935313E+03  0.17047306474E+03  0.16722399055E+04  0.16916636610E+04  0.50400001928E-02 0.  1.
</event>
<event>
 5   0  0.2532239E-06  0.2199846E+04  0.7818609E-02  0.8518492E-01
        2   -1    0    0  501    0  0.00000000000E+00  0.00000000000E+00  0.22415165345E+04  0.22415165345E+04  0.25500000920E-02 0.  1.
       -2   -1    0    0    0  501  0.00000000000E+00  0.00000000000E+00 -0.53973743396E+03  0.53973743397E+03  0.25500000920E-02 0. -1.
    10030    2    1    2    0    0  0.00000000000E+00  0.00000000000E+00  0.17017791005E+04  0.27812539684E+04  0.21998457969E+04 0.  0.
        3    1    3    3  502    0  0.61762246102E+03 -0.29732987079E+03  0.19384535530E+04  0.20560799458E+04  0.10100000352E+00 0.  1.
       -3    1    3    3    0  502 -0.61762246102E+03  0.29732987079E+03 -0.23667445247E+03  0.72517402261E+03  0.10100000352E+00 0. -1.
</event>
<event>
 5   0  0.2556869E-06  0.2200252E+04  0.7818609E-02  0.8518323E-01
        2   -1    0    0  501    0  0.00000000000E+00  0.00000000000E+00  0.19037735259E+04  0.19037735259E+04  0.25500000920E-02 0. -1.
       -2   -1    0    0    0  501  0.00000000000E+00  0.00000000000E+00 -0.63572534880E+03  0.63572534881E+03  0.25500000920E-02 0.  1.
    10030    2    1    2    0    0  0.00000000000E+00  0.00000000000E+00  0.12680481771E+04  0.25394988747E+04  0.22002518845E+04 0.  0.
        5    1    3    3  502    0 -0.27195763637E+03 -0.10607025193E+04  0.51185362744E+03  0.12087460512E+04  0.46999998093E+01 0. -1.
       -5    1    3    3    0  502  0.27195763637E+03  0.10607025193E+04  0.75619454968E+03  0.13307528235E+04  0.46999998093E+01 0.  1.
</event>
<event>
 5   0  0.2556869E-06  0.2200215E+04  0.7818609E-02  0.8518339E-01
        2   -1    0    0  501    0  0.00000000000E+00  0.00000000000E+00  0.23392748344E+04  0.23392748344E+04  0.25500000920E-02 0.  1.
       -2   -1    0    0    0  501  0.00000000000E+00  0.00000000000E+00 -0.51735549207E+03  0.51735549207E+03  0.25500000920E-02 0. -1.
    10030    2    1    2    0    0  0.00000000000E+00  0.00000000000E+00  0.18219193423E+04  0.28566303264E+04  0.22002151559E+04 0.  0.
        5    1    3    3  502    0  0.80972752267E+03 -0.27279726131E+03  0.18106058567E+04  0.20020970669E+04  0.46999998093E+01 0.  1.
       -5    1    3    3    0  502 -0.80972752267E+03  0.27279726131E+03  0.11313485564E+02  0.85453325957E+03  0.46999998093E+01 0. -1.
</event>
<event>
 5   0  0.2532239E-06  0.2192257E+04  0.7818609E-02  0.8521658E-01
       -2   -1    0    0    0  501  0.00000000000E+00  0.00000000000E+00  0.12577571238E+04  0.12577571238E+04  0.25500000920E-02 0. -1.
        2   -1    0    0  501    0  0.00000000000E+00  0.00000000000E+00 -0.95527005025E+03  0.95527005026E+03  0.25500000920E-02 0.  1.
    10030    2    1    2    0    0  0.00000000000E+00  0.00000000000E+00  0.30248707356E+03  0.22130271741E+04  0.21922570204E+04 0.  0.
        3    1    3    3  502    0 -0.99378680525E+03  0.68349586973E+02  0.61297605575E+03  0.11696253825E+04  0.10100000352E+00 0. -1.
       -3    1    3    3    0  502  0.99378680525E+03 -0.68349586973E+02 -0.31048898220E+03  0.10434017915E+04  0.10100000352E+00 0.  1.
</event>
<event>
 5   0  0.1107101E-06  0.2201696E+04  0.7818609E-02  0.8517723E-01
        1   -1    0    0  501    0  0.00000000000E+00  0.00000000000E+00  0.18568586893E+04  0.18568586893E+04  0.50400001928E-02 0.  1.
       -1   -1    0    0    0  501  0.00000000000E+00  0.00000000000E+00 -0.65264298182E+03  0.65264298184E+03  0.50400001928E-02 0. -1.
    10030    2    1    2    0    0  0.00000000000E+00  0.00000000000E+00  0.12042157074E+04  0.25095016711E+04  0.22016955210E+04 0.  0.
        1    1    3    3  502    0 -0.21959522542E+03 -0.75365636839E+03 -0.27757124830E+03  0.83262583586E+03  0.50400001928E-02 0. -1.
       -1    1    3    3    0  502  0.21959522542E+03  0.75365636839E+03  0.14817869557E+04  0.16768758353E+04  0.50400001928E-02 0.  1.
</event>
<event>
 5   0  0.1146827E-06  0.2201431E+04  0.7818609E-02  0.8517833E-01
       -1   -1    0    0    0  501  0.00000000000E+00  0.00000000000E+00  0.82891361044E+03  0.82891361045E+03  0.50400001928E-02 0. -1.
        1   -1    0    0  501    0  0.00000000000E+00  0.00000000000E+00 -0.14616411367E+04  0.14616411367E+04  0.50400001928E-02 0.  1.
    10030    2    1    2    0    0  0.00000000000E+00  0.00000000000E+00 -0.63272752628E+03  0.22905547472E+04  0.22014306547E+04 0.  0.
        4    1    3    3  502    0 -0.97890713886E+03 -0.15120726532E+03 -0.81585034986E+03  0.12832522082E+04  0.12699999809E+01 0.  1.
       -4    1    3    3    0  502  0.97890713886E+03  0.15120726532E+03  0.18312282358E+03  0.10073025390E+04  0.12699999809E+01 0. -1.
</event>
<event>
 5   0  0.1137869E-06  0.2199132E+04  0.7818609E-02  0.8518789E-01
       -1   -1    0    0    0  501  0.00000000000E+00  0.00000000000E+00  0.11983956711E+04  0.11983956711E+04  0.50400001928E-02 0. -1.
        1   -1    0    0  501    0  0.00000000000E+00  0.00000000000E+00 -0.10088868865E+04  0.10088868865E+04  0.50400001928E-02 0.  1.
    10030    2    1    2    0    0  0.00000000000E+00  0.00000000000E+00  0.18950878465E+03  0.22072825576E+04  0.21991322629E+04 0.  0.
        5    1    3    3  502    0 -0.12522929254E+03  0.96280933390E+03 -0.42323908194E+03  0.10591683528E+04  0.46999998093E+01 0.  1.
       -5    1    3    3    0  502  0.12522929254E+03 -0.96280933390E+03  0.61274786660E+03  0.11481142048E+04  0.46999998093E+01 0. -1.
</event>
<event>
 5   0  0.2606154E-06  0.2199633E+04  0.7818609E-02  0.8518581E-01
       -2   -1    0    0    0  501  0.00000000000E+00  0.00000000000E+00  0.50366462841E+03  0.50366462842E+03  0.25500000920E-02 0. -1.
        2   -1    0    0  501    0  0.00000000000E+00  0.00000000000E+00 -0.24015897915E+04  0.24015897915E+04  0.25500000920E-02 0.  1.
    10030    2    1    2    0    0  0.00000000000E+00  0.00000000000E+00 -0.18979251631E+04  0.29052544199E+04  0.21996325420E+04 0.  0.
        2    1    3    3  502    0 -0.38302540927E+03  0.92648162522E+03 -0.15462743050E+04  0.18428350150E+04  0.25500000920E-02 0.  1.
       -2    1    3    3    0  502  0.38302540927E+03 -0.92648162522E+03 -0.35165085807E+03  0.10624194049E+04  0.25500000920E-02 0. -1.
</event>
<event>
 5   0  0.1144271E-06  0.2200706E+04  0.7818609E-02  0.8518134E-01
        1   -1    0    0  501    0  0.00000000000E+00  0.00000000000E+00  0.11719381457E+04  0.11719381457E+04  0.50400001928E-02 0.  1.
       -1   -1    0    0    0  501  0.00000000000E+00  0.00000000000E+00 -0.10331406296E+04  0.10331406296E+04  0.50400001928E-02 0. -1.
    10030    2    1    2    0    0  0.00000000000E+00  0.00000000000E+00  0.13879751616E+03  0.22050787753E+04  0.22007061718E+04 0.  0.
        3    1    3    3  502    0 -0.72587763759E+03  0.19829632484E+03  0.87383708631E+03  0.11531743324E+04  0.10100000352E+00 0.  1.
       -3    1    3    3    0  502  0.72587763759E+03 -0.19829632484E+03 -0.73503957015E+03  0.10519044429E+04  0.10100000352E+00 0. -1.
</event>
<event>
 5   0  0.1146827E-06  0.2199683E+04  0.7818609E-02  0.8518560E-01
       -1   -1    0    0    0  501  0.00000000000E+00  0.00000000000E+00  0.58624609069E+03  0.58624609071E+03  0.50400001928E-02 0. -1.
        1   -1    0    0  501    0  0.00000000000E+00  0.00000000000E+00 -0.20633847831E+04  0.20633847831E+04  0.50400001928E-02 0.  1.
    10030    2    1    2    0    0  0.00000000000E+00  0.00000000000E+00 -0.14771386924E+04  0.26496308738E+04  0.21996829433E+04 0.  0.
        4    1    3    3  502    0  0.38282586058E+03 -0.41788650597E+03  0.39682158396E+03  0.69184807133E+03  0.12699999809E+01 0. -1.
       -4    1    3    3    0  502 -0.38282586058E+03  0.41788650597E+03 -0.18739602764E+04  0.19577828025E+04  0.12699999809E+01 0.  1.
</event>
<event>
 5   0  0.2524749E-06  0.2202377E+04  0.7818609E-02  0.8517440E-01
        2   -1    0    0  501    0  0.00000000000E+00  0.00000000000E+00  0.24031998306E+04  0.24031998306E+04  0.25500000920E-02 0.  1.
       -2   -1    0    0    0  501  0.00000000000E+00  0.00000000000E+00 -0.50458380072E+03  0.50458380073E+03  0.25500000920E-02 0. -1.
    10030    2    1    2    0    0  0.00000000000E+00  0.00000000000E+00  0.18986160299E+04  0.29077836313E+04  0.22023766294E+04 0.  0.
        4    1    3    3  502    0  0.87741646381E+03  0.21015672723E+03  0.11575557114E+03  0.90962985115E+03  0.12699999809E+01 0. -1.
       -4    1    3    3    0  502 -0.87741646381E+03 -0.21015672723E+03  0.17828604587E+04  0.19981537801E+04  0.12699999809E+01 0.  1.
</event>
<event>
 5   0  0.1146827E-06  0.2201969E+04  0.7818609E-02  0.8517609E-01
       -1   -1    0    0    0  501  0.00000000000E+00  0.00000000000E+00  0.49823557785E+03  0.49823557788E+03  0.50400001928E-02 0.  1.
        1   -1    0    0  501    0  0.00000000000E+00  0.00000000000E+00 -0.24329201420E+04  0.24329201420E+04  0.50400001928E-02 0. -1.
    10030    2    1    2    0    0  0.00000000000E+00  0.00000000000E+00 -0.19346845641E+04  0.29311557198E+04  0.22019694574E+04 0.  0.
        4    1    3    3  502    0  0.88898172133E+03 -0.36825719050E+03 -0.16795569160E+04  0.19356691107E+04  0.12699999809E+01 0.  1.
       -4    1    3    3    0  502 -0.88898172133E+03  0.36825719050E+03 -0.25512764811E+03  0.99548660912E+03  0.12699999809E+01 0. -1.
</event>
<event>
 5   0  0.1146827E-06  0.2199197E+04  0.7818609E-02  0.8518763E-01
        1   -1    0    0  501    0  0.00000000000E+00  0.00000000000E+00  0.15225545831E+04  0.15225545831E+04  0.50400001928E-02 0. -1.
       -1   -1    0    0    0  501  0.00000000000E+00  0.00000000000E+00 -0.79413677319E+03  0.79413677321E+03  0.50400001928E-02 0.  1.
    10030    2    1    2    0    0  0.00000000000E+00  0.00000000000E+00  0.72841780995E+03  0.23166913564E+04  0.21991967476E+04 0.  0.
        4    1    3    3  502    0  0.33058992214E+03  0.24170671751E+02 -0.74025254893E+03  0.81107913738E+03  0.12699999809E+01 0.  1.
       -4    1    3    3    0  502 -0.33058992214E+03 -0.24170671751E+02  0.14686703589E+04  0.15056122190E+04  0.12699999809E+01 0. -1.
</event>
<event>
 5   0  0.1107101E-06  0.2200476E+04  0.7818609E-02  0.8518230E-01
        1   -1    0    0  501    0  0.00000000000E+00  0.00000000000E+00  0.18399237241E+04  0.18399237241E+04  0.50400001928E-02 0.  1.
       -1   -1    0    0    0  501  0.00000000000E+00  0.00000000000E+00 -0.65792060675E+03  0.65792060677E+03  0.50400001928E-02 0. -1.
    10030    2    1    2    0    0  0.00000000000E+00  0.00000000000E+00  0.11820031173E+04  0.24978443309E+04  0.22004760694E+04 0.  0.
        1    1    3    3  502    0 -0.15316721480E+03  0.24118058616E+03 -0.61507696123E+03  0.67819461742E+03  0.50400001928E-02 0. -1.
       -1    1    3    3    0  502  0.15316721480E+03 -0.24118058616E+03  0.17970800786E+04  0.18196497134E+04  0.50400001928E-02 0.  1.
</event>
<event>
 5   0  0.2581058E-06  0.2199478E+04  0.7818609E-02  0.8518645E-01
        2   -1    0    0  501    0  0.00000000000E+00  0.00000000000E+00  0.17111458330E+04  0.17111458331E+04  0.25500000920E-02 0.  1.
       -2   -1    0    0    0  501  0.00000000000E+00  0.00000000000E+00 -0.70679329463E+03  0.70679329463E+03  0.25500000920E-02 0. -1.
    10030    2    1    2    0    0  0.00000000000E+00  0.00000000000E+00  0.10043525384E+04  0.24179391277E+04  0.21994784845E+04 0.  0.
        1    1    3    3  502    0 -0.10328151604E+04 -0.31233967458E+03  0.26855204697E+03  0.11119277988E+04  0.50400001928E-02 0. -1.
       -1    1    3    3    0  502  0.10328151604E+04  0.31233967458E+03  0.73580049145E+03  0.13060113289E+04  0.50400001928E-02 0.  1.
</event>
<event>
 5   0  0.1144271E-06  0.2199916E+04  0.7818609E-02  0.8518463E-01
       -1   -1    0    0    0  501  0.00000000000E+00  0.00000000000E+00  0.91355056128E+03  0.91355056130E+03  0.50400001928E-02 0.  1.
        1   -1    0    0  501    0  0.00000000000E+00  0.00000000000E+00 -0.13244017236E+04  0.13244017237E+04  0.50400001928E-02 0. -1.
    10030    2    1    2    0    0  0.00000000000E+00  0.00000000000E+00 -0.41085116236E+03  0.22379522850E+04  0.21999163057E+04 0.  0.
        3    1    3    3  502    0  0.63877441271E+03  0.66126196770E+03 -0.81969321729E+03  0.12317455585E+04  0.10100000352E+00 0. -1.
       -3    1    3    3    0  502 -0.63877441271E+03 -0.66126196770E+03  0.40884205493E+03  0.10062067264E+04  0.10100000352E+00 0.  1.
</event>
<event>
 5   0  0.2606154E-06  0.2207524E+04  0.7818609E-02  0.8515303E-01
       -2   -1    0    0    0  501  0.00000000000E+00  0.00000000000E+00  0.48374382930E+03  0.48374382931E+03  0.25500000920E-02 0. -1.
        2   -1    0    0  501    0  0.00000000000E+00  0.00000000000E+00 -0.25184629345E+04  0.25184629345E+04  0.25500000920E-02 0.  1.
    10030    2    1    2    0    0  0.00000000000E+00  0.00000000000E+00 -0.20347191052E+04  0.30022067638E+04  0.22075243182E+04 0.  0.
        2    1    3    3  502    0 -0.55549952916E+03 -0.79029000468E+03 -0.29112988276E+03  0.10089076405E+04  0.25500000920E-02 0. -1.
       -2    1    3    3    0  502  0.55549952916E+03  0.79029000468E+03 -0.17435892224E+04  0.19932991233E+04  0.25500000920E-02 0.  1.
</event>
<event>
 5   0  0.2532239E-06  0.2199105E+04  0.7818609E-02  0.8518801E-01
        2   -1    0    0  501    0  0.00000000000E+00  0.00000000000E+00  0.11128859065E+04  0.11128859065E+04  0.25500000920E-02 0. -1.
       -2   -1    0    0    0  501  0.00000000000E+00  0.00000000000E+00 -0.10863791592E+04  0.10863791592E+04  0.25500000920E-02 0.  1.
    10030    2    1    2    0    0  0.00000000000E+00  0.00000000000E+00  0.26506747292E+02  0.21992650656E+04  0.21991053229E+04 0.  0.
        3    1    3    3  502    0  0.10700965850E+04 -0.20599960723E+03  0.15980242870E+03  0.11013988223E+04  0.10100000352E+00 0.  1.
       -3    1    3    3    0  502 -0.10700965850E+04  0.20599960723E+03 -0.13329568141E+03  0.10978662433E+04  0.10100000352E+00 0. -1.
</event>
<event>
 5   0  0.8905000E-07  0.2200293E+04  0.7818609E-02  0.8518306E-01
        3   -1    0    0  501    0  0.00000000000E+00  0.00000000000E+00  0.22630091159E+04  0.22630091181E+04  0.10100000352E+00 0. -1.
       -3   -1    0    0    0  501  0.00000000000E+00  0.00000000000E+00 -0.53482872774E+03  0.53482873728E+03  0.10100000352E+00 0.  1.
    10030    2    1    2    0    0  0.00000000000E+00  0.00000000000E+00  0.17281803882E+04  0.27978378554E+04  0.22002929830E+04 0.  0.
        5    1    3    3  502    0  0.66374299846E+03  0.62246715099E+03  0.77890503704E+02  0.91329575858E+03  0.46999998093E+01 0.  1.
       -5    1    3    3    0  502 -0.66374299846E+03 -0.62246715099E+03  0.16502898845E+04  0.18845420968E+04  0.46999998093E+01 0. -1.
</event>
<event>
 5   0  0.1137869E-06  0.2200254E+04  0.7818609E-02  0.8518322E-01
       -1   -1    0    0    0  501  0.00000000000E+00  0.00000000000E+00  0.83351895048E+03  0.83351895050E+03  0.50400001928E-02 0. -1.
        1   -1    0    0  501    0  0.00000000000E+00  0.00000000000E+00 -0.14520118033E+04  0.14520118033E+04  0.50400001928E-02 0.  1.
    10030    2    1    2    0    0  0.00000000000E+00  0.00000000000E+00 -0.61849285284E+03  0.22855307538E+04  0.22002539439E+04 0.  0.
        5    1    3    3  502    0  0.10102153414E+04  0.35949006492E+03 -0.56472406944E+03  0.12119007828E+04  0.46999998093E+01 0.  1.
       -5    1    3    3    0  502 -0.10102153414E+04 -0.35949006492E+03 -0.53768783407E+02  0.10736299711E+04  0.46999998093E+01 0. -1.
</event>
<event>
 5   0  0.2524749E-06  0.2200709E+04  0.7818609E-02  0.8518133E-01
       -2   -1    0    0    0  501  0.00000000000E+00  0.00000000000E+00  0.16271854024E+04  0.16271854024E+04  0.25500000920E-02 0. -1.
        2   -1    0    0  501    0  0.00000000000E+00  0.00000000000E+00 -0.74409491549E+03  0.74409491550E+03  0.25500000920E-02 0.  1.
    10030    2    1    2    0    0  0.00000000000E+00  0.00000000000E+00  0.88309048694E+03  0.23712803179E+04  0.22007093261E+04 0.  0.
        4    1    3    3  502    0  0.52655840946E+03  0.79510917912E+03 -0.14992323206E+03  0.96537088919E+03  0.12699999809E+01 0.  1.
       -4    1    3    3    0  502 -0.52655840946E+03 -0.79510917912E+03  0.10330137190E+04  0.14059094287E+04  0.12699999809E+01 0. -1.
</event>
<event>
 5   0  0.2524749E-06  0.2198808E+04  0.7818609E-02  0.8518924E-01
        2   -1    0    0  501    0  0.00000000000E+00  0.00000000000E+00  0.15034324406E+04  0.15034324406E+04  0.25500000920E-02 0.  1.
       -2   -1    0    0    0  501  0.00000000000E+00  0.00000000000E+00 -0.80395330232E+03  0.80395330232E+03  0.25500000920E-02 0. -1.
    10030    2    1    2    0    0  0.00000000000E+00  0.00000000000E+00  0.69947913825E+03  0.23073857429E+04  0.21988082912E+04 0.  0.
        4    1    3    3  502    0 -0.41956412522E+03 -0.72315711501E+03  0.10989246681E+04  0.13808067595E+04  0.12699999809E+01 0.  1.
       -4    1    3    3    0  502  0.41956412522E+03  0.72315711501E+03 -0.39944552984E+03  0.92657898334E+03  0.12699999809E+01 0. -1.
</event>
<event>
 5   0  0.2606154E-06  0.2199351E+04  0.7818609E-02  0.8518698E-01
        2   -1    0    0  501    0  0.00000000000E+00  0.00000000000E+00  0.96891965300E+03  0.96891965301E+03  0.25500000920E-02 0. -1.
       -2   -1    0    0    0  501  0.00000000000E+00  0.00000000000E+00 -0.12480772975E+04  0.12480772975E+04  0.25500000920E-02 0.  1.
    10030    2    1    2    0    0  0.00000000000E+00  0.00000000000E+00 -0.27915764454E+03  0.22169969506E+04  0.21993513790E+04 0.  0.
        2    1    3    3  502    0 -0.18415524785E+03 -0.62486107494E+03 -0.10326452332E+04  0.12209507345E+04  0.25500000920E-02 0.  1.
       -2    1    3    3    0  502  0.18415524785E+03  0.62486107494E+03  0.75348758869E+03  0.99604621609E+03  0.25500000920E-02 0. -1.
</event>
<event>
 5   0  0.1137869E-06  0.2187312E+04  0.7818609E-02  0.8523728E-01
        1   -1    0    0  501    0  0.00000000000E+00  0.00000000000E+00  0.10695462977E+04  0.10695462977E+04  0.50400001928E-02 0. -1.
       -1   -1    0    0    0  501  0.00000000000E+00  0.00000000000E+00 -0.11183087329E+04  0.11183087329E+04  0.50400001928E-02 0.  1.
    10030    2    1    2    0    0  0.00000000000E+00  0.00000000000E+00 -0.48762435244E+02  0.21878550306E+04  0.21873115599E+04 0.  0.
        5    1    3    3  502    0  0.87167921912E+03  0.54395124877E+03  0.35034936208E+03  0.10855756020E+04  0.46999998093E+01 0. -1.
       -5    1    3    3    0  502 -0.87167921912E+03 -0.54395124877E+03 -0.39911179732E+03  0.11022794287E+04  0.46999998093E+01 0.  1.
</event>
<event>
 5   0  0.2532239E-06  0.2203294E+04  0.7818609E-02  0.8517058E-01
        2   -1    0    0  501    0  0.00000000000E+00  0.00000000000E+00  0.15697093463E+04  0.15697093463E+04  0.25500000920E-02 0.  1.
       -2   -1    0    0    0  501  0.00000000000E+00  0.00000000000E+00 -0.77315362142E+03  0.77315362143E+03  0.25500000920E-02 0. -1.
    10030    2    1    2    0    0  0.00000000000E+00  0.00000000000E+00  0.79655572492E+03  0.23428629678E+04  0.22032943205E+04 0.  0.
        3    1    3    3  502    0 -0.15738826492E+03 -0.49581754613E+03 -0.63432875839E+03  0.82035302700E+03  0.10100000352E+00 0. -1.
       -3    1    3    3    0  502  0.15738826492E+03  0.49581754613E+03  0.14308844833E+04  0.15225099408E+04  0.10100000352E+00 0.  1.
</event>
<event>
 5   0  0.8905000E-07  0.2200376E+04  0.7818609E-02  0.8518272E-01
        3   -1    0    0  501    0  0.00000000000E+00  0.00000000000E+00  0.11316386593E+04  0.11316386638E+04  0.10100000352E+00 0.  1.
       -3   -1    0    0    0  501  0.00000000000E+00  0.00000000000E+00 -0.10696113258E+04  0.10696113306E+04  0.10100000352E+00 0. -1.
    10030    2    1    2    0    0  0.00000000000E+00  0.00000000000E+00  0.62027333482E+02  0.22012499943E+04  0.22003759105E+04 0.  0.
        4    1    3    3  502    0  0.60521091468E+03 -0.13950003084E+02  0.95003907412E+03  0.11265215085E+04  0.12699999809E+01 0.  1.
       -4    1    3    3    0  502 -0.60521091468E+03  0.13950003084E+02 -0.88801174064E+03  0.10747284858E+04  0.12699999809E+01 0. -1.
</event>
<event>
 5   0  0.1144271E-06  0.2201492E+04  0.7818609E-02  0.8517807E-01
       -1   -1    0    0    0  501  0.00000000000E+00  0.00000000000E+00  0.11269851683E+04  0.11269851683E+04  0.50400001928E-02 0. -1.
        1   -1    0    0  501    0  0.00000000000E+00  0.00000000000E+00 -0.10751181927E+04  0.10751181927E+04  0.50400001928E-02 0.  1.
    10030    2    1    2    0    0  0.00000000000E+00  0.00000000000E+00  0.51866975570E+02  0.22021033610E+04  0.22014924550E+04 0.  0.
        3    1    3    3  502    0  0.73690161290E+03  0.80153087164E+03 -0.13587209345E+03  0.10972406123E+04  0.10100000352E+00 0.  1.
       -3    1    3    3    0  502 -0.73690161290E+03 -0.80153087164E+03  0.18773906903E+03  0.11048627487E+04  0.10100000352E+00 0. -1.
</event>
<event>
 5   0  0.8905000E-07  0.2199274E+04  0.7818609E-02  0.8518730E-01
       -3   -1    0    0    0  501  0.00000000000E+00  0.00000000000E+00  0.41779260766E+03  0.41779261987E+03  0.10100000352E+00 0. -1.
        3   -1    0    0  501    0  0.00000000000E+00  0.00000000000E+00 -0.28942625556E+04  0.28942625574E+04  0.10100000352E+00 0.  1.
    10030    2    1    2    0    0  0.00000000000E+00  0.00000000000E+00 -0.24764699479E+04  0.33120551772E+04  0.21992739925E+04 0.  0.
        4    1    3    3  502    0  0.79385064844E+03 -0.55062758555E+03 -0.20291384447E+04  0.22473971680E+04  0.12699999809E+01 0. -1.
       -4    1    3    3    0  502 -0.79385064844E+03  0.55062758555E+03 -0.44733150326E+03  0.10646580093E+04  0.12699999809E+01 0.  1.
</event>
<event>
 5   0  0.2524749E-06  0.2200330E+04  0.7818609E-02  0.8518291E-01
       -2   -1    0    0    0  501  0.00000000000E+00  0.00000000000E+00  0.52697427318E+03  0.52697427319E+03  0.25500000920E-02 0.  1.
        2   -1    0    0  501    0  0.00000000000E+00  0.00000000000E+00 -0.22968156022E+04  0.22968156022E+04  0.25500000920E-02 0. -1.
    10030    2    1    2    0    0  0.00000000000E+00  0.00000000000E+00 -0.17698413291E+04  0.28237898754E+04  0.22003297322E+04 0.  0.
        4    1    3    3  502    0 -0.36564513544E+03 -0.18588764845E+03  0.42517045577E+03  0.59078093426E+03  0.12699999809E+01 0.  1.
       -4    1    3    3    0  502  0.36564513544E+03  0.18588764845E+03 -0.21950117848E+04  0.22330089412E+04  0.12699999809E+01 0. -1.
</event>
<event>
 5   0  0.1146827E-06  0.2201620E+04  0.7818609E-02  0.8517754E-01
       -1   -1    0    0    0  501  0.00000000000E+00  0.00000000000E+00  0.67842877569E+03  0.67842877571E+03  0.50400001928E-02 0.  1.
        1   -1    0    0  501    0  0.00000000000E+00  0.00000000000E+00 -0.17861609400E+04  0.17861609400E+04  0.50400001928E-02 0. -1.
    10030    2    1    2    0    0  0.00000000000E+00  0.00000000000E+00 -0.11077321643E+04  0.24645897157E+04  0.22016202940E+04 0.  0.
        4    1    3    3  502    0 -0.43903664377E+03 -0.27826887170E+03 -0.16401271088E+04  0.17205247122E+04  0.12699999809E+01 0. -1.
       -4    1    3    3    0  502  0.43903664377E+03  0.27826887170E+03  0.53239494450E+03  0.74406500345E+03  0.12699999809E+01 0.  1.
</event>
<event>
 5   0  0.1144271E-06  0.2200044E+04  0.7818609E-02  0.8518410E-01
       -1   -1    0    0    0  501  0.00000000000E+00  0.00000000000E+00  0.13733101414E+04  0.13733101414E+04  0.50400001928E-02 0. -1.
        1   -1    0    0  501    0  0.00000000000E+00  0.00000000000E+00 -0.88111806931E+03  0.88111806933E+03  0.50400001928E-02 0.  1.
    10030    2    1    2    0    0  0.00000000000E+00  0.00000000000E+00  0.49219207206E+03  0.22544282107E+04  0.22000439817E+04 0.  0.
        3    1    3    3  502    0  0.61861984470E+03 -0.68254356407E+03 -0.37000860081E+03  0.99270469123E+03  0.10100000352E+00 0.  1.
       -3    1    3    3    0  502 -0.61861984470E+03  0.68254356407E+03  0.86220067287E+03  0.12617235195E+04  0.10100000352E+00 0. -1.
</event>
<event>
 5   0  0.2606154E-06  0.2200132E+04  0.7818609E-02  0.8518373E-01
       -2   -1    0    0    0  501  0.00000000000E+00  0.00000000000E+00  0.69974971100E+03  0.69974971100E+03  0.25500000920E-02 0. -1.
        2   -1    0    0  501    0  0.00000000000E+00  0.00000000000E+00 -0.17293966993E+04  0.17293966993E+04  0.25500000920E-02 0.  1.
    10030    2    1    2    0    0  0.00000000000E+00  0.00000000000E+00 -0.10296469883E+04  0.24291464103E+04  0.22001316693E+04 0.  0.
        2    1    3    3  502    0 -0.10282228382E+04 -0.30272112276E+03 -0.24154680965E+03  0.10987388882E+04  0.25500000920E-02 0. -1.
       -2    1    3    3    0  502  0.10282228382E+04  0.30272112276E+03 -0.78810017862E+03  0.13304075221E+04  0.25500000920E-02 0.  1.
</event>
<event>
 5   0  0.1144271E-06  0.2199236E+04  0.7818609E-02  0.8518746E-01
        1   -1    0    0  501    0  0.00000000000E+00  0.00000000000E+00  0.18430516997E+04  0.18430516997E+04  0.50400001928E-02 0.  1.
       -1   -1    0    0    0  501  0.00000000000E+00  0.00000000000E+00 -0.65606365884E+03  0.65606365886E+03  0.50400001928E-02 0. -1.
    10030    2    1    2    0    0  0.00000000000E+00  0.00000000000E+00  0.11869880408E+04  0.24991153585E+04  0.21992355413E+04 0.  0.
        3    1    3    3  502    0  0.34376647733E+03  0.10336430972E+04  0.42279154824E+03  0.11684802723E+04  0.10100000352E+00 0.  1.
       -3    1    3    3    0  502 -0.34376647733E+03 -0.10336430972E+04  0.76419649258E+03  0.13306350862E+04  0.10100000352E+00 0. -1.
</event>
<event>
 5   0  0.2524749E-06  0.2193336E+04  0.7818609E-02  0.8521207E-01
       -2   -1    0    0    0  501  0.00000000000E+00  0.00000000000E+00  0.88018959401E+03  0.88018959401E+03  0.25500000920E-02 0. -1.
        2   -1    0    0  501    0  0.00000000000E+00  0.00000000000E+00 -0.13663883587E+04  0.13663883587E+04  0.25500000920E-02 0.  1.
    10030    2    1    2    0    0  0.00000000000E+00  0.00000000000E+00 -0.48619876467E+03  0.22465779527E+04  0.21933361025E+04 0.  0.
        4    1    3    3  502    0  0.21596749254E+03 -0.24171325540E+02  0.85791361516E+03  0.88501050547E+03  0.12699999809E+01 0. -1.
       -4    1    3    3    0  502 -0.21596749254E+03  0.24171325540E+02 -0.13441123798E+04  0.13615674472E+04  0.12699999809E+01 0.  1.
</event>
<event>
 5   0  0.2581058E-06  0.2199776E+04  0.7818609E-02  0.8518521E-01
        2   -1    0    0  501    0  0.00000000000E+00  0.00000000000E+00  0.11235385404E+04  0.11235385404E+04  0.25500000920E-02 0. -1.
       -2   -1    0    0    0  501  0.00000000000E+00  0.00000000000E+00 -0.10767355047E+04  0.10767355047E+04  0.25500000920E-02 0.  1.
    10030    2    1    2    0    0  0.00000000000E+00  0.00000000000E+00  0.46803035782E+02  0.22002740451E+04  0.21997762044E+04 0.  0.
        1    1    3    3  502    0  0.38226108994E+03 -0.69497442093E+02 -0.10058116279E+04  0.10782441589E+04  0.50400001928E-02 0.  1.
       -1    1    3    3    0  502 -0.38226108994E+03  0.69497442093E+02  0.10526146637E+04  0.11220298862E+04  0.50400001928E-02 0. -1.
</event>
<event>
 5   0  0.2532239E-06  0.2200592E+04  0.7818609E-02  0.8518182E-01
       -2   -1    0    0    0  501  0.00000000000E+00  0.00000000000E+00  0.66648257085E+03  0.66648257086E+03  0.25500000920E-02 0.  1.
        2   -1    0    0  501    0  0.00000000000E+00  0.00000000000E+00 -0.18164778031E+04  0.18164778031E+04  0.25500000920E-02 0. -1.
    10030    2    1    2    0    0  0.00000000000E+00  0.00000000000E+00 -0.11499952322E+04  0.24829603740E+04  0.22005915533E+04 0.  0.
        3    1    3    3  502    0  0.83158295904E+02 -0.99724233638E+03 -0.10911239640E+04  0.14805266275E+04  0.10100000352E+00 0. -1.
       -3    1    3    3    0  502 -0.83158295904E+02  0.99724233638E+03 -0.58871268229E+02  0.10024337465E+04  0.10100000352E+00 0.  1.
</event>
<event>
 5   0  0.2532239E-06  0.2202397E+04  0.7818609E-02  0.8517431E-01
       -2   -1    0    0    0  501  0.00000000000E+00  0.00000000000E+00  0.11258687063E+04  0.11258687063E+04  0.25500000920E-02 0. -1.
        2   -1    0    0  501    0  0.00000000000E+00  0.00000000000E+00 -0.10770689794E+04  0.10770689794E+04  0.25500000920E-02 0.  1.
    10030    2    1    2    0    0  0.00000000000E+00  0.00000000000E+00  0.48799726851E+02  0.22029376857E+04  0.22023971108E+04 0.  0.
        3    1    3    3  502    0  0.60859864253E+03  0.62889621630E+03 -0.64414693196E+03  0.10866591180E+04  0.10100000352E+00 0.  1.
       -3    1    3    3    0  502 -0.60859864253E+03 -0.62889621630E+03  0.69294665881E+03  0.11162785677E+04  0.10100000352E+00 0. -1.
</event>
<event>
 5   0  0.2556869E-06  0.2201171E+04  0.7818609E-02  0.8517941E-01
        2   -1    0    0  501    0  0.00000000000E+00  0.00000000000E+00  0.17533338056E+04  0.17533338056E+04  0.25500000920E-02 0. -1.
       -2   -1    0    0    0  501  0.00000000000E+00  0.00000000000E+00 -0.69084845032E+03  0.69084845033E+03  0.25500000920E-02 0.  1.
    10030    2    1    2    0    0  0.00000000000E+00  0.00000000000E+00  0.10624853553E+04  0.24441822560E+04  0.22011705454E+04 0.  0.
        5    1    3    3  502    0  0.77916643862E+03  0.48733327539E+03  0.12036286506E+04  0.15143771257E+04  0.46999998093E+01 0. -1.
       -5    1    3    3    0  502 -0.77916643862E+03 -0.48733327539E+03 -0.14114329531E+03  0.92980513022E+03  0.46999998093E+01 0.  1.
</event>
<event>
 5   0  0.1144271E-06  0.2200505E+04  0.7818609E-02  0.8518218E-01
        1   -1    0    0  501    0  0.00000000000E+00  0.00000000000E+00  0.63081189446E+03  0.63081189448E+03  0.50400001928E-02 0. -1.
       -1   -1    0    0    0  501  0.00000000000E+00  0.00000000000E+00 -0.19190435480E+04  0.19190435481E+04  0.50400001928E-02 0.  1.
    10030    2    1    2    0    0  0.00000000000E+00  0.00000000000E+00 -0.12882316536E+04  0.25498554425E+04  0.22005049385E+04 0.  0.
        3    1    3    3  502    0  0.71175708438E+02  0.98375764502E+03 -0.12090753114E+04  0.15603551533E+04  0.10100000352E+00 0.  1.
       -3    1    3    3    0  502 -0.71175708438E+02 -0.98375764502E+03 -0.79156342141E+02  0.98950028919E+03  0.10100000352E+00 0. -1.
</event>
<event>
 5   0  0.1146827E-06  0.2200850E+04  0.7818609E-02  0.8518074E-01
        1   -1    0    0  501    0  0.00000000000E+00  0.00000000000E+00  0.99545668415E+03  0.99545668416E+03  0.50400001928E-02 0.  1.
       -1   -1    0    0    0  501  0.00000000000E+00  0.00000000000E+00 -0.12164618084E+04  0.12164618084E+04  0.50400001928E-02 0. -1.
    10030    2    1    2    0    0  0.00000000000E+00  0.00000000000E+00 -0.22100512426E+03  0.22119184926E+04  0.22008498706E+04 0.  0.
        4    1    3    3  502    0 -0.49679868337E+03 -0.30565128875E+03 -0.10483094497E+04  0.11996607676E+04  0.12699999809E+01 0. -1.
       -4    1    3    3    0  502  0.49679868337E+03  0.30565128875E+03  0.82730432540E+03  0.10122577250E+04  0.12699999809E+01 0.  1.
</event>
<event>
 5   0  0.2524749E-06  0.2199099E+04  0.7818609E-02  0.8518803E-01
        2   -1    0    0  501    0  0.00000000000E+00  0.00000000000E+00  0.19640598010E+04  0.19640598010E+04  0.25500000920E-02 0.  1.
       -2   -1    0    0    0  501  0.00000000000E+00  0.00000000000E+00 -0.61556621638E+03  0.61556621639E+03  0.25500000920E-02 0. -1.
    10030    2    1    2    0    0  0.00000000000E+00  0.00000000000E+00  0.13484935846E+04  0.25796260173E+04  0.21990987794E+04 0.  0.
        4    1    3    3  502    0  0.90035221297E+03  0.72501460490E+02 -0.61236388707E+02  0.90534086253E+03  0.12699999809E+01 0. -1.
       -4    1    3    3    0  502 -0.90035221297E+03 -0.72501460490E+02  0.14097299733E+04  0.16742851548E+04  0.12699999809E+01 0.  1.
</event>
<event>
 5   0  0.1144271E-06  0.2211372E+04  0.7818609E-02  0.8513710E-01
       -1   -1    0    0    0  501  0.00000000000E+00  0.00000000000E+00  0.76052360002E+03  0.76052360004E+03  0.50400001928E-02 0.  1.
        1   -1    0    0  501    0  0.00000000000E+00  0.00000000000E+00 -0.16074998936E+04  0.16074998936E+04  0.50400001928E-02 0. -1.
    10030    2    1    2    0    0  0.00000000000E+00  0.00000000000E+00 -0.84697629357E+03  0.23680234936E+04  0.22113720683E+04 0.  0.
        3    1    3    3  502    0  0.41732258376E+03  0.70595292217E+03 -0.12176536731E+04  0.14680627183E+04  0.10100000352E+00 0. -1.
       -3    1    3    3    0  502 -0.41732258376E+03 -0.70595292217E+03  0.37067737949E+03  0.89996077531E+03  0.10100000352E+00 0.  1.
</event>
<event>
 5   0  0.1082209E-06  0.2198121E+04  0.7818609E-02  0.8519211E-01
        1   -1    0    0  501    0  0.00000000000E+00  0.00000000000E+00  0.77553099971E+03  0.77553099973E+03  0.50400001928E-02 0.  1.
       -1   -1    0    0    0  501  0.00000000000E+00  0.00000000000E+00 -0.15575570735E+04  0.15575570735E+04  0.50400001928E-02 0. -1.
    10030    2    1    2    0    0  0.00000000000E+00  0.00000000000E+00 -0.78202607377E+03  0.23330880732E+04  0.21981208286E+04 0.  0.
        2    1    3    3  502    0  0.30531308166E+03 -0.78450645493E+03 -0.11409869376E+04  0.14179272363E+04  0.25500000920E-02 0. -1.
       -2    1    3    3    0  502 -0.30531308166E+03  0.78450645493E+03  0.35896086383E+03  0.91516083692E+03  0.25500000920E-02 0.  1.
</event>
<event>
 5   0  0.1144271E-06  0.2206389E+04  0.7818609E-02  0.8515774E-01
        1   -1    0    0  501    0  0.00000000000E+00  0.00000000000E+00  0.93783063574E+03  0.93783063575E+03  0.50400001928E-02 0.  1.
       -1   -1    0    0    0  501  0.00000000000E+00  0.00000000000E+00 -0.12977160958E+04  0.12977160958E+04  0.50400001928E-02 0. -1.
    10030    2    1    2    0    0  0.00000000000E+00  0.00000000000E+00 -0.35988546003E+03  0.22355467315E+04  0.22063888244E+04 0.  0.
        3    1    3    3  502    0 -0.93268289998E+03  0.39724532203E+02 -0.77555685538E+03  0.12136572319E+04  0.10100000352E+00 0. -1.
       -3    1    3    3    0  502  0.93268289998E+03 -0.39724532203E+02  0.41567139535E+03  0.10218894996E+04  0.10100000352E+00 0.  1.
</event>
<event>
 5   0  0.1144271E-06  0.2200810E+04  0.7818609E-02  0.8518091E-01
        1   -1    0    0  501    0  0.00000000000E+00  0.00000000000E+00  0.18135554225E+04  0.18135554225E+04  0.50400001928E-02 0. -1.
       -1   -1    0    0    0  501  0.00000000000E+00  0.00000000000E+00 -0.66768900602E+03  0.66768900604E+03  0.50400001928E-02 0.  1.
    10030    2    1    2    0    0  0.00000000000E+00  0.00000000000E+00  0.11458664165E+04  0.24812444285E+04  0.22008098668E+04 0.  0.
        3    1    3    3  502    0  0.23180511003E+03 -0.12988942097E+03 -0.63097658325E+03  0.68464321331E+03  0.10100000352E+00 0.  1.
       -3    1    3    3    0  502 -0.23180511003E+03  0.12988942097E+03  0.17768429997E+04  0.17966012152E+04  0.10100000352E+00 0. -1.
</event>
<event>
 5   0  0.1137869E-06  0.2200366E+04  0.7818609E-02  0.8518276E-01
        1   -1    0    0  501    0  0.00000000000E+00  0.00000000000E+00  0.10816950025E+04  0.10816950025E+04  0.50400001928E-02 0.  1.
       -1   -1    0    0    0  501  0.00000000000E+00  0.00000000000E+00 -0.11189869817E+04  0.11189869817E+04  0.50400001928E-02 0. -1.
    10030    2    1    2    0    0  0.00000000000E+00  0.00000000000E+00 -0.37291979233E+02  0.22006819842E+04  0.22003659932E+04 0.  0.
        5    1    3    3  502    0 -0.78013552976E+03 -0.58414364788E+02 -0.79229237115E+03  0.11134509303E+04  0.46999998093E+01 0. -1.
       -5    1    3    3    0  502  0.78013552976E+03  0.58414364788E+02  0.75500039192E+03  0.10872310539E+04  0.46999998093E+01 0.  1.
</event>
<event>
 5   0  0.1082209E-06  0.2199305E+04  0.7818609E-02  0.8518717E-01
        1   -1    0    0  501    0  0.00000000000E+00  0.00000000000E+00  0.21476339911E+04  0.21476339911E+04  0.50400001928E-02 0. -1.
       -1   -1    0    0    0  501  0.00000000000E+00  0.00000000000E+00 -0.56305488204E+03  0.56305488207E+03  0.50400001928E-02 0.  1.
    10030    2    1    2    0    0  0.00000000000E+00  0.00000000000E+00  0.15845791091E+04  0.27106888732E+04  0.21993051662E+04 0.  0.
        2    1    3    3  502    0  0.41442076671E+03 -0.89029632564E+03  0.14021863739E+04  0.17118699561E+04  0.25500000920E-02 0. -1.
       -2    1    3    3    0  502 -0.41442076671E+03  0.89029632564E+03  0.18239273516E+03  0.99881891711E+03  0.25500000920E-02 0.  1.
</event>
<event>
 5   0  0.1082209E-06  0.2200038E+04  0.7818609E-02  0.8518412E-01
       -1   -1    0    0    0  501  0.00000000000E+00  0.00000000000E+00  0.10263419422E+04  0.10263419422E+04  0.50400001928E-02 0. -1.
        1   -1    0    0  501    0  0.00000000000E+00  0.00000000000E+00 -0.11789847406E+04  0.11789847406E+04  0.50400001928E-02 0.  1.
    10030    2    1    2    0    0  0.00000000000E+00  0.00000000000E+00 -0.15264279834E+03  0.22053266828E+04  0.22000377165E+04 0.  0.
        2    1    3    3  502    0 -0.77955659026E+03 -0.40372677270E+02  0.70059220692E+03  0.10488888744E+04  0.25500000920E-02 0. -1.
       -2    1    3    3    0  502  0.77955659026E+03  0.40372677270E+02 -0.85323500526E+03  0.11564378084E+04  0.25500000920E-02 0.  1.
</event>
<event>
 5   0  0.2556869E-06  0.2199213E+04  0.7818609E-02  0.8518756E-01
       -2   -1    0    0    0  501  0.00000000000E+00  0.00000000000E+00  0.15765339558E+04  0.15765339558E+04  0.25500000920E-02 0. -1.
        2   -1    0    0  501    0  0.00000000000E+00  0.00000000000E+00 -0.76695715820E+03  0.76695715820E+03  0.25500000920E-02 0.  1.
    10030    2    1    2    0    0  0.00000000000E+00  0.00000000000E+00  0.80957679758E+03  0.23434911140E+04  0.21992125887E+04 0.  0.
        5    1    3    3  502    0 -0.10409799914E+04  0.23794934259E+03  0.12517593654E+03  0.10751513090E+04  0.46999998093E+01 0.  1.
       -5    1    3    3    0  502  0.10409799914E+04 -0.23794934259E+03  0.68440086104E+03  0.12683398050E+04  0.46999998093E+01 0. -1.
</event>
<event>
 5   0  0.1144271E-06  0.2199062E+04  0.7818609E-02  0.8518818E-01
       -1   -1    0    0    0  501  0.00000000000E+00  0.00000000000E+00  0.45617963878E+03  0.45617963881E+03  0.50400001928E-02 0. -1.
        1   -1    0    0  501    0  0.00000000000E+00  0.00000000000E+00 -0.26502036436E+04  0.26502036437E+04  0.50400001928E-02 0.  1.
    10030    2    1    2    0    0  0.00000000000E+00  0.00000000000E+00 -0.21940240049E+04  0.31063832825E+04  0.21990624738E+04 0.  0.
        3    1    3    3  502    0  0.57306598128E+03  0.74090525353E+02 -0.24184296051E+04  0.24865027226E+04  0.10100000352E+00 0.  1.
       -3    1    3    3    0  502 -0.57306598128E+03 -0.74090525353E+02  0.22440560020E+03  0.61988055982E+03  0.10100000352E+00 0. -1.
</event>
<event>
 5   0  0.2556869E-06  0.2199877E+04  0.7818609E-02  0.8518479E-01
       -2   -1    0    0    0  501  0.00000000000E+00  0.00000000000E+00  0.14084222483E+04  0.14084222483E+04  0.25500000920E-02 0.  1.
        2   -1    0    0  501    0  0.00000000000E+00  0.00000000000E+00 -0.85902134415E+03  0.85902134416E+03  0.25500000920E-02 0. -1.
    10030    2    1    2    0    0  0.00000000000E+00  0.00000000000E+00  0.54940090416E+03  0.22674435925E+04  0.21998770628E+04 0.  0.
        5    1    3    3  502    0 -0.39799669634E+03  0.31818248110E+03 -0.73002145661E+03  0.89027797832E+03  0.46999998093E+01 0. -1.
       -5    1    3    3    0  502  0.39799669634E+03 -0.31818248110E+03  0.12794223608E+04  0.13771656142E+04  0.46999998093E+01 0.  1.
</event>
<event>
 5   0  0.1144271E-06  0.2200317E+04  0.7818609E-02  0.8518296E-01
        1   -1    0    0  501    0  0.00000000000E+00  0.00000000000E+00  0.82374505967E+03  0.82374505969E+03  0.50400001928E-02 0. -1.
       -1   -1    0    0    0  501  0.00000000000E+00  0.00000000000E+00 -0.14693247598E+04  0.14693247598E+04  0.50400001928E-02 0.  1.
    10030    2    1    2    0    0  0.00000000000E+00  0.00000000000E+00 -0.64557970015E+03  0.22930698195E+04  0.22003172608E+04 0.  0.
        3    1    3    3  502    0 -0.11224249256E+03  0.10758322363E+04 -0.11348641181E+03  0.10876086399E+04  0.10100000352E+00 0. -1.
       -3    1    3    3    0  502  0.11224249256E+03 -0.10758322363E+04 -0.53209328834E+03  0.12054611796E+04  0.10100000352E+00 0.  1.
</event>
<event>
 5   0  0.2524749E-06  0.2199848E+04  0.7818609E-02  0.8518491E-01
        2   -1    0    0  501    0  0.00000000000E+00  0.00000000000E+00  0.57135613338E+03  0.57135613339E+03  0.25500000920E-02 0.  1.
       -2   -1    0    0    0  501  0.00000000000E+00  0.00000000000E+00 -0.21174757229E+04  0.21174757229E+04  0.25500000920E-02 0. -1.
    10030    2    1    2    0    0  0.00000000000E+00  0.00000000000E+00 -0.15461195895E+04  0.26888318563E+04  0.21998479416E+04 0.  0.
        4    1    3    3  502    0  0.31190188608E+03  0.54847697168E+02 -0.20605456853E+04  0.20847400774E+04  0.12699999809E+01 0. -1.
       -4    1    3    3    0  502 -0.31190188608E+03 -0.54847697168E+02  0.51442609574E+03  0.60409177887E+03  0.12699999809E+01 0.  1.
</event>
<event>
 5   0  0.1146827E-06  0.2194077E+04  0.7818609E-02  0.8520898E-01
       -1   -1    0    0    0  501  0.00000000000E+00  0.00000000000E+00  0.10385525392E+04  0.10385525392E+04  0.50400001928E-02 0. -1.
        1   -1    0    0  501    0  0.00000000000E+00  0.00000000000E+00 -0.11588176667E+04  0.11588176667E+04  0.50400001928E-02 0.  1.
    10030    2    1    2    0    0  0.00000000000E+00  0.00000000000E+00 -0.12026512744E+03  0.21973702059E+04  0.21940765987E+04 0.  0.
        4    1    3    3  502    0  0.29516850065E+03 -0.40737488143E+03  0.91622199200E+03  0.10452478602E+04  0.12699999809E+01 0. -1.
       -4    1    3    3    0  502 -0.29516850065E+03  0.40737488143E+03 -0.10364871194E+04  0.11521223457E+04  0.12699999809E+01 0.  1.
</event>
<event>
 5   0  0.2524749E-06  0.2198455E+04  0.7818609E-02  0.8519071E-01
       -2   -1    0    0    0  501  0.00000000000E+00  0.00000000000E+00  0.83734649839E+03  0.83734649839E+03  0.25500000920E-02 0.  1.
        2   -1    0    0  501    0  0.00000000000E+00  0.00000000000E+00 -0.14430123242E+04  0.14430123242E+04  0.25500000920E-02 0. -1.
    10030    2    1    2    0    0  0.00000000000E+00  0.00000000000E+00 -0.60566582583E+03  0.22803588226E+04  0.21984552002E+04 0.  0.
        4    1    3    3  502    0  0.12543733890E+03  0.16472880675E+03  0.81693647823E+03  0.84276742232E+03  0.12699999809E+01 0.  1.
       -4    1    3    3    0  502 -0.12543733890E+03 -0.16472880675E+03 -0.14226023041E+04  0.14375914003E+04  0.12699999809E+01 0. -1.
</event>
<event>
 5   0  0.2606154E-06  0.2199461E+04  0.7818609E-02  0.8518652E-01
        2   -1    0    0  501    0  0.00000000000E+00  0.00000000000E+00  0.17040027727E+04  0.17040027727E+04  0.25500000920E-02 0. -1.
       -2   -1    0    0    0  501  0.00000000000E+00  0.00000000000E+00 -0.70974507109E+03  0.70974507109E+03  0.25500000920E-02 0.  1.
    10030    2    1    2    0    0  0.00000000000E+00  0.00000000000E+00  0.99425770157E+03  0.24137478437E+04  0.21994613604E+04 0.  0.
        2    1    3    3  502    0  0.99481218822E+03  0.46715372508E+03  0.53996613418E+03  0.12245192194E+04  0.25500000920E-02 0. -1.
       -2    1    3    3    0  502 -0.99481218822E+03 -0.46715372508E+03  0.45429156738E+03  0.11892286243E+04  0.25500000920E-02 0.  1.
</event>
<event>
 5   0  0.1107101E-06  0.2199347E+04  0.7818609E-02  0.8518700E-01
        1   -1    0    0  501    0  0.00000000000E+00  0.00000000000E+00  0.10128482503E+04  0.10128482503E+04  0.50400001928E-02 0. -1.
       -1   -1    0    0    0  501  0.00000000000E+00  0.00000000000E+00 -0.11939414449E+04  0.11939414449E+04  0.50400001928E-02 0.  1.
    10030    2    1    2    0    0  0.00000000000E+00  0.00000000000E+00 -0.18109319461E+03  0.22067896952E+04  0.21993467243E+04 0.  0.
        1    1    3    3  502    0 -0.67941497013E+03 -0.67886812107E+03  0.44681680236E+03  0.10592978251E+04  0.50400001928E-02 0. -1.
       -1    1    3    3    0  502  0.67941497013E+03  0.67886812107E+03 -0.62790999698E+03  0.11474918700E+04  0.50400001928E-02 0.  1.
</event>
<event>
 5   0  0.8905000E-07  0.2199506E+04  0.7818609E-02  0.8518634E-01
       -3   -1    0    0    0  501  0.00000000000E+00  0.00000000000E+00  0.78370678352E+03  0.78370679002E+03  0.10100000352E+00 0.  1.
        3   -1    0    0  501    0  0.00000000000E+00  0.00000000000E+00 -0.15432512798E+04  0.15432512831E+04  0.10100000352E+00 0. -1.
    10030    2    1    2    0    0  0.00000000000E+00  0.00000000000E+00 -0.75954449625E+03  0.23269580731E+04  0.21995058609E+04 0.  0.
        1    1    3    3  502    0 -0.23775198800E+03  0.51859240522E+03  0.61491764378E+03  0.83880140630E+03  0.50400001928E-02 0.  1.
       -1    1    3    3    0  502  0.23775198800E+03 -0.51859240522E+03 -0.13744621400E+04  0.14881566668E+04  0.50400001928E-02 0. -1.
</event>
<event>
 5   0  0.1107101E-06  0.2200416E+04  0.7818609E-02  0.8518255E-01
        1   -1    0    0  501    0  0.00000000000E+00  0.00000000000E+00  0.15684213793E+04  0.15684213793E+04  0.50400001928E-02 0. -1.
       -1   -1    0    0    0  501  0.00000000000E+00  0.00000000000E+00 -0.77176785713E+03  0.77176785715E+03  0.50400001928E-02 0.  1.
    10030    2    1    2    0    0  0.00000000000E+00  0.00000000000E+00  0.79665352215E+03  0.23401892364E+04  0.22004156035E+04 0.  0.
        1    1    3    3  502    0  0.10101999805E+04  0.33407412589E+03  0.69601340168E+03  0.12714339061E+04  0.50400001928E-02 0. -1.
       -1    1    3    3    0  502 -0.10101999805E+04 -0.33407412589E+03  0.10064012047E+03  0.10687553303E+04  0.50400001928E-02 0.  1.
</event>
<event>
 5   0  0.2556869E-06  0.2199800E+04  0.7818609E-02  0.8518512E-01
        2   -1    0    0  501    0  0.00000000000E+00  0.00000000000E+00  0.13808860772E+04  0.13808860772E+04  0.25500000920E-02 0.  1.
       -2   -1    0    0    0  501  0.00000000000E+00  0.00000000000E+00 -0.87608933024E+03  0.87608933025E+03  0.25500000920E-02 0. -1.
    10030    2    1    2    0    0  0.00000000000E+00  0.00000000000E+00  0.50479674699E+03  0.22569754075E+04  0.21997995896E+04 0.  0.
        5    1    3    3  502    0  0.91912694600E+03 -0.45544618147E+03  0.65961731230E+03  0.12195665852E+04  0.46999998093E+01 0.  1.
       -5    1    3    3    0  502 -0.91912694600E+03  0.45544618147E+03 -0.15482056531E+03  0.10374088223E+04  0.46999998093E+01 0. -1.
</event>
<event>
 5   0  0.2532239E-06  0.2199859E+04  0.7818609E-02  0.8518487E-01
        2   -1    0    0  501    0  0.00000000000E+00  0.00000000000E+00  0.17448924355E+04  0.17448924355E+04  0.25500000920E-02 0.  1.
       -2   -1    0    0    0  501  0.00000000000E+00  0.00000000000E+00 -0.69336347578E+03  0.69336347579E+03  0.25500000920E-02 0. -1.
    10030    2    1    2    0    0  0.00000000000E+00  0.00000000000E+00  0.10515289597E+04  0.24382559113E+04  0.21998587991E+04 0.  0.
        3    1    3    3  502    0  0.70867410306E+03  0.41791909576E+03 -0.28339771605E+03  0.87016643845E+03  0.10100000352E+00 0. -1.
       -3    1    3    3    0  502 -0.70867410306E+03 -0.41791909576E+03  0.13349266758E+04  0.15680894729E+04  0.10100000352E+00 0.  1.
</event>
<event>
 5   0  0.2556869E-06  0.2199990E+04  0.7818609E-02  0.8518432E-01
       -2   -1    0    0    0  501  0.00000000000E+00  0.00000000000E+00  0.15863680664E+04  0.15863680664E+04  0.25500000920E-02 0.  1.
        2   -1    0    0  501    0  0.00000000000E+00  0.00000000000E+00 -0.76274158073E+03  0.76274158073E+03  0.25500000920E-02 0. -1.
    10030    2    1    2    0    0  0.00000000000E+00  0.00000000000E+00  0.82362648570E+03  0.23491096472E+04  0.21999898969E+04 0.  0.
        5    1    3    3  502    0 -0.44079771007E+03  0.37038878837E+03  0.14126140152E+04  0.15254477774E+04  0.46999998093E+01 0.  1.
       -5    1    3    3    0  502  0.44079771007E+03 -0.37038878837E+03 -0.58898752949E+03  0.82366186973E+03  0.46999998093E+01 0. -1.
</event>
<event>
 5   0  0.1082209E-06  0.2197763E+04  0.7818609E-02  0.8519360E-01
        1   -1    0    0  501    0  0.00000000000E+00  0.00000000000E+00  0.11875316408E+04  0.11875316408E+04  0.50400001928E-02 0. -1.
       -1   -1    0    0    0  501  0.00000000000E+00  0.00000000000E+00 -0.10168492631E+04  0.10168492631E+04  0.50400001928E-02 0.  1.
    10030    2    1    2    0    0  0.00000000000E+00  0.00000000000E+00  0.17068237769E+03  0.22043809039E+04  0.21977631117E+04 0.  0.
        2    1    3    3  502    0  0.24028735865E+03  0.26510855898E+03  0.11274693436E+04  0.11828810944E+04  0.25500000920E-02 0. -1.
       -2    1    3    3    0  502 -0.24028735865E+03 -0.26510855898E+03 -0.95678696586E+03  0.10214998095E+04  0.25500000920E-02 0.  1.
</event>
<event>
 5   0  0.2524749E-06  0.2199991E+04  0.7818609E-02  0.8518432E-01
       -2   -1    0    0    0  501  0.00000000000E+00  0.00000000000E+00  0.15391990960E+04  0.15391990960E+04  0.25500000920E-02 0.  1.
        2   -1    0    0  501    0  0.00000000000E+00  0.00000000000E+00 -0.78611673388E+03  0.78611673388E+03  0.25500000920E-02 0. -1.
    10030    2    1    2    0    0  0.00000000000E+00  0.00000000000E+00  0.75308236208E+03  0.23253158298E+04  0.21999910601E+04 0.  0.
        4    1    3    3  502    0  0.10136722329E+04  0.11653521166E+03 -0.57814895420E+02  0.10219863142E+04  0.12699999809E+01 0. -1.
       -4    1    3    3    0  502 -0.10136722329E+04 -0.11653521166E+03  0.81089725750E+03  0.13033295157E+04  0.12699999809E+01 0.  1.
</event>
<event>
 5   0  0.1107101E-06  0.2200095E+04  0.7818609E-02  0.8518389E-01
        1   -1    0    0  501    0  0.00000000000E+00  0.00000000000E+00  0.81044108745E+03  0.81044108746E+03  0.50400001928E-02 0.  1.
       -1   -1    0    0    0  501  0.00000000000E+00  0.00000000000E+00 -0.14931427640E+04  0.14931427640E+04  0.50400001928E-02 0. -1.
    10030    2    1    2    0    0  0.00000000000E+00  0.00000000000E+00 -0.68270167658E+03  0.23035838515E+04  0.22000947665E+04 0.  0.
        1    1    3    3  502    0 -0.75418827425E+03  0.68451216764E+01  0.49710239686E+03  0.90330371509E+03  0.50400001928E-02 0.  1.
       -1    1    3    3    0  502  0.75418827425E+03 -0.68451216764E+01 -0.11798040734E+04  0.14002801364E+04  0.50400001928E-02 0. -1.
</event>
<event>
 5   0  0.2532239E-06  0.2200683E+04  0.7818609E-02  0.8518144E-01
       -2   -1    0    0    0  501  0.00000000000E+00  0.00000000000E+00  0.15159009787E+04  0.15159009787E+04  0.25500000920E-02 0.  1.
        2   -1    0    0  501    0  0.00000000000E+00  0.00000000000E+00 -0.79870100803E+03  0.79870100803E+03  0.25500000920E-02 0. -1.
    10030    2    1    2    0    0  0.00000000000E+00  0.00000000000E+00  0.71719997068E+03  0.23146019867E+04  0.22006832028E+04 0.  0.
        3    1    3    3  502    0 -0.35268820190E+03  0.34906275022E+03  0.13915372120E+04  0.14773657617E+04  0.10100000352E+00 0.  1.
       -3    1    3    3    0  502  0.35268820190E+03 -0.34906275022E+03 -0.67433724128E+03  0.83723622505E+03  0.10100000352E+00 0. -1.
</event>
<event>
 5   0  0.1107101E-06  0.2199134E+04  0.7818609E-02  0.8518789E-01
       -1   -1    0    0    0  501  0.00000000000E+00  0.00000000000E+00  0.75966865561E+03  0.75966865563E+03  0.50400001928E-02 0.  1.
        1   -1    0    0  501    0  0.00000000000E+00  0.00000000000E+00 -0.15915454808E+04  0.15915454808E+04  0.50400001928E-02 0. -1.
    10030    2    1    2    0    0  0.00000000000E+00  0.00000000000E+00 -0.83187682516E+03  0.23512141364E+04  0.21991336619E+04 0.  0.
        1    1    3    3  502    0 -0.49386414866E+03  0.30180564064E+03  0.58362620857E+03  0.82195376598E+03  0.50400001928E-02 0.  1.
       -1    1    3    3    0  502  0.49386414866E+03 -0.30180564064E+03 -0.14155030337E+04  0.15292603704E+04  0.50400001928E-02 0. -1.
</event>
<event>
 5   0  0.2556869E-06  0.2197442E+04  0.7818609E-02  0.8519493E-01
        2   -1    0    0  501    0  0.00000000000E+00  0.00000000000E+00  0.17332678959E+04  0.17332678959E+04  0.25500000920E-02 0.  1.
       -2   -1    0    0    0  501  0.00000000000E+00  0.00000000000E+00 -0.69648091454E+03  0.69648091455E+03  0.25500000920E-02 0. -1.
    10030    2    1    2    0    0  0.00000000000E+00  0.00000000000E+00  0.10367869813E+04  0.24297488104E+04  0.21974421579E+04 0.  0.
        5    1    3    3  502    0 -0.84498841253E+02  0.69892260823E+03 -0.41430541147E+03  0.81688673049E+03  0.46999998093E+01 0. -1.
       -5    1    3    3    0  502  0.84498841253E+02 -0.69892260823E+03  0.14510923928E+04  0.16128620799E+04  0.46999998093E+01 0.  1.
</event>
<event>
 5   0  0.8905000E-07  0.2200367E+04  0.7818609E-02  0.8518275E-01
        3   -1    0    0  501    0  0.00000000000E+00  0.00000000000E+00  0.98996694477E+03  0.98996694992E+03  0.10100000352E+00 0.  1.
       -3   -1    0    0    0  501  0.00000000000E+00  0.00000000000E+00 -0.12226710735E+04  0.12226710777E+04  0.10100000352E+00 0. -1.
    10030    2    1    2    0    0  0.00000000000E+00  0.00000000000E+00 -0.23270412872E+03  0.22126380276E+04  0.22003672033E+04 0.  0.
        3    1    3    3  502    0 -0.58669819448E+03  0.24892710711E+01 -0.10522317742E+04  0.12047459005E+04  0.10100000352E+00 0. -1.
       -3    1    3    3    0  502  0.58669819448E+03 -0.24892710711E+01  0.81952764550E+03  0.10078921271E+04  0.10100000352E+00 0.  1.
</event>
<event>
 5   0  0.1146827E-06  0.2199129E+04  0.7818609E-02  0.8518791E-01
        1   -1    0    0  501    0  0.00000000000E+00  0.00000000000E+00  0.12580640136E+04  0.12580640136E+04  0.50400001928E-02 0.  1.
       -1   -1    0    0    0  501  0.00000000000E+00  0.00000000000E+00 -0.96103350817E+03  0.96103350819E+03  0.50400001928E-02 0. -1.
    10030    2    1    2    0    0  0.00000000000E+00  0.00000000000E+00  0.29703050539E+03  0.22190975218E+04  0.21991286206E+04 0.  0.
        4    1    3    3  502    0  0.51997012832E+03  0.16803675498E+02  0.11260161319E+04  0.12403891486E+04  0.12699999809E+01 0.  1.
       -4    1    3    3    0  502 -0.51997012832E+03 -0.16803675498E+02 -0.82898562648E+03  0.97870837315E+03  0.12699999809E+01 0. -1.
</event>
<event>
 5   0  0.2606154E-06  0.2199973E+04  0.7818609E-02  0.8518440E-01
       -2   -1    0    0    0  501  0.00000000000E+00  0.00000000000E+00  0.12512505937E+04  0.12512505937E+04  0.25500000920E-02 0. -1.
        2   -1    0    0  501    0  0.00000000000E+00  0.00000000000E+00 -0.96700837845E+03  0.96700837845E+03  0.25500000920E-02 0.  1.
    10030    2    1    2    0    0  0.00000000000E+00  0.00000000000E+00  0.28424221521E+03  0.22182589721E+04  0.21999725522E+04 0.  0.
        2    1    3    3  502    0 -0.73022119448E+03  0.57403407226E+03  0.73628282578E+03  0.11852638983E+04  0.25500000920E-02 0. -1.
       -2    1    3    3    0  502  0.73022119448E+03 -0.57403407226E+03 -0.45204061057E+03  0.10329950739E+04  0.25500000920E-02 0.  1.
</event>
<event>
 5   0  0.2532239E-06  0.2200071E+04  0.7818609E-02  0.8518399E-01
        2   -1    0    0  501    0  0.00000000000E+00  0.00000000000E+00  0.91086862909E+03  0.91086862909E+03  0.25500000920E-02 0.  1.
       -2   -1    0    0    0  501  0.00000000000E+00  0.00000000000E+00 -0.13284875315E+04  0.13284875315E+04  0.25500000920E-02 0. -1.
    10030    2    1    2    0    0  0.00000000000E+00  0.00000000000E+00 -0.41761890245E+03  0.22393561606E+04  0.22000705594E+04 0.  0.
        3    1    3    3  502    0 -0.78689379372E+03  0.68018247352E+03  0.15567353667E+03  0.10517054246E+04  0.10100000352E+00 0.  1.
       -3    1    3    3    0  502  0.78689379372E+03 -0.68018247352E+03 -0.57329243912E+03  0.11876507360E+04  0.10100000352E+00 0. -1.
</event>
<event>
 5   0  0.1137869E-06  0.2197883E+04  0.7818609E-02  0.8519310E-01
        1   -1    0    0  501    0  0.00000000000E+00  0.00000000000E+00  0.10833342755E+04  0.10833342756E+04  0.50400001928E-02 0. -1.
       -1   -1    0    0    0  501  0.00000000000E+00  0.00000000000E+00 -0.11147738634E+04  0.11147738634E+04  0.50400001928E-02 0.  1.
    10030    2    1    2    0    0  0.00000000000E+00  0.00000000000E+00 -0.31439587883E+02  0.21981081390E+04  0.21978832870E+04 0.  0.
        5    1    3    3  502    0 -0.13917107577E+02  0.70011105461E+03  0.83130337226E+03  0.10869390790E+04  0.46999998093E+01 0. -1.
       -5    1    3    3    0  502  0.13917107577E+02 -0.70011105461E+03 -0.86274296015E+03  0.11111690600E+04  0.46999998093E+01 0.  1.
</event>
<event>
 5   0  0.8905000E-07  0.2200425E+04  0.7818609E-02  0.8518251E-01
       -4   -1    0    0    0  501  0.00000000000E+00  0.00000000000E+00  0.80366195726E+03  0.80366296073E+03  0.12699999809E+01 0. -1.
        4   -1    0    0  501    0  0.00000000000E+00  0.00000000000E+00 -0.15061871040E+04  0.15061876394E+04  0.12699999809E+01 0.  1.
    10030    2    1    2    0    0  0.00000000000E+00  0.00000000000E+00 -0.70252514670E+03  0.23098506001E+04  0.22004245529E+04 0.  0.
        5    1    3    3  502    0 -0.47200675053E+03  0.62093074301E+03 -0.11658010031E+04  0.14026615518E+04  0.46999998093E+01 0.  1.
       -5    1    3    3    0  502  0.47200675053E+03 -0.62093074301E+03  0.46327585641E+03  0.90718904827E+03  0.46999998093E+01 0. -1.
</event>
<event>
 5   0  0.2524749E-06  0.2200528E+04  0.7818609E-02  0.8518209E-01
       -2   -1    0    0    0  501  0.00000000000E+00  0.00000000000E+00  0.67660286202E+03  0.67660286202E+03  0.25500000920E-02 0.  1.
        2   -1    0    0  501    0  0.00000000000E+00  0.00000000000E+00 -0.17892036669E+04  0.17892036669E+04  0.25500000920E-02 0. -1.
    10030    2    1    2    0    0  0.00000000000E+00  0.00000000000E+00 -0.11126008049E+04  0.24658065289E+04  0.22005275020E+04 0.  0.
        4    1    3    3  502    0  0.52426428684E+03 -0.96516129176E+02 -0.16348345148E+04  0.17195504963E+04  0.12699999809E+01 0. -1.
       -4    1    3    3    0  502 -0.52426428684E+03  0.96516129176E+02  0.52223370988E+03  0.74625603266E+03  0.12699999809E+01 0.  1.
</event>
<event>
 5   0  0.2606154E-06  0.2200364E+04  0.7818609E-02  0.8518277E-01
       -2   -1    0    0    0  501  0.00000000000E+00  0.00000000000E+00  0.77154252978E+03  0.77154252978E+03  0.25500000920E-02 0. -1.
        2   -1    0    0  501    0  0.00000000000E+00  0.00000000000E+00 -0.15688052835E+04  0.15688052835E+04  0.25500000920E-02 0.  1.
    10030    2    1    2    0    0  0.00000000000E+00  0.00000000000E+00 -0.79726275372E+03  0.23403478133E+04  0.22003636037E+04 0.  0.
        2    1    3    3  502    0 -0.39624239286E+03  0.33022839804E+02 -0.14897099779E+04  0.15418606812E+04  0.25500000920E-02 0.  1.
       -2    1    3    3    0  502  0.39624239286E+03 -0.33022839804E+02  0.69244722419E+03  0.79848713211E+03  0.25500000920E-02 0. -1.
</event>
<event>
 5   0  0.1082209E-06  0.2198274E+04  0.7818609E-02  0.8519147E-01
        1   -1    0    0  501    0  0.00000000000E+00  0.00000000000E+00  0.13045366746E+04  0.13045366746E+04  0.50400001928E-02 0.  1.
       -1   -1    0    0    0  501  0.00000000000E+00  0.00000000000E+00 -0.92607714265E+03  0.92607714267E+03  0.50400001928E-02 0. -1.
    10030    2    1    2    0    0  0.00000000000E+00  0.00000000000E+00  0.37845953193E+03  0.22306138173E+04  0.21982735008E+04 0.  0.
        2    1    3    3  502    0  0.20832527258E+03 -0.50076314337E+03  0.11592954416E+04  0.12798941620E+04  0.25500000920E-02 0.  1.
       -2    1    3    3    0  502 -0.20832527258E+03  0.50076314337E+03 -0.78083590971E+03  0.95071965524E+03  0.25500000920E-02 0. -1.
</event>
<event>
 5   0  0.2524749E-06  0.2199258E+04  0.7818609E-02  0.8518737E-01
       -2   -1    0    0    0  501  0.00000000000E+00  0.00000000000E+00  0.13742052911E+04  0.13742052911E+04  0.25500000920E-02 0. -1.
        2   -1    0    0  501    0  0.00000000000E+00  0.00000000000E+00 -0.87991535471E+03  0.87991535472E+03  0.25500000920E-02 0.  1.
    10030    2    1    2    0    0  0.00000000000E+00  0.00000000000E+00  0.49428993640E+03  0.22541206458E+04  0.21992583624E+04 0.  0.
        4    1    3    3  502    0  0.63882699091E+02  0.64586373181E+03 -0.66267083618E+03  0.92755334581E+03  0.12699999809E+01 0.  1.
       -4    1    3    3    0  502 -0.63882699091E+02 -0.64586373181E+03  0.11569607726E+04  0.13265673000E+04  0.12699999809E+01 0. -1.
</event>
<event>
 5   0  0.2556869E-06  0.2200049E+04  0.7818609E-02  0.8518408E-01
        2   -1    0    0  501    0  0.00000000000E+00  0.00000000000E+00  0.29109798963E+04  0.29109798963E+04  0.25500000920E-02 0. -1.
       -2   -1    0    0    0  501  0.00000000000E+00  0.00000000000E+00 -0.41568603868E+03  0.41568603868E+03  0.25500000920E-02 0.  1.
    10030    2    1    2    0    0  0.00000000000E+00  0.00000000000E+00  0.24952938577E+04  0.33266659350E+04  0.22000488193E+04 0.  0.
        5    1    3    3  502    0  0.56870367039E+03  0.92118478019E+03  0.95278467474E+03  0.14421601819E+04  0.46999998093E+01 0.  1.
       -5    1    3    3    0  502 -0.56870367039E+03 -0.92118478019E+03  0.15425091829E+04  0.18845057531E+04  0.46999998093E+01 0. -1.
</event>
<event>
 5   0  0.2524749E-06  0.2195827E+04  0.7818609E-02  0.8520167E-01
        2   -1    0    0  501    0  0.00000000000E+00  0.00000000000E+00  0.10655384327E+04  0.10655384327E+04  0.25500000920E-02 0.  1.
       -2   -1    0    0    0  501  0.00000000000E+00  0.00000000000E+00 -0.11312726981E+04  0.11312726981E+04  0.25500000920E-02 0. -1.
    10030    2    1    2    0    0  0.00000000000E+00  0.00000000000E+00 -0.65734265401E+02  0.21968111309E+04  0.21958274411E+04 0.  0.
        4    1    3    3  502    0 -0.15454004343E+03 -0.46882722331E+03  0.94825121030E+03  0.10690479695E+04  0.12699999809E+01 0.  1.
       -4    1    3    3    0  502  0.15454004343E+03  0.46882722331E+03 -0.10139854757E+04  0.11277631614E+04  0.12699999809E+01 0. -1.
</event>
<event>
 5   0  0.2606154E-06  0.2199860E+04  0.7818609E-02  0.8518486E-01
       -2   -1    0    0    0  501  0.00000000000E+00  0.00000000000E+00  0.10496516726E+04  0.10496516726E+04  0.25500000920E-02 0.  1.
        2   -1    0    0  501    0  0.00000000000E+00  0.00000000000E+00 -0.11526165088E+04  0.11526165088E+04  0.25500000920E-02 0. -1.
    10030    2    1    2    0    0  0.00000000000E+00  0.00000000000E+00 -0.10296483622E+03  0.22022681814E+04  0.21998598558E+04 0.  0.
        2    1    3    3  502    0  0.24237704274E+03  0.85239379195E+03 -0.70375080941E+03  0.11316302440E+04  0.25500000920E-02 0.  1.
       -2    1    3    3    0  502 -0.24237704274E+03 -0.85239379195E+03  0.60078597319E+03  0.10706379374E+04  0.25500000920E-02 0. -1.
</event>
<event>
 5   0  0.2556869E-06  0.2199295E+04  0.7818609E-02  0.8518721E-01
       -2   -1    0    0    0  501  0.00000000000E+00  0.00000000000E+00  0.89235823389E+03  0.89235823389E+03  0.25500000920E-02 0. -1.
        2   -1    0    0  501    0  0.00000000000E+00  0.00000000000E+00 -0.13550891666E+04  0.13550891666E+04  0.25500000920E-02 0.  1.
    10030    2    1    2    0    0  0.00000000000E+00  0.00000000000E+00 -0.46273093276E+03  0.22474474005E+04  0.21992953194E+04 0.  0.
        5    1    3    3  502    0 -0.69756054830E+03  0.18780540663E+03 -0.10785776742E+04  0.12981577249E+04  0.46999998093E+01 0.  1.
       -5    1    3    3    0  502  0.69756054830E+03 -0.18780540663E+03  0.61584674149E+03  0.94928967565E+03  0.46999998093E+01 0. -1.
</event>
<event>
 5   0  0.1107101E-06  0.2196355E+04  0.7818609E-02  0.8519947E-01
        1   -1    0    0  501    0  0.00000000000E+00  0.00000000000E+00  0.82417598595E+03  0.82417598596E+03  0.50400001928E-02 0.  1.
       -1   -1    0    0    0  501  0.00000000000E+00  0.00000000000E+00 -0.14632724895E+04  0.14632724896E+04  0.50400001928E-02 0. -1.
    10030    2    1    2    0    0  0.00000000000E+00  0.00000000000E+00 -0.63909650360E+03  0.22874484755E+04  0.21963552052E+04 0.  0.
        1    1    3    3  502    0 -0.95491666351E+02  0.48293592804E+03  0.70282156063E+03  0.85808153170E+03  0.50400001928E-02 0.  1.
       -1    1    3    3    0  502  0.95491666351E+02 -0.48293592804E+03 -0.13419180642E+04  0.14293669438E+04  0.50400001928E-02 0. -1.
</event>
<event>
 5   0  0.2532239E-06  0.2191400E+04  0.7818609E-02  0.8522016E-01
       -2   -1    0    0    0  501  0.00000000000E+00  0.00000000000E+00  0.13111704915E+04  0.13111704915E+04  0.25500000920E-02 0.  1.
        2   -1    0    0  501    0  0.00000000000E+00  0.00000000000E+00 -0.91563853556E+03  0.91563853556E+03  0.25500000920E-02 0. -1.
    10030    2    1    2    0    0  0.00000000000E+00  0.00000000000E+00  0.39553195595E+03  0.22268090271E+04  0.21913997615E+04 0.  0.
        3    1    3    3  502    0  0.69304571894E+02  0.30404676726E+03  0.12651243721E+04  0.13029916529E+04  0.10100000352E+00 0.  1.
       -3    1    3    3    0  502 -0.69304571894E+02 -0.30404676726E+03 -0.86959241618E+03  0.92381737418E+03  0.10100000352E+00 0. -1.
</event>
<event>
 5   0  0.1107101E-06  0.2197839E+04  0.7818609E-02  0.8519328E-01
       -1   -1    0    0    0  501  0.00000000000E+00  0.00000000000E+00  0.51443616156E+03  0.51443616158E+03  0.50400001928E-02 0.  1.
        1   -1    0    0  501    0  0.00000000000E+00  0.00000000000E+00 -0.23474706694E+04  0.23474706694E+04  0.50400001928E-02 0. -1.
    10030    2    1    2    0    0  0.00000000000E+00  0.00000000000E+00 -0.18330345078E+04  0.28619068310E+04  0.21978387571E+04 0.  0.
        1    1    3    3  502    0 -0.10295797766E+04  0.37393737814E+03 -0.10312253102E+04  0.15044232515E+04  0.50400001928E-02 0.  1.
       -1    1    3    3    0  502  0.10295797766E+04 -0.37393737814E+03 -0.80180919761E+03  0.13574835795E+04  0.50400001928E-02 0. -1.
</event>
<event>
 5   0  0.2606154E-06  0.2199636E+04  0.7818609E-02  0.8518579E-01
        2   -1    0    0  501    0  0.00000000000E+00  0.00000000000E+00  0.88628186820E+03  0.88628186821E+03  0.25500000920E-02 0.  1.
       -2   -1    0    0    0  501  0.00000000000E+00  0.00000000000E+00 -0.13648030226E+04  0.13648030226E+04  0.25500000920E-02 0. -1.
    10030    2    1    2    0    0  0.00000000000E+00  0.00000000000E+00 -0.47852115444E+03  0.22510848909E+04  0.21996364906E+04 0.  0.
        2    1    3    3  502    0  0.17250937300E+03  0.19137354963E+03  0.85496097964E+03  0.89293986135E+03  0.25500000920E-02 0.  1.
       -2    1    3    3    0  502 -0.17250937300E+03 -0.19137354963E+03 -0.13334821341E+04  0.13581450295E+04  0.25500000920E-02 0. -1.
</event>
<event>
 5   0  0.2556869E-06  0.2200078E+04  0.7818609E-02  0.8518396E-01
       -2   -1    0    0    0  501  0.00000000000E+00  0.00000000000E+00  0.16489013555E+04  0.16489013555E+04  0.25500000920E-02 0.  1.
        2   -1    0    0  501    0  0.00000000000E+00  0.00000000000E+00 -0.73387397199E+03  0.73387397199E+03  0.25500000920E-02 0. -1.
    10030    2    1    2    0    0  0.00000000000E+00  0.00000000000E+00  0.91502738354E+03  0.23827753275E+04  0.22000779870E+04 0.  0.
        5    1    3    3  502    0 -0.36676395577E+03 -0.29479713895E+03  0.15343871344E+04  0.16049258926E+04  0.46999998093E+01 0.  1.
       -5    1    3    3    0  502  0.36676395577E+03  0.29479713895E+03 -0.61935975090E+03  0.77784943493E+03  0.46999998093E+01 0. -1.
</event>
<event>
 5   0  0.1107101E-06  0.2201136E+04  0.7818609E-02  0.8517955E-01
       -1   -1    0    0    0  501  0.00000000000E+00  0.00000000000E+00  0.89000450427E+03  0.89000450429E+03  0.50400001928E-02 0.  1.
        1   -1    0    0  501    0  0.00000000000E+00  0.00000000000E+00 -0.13609484454E+04  0.13609484454E+04  0.50400001928E-02 0. -1.
    10030    2    1    2    0    0  0.00000000000E+00  0.00000000000E+00 -0.47094394112E+03  0.22509529497E+04  0.22011362943E+04 0.  0.
        1    1    3    3  502    0 -0.13462222939E+01  0.10802057136E+04 -0.19980156891E+02  0.10803913192E+04  0.50400001928E-02 0. -1.
       -1    1    3    3    0  502  0.13462222939E+01 -0.10802057136E+04 -0.45096378422E+03  0.11705616305E+04  0.50400001928E-02 0.  1.
</event>
<event>
 5   0  0.1146827E-06  0.2197815E+04  0.7818609E-02  0.8519338E-01
        1   -1    0    0  501    0  0.00000000000E+00  0.00000000000E+00  0.99940297506E+03  0.99940297507E+03  0.50400001928E-02 0.  1.
       -1   -1    0    0    0  501  0.00000000000E+00  0.00000000000E+00 -0.12083189939E+04  0.12083189939E+04  0.50400001928E-02 0. -1.
    10030    2    1    2    0    0  0.00000000000E+00  0.00000000000E+00 -0.20891601886E+03  0.22077219690E+04  0.21978149125E+04 0.  0.
        4    1    3    3  502    0  0.57082307586E+03  0.69997565079E+03 -0.73321169019E+03  0.11633597428E+04  0.12699999809E+01 0. -1.
       -4    1    3    3    0  502 -0.57082307586E+03 -0.69997565079E+03  0.52429567134E+03  0.10443622262E+04  0.12699999809E+01 0.  1.
</event>
<event>
 5   0  0.1137869E-06  0.2198722E+04  0.7818609E-02  0.8518960E-01
        1   -1    0    0  501    0  0.00000000000E+00  0.00000000000E+00  0.13585508456E+04  0.13585508456E+04  0.50400001928E-02 0.  1.
       -1   -1    0    0    0  501  0.00000000000E+00  0.00000000000E+00 -0.88962083167E+03  0.88962083168E+03  0.50400001928E-02 0. -1.
    10030    2    1    2    0    0  0.00000000000E+00  0.00000000000E+00  0.46893001394E+03  0.22481716773E+04  0.21987224774E+04 0.  0.
        5    1    3    3  502    0  0.41068398869E+03  0.10130358138E+04  0.11491609987E+03  0.10991499891E+04  0.46999998093E+01 0.  1.
       -5    1    3    3    0  502 -0.41068398869E+03 -0.10130358138E+04  0.35401391407E+03  0.11490216882E+04  0.46999998093E+01 0. -1.
</event>
<event>
 5   0  0.8905000E-07  0.2199180E+04  0.7818609E-02  0.8518770E-01
       -3   -1    0    0    0  501  0.00000000000E+00  0.00000000000E+00  0.10025429906E+04  0.10025429957E+04  0.10100000352E+00 0. -1.
        3   -1    0    0  501    0  0.00000000000E+00  0.00000000000E+00 -0.12060308258E+04  0.12060308301E+04  0.10100000352E+00 0.  1.
    10030    2    1    2    0    0  0.00000000000E+00  0.00000000000E+00 -0.20348783521E+03  0.22085738258E+04  0.21991796300E+04 0.  0.
        3    1    3    3  502    0 -0.64663785949E+03  0.12732683060E+03 -0.98569989738E+03  0.11857305516E+04  0.10100000352E+00 0.  1.
       -3    1    3    3    0  502  0.64663785949E+03 -0.12732683060E+03  0.78221206217E+03  0.10228432742E+04  0.10100000352E+00 0. -1.
</event>
<event>
 5   0  0.8905000E-07  0.2200035E+04  0.7818609E-02  0.8518413E-01
        3   -1    0    0  501    0  0.00000000000E+00  0.00000000000E+00  0.22337926630E+04  0.22337926653E+04  0.10100000352E+00 0.  1.
       -3   -1    0    0    0  501  0.00000000000E+00  0.00000000000E+00 -0.54169696752E+03  0.54169697694E+03  0.10100000352E+00 0. -1.
    10030    2    1    2    0    0  0.00000000000E+00  0.00000000000E+00  0.16920956955E+04  0.27754896423E+04  0.22000352069E+04 0.  0.
        4    1    3    3  502    0  0.25978816447E+03  0.95770484116E+03  0.14449246238E+04  0.17528540254E+04  0.12699999809E+01 0.  1.
       -4    1    3    3    0  502 -0.25978816447E+03 -0.95770484116E+03  0.24717107173E+03  0.10226356168E+04  0.12699999809E+01 0. -1.
</event>
<event>
 5   0  0.1144271E-06  0.2200609E+04  0.7818609E-02  0.8518174E-01
       -1   -1    0    0    0  501  0.00000000000E+00  0.00000000000E+00  0.79014928249E+03  0.79014928251E+03  0.50400001928E-02 0.  1.
        1   -1    0    0  501    0  0.00000000000E+00  0.00000000000E+00 -0.15322047628E+04  0.15322047628E+04  0.50400001928E-02 0. -1.
    10030    2    1    2    0    0  0.00000000000E+00  0.00000000000E+00 -0.74205548033E+03  0.23223540453E+04  0.22006094556E+04 0.  0.
        3    1    3    3  502    0 -0.82927516738E+03  0.54066299068E+03 -0.87786496232E+03  0.13231253436E+04  0.10100000352E+00 0. -1.
       -3    1    3    3    0  502  0.82927516738E+03 -0.54066299068E+03  0.13580948198E+03  0.99922870171E+03  0.10100000352E+00 0.  1.
</event>
<event>
 5   0  0.2556869E-06  0.2196262E+04  0.7818609E-02  0.8519985E-01
       -2   -1    0    0    0  501  0.00000000000E+00  0.00000000000E+00  0.15583421995E+04  0.15583421995E+04  0.25500000920E-02 0. -1.
        2   -1    0    0  501    0  0.00000000000E+00  0.00000000000E+00 -0.77383005977E+03  0.77383005977E+03  0.25500000920E-02 0.  1.
    10030    2    1    2    0    0  0.00000000000E+00  0.00000000000E+00  0.78451213973E+03  0.23321722593E+04  0.21962623135E+04 0.  0.
        5    1    3    3  502    0 -0.11249915327E+03 -0.43927123494E+03  0.14542736591E+04  0.15233349084E+04  0.46999998093E+01 0. -1.
       -5    1    3    3    0  502  0.11249915327E+03  0.43927123494E+03 -0.66976151942E+03  0.80883735091E+03  0.46999998093E+01 0.  1.
</event>
<event>
 5   0  0.8905000E-07  0.2199819E+04  0.7818609E-02  0.8518504E-01
       -3   -1    0    0    0  501  0.00000000000E+00  0.00000000000E+00  0.75038448164E+03  0.75038448844E+03  0.10100000352E+00 0.  1.
        3   -1    0    0  501    0  0.00000000000E+00  0.00000000000E+00 -0.16122410782E+04  0.16122410814E+04  0.10100000352E+00 0. -1.
    10030    2    1    2    0    0  0.00000000000E+00  0.00000000000E+00 -0.86185659656E+03  0.23626255698E+04  0.21998188085E+04 0.  0.
        4    1    3    3  502    0 -0.90259689375E+03  0.27898434688E+03 -0.10358974296E+04  0.14019980442E+04  0.12699999809E+01 0. -1.
       -4    1    3    3    0  502  0.90259689375E+03 -0.27898434688E+03  0.17404083306E+03  0.96062752557E+03  0.12699999809E+01 0.  1.
</event>
<event>
 5   0  0.2556869E-06  0.2199475E+04  0.7818609E-02  0.8518647E-01
       -2   -1    0    0    0  501  0.00000000000E+00  0.00000000000E+00  0.63853947050E+03  0.63853947051E+03  0.25500000920E-02 0. -1.
        2   -1    0    0  501    0  0.00000000000E+00  0.00000000000E+00 -0.18940455767E+04  0.18940455767E+04  0.25500000920E-02 0.  1.
    10030    2    1    2    0    0  0.00000000000E+00  0.00000000000E+00 -0.12555061062E+04  0.25325850472E+04  0.21994752644E+04 0.  0.
        5    1    3    3  502    0  0.10993760243E+04 -0.26746177482E+02 -0.61900136451E+03  0.12619539532E+04  0.46999998093E+01 0.  1.
       -5    1    3    3    0  502 -0.10993760243E+04  0.26746177482E+02 -0.63650474168E+03  0.12706310940E+04  0.46999998093E+01 0. -1.
</event>
<event>
 5   0  0.1107101E-06  0.2199391E+04  0.7818609E-02  0.8518682E-01
        1   -1    0    0  501    0  0.00000000000E+00  0.00000000000E+00  0.12008940515E+04  0.12008940516E+04  0.50400001928E-02 0. -1.
       -1   -1    0    0    0  501  0.00000000000E+00  0.00000000000E+00 -0.10070244505E+04  0.10070244505E+04  0.50400001928E-02 0.  1.
    10030    2    1    2    0    0  0.00000000000E+00  0.00000000000E+00  0.19386960103E+03  0.22079185021E+04  0.21993905269E+04 0.  0.
        1    1    3    3  502    0 -0.94494423312E+03 -0.18029364279E+03 -0.43795787591E+03  0.10569921960E+04  0.50400001928E-02 0.  1.
       -1    1    3    3    0  502  0.94494423312E+03  0.18029364279E+03  0.63182747695E+03  0.11509263061E+04  0.50400001928E-02 0. -1.
</event>
<event>
 5   0  0.1137869E-06  0.2199958E+04  0.7818609E-02  0.8518446E-01
       -1   -1    0    0    0  501  0.00000000000E+00  0.00000000000E+00  0.20957086630E+04  0.20957086630E+04  0.50400001928E-02 0.  1.
        1   -1    0    0  501    0  0.00000000000E+00  0.00000000000E+00 -0.57734805795E+03  0.57734805797E+03  0.50400001928E-02 0. -1.
    10030    2    1    2    0    0  0.00000000000E+00  0.00000000000E+00  0.15183606051E+04  0.26730567210E+04  0.21999575693E+04 0.  0.
        5    1    3    3  502    0  0.38005913162E+03 -0.86495241674E+03  0.74703477212E+02  0.94772903631E+03  0.46999998093E+01 0. -1.
       -5    1    3    3    0  502 -0.38005913162E+03  0.86495241674E+03  0.14436571279E+04  0.17253276847E+04  0.46999998093E+01 0.  1.
</event>
<event>
 5   0  0.2532239E-06  0.2200414E+04  0.7818609E-02  0.8518256E-01
       -2   -1    0    0    0  501  0.00000000000E+00  0.00000000000E+00  0.45118519555E+03  0.45118519555E+03  0.25500000920E-02 0.  1.
        2   -1    0    0  501    0  0.00000000000E+00  0.00000000000E+00 -0.26828347832E+04  0.26828347832E+04  0.25500000920E-02 0. -1.
    10030    2    1    2    0    0  0.00000000000E+00  0.00000000000E+00 -0.22316495877E+04  0.31340199788E+04  0.22004139031E+04 0.  0.
        3    1    3    3  502    0 -0.82802929849E+03  0.71167707576E+03 -0.13087015258E+04  0.17043522151E+04  0.10100000352E+00 0. -1.
       -3    1    3    3    0  502  0.82802929849E+03 -0.71167707576E+03 -0.92294806183E+03  0.14296677636E+04  0.10100000352E+00 0.  1.
</event>
<event>
 5   0  0.2556869E-06  0.2209320E+04  0.7818609E-02  0.8514559E-01
        2   -1    0    0  501    0  0.00000000000E+00  0.00000000000E+00  0.15194325531E+04  0.15194325531E+04  0.25500000920E-02 0. -1.
       -2   -1    0    0    0  501  0.00000000000E+00  0.00000000000E+00 -0.80311179466E+03  0.80311179466E+03  0.25500000920E-02 0.  1.
    10030    2    1    2    0    0  0.00000000000E+00  0.00000000000E+00  0.71632075842E+03  0.23225443477E+04  0.22093204426E+04 0.  0.
        5    1    3    3  502    0  0.67890391898E+03  0.17694355920E+03 -0.53881537875E+03  0.88462628082E+03  0.46999998093E+01 0.  1.
       -5    1    3    3    0  502 -0.67890391898E+03 -0.17694355920E+03  0.12551361372E+04  0.14379180669E+04  0.46999998093E+01 0. -1.
</event>
<event>
 5   0  0.8905000E-07  0.2199546E+04  0.7818609E-02  0.8518617E-01
        3   -1    0    0  501    0  0.00000000000E+00  0.00000000000E+00  0.50560761487E+03  0.50560762496E+03  0.10100000352E+00 0. -1.
       -3   -1    0    0    0  501  0.00000000000E+00  0.00000000000E+00 -0.23921733128E+04  0.23921733150E+04  0.10100000352E+00 0.  1.
    10030    2    1    2    0    0  0.00000000000E+00  0.00000000000E+00 -0.18865656980E+04  0.28977809399E+04  0.21995463721E+04 0.  0.
        1    1    3    3  502    0 -0.21134516900E+03  0.50292166143E+02 -0.23636233726E+04  0.23735862171E+04  0.50400001928E-02 0.  1.
       -1    1    3    3    0  502  0.21134516900E+03 -0.50292166143E+02  0.47705767467E+03  0.52419472281E+03  0.50400001928E-02 0. -1.
</event>
<event>
 5   0  0.2524749E-06  0.2199684E+04  0.7818609E-02  0.8518560E-01
        2   -1    0    0  501    0  0.00000000000E+00  0.00000000000E+00  0.17365162468E+04  0.17365162468E+04  0.25500000920E-02 0. -1.
       -2   -1    0    0    0  501  0.00000000000E+00  0.00000000000E+00 -0.69659724210E+03  0.69659724211E+03  0.25500000920E-02 0.  1.
    10030    2    1    2    0    0  0.00000000000E+00  0.00000000000E+00  0.10399190047E+04  0.24331134889E+04  0.21996840031E+04 0.  0.
        4    1    3    3  502    0 -0.10766727659E+04  0.11315571073E+03  0.73450779523E+03  0.13082552403E+04  0.12699999809E+01 0. -1.
       -4    1    3    3    0  502  0.10766727659E+04 -0.11315571073E+03  0.30541120948E+03  0.11248582486E+04  0.12699999809E+01 0.  1.
</event>
<event>
 5   0  0.1107101E-06  0.2200019E+04  0.7818609E-02  0.8518420E-01
       -1   -1    0    0    0  501  0.00000000000E+00  0.00000000000E+00  0.12902481339E+04  0.12902481339E+04  0.50400001928E-02 0. -1.
        1   -1    0    0  501    0  0.00000000000E+00  0.00000000000E+00 -0.93782052375E+03  0.93782052376E+03  0.50400001928E-02 0.  1.
    10030    2    1    2    0    0  0.00000000000E+00  0.00000000000E+00  0.35242761014E+03  0.22280686577E+04  0.22000192551E+04 0.  0.
        1    1    3    3  502    0  0.32020799015E+03 -0.57264363586E+03  0.10704019169E+04  0.12554736773E+04  0.50400001928E-02 0. -1.
       -1    1    3    3    0  502 -0.32020799015E+03  0.57264363586E+03 -0.71797430676E+03  0.97259498037E+03  0.50400001928E-02 0.  1.
</event>
<event>
 5   0  0.1146827E-06  0.2200376E+04  0.7818609E-02  0.8518271E-01
        1   -1    0    0  501    0  0.00000000000E+00  0.00000000000E+00  0.17960123426E+04  0.17960123426E+04  0.50400001928E-02 0.  1.
       -1   -1    0    0    0  501  0.00000000000E+00  0.00000000000E+00 -0.67394532676E+03  0.67394532678E+03  0.50400001928E-02 0. -1.
    10030    2    1    2    0    0  0.00000000000E+00  0.00000000000E+00  0.11220670158E+04  0.24699576694E+04  0.22003764452E+04 0.  0.
        4    1    3    3  502    0 -0.21809278953E+03  0.10594694013E+04  0.33548701851E+03  0.11325162381E+04  0.12699999809E+01 0.  1.
       -4    1    3    3    0  502  0.21809278953E+03 -0.10594694013E+04  0.78657999733E+03  0.13374414313E+04  0.12699999809E+01 0. -1.
</event>
<event>
 5   0  0.1146827E-06  0.2199762E+04  0.7818609E-02  0.8518527E-01
       -1   -1    0    0    0  501  0.00000000000E+00  0.00000000000E+00  0.41034159835E+03  0.41034159838E+03  0.50400001928E-02 0. -1.
        1   -1    0    0  501    0  0.00000000000E+00  0.00000000000E+00 -0.29481241360E+04  0.29481241360E+04  0.50400001928E-02 0.  1.
    10030    2    1    2    0    0  0.00000000000E+00  0.00000000000E+00 -0.25377825376E+04  0.33584657344E+04  0.21997617781E+04 0.  0.
        4    1    3    3  502    0 -0.62312721249E+03  0.14565461775E+03  0.96866413633E+02  0.64721519266E+03  0.12699999809E+01 0. -1.
       -4    1    3    3    0  502  0.62312721249E+03 -0.14565461775E+03 -0.26346489513E+04  0.27112505417E+04  0.12699999809E+01 0.  1.
</event>
<event>
 5   0  0.1146827E-06  0.2199620E+04  0.7818609E-02  0.8518586E-01
       -1   -1    0    0    0  501  0.00000000000E+00  0.00000000000E+00  0.13500314913E+04  0.13500314913E+04  0.50400001928E-02 0. -1.
        1   -1    0    0  501    0  0.00000000000E+00  0.00000000000E+00 -0.89596540776E+03  0.89596540778E+03  0.50400001928E-02 0.  1.
    10030    2    1    2    0    0  0.00000000000E+00  0.00000000000E+00  0.45406608357E+03  0.22459968991E+04  0.21996195268E+04 0.  0.
        4    1    3    3  502    0 -0.10158976302E+03 -0.58167667636E+03 -0.72038332420E+03  0.93146228182E+03  0.12699999809E+01 0.  1.
       -4    1    3    3    0  502  0.10158976302E+03  0.58167667636E+03  0.11744494078E+04  0.13145346173E+04  0.12699999809E+01 0. -1.
</event>
<event>
 5   0  0.1107101E-06  0.2203540E+04  0.7818609E-02  0.8516956E-01
        1   -1    0    0  501    0  0.00000000000E+00  0.00000000000E+00  0.12046849350E+04  0.12046849350E+04  0.50400001928E-02 0. -1.
       -1   -1    0    0    0  501  0.00000000000E+00  0.00000000000E+00 -0.10076473540E+04  0.10076473540E+04  0.50400001928E-02 0.  1.
    10030    2    1    2    0    0  0.00000000000E+00  0.00000000000E+00  0.19703758107E+03  0.22123322890E+04  0.22035404123E+04 0.  0.
        1    1    3    3  502    0  0.85813940094E+02 -0.95775469304E+02 -0.10000868447E+04  0.10083207178E+04  0.50400001928E-02 0.  1.
       -1    1    3    3    0  502 -0.85813940094E+02  0.95775469304E+02  0.11971244258E+04  0.12040115713E+04  0.50400001928E-02 0. -1.
</event>
<event>
 5   0  0.1137869E-06  0.2199782E+04  0.7818609E-02  0.8518519E-01
        1   -1    0    0  501    0  0.00000000000E+00  0.00000000000E+00  0.11787388062E+04  0.11787388062E+04  0.50400001928E-02 0.  1.
       -1   -1    0    0    0  501  0.00000000000E+00  0.00000000000E+00 -0.10263176531E+04  0.10263176531E+04  0.50400001928E-02 0. -1.
    10030    2    1    2    0    0  0.00000000000E+00  0.00000000000E+00  0.15242115312E+03  0.22050564593E+04  0.21997822122E+04 0.  0.
        5    1    3    3  502    0 -0.69157846294E+02  0.80435229120E+03  0.82497740516E+03  0.11542855908E+04  0.46999998093E+01 0.  1.
       -5    1    3    3    0  502  0.69157846294E+02 -0.80435229120E+03 -0.67255625203E+03  0.10507708686E+04  0.46999998093E+01 0. -1.
</event>
<event>
 5   0  0.2524749E-06  0.2198087E+04  0.7818609E-02  0.8519225E-01
       -2   -1    0    0    0  501  0.00000000000E+00  0.00000000000E+00  0.67817165017E+03  0.67817165017E+03  0.25500000920E-02 0.  1.
        2   -1    0    0  501    0  0.00000000000E+00  0.00000000000E+00 -0.17811074218E+04  0.17811074218E+04  0.25500000920E-02 0. -1.
    10030    2    1    2    0    0  0.00000000000E+00  0.00000000000E+00 -0.11029357716E+04  0.24592790720E+04  0.21980869495E+04 0.  0.
        4    1    3    3  502    0 -0.10886612960E+04 -0.52908123352E+02 -0.39358930335E+03  0.11588342589E+04  0.12699999809E+01 0. -1.
       -4    1    3    3    0  502  0.10886612960E+04  0.52908123352E+02 -0.70934646828E+03  0.13004448131E+04  0.12699999809E+01 0.  1.
</event>
<event>
 5   0  0.1137869E-06  0.2199697E+04  0.7818609E-02  0.8518554E-01
       -1   -1    0    0    0  501  0.00000000000E+00  0.00000000000E+00  0.10038789775E+04  0.10038789775E+04  0.50400001928E-02 0. -1.
        1   -1    0    0  501    0  0.00000000000E+00  0.00000000000E+00 -0.12049931002E+04  0.12049931002E+04  0.50400001928E-02 0.  1.
    10030    2    1    2    0    0  0.00000000000E+00  0.00000000000E+00 -0.20111412274E+03  0.22088720777E+04  0.21996974714E+04 0.  0.
        5    1    3    3  502    0 -0.44408091914E+03  0.71677553686E+03  0.60855403639E+03  0.10398726548E+04  0.46999998093E+01 0. -1.
       -5    1    3    3    0  502  0.44408091914E+03 -0.71677553686E+03 -0.80966815912E+03  0.11689994230E+04  0.46999998093E+01 0.  1.
</event>
<event>
 5   0  0.2524749E-06  0.2201536E+04  0.7818609E-02  0.8517789E-01
        2   -1    0    0  501    0  0.00000000000E+00  0.00000000000E+00  0.15463321496E+04  0.15463321496E+04  0.25500000920E-02 0.  1.
       -2   -1    0    0    0  501  0.00000000000E+00  0.00000000000E+00 -0.78358965872E+03  0.78358965873E+03  0.25500000920E-02 0. -1.
    10030    2    1    2    0    0  0.00000000000E+00  0.00000000000E+00  0.76274249084E+03  0.23299218083E+04  0.22015357198E+04 0.  0.
        4    1    3    3  502    0  0.37815106199E+03 -0.77049609620E+03 -0.34804295344E+03  0.92617383373E+03  0.12699999809E+01 0. -1.
       -4    1    3    3    0  502 -0.37815106199E+03  0.77049609620E+03  0.11107854443E+04  0.14037479746E+04  0.12699999809E+01 0.  1.
</event>
<event>
 5   0  0.1107101E-06  0.2197812E+04  0.7818609E-02  0.8519340E-01
        1   -1    0    0  501    0  0.00000000000E+00  0.00000000000E+00  0.18051281789E+04  0.18051281789E+04  0.50400001928E-02 0.  1.
       -1   -1    0    0    0  501  0.00000000000E+00  0.00000000000E+00 -0.66897960709E+03  0.66897960710E+03  0.50400001928E-02 0. -1.
    10030    2    1    2    0    0  0.00000000000E+00  0.00000000000E+00  0.11361485718E+04  0.24741077860E+04  0.21978115842E+04 0.  0.
        1    1    3    3  502    0 -0.72994622704E+03 -0.77787887486E+03  0.27092644922E+03  0.11005990093E+04  0.50400001928E-02 0. -1.
       -1    1    3    3    0  502  0.72994622704E+03  0.77787887486E+03  0.86522212262E+03  0.13735087768E+04  0.50400001928E-02 0.  1.
</event>
<event>
 5   0  0.2581058E-06  0.2199022E+04  0.7818609E-02  0.8518835E-01
        2   -1    0    0  501    0  0.00000000000E+00  0.00000000000E+00  0.24918231432E+04  0.24918231432E+04  0.25500000920E-02 0. -1.
       -2   -1    0    0    0  501  0.00000000000E+00  0.00000000000E+00 -0.48515656932E+03  0.48515656933E+03  0.25500000920E-02 0.  1.
    10030    2    1    2    0    0  0.00000000000E+00  0.00000000000E+00  0.20066665739E+04  0.29769797125E+04  0.21990219349E+04 0.  0.
        1    1    3    3  502    0  0.53823119723E+03  0.11128425876E+03 -0.28584626983E+03  0.61950391276E+03  0.50400001928E-02 0.  1.
       -1    1    3    3    0  502 -0.53823119723E+03 -0.11128425876E+03  0.22925128437E+04  0.23574757998E+04  0.50400001928E-02 0. -1.
</event>
<event>
 5   0  0.1144271E-06  0.2200003E+04  0.7818609E-02  0.8518427E-01
       -1   -1    0    0    0  501  0.00000000000E+00  0.00000000000E+00  0.11926944233E+04  0.11926944233E+04  0.50400001928E-02 0. -1.
        1   -1    0    0  501    0  0.00000000000E+00  0.00000000000E+00 -0.10145127891E+04  0.10145127891E+04  0.50400001928E-02 0.  1.
    10030    2    1    2    0    0  0.00000000000E+00  0.00000000000E+00  0.17818163420E+03  0.22072072124E+04  0.22000034054E+04 0.  0.
        3    1    3    3  502    0 -0.60961693217E+03 -0.33156940036E+03  0.94536817366E+03  0.11727284704E+04  0.10100000352E+00 0. -1.
       -3    1    3    3    0  502  0.60961693217E+03  0.33156940036E+03 -0.76718653946E+03  0.10344787421E+04  0.10100000352E+00 0.  1.
</event>
<event>
 5   0  0.2606154E-06  0.2199845E+04  0.7818609E-02  0.8518493E-01
        2   -1    0    0  501    0  0.00000000000E+00  0.00000000000E+00  0.18475575111E+04  0.18475575111E+04  0.25500000920E-02 0. -1.
       -2   -1    0    0    0  501  0.00000000000E+00  0.00000000000E+00 -0.65482649463E+03  0.65482649464E+03  0.25500000920E-02 0.  1.
    10030    2    1    2    0    0  0.00000000000E+00  0.00000000000E+00  0.11927310165E+04  0.25023840058E+04  0.21998450933E+04 0.  0.
        2    1    3    3  502    0 -0.21752027355E+03 -0.96104925676E+03  0.11523579643E+04  0.15161990705E+04  0.25500000920E-02 0. -1.
       -2    1    3    3    0  502  0.21752027355E+03  0.96104925676E+03  0.40373052194E+02  0.98618493533E+03  0.25500000920E-02 0.  1.
</event>
<event>
 5   0  0.1107101E-06  0.2200621E+04  0.7818609E-02  0.8518170E-01
        1   -1    0    0  501    0  0.00000000000E+00  0.00000000000E+00  0.77884029086E+03  0.77884029088E+03  0.50400001928E-02 0. -1.
       -1   -1    0    0    0  501  0.00000000000E+00  0.00000000000E+00 -0.15544694121E+04  0.15544694121E+04  0.50400001928E-02 0.  1.
    10030    2    1    2    0    0  0.00000000000E+00  0.00000000000E+00 -0.77562912123E+03  0.23333097030E+04  0.22006211933E+04 0.  0.
        1    1    3    3  502    0 -0.73806054091E+03 -0.53319433019E+02  0.47559912858E+03  0.87964245868E+03  0.50400001928E-02 0. -1.
       -1    1    3    3    0  502  0.73806054091E+03  0.53319433019E+02 -0.12512282498E+04  0.14536672443E+04  0.50400001928E-02 0.  1.
</event>
<event>
 5   0  0.1144271E-06  0.2200479E+04  0.7818609E-02  0.8518229E-01
       -1   -1    0    0    0  501  0.00000000000E+00  0.00000000000E+00  0.11309152436E+04  0.11309152436E+04  0.50400001928E-02 0.  1.
        1   -1    0    0  501    0  0.00000000000E+00  0.00000000000E+00 -0.10703959385E+04  0.10703959385E+04  0.50400001928E-02 0. -1.
    10030    2    1    2    0    0  0.00000000000E+00  0.00000000000E+00  0.60519305102E+02  0.22013111821E+04  0.22004791147E+04 0.  0.
        3    1    3    3  502    0 -0.71073054188E+03  0.31589971952E+03  0.80875474730E+03  0.11220582817E+04  0.10100000352E+00 0.  1.
       -3    1    3    3    0  502  0.71073054188E+03 -0.31589971952E+03 -0.74823544220E+03  0.10792529004E+04  0.10100000352E+00 0. -1.
</event>
<event>
 5   0  0.1107101E-06  0.2199224E+04  0.7818609E-02  0.8518751E-01
        1   -1    0    0  501    0  0.00000000000E+00  0.00000000000E+00  0.18145792351E+04  0.18145792351E+04  0.50400001928E-02 0.  1.
       -1   -1    0    0    0  501  0.00000000000E+00  0.00000000000E+00 -0.66635093601E+03  0.66635093603E+03  0.50400001928E-02 0. -1.
    10030    2    1    2    0    0  0.00000000000E+00  0.00000000000E+00  0.11482282990E+04  0.24809301711E+04  0.21992240193E+04 0.  0.
        1    1    3    3  502    0 -0.10851309978E+04  0.11819176131E+03  0.72406147641E+03  0.13098639611E+04  0.50400001928E-02 0.  1.
       -1    1    3    3    0  502  0.10851309978E+04 -0.11819176131E+03  0.42416682263E+03  0.11710662100E+04  0.50400001928E-02 0. -1.
</event>
<event>
 5   0  0.2556869E-06  0.2200218E+04  0.7818609E-02  0.8518337E-01
        2   -1    0    0  501    0  0.00000000000E+00  0.00000000000E+00  0.97155531971E+03  0.97155531972E+03  0.25500000920E-02 0. -1.
       -2   -1    0    0    0  501  0.00000000000E+00  0.00000000000E+00 -0.12456724714E+04  0.12456724715E+04  0.25500000920E-02 0.  1.
    10030    2    1    2    0    0  0.00000000000E+00  0.00000000000E+00 -0.27411715173E+03  0.22172277912E+04  0.22002179131E+04 0.  0.
        5    1    3    3  502    0  0.60494908833E+03 -0.62765445106E+03 -0.81329346873E+03  0.11922172058E+04  0.46999998093E+01 0.  1.
       -5    1    3    3    0  502 -0.60494908833E+03  0.62765445106E+03  0.53917631700E+03  0.10250105854E+04  0.46999998093E+01 0. -1.
</event>
<event>
 5   0  0.2532239E-06  0.2200583E+04  0.7818609E-02  0.8518185E-01
        2   -1    0    0  501    0  0.00000000000E+00  0.00000000000E+00  0.22060932108E+04  0.22060932108E+04  0.25500000920E-02 0.  1.
       -2   -1    0    0    0  501  0.00000000000E+00  0.00000000000E+00 -0.54877163839E+03  0.54877163839E+03  0.25500000920E-02 0. -1.
    10030    2    1    2    0    0  0.00000000000E+00  0.00000000000E+00  0.16573215724E+04  0.27548648492E+04  0.22005830007E+04 0.  0.
        3    1    3    3  502    0 -0.16657518358E+03  0.91944655805E+03  0.10137144243E+03  0.93989650730E+03  0.10100000352E+00 0. -1.
       -3    1    3    3    0  502  0.16657518358E+03 -0.91944655805E+03  0.15559501300E+04  0.18149683419E+04  0.10100000352E+00 0.  1.
</event>
<event>
 5   0  0.2581058E-06  0.2199004E+04  0.7818609E-02  0.8518843E-01
       -2   -1    0    0    0  501  0.00000000000E+00  0.00000000000E+00  0.53167228365E+03  0.53167228366E+03  0.25500000920E-02 0.  1.
        2   -1    0    0  501    0  0.00000000000E+00  0.00000000000E+00 -0.22737774817E+04  0.22737774817E+04  0.25500000920E-02 0. -1.
    10030    2    1    2    0    0  0.00000000000E+00  0.00000000000E+00 -0.17421051981E+04  0.28054497654E+04  0.21990038347E+04 0.  0.
        1    1    3    3  502    0 -0.44641314145E+03 -0.52328601792E+03  0.22329149410E+03  0.72316805846E+03  0.50400001928E-02 0.  1.
       -1    1    3    3    0  502  0.44641314145E+03  0.52328601792E+03 -0.19653966922E+04  0.20822817069E+04  0.50400001928E-02 0. -1.
</event>
<event>
 5   0  0.1082209E-06  0.2199847E+04  0.7818609E-02  0.8518492E-01
        1   -1    0    0  501    0  0.00000000000E+00  0.00000000000E+00  0.17063684695E+04  0.17063684695E+04  0.50400001928E-02 0. -1.
       -1   -1    0    0    0  501  0.00000000000E+00  0.00000000000E+00 -0.70900985871E+03  0.70900985873E+03  0.50400001928E-02 0.  1.
    10030    2    1    2    0    0  0.00000000000E+00  0.00000000000E+00  0.99735861079E+03  0.24153783282E+04  0.21998473288E+04 0.  0.
        2    1    3    3  502    0  0.10830152592E+04 -0.72551552081E+02  0.69400258706E+03  0.12883421014E+04  0.25500000920E-02 0.  1.
       -2    1    3    3    0  502 -0.10830152592E+04  0.72551552081E+02  0.30335602373E+03  0.11270362268E+04  0.25500000920E-02 0. -1.
</event>
<event>
 5   0  0.1107101E-06  0.2199103E+04  0.7818609E-02  0.8518802E-01
        1   -1    0    0  501    0  0.00000000000E+00  0.00000000000E+00  0.11348005490E+04  0.11348005490E+04  0.50400001928E-02 0.  1.
       -1   -1    0    0    0  501  0.00000000000E+00  0.00000000000E+00 -0.10653969039E+04  0.10653969039E+04  0.50400001928E-02 0. -1.
    10030    2    1    2    0    0  0.00000000000E+00  0.00000000000E+00  0.69403645087E+02  0.22001974528E+04  0.21991025364E+04 0.  0.
        1    1    3    3  502    0 -0.85117194976E+03  0.32181723461E+03 -0.58281936124E+03  0.10806194651E+04  0.50400001928E-02 0. -1.
       -1    1    3    3    0  502  0.85117194976E+03 -0.32181723461E+03  0.65222300633E+03  0.11195779877E+04  0.50400001928E-02 0.  1.
</event>
<event>
 5   0  0.2556869E-06  0.2199596E+04  0.7818609E-02  0.8518596E-01
       -2   -1    0    0    0  501  0.00000000000E+00  0.00000000000E+00  0.21099830687E+04  0.21099830687E+04  0.25500000920E-02 0. -1.
        2   -1    0    0  501    0  0.00000000000E+00  0.00000000000E+00 -0.57325359008E+03  0.57325359008E+03  0.25500000920E-02 0.  1.
    10030    2    1    2    0    0  0.00000000000E+00  0.00000000000E+00  0.15367294787E+04  0.26832366588E+04  0.21995957530E+04 0.  0.
        5    1    3    3  502    0  0.62013886355E+02  0.56008752310E+03 -0.38375066405E+03  0.68178472980E+03  0.46999998093E+01 0.  1.
       -5    1    3    3    0  502 -0.62013886355E+02 -0.56008752310E+03  0.19204801427E+04  0.20014519290E+04  0.46999998093E+01 0. -1.
</event>
<event>
 5   0  0.1144271E-06  0.2199903E+04  0.7818609E-02  0.8518469E-01
        1   -1    0    0  501    0  0.00000000000E+00  0.00000000000E+00  0.85530812628E+03  0.85530812630E+03  0.50400001928E-02 0. -1.
       -1   -1    0    0    0  501  0.00000000000E+00  0.00000000000E+00 -0.14145697630E+04  0.14145697630E+04  0.50400001928E-02 0.  1.
    10030    2    1    2    0    0  0.00000000000E+00  0.00000000000E+00 -0.55926163675E+03  0.22698778893E+04  0.21999027374E+04 0.  0.
        3    1    3    3  502    0 -0.30691670802E+03  0.27396890996E+03  0.77293308830E+03  0.87560401921E+03  0.10100000352E+00 0. -1.
       -3    1    3    3    0  502  0.30691670802E+03 -0.27396890996E+03 -0.13321947250E+04  0.13942738701E+04  0.10100000352E+00 0.  1.
</event>
<event>
 5   0  0.1146827E-06  0.2198877E+04  0.7818609E-02  0.8518896E-01
       -1   -1    0    0    0  501  0.00000000000E+00  0.00000000000E+00  0.12997274825E+04  0.12997274825E+04  0.50400001928E-02 0.  1.
        1   -1    0    0  501    0  0.00000000000E+00  0.00000000000E+00 -0.93001403273E+03  0.93001403274E+03  0.50400001928E-02 0. -1.
    10030    2    1    2    0    0  0.00000000000E+00  0.00000000000E+00  0.36971344975E+03  0.22297415152E+04  0.21988768019E+04 0.  0.
        4    1    3    3  502    0  0.30855872493E+03  0.10466058897E+04  0.48165460936E+02  0.10922059786E+04  0.12699999809E+01 0.  1.
       -4    1    3    3    0  502 -0.30855872493E+03 -0.10466058897E+04  0.32154798882E+03  0.11375355366E+04  0.12699999809E+01 0. -1.
</event>
<event>
 5   0  0.2556869E-06  0.2197096E+04  0.7818609E-02  0.8519638E-01
       -2   -1    0    0    0  501  0.00000000000E+00  0.00000000000E+00  0.14742412205E+04  0.14742412205E+04  0.25500000920E-02 0.  1.
        2   -1    0    0  501    0  0.00000000000E+00  0.00000000000E+00 -0.81859608721E+03  0.81859608721E+03  0.25500000920E-02 0. -1.
    10030    2    1    2    0    0  0.00000000000E+00  0.00000000000E+00  0.65564513327E+03  0.22928373077E+04  0.21970963517E+04 0.  0.
        5    1    3    3  502    0  0.89630021458E+03  0.46059108332E+03  0.78424581211E+03  0.12769345342E+04  0.46999998093E+01 0.  1.
       -5    1    3    3    0  502 -0.89630021458E+03 -0.46059108332E+03 -0.12860067885E+03  0.10159027735E+04  0.46999998093E+01 0. -1.
</event>
<event>
 5   0  0.1137869E-06  0.2199973E+04  0.7818609E-02  0.8518439E-01
       -1   -1    0    0    0  501  0.00000000000E+00  0.00000000000E+00  0.45955818032E+03  0.45955818034E+03  0.50400001928E-02 0. -1.
        1   -1    0    0  501    0  0.00000000000E+00  0.00000000000E+00 -0.26328996955E+04  0.26328996955E+04  0.50400001928E-02 0.  1.
    10030    2    1    2    0    0  0.00000000000E+00  0.00000000000E+00 -0.21733415152E+04  0.30924578758E+04  0.21999732663E+04 0.  0.
        5    1    3    3  502    0  0.10547434749E+04 -0.22265367146E+03 -0.77905468388E+03  0.13300401294E+04  0.46999998093E+01 0. -1.
       -5    1    3    3    0  502 -0.10547434749E+04  0.22265367146E+03 -0.13942868313E+04  0.17624177465E+04  0.46999998093E+01 0.  1.
</event>
<event>
 5   0  0.2556869E-06  0.2202418E+04  0.7818609E-02  0.8517422E-01
       -2   -1    0    0    0  501  0.00000000000E+00  0.00000000000E+00  0.98588072665E+03  0.98588072665E+03  0.25500000920E-02 0.  1.
        2   -1    0    0  501    0  0.00000000000E+00  0.00000000000E+00 -0.12300284434E+04  0.12300284434E+04  0.25500000920E-02 0. -1.
    10030    2    1    2    0    0  0.00000000000E+00  0.00000000000E+00 -0.24414771674E+03  0.22159091700E+04  0.22024180671E+04 0.  0.
        5    1    3    3  502    0  0.10803147957E+04 -0.93180245588E+02 -0.31528305910E+03  0.11292422740E+04  0.46999998093E+01 0.  1.
       -5    1    3    3    0  502 -0.10803147957E+04  0.93180245588E+02  0.71135342364E+02  0.10866668960E+04  0.46999998093E+01 0. -1.
</event>
<event>
 5   0  0.2524749E-06  0.2199770E+04  0.7818609E-02  0.8518524E-01
       -2   -1    0    0    0  501  0.00000000000E+00  0.00000000000E+00  0.81078122361E+03  0.81078122361E+03  0.25500000920E-02 0. -1.
        2   -1    0    0  501    0  0.00000000000E+00  0.00000000000E+00 -0.14920751047E+04  0.14920751047E+04  0.25500000920E-02 0.  1.
    10030    2    1    2    0    0  0.00000000000E+00  0.00000000000E+00 -0.68129388113E+03  0.23028563284E+04  0.21997695144E+04 0.  0.
        4    1    3    3  502    0 -0.34211302768E+03 -0.10433417321E+04 -0.27327604824E+03  0.11314966660E+04  0.12699999809E+01 0.  1.
       -4    1    3    3    0  502  0.34211302768E+03  0.10433417321E+04 -0.40801783289E+03  0.11713596624E+04  0.12699999809E+01 0. -1.
</event>
<event>
 5   0  0.2581058E-06  0.2199542E+04  0.7818609E-02  0.8518619E-01
        2   -1    0    0  501    0  0.00000000000E+00  0.00000000000E+00  0.16845190288E+04  0.16845190288E+04  0.25500000920E-02 0.  1.
       -2   -1    0    0    0  501  0.00000000000E+00  0.00000000000E+00 -0.71800674969E+03  0.71800674969E+03  0.25500000920E-02 0. -1.
    10030    2    1    2    0    0  0.00000000000E+00  0.00000000000E+00  0.96651227908E+03  0.24025257785E+04  0.21995418001E+04 0.  0.
        1    1    3    3  502    0 -0.64209383673E+03  0.28604038409E+03 -0.44060778414E+03  0.82960160075E+03  0.50400001928E-02 0. -1.
       -1    1    3    3    0  502  0.64209383673E+03 -0.28604038409E+03  0.14071200632E+04  0.15729241777E+04  0.50400001928E-02 0.  1.
</event>
<event>
 5   0  0.2581058E-06  0.2200707E+04  0.7818609E-02  0.8518134E-01
       -2   -1    0    0    0  501  0.00000000000E+00  0.00000000000E+00  0.54586599573E+03  0.54586599574E+03  0.25500000920E-02 0.  1.
        2   -1    0    0  501    0  0.00000000000E+00  0.00000000000E+00 -0.22180861512E+04  0.22180861512E+04  0.25500000920E-02 0. -1.
    10030    2    1    2    0    0  0.00000000000E+00  0.00000000000E+00 -0.16722201554E+04  0.27639521469E+04  0.22007069823E+04 0.  0.
        1    1    3    3  502    0  0.84192644582E+03 -0.68401198488E+02 -0.17217549222E+04  0.19178005309E+04  0.50400001928E-02 0. -1.
       -1    1    3    3    0  502 -0.84192644582E+03  0.68401198488E+02  0.49534766774E+02  0.84615161601E+03  0.50400001928E-02 0.  1.
</event>
<event>
 5   0  0.1082209E-06  0.2197683E+04  0.7818609E-02  0.8519393E-01
        1   -1    0    0  501    0  0.00000000000E+00  0.00000000000E+00  0.15384490098E+04  0.15384490098E+04  0.50400001928E-02 0.  1.
       -1   -1    0    0    0  501  0.00000000000E+00  0.00000000000E+00 -0.78485040266E+03  0.78485040267E+03  0.50400001928E-02 0. -1.
    10030    2    1    2    0    0  0.00000000000E+00  0.00000000000E+00  0.75359860717E+03  0.23232994125E+04  0.21976827113E+04 0.  0.
        2    1    3    3  502    0  0.13388811095E+03  0.24290820682E+03  0.15008339068E+04  0.15262479611E+04  0.25500000920E-02 0.  1.
       -2    1    3    3    0  502 -0.13388811095E+03 -0.24290820682E+03 -0.74723529958E+03  0.79705145138E+03  0.25500000920E-02 0. -1.
</event>
<event>
 5   0  0.2581058E-06  0.2200116E+04  0.7818609E-02  0.8518380E-01
       -2   -1    0    0    0  501  0.00000000000E+00  0.00000000000E+00  0.10245183886E+04  0.10245183886E+04  0.25500000920E-02 0. -1.
        2   -1    0    0  501    0  0.00000000000E+00  0.00000000000E+00 -0.11811675664E+04  0.11811675664E+04  0.25500000920E-02 0.  1.
    10030    2    1    2    0    0  0.00000000000E+00  0.00000000000E+00 -0.15664917778E+03  0.22056859550E+04  0.22001162622E+04 0.  0.
        1    1    3    3  502    0  0.10042926306E+04 -0.44539148068E+03 -0.13459718388E+03  0.11068394919E+04  0.50400001928E-02 0.  1.
       -1    1    3    3    0  502 -0.10042926306E+04  0.44539148068E+03 -0.22051993897E+02  0.10988464631E+04  0.50400001928E-02 0. -1.
</event>
<event>
 5   0  0.1137869E-06  0.2211635E+04  0.7818609E-02  0.8513601E-01
        1   -1    0    0  501    0  0.00000000000E+00  0.00000000000E+00  0.23292779856E+04  0.23292779856E+04  0.50400001928E-02 0.  1.
       -1   -1    0    0    0  501  0.00000000000E+00  0.00000000000E+00 -0.52498363116E+03  0.52498363118E+03  0.50400001928E-02 0. -1.
    10030    2    1    2    0    0  0.00000000000E+00  0.00000000000E+00  0.18042943545E+04  0.28542616168E+04  0.22116354265E+04 0.  0.
        5    1    3    3  502    0  0.64895658943E+02  0.26108879351E+03 -0.48209061148E+03  0.55209804593E+03  0.46999998093E+01 0. -1.
       -5    1    3    3    0  502 -0.64895658943E+02 -0.26108879351E+03  0.22863849660E+04  0.23021635709E+04  0.46999998093E+01 0.  1.
</event>
<event>
 5   0  0.1144271E-06  0.2197635E+04  0.7818609E-02  0.8519413E-01
       -1   -1    0    0    0  501  0.00000000000E+00  0.00000000000E+00  0.58181846248E+03  0.58181846251E+03  0.50400001928E-02 0.  1.
        1   -1    0    0  501    0  0.00000000000E+00  0.00000000000E+00 -0.20752184084E+04  0.20752184084E+04  0.50400001928E-02 0. -1.
    10030    2    1    2    0    0  0.00000000000E+00  0.00000000000E+00 -0.14933999459E+04  0.26570368709E+04  0.21976354418E+04 0.  0.
        3    1    3    3  502    0  0.16643254114E+03 -0.36598051151E+03 -0.19830962950E+04  0.20234407456E+04  0.10100000352E+00 0. -1.
       -3    1    3    3    0  502 -0.16643254114E+03  0.36598051151E+03  0.48969634905E+03  0.63359612533E+03  0.10100000352E+00 0.  1.
</event>
<event>
 5   0  0.2524749E-06  0.2198752E+04  0.7818609E-02  0.8518948E-01
       -2   -1    0    0    0  501  0.00000000000E+00  0.00000000000E+00  0.12917615026E+04  0.12917615026E+04  0.25500000920E-02 0. -1.
        2   -1    0    0  501    0  0.00000000000E+00  0.00000000000E+00 -0.93564340081E+03  0.93564340082E+03  0.25500000920E-02 0.  1.
    10030    2    1    2    0    0  0.00000000000E+00  0.00000000000E+00  0.35611810180E+03  0.22274049034E+04  0.21987524875E+04 0.  0.
        4    1    3    3  502    0 -0.53968697746E+03 -0.93906209512E+03  0.36900095180E+03  0.11442302948E+04  0.12699999809E+01 0. -1.
       -4    1    3    3    0  502  0.53968697746E+03  0.93906209512E+03 -0.12882849997E+02  0.10831746087E+04  0.12699999809E+01 0.  1.
</event>
<event>
 5   0  0.1146827E-06  0.2201764E+04  0.7818609E-02  0.8517694E-01
       -1   -1    0    0    0  501  0.00000000000E+00  0.00000000000E+00  0.17640383612E+04  0.17640383612E+04  0.50400001928E-02 0.  1.
        1   -1    0    0  501    0  0.00000000000E+00  0.00000000000E+00 -0.68702646668E+03  0.68702646670E+03  0.50400001928E-02 0. -1.
    10030    2    1    2    0    0  0.00000000000E+00  0.00000000000E+00  0.10770118945E+04  0.24510648279E+04  0.22017638769E+04 0.  0.
        4    1    3    3  502    0  0.89719415675E+03  0.60366178363E+03  0.76820487317E+03  0.13264634348E+04  0.12699999809E+01 0. -1.
       -4    1    3    3    0  502 -0.89719415675E+03 -0.60366178363E+03  0.30880702133E+03  0.11246013930E+04  0.12699999809E+01 0.  1.
</event>
<event>
 5   0  0.2532239E-06  0.2191434E+04  0.7818609E-02  0.8522002E-01
       -2   -1    0    0    0  501  0.00000000000E+00  0.00000000000E+00  0.13948034193E+04  0.13948034193E+04  0.25500000920E-02 0. -1.
        2   -1    0    0  501    0  0.00000000000E+00  0.00000000000E+00 -0.86076315235E+03  0.86076315235E+03  0.25500000920E-02 0.  1.
    10030    2    1    2    0    0  0.00000000000E+00  0.00000000000E+00  0.53404026693E+03  0.22555665716E+04  0.21914336751E+04 0.  0.
        3    1    3    3  502    0  0.31423322780E+03 -0.70904507025E+01 -0.81336652222E+03  0.87198503750E+03  0.10100000352E+00 0.  1.
       -3    1    3    3    0  502 -0.31423322780E+03  0.70904507025E+01  0.13474067891E+04  0.13835815341E+04  0.10100000352E+00 0. -1.
</event>
<event>
 5   0  0.2532239E-06  0.2200550E+04  0.7818609E-02  0.8518199E-01
       -2   -1    0    0    0  501  0.00000000000E+00  0.00000000000E+00  0.52080147795E+03  0.52080147795E+03  0.25500000920E-02 0.  1.
        2   -1    0    0  501    0  0.00000000000E+00  0.00000000000E+00 -0.23245037688E+04  0.23245037688E+04  0.25500000920E-02 0. -1.
    10030    2    1    2    0    0  0.00000000000E+00  0.00000000000E+00 -0.18037022908E+04  0.28453052467E+04  0.22005499297E+04 0.  0.
        3    1    3    3  502    0  0.80777833704E+03 -0.55243168823E+03 -0.15521123288E+04  0.18348676529E+04  0.10100000352E+00 0. -1.
       -3    1    3    3    0  502 -0.80777833704E+03  0.55243168823E+03 -0.25158996200E+03  0.10104375939E+04  0.10100000352E+00 0.  1.
</event>
<event>
 5   0  0.2532239E-06  0.2202942E+04  0.7818609E-02  0.8517205E-01
       -2   -1    0    0    0  501  0.00000000000E+00  0.00000000000E+00  0.56847871430E+03  0.56847871430E+03  0.25500000920E-02 0.  1.
        2   -1    0    0  501    0  0.00000000000E+00  0.00000000000E+00 -0.21341835296E+04  0.21341835296E+04  0.25500000920E-02 0. -1.
    10030    2    1    2    0    0  0.00000000000E+00  0.00000000000E+00 -0.15657048153E+04  0.27026622440E+04  0.22029415871E+04 0.  0.
        3    1    3    3  502    0  0.92085471354E+03  0.45474216990E+03 -0.29446115448E+03  0.10683965679E+04  0.10100000352E+00 0. -1.
       -3    1    3    3    0  502 -0.92085471354E+03 -0.45474216990E+03 -0.12712436609E+04  0.16342656761E+04  0.10100000352E+00 0.  1.
</event>
<event>
 5   0  0.1082209E-06  0.2198323E+04  0.7818609E-02  0.8519126E-01
       -1   -1    0    0    0  501  0.00000000000E+00  0.00000000000E+00  0.85812852371E+03  0.85812852373E+03  0.50400001928E-02 0. -1.
        1   -1    0    0  501    0  0.00000000000E+00  0.00000000000E+00 -0.14078961363E+04  0.14078961363E+04  0.50400001928E-02 0.  1.
    10030    2    1    2    0    0  0.00000000000E+00  0.00000000000E+00 -0.54976761259E+03  0.22660246600E+04  0.21983228453E+04 0.  0.
        2    1    3    3  502    0 -0.98704681821E+03  0.45045959296E+03 -0.93450156141E+02  0.10889941221E+04  0.25500000920E-02 0. -1.
       -2    1    3    3    0  502  0.98704681821E+03 -0.45045959296E+03 -0.45631745645E+03  0.11770305380E+04  0.25500000920E-02 0.  1.
</event>
<event>
 5   0  0.2556869E-06  0.2199313E+04  0.7818609E-02  0.8518714E-01
        2   -1    0    0  501    0  0.00000000000E+00  0.00000000000E+00  0.20374061325E+04  0.20374061325E+04  0.25500000920E-02 0.  1.
       -2   -1    0    0    0  501  0.00000000000E+00  0.00000000000E+00 -0.59352160007E+03  0.59352160007E+03  0.25500000920E-02 0. -1.
    10030    2    1    2    0    0  0.00000000000E+00  0.00000000000E+00  0.14438845324E+04  0.26309277326E+04  0.21993131180E+04 0.  0.
        5    1    3    3  502    0 -0.23324399740E+03 -0.76530698848E+03  0.16243974649E+04  0.18107420476E+04  0.46999998093E+01 0.  1.
       -5    1    3    3    0  502  0.23324399740E+03  0.76530698848E+03 -0.18051293254E+03  0.82018568492E+03  0.46999998093E+01 0. -1.
</event>
<event>
 5   0  0.2556869E-06  0.2198677E+04  0.7818609E-02  0.8518979E-01
        2   -1    0    0  501    0  0.00000000000E+00  0.00000000000E+00  0.13861539443E+04  0.13861539443E+04  0.25500000920E-02 0.  1.
       -2   -1    0    0    0  501  0.00000000000E+00  0.00000000000E+00 -0.87186908478E+03  0.87186908478E+03  0.25500000920E-02 0. -1.
    10030    2    1    2    0    0  0.00000000000E+00  0.00000000000E+00  0.51428485954E+03  0.22580230291E+04  0.21986766664E+04 0.  0.
        5    1    3    3  502    0  0.45509053960E+03 -0.55148341409E+03 -0.60043040708E+03  0.93369166163E+03  0.46999998093E+01 0. -1.
       -5    1    3    3    0  502 -0.45509053960E+03  0.55148341409E+03  0.11147152666E+04  0.13243313675E+04  0.46999998093E+01 0.  1.
</event>
<event>
 5   0  0.2524749E-06  0.2200676E+04  0.7818609E-02  0.8518147E-01
        2   -1    0    0  501    0  0.00000000000E+00  0.00000000000E+00  0.23855712701E+04  0.23855712701E+04  0.25500000920E-02 0.  1.
       -2   -1    0    0    0  501  0.00000000000E+00  0.00000000000E+00 -0.50752793412E+03  0.50752793413E+03  0.25500000920E-02 0. -1.
    10030    2    1    2    0    0  0.00000000000E+00  0.00000000000E+00  0.18780433360E+04  0.28930992042E+04  0.22006763128E+04 0.  0.
        4    1    3    3  502    0  0.55290250302E+03 -0.36810665378E+03 -0.21422552521E+03  0.69792397505E+03  0.12699999809E+01 0. -1.
       -4    1    3    3    0  502 -0.55290250302E+03  0.36810665378E+03  0.20922688612E+04  0.21951752292E+04  0.12699999809E+01 0.  1.
</event>
<event>
 5   0  0.2524749E-06  0.2200515E+04  0.7818609E-02  0.8518214E-01
        2   -1    0    0  501    0  0.00000000000E+00  0.00000000000E+00  0.17904468680E+04  0.17904468680E+04  0.25500000920E-02 0. -1.
       -2   -1    0    0    0  501  0.00000000000E+00  0.00000000000E+00 -0.67612559399E+03  0.67612559400E+03  0.25500000920E-02 0.  1.
    10030    2    1    2    0    0  0.00000000000E+00  0.00000000000E+00  0.11143212740E+04  0.24665724620E+04  0.22005153507E+04 0.  0.
        4    1    3    3  502    0 -0.27843876408E+03  0.43309607059E+03 -0.53275328817E+03  0.74089677463E+03  0.12699999809E+01 0.  1.
       -4    1    3    3    0  502  0.27843876408E+03 -0.43309607059E+03  0.16470745622E+04  0.17256756874E+04  0.12699999809E+01 0. -1.
</event>
<event>
 5   0  0.1082209E-06  0.2211299E+04  0.7818609E-02  0.8513740E-01
       -1   -1    0    0    0  501  0.00000000000E+00  0.00000000000E+00  0.87049747946E+03  0.87049747948E+03  0.50400001928E-02 0. -1.
        1   -1    0    0  501    0  0.00000000000E+00  0.00000000000E+00 -0.14043243000E+04  0.14043243000E+04  0.50400001928E-02 0.  1.
    10030    2    1    2    0    0  0.00000000000E+00  0.00000000000E+00 -0.53382682051E+03  0.22748217795E+04  0.22112989518E+04 0.  0.
        2    1    3    3  502    0  0.60903073161E+03 -0.66047620490E+03 -0.92987436174E+03  0.12929863023E+04  0.25500000920E-02 0.  1.
       -2    1    3    3    0  502 -0.60903073161E+03  0.66047620490E+03  0.39604754123E+03  0.98183547716E+03  0.25500000920E-02 0. -1.
</event>
<event>
 5   0  0.2532239E-06  0.2200636E+04  0.7818609E-02  0.8518163E-01
       -2   -1    0    0    0  501  0.00000000000E+00  0.00000000000E+00  0.75456574838E+03  0.75456574839E+03  0.25500000920E-02 0. -1.
        2   -1    0    0  501    0  0.00000000000E+00  0.00000000000E+00 -0.16044984265E+04  0.16044984265E+04  0.25500000920E-02 0.  1.
    10030    2    1    2    0    0  0.00000000000E+00  0.00000000000E+00 -0.84993267816E+03  0.23590641749E+04  0.22006358681E+04 0.  0.
        3    1    3    3  502    0  0.94012874743E+03 -0.49209353692E+03 -0.73695366534E+03  0.12919360765E+04  0.10100000352E+00 0.  1.
       -3    1    3    3    0  502 -0.94012874743E+03  0.49209353692E+03 -0.11297901282E+03  0.10671280984E+04  0.10100000352E+00 0. -1.
</event>
<event>
 5   0  0.1146827E-06  0.2200032E+04  0.7818609E-02  0.8518415E-01
       -1   -1    0    0    0  501  0.00000000000E+00  0.00000000000E+00  0.90995950267E+03  0.90995950268E+03  0.50400001928E-02 0.  1.
        1   -1    0    0  501    0  0.00000000000E+00  0.00000000000E+00 -0.13297680084E+04  0.13297680084E+04  0.50400001928E-02 0. -1.
    10030    2    1    2    0    0  0.00000000000E+00  0.00000000000E+00 -0.41980850569E+03  0.22397275111E+04  0.22000318503E+04 0.  0.
        4    1    3    3  502    0 -0.22902434924E+03 -0.28198625478E+03  0.84712910780E+03  0.92173626305E+03  0.12699999809E+01 0.  1.
       -4    1    3    3    0  502  0.22902434924E+03  0.28198625478E+03 -0.12669376135E+04  0.13179912480E+04  0.12699999809E+01 0. -1.
</event>
<event>
 5   0  0.2581058E-06  0.2189216E+04  0.7818609E-02  0.8522930E-01
       -2   -1    0    0    0  501  0.00000000000E+00  0.00000000000E+00  0.11037041491E+04  0.11037041491E+04  0.25500000920E-02 0.  1.
        2   -1    0    0  501    0  0.00000000000E+00  0.00000000000E+00 -0.10855866767E+04  0.10855866767E+04  0.25500000920E-02 0. -1.
    10030    2    1    2    0    0  0.00000000000E+00  0.00000000000E+00  0.18117472432E+02  0.21892908258E+04  0.21892158590E+04 0.  0.
        1    1    3    3  502    0  0.95751752290E+03  0.71975112589E+02 -0.51645549638E+03  0.10902965208E+04  0.50400001928E-02 0. -1.
       -1    1    3    3    0  502 -0.95751752290E+03 -0.71975112589E+02  0.53457296882E+03  0.10989943050E+04  0.50400001928E-02 0.  1.
</event>
<event>
 5   0  0.2606154E-06  0.2200152E+04  0.7818609E-02  0.8518365E-01
       -2   -1    0    0    0  501  0.00000000000E+00  0.00000000000E+00  0.13599769438E+04  0.13599769438E+04  0.25500000920E-02 0.  1.
        2   -1    0    0  501    0  0.00000000000E+00  0.00000000000E+00 -0.88984423744E+03  0.88984423744E+03  0.25500000920E-02 0. -1.
    10030    2    1    2    0    0  0.00000000000E+00  0.00000000000E+00  0.47013270640E+03  0.22498211813E+04  0.22001524007E+04 0.  0.
        2    1    3    3  502    0  0.28887437275E+03 -0.71378131686E+03  0.10384457243E+04  0.12927883407E+04  0.25500000920E-02 0.  1.
       -2    1    3    3    0  502 -0.28887437275E+03  0.71378131686E+03 -0.56831301794E+03  0.95703284055E+03  0.25500000920E-02 0. -1.
</event>
<event>
 5   0  0.1146827E-06  0.2183791E+04  0.7818609E-02  0.8525205E-01
        1   -1    0    0  501    0  0.00000000000E+00  0.00000000000E+00  0.86754699301E+03  0.86754699303E+03  0.50400001928E-02 0.  1.
       -1   -1    0    0    0  501  0.00000000000E+00  0.00000000000E+00 -0.13742613663E+04  0.13742613663E+04  0.50400001928E-02 0. -1.
    10030    2    1    2    0    0  0.00000000000E+00  0.00000000000E+00 -0.50671437325E+03  0.22418083593E+04  0.21837914882E+04 0.  0.
        4    1    3    3  502    0  0.75023549839E+03 -0.47150920350E+03 -0.90832020789E+03  0.12689450126E+04  0.12699999809E+01 0. -1.
       -4    1    3    3    0  502 -0.75023549839E+03  0.47150920350E+03  0.40160583465E+03  0.97286334670E+03  0.12699999809E+01 0.  1.
</event>
<event>
 5   0  0.1082209E-06  0.2198881E+04  0.7818609E-02  0.8518894E-01
        1   -1    0    0  501    0  0.00000000000E+00  0.00000000000E+00  0.18982231660E+04  0.18982231660E+04  0.50400001928E-02 0.  1.
       -1   -1    0    0    0  501  0.00000000000E+00  0.00000000000E+00 -0.63678997206E+03  0.63678997208E+03  0.50400001928E-02 0. -1.
    10030    2    1    2    0    0  0.00000000000E+00  0.00000000000E+00  0.12614331939E+04  0.25350131380E+04  0.21988810580E+04 0.  0.
        2    1    3    3  502    0  0.84545803425E+03  0.64560186384E+02  0.14375592141E+04  0.16689948470E+04  0.25500000920E-02 0.  1.
       -2    1    3    3    0  502 -0.84545803425E+03 -0.64560186384E+02 -0.17612602023E+03  0.86601829100E+03  0.25500000920E-02 0. -1.
</event>
<event>
 5   0  0.2524749E-06  0.2199807E+04  0.7818609E-02  0.8518508E-01
       -2   -1    0    0    0  501  0.00000000000E+00  0.00000000000E+00  0.67686015004E+03  0.67686015004E+03  0.25500000920E-02 0.  1.
        2   -1    0    0  501    0  0.00000000000E+00  0.00000000000E+00 -0.17873525441E+04  0.17873525441E+04  0.25500000920E-02 0. -1.
    10030    2    1    2    0    0  0.00000000000E+00  0.00000000000E+00 -0.11104923941E+04  0.24642126942E+04  0.21998070017E+04 0.  0.
        4    1    3    3  502    0 -0.83699336833E+03  0.69544666869E+03 -0.73441482459E+03  0.13128483214E+04  0.12699999809E+01 0. -1.
       -4    1    3    3    0  502  0.83699336833E+03 -0.69544666869E+03 -0.37607756950E+03  0.11513643727E+04  0.12699999809E+01 0.  1.
</event>
<event>
 5   0  0.2524749E-06  0.2198847E+04  0.7818609E-02  0.8518908E-01
        2   -1    0    0  501    0  0.00000000000E+00  0.00000000000E+00  0.21029710929E+04  0.21029710929E+04  0.25500000920E-02 0. -1.
       -2   -1    0    0    0  501  0.00000000000E+00  0.00000000000E+00 -0.57477325046E+03  0.57477325047E+03  0.25500000920E-02 0.  1.
    10030    2    1    2    0    0  0.00000000000E+00  0.00000000000E+00  0.15281978424E+04  0.26777443433E+04  0.21988465437E+04 0.  0.
        4    1    3    3  502    0 -0.82568216983E+03  0.54957008501E+03  0.18651016992E+03  0.10092402986E+04  0.12699999809E+01 0. -1.
       -4    1    3    3    0  502  0.82568216983E+03 -0.54957008501E+03  0.13416876725E+04  0.16685040448E+04  0.12699999809E+01 0.  1.
</event>
<event>
 5   0  0.1146827E-06  0.2209229E+04  0.7818609E-02  0.8514597E-01
        1   -1    0    0  501    0  0.00000000000E+00  0.00000000000E+00  0.15860311234E+04  0.15860311234E+04  0.50400001928E-02 0. -1.
       -1   -1    0    0    0  501  0.00000000000E+00  0.00000000000E+00 -0.76932503710E+03  0.76932503712E+03  0.50400001928E-02 0.  1.
    10030    2    1    2    0    0  0.00000000000E+00  0.00000000000E+00  0.81670608630E+03  0.23553561605E+04  0.22092292347E+04 0.  0.
        4    1    3    3  502    0 -0.58411630935E+03 -0.84189012582E+03  0.84819519864E+03  0.13301907964E+04  0.12699999809E+01 0.  1.
       -4    1    3    3    0  502  0.58411630935E+03  0.84189012582E+03 -0.31489112347E+02  0.10251653642E+04  0.12699999809E+01 0. -1.
</event>
<event>
 5   0  0.1082209E-06  0.2200735E+04  0.7818609E-02  0.8518122E-01
       -1   -1    0    0    0  501  0.00000000000E+00  0.00000000000E+00  0.99181355389E+03  0.99181355390E+03  0.50400001928E-02 0.  1.
        1   -1    0    0  501    0  0.00000000000E+00  0.00000000000E+00 -0.12208029404E+04  0.12208029404E+04  0.50400001928E-02 0. -1.
    10030    2    1    2    0    0  0.00000000000E+00  0.00000000000E+00 -0.22898938653E+03  0.22126164943E+04  0.22007352435E+04 0.  0.
        2    1    3    3  502    0 -0.10009791343E+04  0.36649294920E+02 -0.57248280480E+03  0.11537066178E+04  0.25500000920E-02 0.  1.
       -2    1    3    3    0  502  0.10009791343E+04 -0.36649294920E+02  0.34349341827E+03  0.10589098765E+04  0.25500000920E-02 0. -1.
</event>
<event>
 5   0  0.2556869E-06  0.2200222E+04  0.7818609E-02  0.8518336E-01
       -2   -1    0    0    0  501  0.00000000000E+00  0.00000000000E+00  0.58793999709E+03  0.58793999710E+03  0.25500000920E-02 0. -1.
        2   -1    0    0  501    0  0.00000000000E+00  0.00000000000E+00 -0.20584476144E+04  0.20584476144E+04  0.25500000920E-02 0.  1.
    10030    2    1    2    0    0  0.00000000000E+00  0.00000000000E+00 -0.14705076173E+04  0.26463876115E+04  0.22002215202E+04 0.  0.
        5    1    3    3  502    0  0.84235484791E+03 -0.38831368287E+03 -0.14466997096E+04  0.17185201034E+04  0.46999998093E+01 0.  1.
       -5    1    3    3    0  502 -0.84235484791E+03  0.38831368287E+03 -0.23807907722E+02  0.92786750809E+03  0.46999998093E+01 0. -1.
</event>
<event>
 5   0  0.2556869E-06  0.2198589E+04  0.7818609E-02  0.8519016E-01
        2   -1    0    0  501    0  0.00000000000E+00  0.00000000000E+00  0.10358776488E+04  0.10358776488E+04  0.25500000920E-02 0. -1.
       -2   -1    0    0    0  501  0.00000000000E+00  0.00000000000E+00 -0.11665932856E+04  0.11665932856E+04  0.25500000920E-02 0.  1.
    10030    2    1    2    0    0  0.00000000000E+00  0.00000000000E+00 -0.13071563682E+03  0.22024709344E+04  0.21985885562E+04 0.  0.
        5    1    3    3  502    0  0.10852630261E+04 -0.11005214932E+03  0.70965209786E+02  0.10931447582E+04  0.46999998093E+01 0.  1.
       -5    1    3    3    0  502 -0.10852630261E+04  0.11005214932E+03 -0.20168084661E+03  0.11093261762E+04  0.46999998093E+01 0. -1.
</event>
<event>
 5   0  0.1137869E-06  0.2199634E+04  0.7818609E-02  0.8518580E-01
        1   -1    0    0  501    0  0.00000000000E+00  0.00000000000E+00  0.55632874068E+03  0.55632874070E+03  0.50400001928E-02 0. -1.
       -1   -1    0    0    0  501  0.00000000000E+00  0.00000000000E+00 -0.21742500080E+04  0.21742500080E+04  0.50400001928E-02 0.  1.
    10030    2    1    2    0    0  0.00000000000E+00  0.00000000000E+00 -0.16179212674E+04  0.27305787487E+04  0.21996343050E+04 0.  0.
        5    1    3    3  502    0 -0.96367155337E+03 -0.74289627932E+02 -0.14604110322E+04  0.17512864656E+04  0.46999998093E+01 0.  1.
       -5    1    3    3    0  502  0.96367155337E+03  0.74289627932E+02 -0.15751023511E+03  0.97929228311E+03  0.46999998093E+01 0. -1.
</event>
<event>
 5   0  0.2606154E-06  0.2200136E+04  0.7818609E-02  0.8518372E-01
       -2   -1    0    0    0  501  0.00000000000E+00  0.00000000000E+00  0.48770674726E+03  0.48770674727E+03  0.25500000920E-02 0. -1.
        2   -1    0    0  501    0  0.00000000000E+00  0.00000000000E+00 -0.24813058008E+04  0.24813058008E+04  0.25500000920E-02 0.  1.
    10030    2    1    2    0    0  0.00000000000E+00  0.00000000000E+00 -0.19935990535E+04  0.29690125481E+04  0.22001359786E+04 0.  0.
        2    1    3    3  502    0  0.10266101717E+04 -0.17173143386E+03 -0.51640142020E+03  0.11619339726E+04  0.25500000920E-02 0. -1.
       -2    1    3    3    0  502 -0.10266101717E+04  0.17173143386E+03 -0.14771976333E+04  0.18070785755E+04  0.25500000920E-02 0.  1.
</event>
<event>
 5   0  0.1146827E-06  0.2202812E+04  0.7818609E-02  0.8517258E-01
        1   -1    0    0  501    0  0.00000000000E+00  0.00000000000E+00  0.22318913262E+04  0.22318913262E+04  0.50400001928E-02 0. -1.
       -1   -1    0    0    0  501  0.00000000000E+00  0.00000000000E+00 -0.54352803133E+03  0.54352803135E+03  0.50400001928E-02 0.  1.
    10030    2    1    2    0    0  0.00000000000E+00  0.00000000000E+00  0.16883632949E+04  0.27754193576E+04  0.22028122923E+04 0.  0.
        4    1    3    3  502    0 -0.96674262285E+02 -0.11702613015E+03  0.22186484269E+04  0.22238353094E+04  0.12699999809E+01 0. -1.
       -4    1    3    3    0  502  0.96674262285E+02  0.11702613015E+03 -0.53028513200E+03  0.55158404822E+03  0.12699999809E+01 0.  1.
</event>
<event>
 5   0  0.2532239E-06  0.2200324E+04  0.7818609E-02  0.8518293E-01
        2   -1    0    0  501    0  0.00000000000E+00  0.00000000000E+00  0.29106579401E+04  0.29106579401E+04  0.25500000920E-02 0.  1.
       -2   -1    0    0    0  501  0.00000000000E+00  0.00000000000E+00 -0.41583584909E+03  0.41583584910E+03  0.25500000920E-02 0. -1.
    10030    2    1    2    0    0  0.00000000000E+00  0.00000000000E+00  0.24948220910E+04  0.33264937892E+04  0.22003235362E+04 0.  0.
        3    1    3    3  502    0  0.90389747555E+03  0.22557838322E+03  0.36271884926E+03  0.99974057990E+03  0.10100000352E+00 0. -1.
       -3    1    3    3    0  502 -0.90389747555E+03 -0.22557838322E+03  0.21321032418E+04  0.23267532093E+04  0.10100000352E+00 0.  1.
</event>
<event>
 5   0  0.8905000E-07  0.2198949E+04  0.7818609E-02  0.8518866E-01
        4   -1    0    0  501    0  0.00000000000E+00  0.00000000000E+00  0.89854499933E+03  0.89854589684E+03  0.12699999809E+01 0. -1.
       -4   -1    0    0    0  501  0.00000000000E+00  0.00000000000E+00 -0.13453336201E+04  0.13453342196E+04  0.12699999809E+01 0.  1.
    10030    2    1    2    0    0  0.00000000000E+00  0.00000000000E+00 -0.44678862080E+03  0.22438801164E+04  0.21989492730E+04 0.  0.
        3    1    3    3  502    0 -0.10899312056E+03  0.31141160893E+03 -0.12936273860E+04  0.13350387689E+04  0.10100000352E+00 0.  1.
       -3    1    3    3    0  502  0.10899312056E+03 -0.31141160893E+03  0.84683876519E+03  0.90884134750E+03  0.10100000352E+00 0. -1.
</event>
<event>
 5   0  0.2606154E-06  0.2205797E+04  0.7818609E-02  0.8516019E-01
       -2   -1    0    0    0  501  0.00000000000E+00  0.00000000000E+00  0.87442559713E+03  0.87442559713E+03  0.25500000920E-02 0.  1.
        2   -1    0    0  501    0  0.00000000000E+00  0.00000000000E+00 -0.13910676050E+04  0.13910676050E+04  0.25500000920E-02 0. -1.
    10030    2    1    2    0    0  0.00000000000E+00  0.00000000000E+00 -0.51664200789E+03  0.22654932022E+04  0.22057970180E+04 0.  0.
        2    1    3    3  502    0  0.91067926254E+03 -0.43628893652E+03  0.19719097444E+03  0.10288678417E+04  0.25500000920E-02 0.  1.
       -2    1    3    3    0  502 -0.91067926254E+03  0.43628893652E+03 -0.71383298233E+03  0.12366253604E+04  0.25500000920E-02 0. -1.
</event>
<event>
 5   0  0.1144271E-06  0.2198956E+04  0.7818609E-02  0.8518863E-01
        1   -1    0    0  501    0  0.00000000000E+00  0.00000000000E+00  0.25307001021E+04  0.25307001021E+04  0.50400001928E-02 0. -1.
       -1   -1    0    0    0  501  0.00000000000E+00  0.00000000000E+00 -0.47767507917E+03  0.47767507920E+03  0.50400001928E-02 0.  1.
    10030    2    1    2    0    0  0.00000000000E+00  0.00000000000E+00  0.20530250229E+04  0.30083751813E+04  0.21989564540E+04 0.  0.
        3    1    3    3  502    0 -0.18420436989E+03 -0.17751355174E+03  0.24894183416E+04  0.25025279220E+04  0.10100000352E+00 0. -1.
       -3    1    3    3    0  502  0.18420436989E+03  0.17751355174E+03 -0.43639331866E+03  0.50584725927E+03  0.10100000352E+00 0.  1.
</event>
<event>
 5   0  0.2606154E-06  0.2199312E+04  0.7818609E-02  0.8518715E-01
       -2   -1    0    0    0  501  0.00000000000E+00  0.00000000000E+00  0.94726062227E+03  0.94726062228E+03  0.25500000920E-02 0. -1.
        2   -1    0    0  501    0  0.00000000000E+00  0.00000000000E+00 -0.12765687395E+04  0.12765687395E+04  0.25500000920E-02 0.  1.
    10030    2    1    2    0    0  0.00000000000E+00  0.00000000000E+00 -0.32930811724E+03  0.22238293618E+04  0.21993119820E+04 0.  0.
        2    1    3    3  502    0 -0.25643122026E+03  0.76396651910E+03 -0.92122064788E+03  0.12239482404E+04  0.25500000920E-02 0.  1.
       -2    1    3    3    0  502  0.25643122026E+03 -0.76396651910E+03  0.59191253064E+03  0.99988112142E+03  0.25500000920E-02 0. -1.
</event>
<event>
 5   0  0.1137869E-06  0.2199416E+04  0.7818609E-02  0.8518671E-01
        1   -1    0    0  501    0  0.00000000000E+00  0.00000000000E+00  0.72014358932E+03  0.72014358933E+03  0.50400001928E-02 0.  1.
       -1   -1    0    0    0  501  0.00000000000E+00  0.00000000000E+00 -0.16793287029E+04  0.16793287029E+04  0.50400001928E-02 0. -1.
    10030    2    1    2    0    0  0.00000000000E+00  0.00000000000E+00 -0.95918511362E+03  0.23994722923E+04  0.21994161042E+04 0.  0.
        5    1    3    3  502    0 -0.59668113576E+03  0.92374224658E+03 -0.47658619671E+03  0.11985343586E+04  0.46999998093E+01 0.  1.
       -5    1    3    3    0  502  0.59668113576E+03 -0.92374224658E+03 -0.48259891691E+03  0.12009379337E+04  0.46999998093E+01 0. -1.
</event>
<event>
 5   0  0.1146827E-06  0.2199877E+04  0.7818609E-02  0.8518479E-01
       -1   -1    0    0    0  501  0.00000000000E+00  0.00000000000E+00  0.65211958654E+03  0.65211958656E+03  0.50400001928E-02 0.  1.
        1   -1    0    0  501    0  0.00000000000E+00  0.00000000000E+00 -0.18552803160E+04  0.18552803160E+04  0.50400001928E-02 0. -1.
    10030    2    1    2    0    0  0.00000000000E+00  0.00000000000E+00 -0.12031607294E+04  0.25073999025E+04  0.21998769353E+04 0.  0.
        4    1    3    3  502    0  0.28374198223E+03 -0.99606523374E+03 -0.10237764817E+04  0.14562882131E+04  0.12699999809E+01 0. -1.
       -4    1    3    3    0  502 -0.28374198223E+03  0.99606523374E+03 -0.17938424771E+03  0.10511116894E+04  0.12699999809E+01 0.  1.
</event>
<event>
 5   0  0.2532239E-06  0.2199976E+04  0.7818609E-02  0.8518438E-01
       -2   -1    0    0    0  501  0.00000000000E+00  0.00000000000E+00  0.12823949661E+04  0.12823949661E+04  0.25500000920E-02 0.  1.
        2   -1    0    0  501    0  0.00000000000E+00  0.00000000000E+00 -0.94352608447E+03  0.94352608448E+03  0.25500000920E-02 0. -1.
    10030    2    1    2    0    0  0.00000000000E+00  0.00000000000E+00  0.33886888165E+03  0.22259210506E+04  0.21999755464E+04 0.  0.
        3    1    3    3  502    0  0.55907507939E+03 -0.61095338782E+03 -0.56308179623E+03  0.10014440104E+04  0.10100000352E+00 0. -1.
       -3    1    3    3    0  502 -0.55907507939E+03  0.61095338782E+03  0.90195067788E+03  0.12244770402E+04  0.10100000352E+00 0.  1.
</event>
<event>
 5   0  0.1144271E-06  0.2200076E+04  0.7818609E-02  0.8518396E-01
        1   -1    0    0  501    0  0.00000000000E+00  0.00000000000E+00  0.76326654618E+03  0.76326654620E+03  0.50400001928E-02 0. -1.
       -1   -1    0    0    0  501  0.00000000000E+00  0.00000000000E+00 -0.15854011562E+04  0.15854011562E+04  0.50400001928E-02 0.  1.
    10030    2    1    2    0    0  0.00000000000E+00  0.00000000000E+00 -0.82213461002E+03  0.23486677024E+04  0.22000760576E+04 0.  0.
        3    1    3    3  502    0  0.91818905687E+03 -0.52166192739E+03 -0.82235137847E+02  0.10592284639E+04  0.10100000352E+00 0. -1.
       -3    1    3    3    0  502 -0.91818905687E+03  0.52166192739E+03 -0.73989947217E+03  0.12894392385E+04  0.10100000352E+00 0.  1.
</event>
<event>
 5   0  0.1082209E-06  0.2199987E+04  0.7818609E-02  0.8518433E-01
       -1   -1    0    0    0  501  0.00000000000E+00  0.00000000000E+00  0.48818207897E+03  0.48818207900E+03  0.50400001928E-02 0.  1.
        1   -1    0    0  501    0  0.00000000000E+00  0.00000000000E+00 -0.24785552191E+04  0.24785552191E+04  0.50400001928E-02 0. -1.
    10030    2    1    2    0    0  0.00000000000E+00  0.00000000000E+00 -0.19903731402E+04  0.29667372981E+04  0.21999874907E+04 0.  0.
        2    1    3    3  502    0 -0.93016528465E+03  0.37099300014E+03 -0.38143306287E+03  0.10716036788E+04  0.25500000920E-02 0.  1.
       -2    1    3    3    0  502  0.93016528465E+03 -0.37099300014E+03 -0.16089400773E+04  0.18951336194E+04  0.25500000920E-02 0. -1.
</event>
<event>
 5   0  0.1082209E-06  0.2200115E+04  0.7818609E-02  0.8518380E-01
        1   -1    0    0  501    0  0.00000000000E+00  0.00000000000E+00  0.14709705395E+04  0.14709705395E+04  0.50400001928E-02 0.  1.
       -1   -1    0    0    0  501  0.00000000000E+00  0.00000000000E+00 -0.82267219340E+03  0.82267219341E+03  0.50400001928E-02 0. -1.
    10030    2    1    2    0    0  0.00000000000E+00  0.00000000000E+00  0.64829834610E+03  0.22936427329E+04  0.22001150517E+04 0.  0.
        2    1    3    3  502    0  0.55002689437E+03 -0.64696249475E+03  0.10531886054E+04  0.13528844344E+04  0.25500000920E-02 0.  1.
       -2    1    3    3    0  502 -0.55002689437E+03  0.64696249475E+03 -0.40489025935E+03  0.94075829854E+03  0.25500000920E-02 0. -1.
</event>
<event>
 5   0  0.2524749E-06  0.2208104E+04  0.7818609E-02  0.8515063E-01
        2   -1    0    0  501    0  0.00000000000E+00  0.00000000000E+00  0.86768839196E+03  0.86768839196E+03  0.25500000920E-02 0.  1.
       -2   -1    0    0    0  501  0.00000000000E+00  0.00000000000E+00 -0.14048028403E+04  0.14048028403E+04  0.25500000920E-02 0. -1.
    10030    2    1    2    0    0  0.00000000000E+00  0.00000000000E+00 -0.53711444834E+03  0.22724912323E+04  0.22081042707E+04 0.  0.
        4    1    3    3  502    0 -0.93706666235E+03 -0.52756930030E+03 -0.52585984867E+03  0.11970603534E+04  0.12699999809E+01 0. -1.
       -4    1    3    3    0  502  0.93706666235E+03  0.52756930030E+03 -0.11254599672E+02  0.10754308789E+04  0.12699999809E+01 0.  1.
</event>
<event>
 5   0  0.1107101E-06  0.2204270E+04  0.7818609E-02  0.8516653E-01
        1   -1    0    0  501    0  0.00000000000E+00  0.00000000000E+00  0.12842812144E+04  0.12842812144E+04  0.50400001928E-02 0.  1.
       -1   -1    0    0    0  501  0.00000000000E+00  0.00000000000E+00 -0.94582207024E+03  0.94582207025E+03  0.50400001928E-02 0. -1.
    10030    2    1    2    0    0  0.00000000000E+00  0.00000000000E+00  0.33845914417E+03  0.22301032847E+04  0.22042699626E+04 0.  0.
        1    1    3    3  502    0 -0.40716535996E+03 -0.87749663506E+03  0.70354548622E+03  0.11961438986E+04  0.50400001928E-02 0.  1.
       -1    1    3    3    0  502  0.40716535996E+03  0.87749663506E+03 -0.36508634205E+03  0.10339593861E+04  0.50400001928E-02 0. -1.
</event>
<event>
 5   0  0.1107101E-06  0.2198700E+04  0.7818609E-02  0.8518969E-01
        1   -1    0    0  501    0  0.00000000000E+00  0.00000000000E+00  0.86414323920E+03  0.86414323921E+03  0.50400001928E-02 0.  1.
       -1   -1    0    0    0  501  0.00000000000E+00  0.00000000000E+00 -0.13985766604E+04  0.13985766604E+04  0.50400001928E-02 0. -1.
    10030    2    1    2    0    0  0.00000000000E+00  0.00000000000E+00 -0.53443342116E+03  0.22627198996E+04  0.21987001301E+04 0.  0.
        1    1    3    3  502    0  0.40903872791E+03  0.61460645185E+03  0.57106647279E+03  0.93336524896E+03  0.50400001928E-02 0.  1.
       -1    1    3    3    0  502 -0.40903872791E+03 -0.61460645185E+03 -0.11054998940E+04  0.13293546506E+04  0.50400001928E-02 0. -1.
</event>
<event>
 5   0  0.2556869E-06  0.2199535E+04  0.7818609E-02  0.8518622E-01
        2   -1    0    0  501    0  0.00000000000E+00  0.00000000000E+00  0.15382154896E+04  0.15382154896E+04  0.25500000920E-02 0.  1.
       -2   -1    0    0    0  501  0.00000000000E+00  0.00000000000E+00 -0.78629342870E+03  0.78629342870E+03  0.25500000920E-02 0. -1.
    10030    2    1    2    0    0  0.00000000000E+00  0.00000000000E+00  0.75192206093E+03  0.23245089183E+04  0.21995351613E+04 0.  0.
        5    1    3    3  502    0  0.89414621475E+03  0.46986890114E+03  0.83563737547E+03  0.13109485691E+04  0.46999998093E+01 0.  1.
       -5    1    3    3    0  502 -0.89414621475E+03 -0.46986890114E+03 -0.83715314541E+02  0.10135603492E+04  0.46999998093E+01 0. -1.
</event>
<event>
 5   0  0.2581058E-06  0.2197816E+04  0.7818609E-02  0.8519338E-01
       -2   -1    0    0    0  501  0.00000000000E+00  0.00000000000E+00  0.59957714536E+03  0.59957714536E+03  0.25500000920E-02 0. -1.
        2   -1    0    0  501    0  0.00000000000E+00  0.00000000000E+00 -0.20140832023E+04  0.20140832023E+04  0.25500000920E-02 0.  1.
    10030    2    1    2    0    0  0.00000000000E+00  0.00000000000E+00 -0.14145060570E+04  0.26136603477E+04  0.21978155127E+04 0.  0.
        1    1    3    3  502    0 -0.19769205015E+03  0.31580903251E+03 -0.19366785642E+04  0.19721920172E+04  0.50400001928E-02 0.  1.
       -1    1    3    3    0  502  0.19769205015E+03 -0.31580903251E+03  0.52217250721E+03  0.64146833049E+03  0.50400001928E-02 0. -1.
</event>
<event>
 5   0  0.2581058E-06  0.2199354E+04  0.7818609E-02  0.8518697E-01
       -2   -1    0    0    0  501  0.00000000000E+00  0.00000000000E+00  0.10972301199E+04  0.10972301199E+04  0.25500000920E-02 0. -1.
        2   -1    0    0  501    0  0.00000000000E+00  0.00000000000E+00 -0.11021292745E+04  0.11021292745E+04  0.25500000920E-02 0.  1.
    10030    2    1    2    0    0  0.00000000000E+00  0.00000000000E+00 -0.48991546071E+01  0.21993593943E+04  0.21993539378E+04 0.  0.
        1    1    3    3  502    0  0.13144335318E+03 -0.57455574884E+03 -0.93083637653E+03  0.11017477132E+04  0.50400001928E-02 0.  1.
       -1    1    3    3    0  502 -0.13144335318E+03  0.57455574884E+03  0.92593722193E+03  0.10976116812E+04  0.50400001928E-02 0. -1.
</event>
<event>
 5   0  0.1144271E-06  0.2201364E+04  0.7818609E-02  0.8517861E-01
       -1   -1    0    0    0  501  0.00000000000E+00  0.00000000000E+00  0.49263976627E+03  0.49263976630E+03  0.50400001928E-02 0. -1.
        1   -1    0    0  501    0  0.00000000000E+00  0.00000000000E+00 -0.24592021470E+04  0.24592021470E+04  0.50400001928E-02 0.  1.
    10030    2    1    2    0    0  0.00000000000E+00  0.00000000000E+00 -0.19665623807E+04  0.29518419133E+04  0.22013639144E+04 0.  0.
        3    1    3    3  502    0  0.23551398908E+03  0.14642256403E+03  0.44502579787E+03  0.52436092272E+03  0.10100000352E+00 0. -1.
       -3    1    3    3    0  502 -0.23551398908E+03 -0.14642256403E+03 -0.24115881786E+04  0.24274809906E+04  0.10100000352E+00 0.  1.
</event>
<event>
 5   0  0.2556869E-06  0.2198307E+04  0.7818609E-02  0.8519133E-01
        2   -1    0    0  501    0  0.00000000000E+00  0.00000000000E+00  0.13174879748E+04  0.13174879748E+04  0.25500000920E-02 0.  1.
       -2   -1    0    0    0  501  0.00000000000E+00  0.00000000000E+00 -0.91700187935E+03  0.91700187936E+03  0.25500000920E-02 0. -1.
    10030    2    1    2    0    0  0.00000000000E+00  0.00000000000E+00  0.40048609541E+03  0.22344898541E+04  0.21983074843E+04 0.  0.
        5    1    3    3  502    0  0.71493863171E+03  0.22971837990E+03 -0.61559389793E+03  0.97102302668E+03  0.46999998093E+01 0. -1.
       -5    1    3    3    0  502 -0.71493863171E+03 -0.22971837990E+03  0.10160799933E+04  0.12634668274E+04  0.46999998093E+01 0.  1.
</event>
<event>
 5   0  0.2606154E-06  0.2200033E+04  0.7818609E-02  0.8518414E-01
        2   -1    0    0  501    0  0.00000000000E+00  0.00000000000E+00  0.19569176680E+04  0.19569176680E+04  0.25500000920E-02 0. -1.
       -2   -1    0    0    0  501  0.00000000000E+00  0.00000000000E+00 -0.61833773862E+03  0.61833773862E+03  0.25500000920E-02 0.  1.
    10030    2    1    2    0    0  0.00000000000E+00  0.00000000000E+00  0.13385799293E+04  0.25752554066E+04  0.22000327684E+04 0.  0.
        2    1    3    3  502    0  0.88645316279E+03  0.58592468248E+03  0.33629051242E+03  0.11145394798E+04  0.25500000920E-02 0.  1.
       -2    1    3    3    0  502 -0.88645316279E+03 -0.58592468248E+03  0.10022894169E+04  0.14607159267E+04  0.25500000920E-02 0. -1.
</event>
<event>
 5   0  0.1137869E-06  0.2199382E+04  0.7818609E-02  0.8518685E-01
       -1   -1    0    0    0  501  0.00000000000E+00  0.00000000000E+00  0.91924953020E+03  0.91924953021E+03  0.50400001928E-02 0.  1.
        1   -1    0    0  501    0  0.00000000000E+00  0.00000000000E+00 -0.13155514522E+04  0.13155514523E+04  0.50400001928E-02 0. -1.
    10030    2    1    2    0    0  0.00000000000E+00  0.00000000000E+00 -0.39630192204E+03  0.22348009825E+04  0.21993817808E+04 0.  0.
        5    1    3    3  502    0 -0.53579613133E+03  0.24715563959E+03  0.74476663445E+03  0.95019094624E+03  0.46999998093E+01 0.  1.
       -5    1    3    3    0  502  0.53579613133E+03 -0.24715563959E+03 -0.11410685565E+04  0.12846100362E+04  0.46999998093E+01 0. -1.
</event>
<event>
 5   0  0.2581058E-06  0.2200095E+04  0.7818609E-02  0.8518388E-01
       -2   -1    0    0    0  501  0.00000000000E+00  0.00000000000E+00  0.70373114970E+03  0.70373114970E+03  0.25500000920E-02 0.  1.
        2   -1    0    0  501    0  0.00000000000E+00  0.00000000000E+00 -0.17195558758E+04  0.17195558758E+04  0.25500000920E-02 0. -1.
    10030    2    1    2    0    0  0.00000000000E+00  0.00000000000E+00 -0.10158247261E+04  0.24232870255E+04  0.22000954829E+04 0.  0.
        1    1    3    3  502    0 -0.43266306875E+03 -0.38870417677E+03 -0.15363452025E+04  0.16427552616E+04  0.50400001928E-02 0. -1.
       -1    1    3    3    0  502  0.43266306875E+03  0.38870417677E+03  0.52052047642E+03  0.78053176392E+03  0.50400001928E-02 0.  1.
</event>
<event>
 5   0  0.2524749E-06  0.2201306E+04  0.7818609E-02  0.8517885E-01
        2   -1    0    0  501    0  0.00000000000E+00  0.00000000000E+00  0.13453083668E+04  0.13453083668E+04  0.25500000920E-02 0. -1.
       -2   -1    0    0    0  501  0.00000000000E+00  0.00000000000E+00 -0.90049053717E+03  0.90049053718E+03  0.25500000920E-02 0.  1.
    10030    2    1    2    0    0  0.00000000000E+00  0.00000000000E+00  0.44481782963E+03  0.22457989040E+04  0.22013063884E+04 0.  0.
        4    1    3    3  502    0 -0.87289447217E+02 -0.51160321063E+03 -0.76781618162E+03  0.92676890021E+03  0.12699999809E+01 0.  1.
       -4    1    3    3    0  502  0.87289447217E+02  0.51160321063E+03  0.12126340113E+04  0.13190300038E+04  0.12699999809E+01 0. -1.
</event>
<event>
 5   0  0.2581058E-06  0.2199937E+04  0.7818609E-02  0.8518454E-01
       -2   -1    0    0    0  501  0.00000000000E+00  0.00000000000E+00  0.72737402975E+03  0.72737402975E+03  0.25500000920E-02 0.  1.
        2   -1    0    0  501    0  0.00000000000E+00  0.00000000000E+00 -0.16634229665E+04  0.16634229665E+04  0.25500000920E-02 0. -1.
    10030    2    1    2    0    0  0.00000000000E+00  0.00000000000E+00 -0.93604893679E+03  0.23907969963E+04  0.21999369685E+04 0.  0.
        1    1    3    3  502    0 -0.78572405562E+03  0.14639874984E+03 -0.12893250837E+04  0.15169555224E+04  0.50400001928E-02 0. -1.
       -1    1    3    3    0  502  0.78572405562E+03 -0.14639874984E+03  0.35327614687E+03  0.87384147390E+03  0.50400001928E-02 0.  1.
</event>
<event>
 5   0  0.2606154E-06  0.2198789E+04  0.7818609E-02  0.8518932E-01
        2   -1    0    0  501    0  0.00000000000E+00  0.00000000000E+00  0.86605771983E+03  0.86605771983E+03  0.25500000920E-02 0. -1.
       -2   -1    0    0    0  501  0.00000000000E+00  0.00000000000E+00 -0.13955978127E+04  0.13955978127E+04  0.25500000920E-02 0.  1.
    10030    2    1    2    0    0  0.00000000000E+00  0.00000000000E+00 -0.52954009284E+03  0.22616555325E+04  0.21987889935E+04 0.  0.
        2    1    3    3  502    0  0.96084031151E+02 -0.98693325894E+03 -0.75310607086E+03  0.12451659137E+04  0.25500000920E-02 0.  1.
       -2    1    3    3    0  502 -0.96084031151E+02  0.98693325894E+03  0.22356597801E+03  0.10164896188E+04  0.25500000920E-02 0. -1.
</event>
<event>
 5   0  0.1082209E-06  0.2201939E+04  0.7818609E-02  0.8517622E-01
       -1   -1    0    0    0  501  0.00000000000E+00  0.00000000000E+00  0.10424674732E+04  0.10424674732E+04  0.50400001928E-02 0.  1.
        1   -1    0    0  501    0  0.00000000000E+00  0.00000000000E+00 -0.11627543144E+04  0.11627543144E+04  0.50400001928E-02 0. -1.
    10030    2    1    2    0    0  0.00000000000E+00  0.00000000000E+00 -0.12028684114E+03  0.22052217876E+04  0.22019387385E+04 0.  0.
        2    1    3    3  502    0  0.77662780363E+03 -0.63978992083E+03 -0.50763360085E+03  0.11270198582E+04  0.25500000920E-02 0. -1.
       -2    1    3    3    0  502 -0.77662780363E+03  0.63978992083E+03  0.38734675971E+03  0.10782019293E+04  0.25500000920E-02 0.  1.
</event>
<event>
 5   0  0.1082209E-06  0.2211744E+04  0.7818609E-02  0.8513556E-01
        1   -1    0    0  501    0  0.00000000000E+00  0.00000000000E+00  0.15317171352E+04  0.15317171352E+04  0.50400001928E-02 0.  1.
       -1   -1    0    0    0  501  0.00000000000E+00  0.00000000000E+00 -0.79841928710E+03  0.79841928711E+03  0.50400001928E-02 0. -1.
    10030    2    1    2    0    0  0.00000000000E+00  0.00000000000E+00  0.73329784808E+03  0.23301364223E+04  0.22117436589E+04 0.  0.
        2    1    3    3  502    0  0.90065599906E+03 -0.29547628206E+03  0.96675843983E+03  0.13539236843E+04  0.25500000920E-02 0.  1.
       -2    1    3    3    0  502 -0.90065599906E+03  0.29547628206E+03 -0.23346059176E+03  0.97621273799E+03  0.25500000920E-02 0. -1.
</event>
<event>
 5   0  0.2581058E-06  0.2200136E+04  0.7818609E-02  0.8518371E-01
       -2   -1    0    0    0  501  0.00000000000E+00  0.00000000000E+00  0.81932614769E+03  0.81932614769E+03  0.25500000920E-02 0. -1.
        2   -1    0    0  501    0  0.00000000000E+00  0.00000000000E+00 -0.14770059945E+04  0.14770059945E+04  0.25500000920E-02 0.  1.
    10030    2    1    2    0    0  0.00000000000E+00  0.00000000000E+00 -0.65767984682E+03  0.22963321422E+04  0.22001360245E+04 0.  0.
        1    1    3    3  502    0  0.48904374328E+03 -0.18612907578E+03  0.68111591023E+03  0.85891018091E+03  0.50400001928E-02 0. -1.
       -1    1    3    3    0  502 -0.48904374328E+03  0.18612907578E+03 -0.13387957570E+04  0.14374219613E+04  0.50400001928E-02 0.  1.
</event>
<event>
 5   0  0.1107101E-06  0.2199935E+04  0.7818609E-02  0.8518455E-01
        1   -1    0    0  501    0  0.00000000000E+00  0.00000000000E+00  0.83854231283E+03  0.83854231284E+03  0.50400001928E-02 0.  1.
       -1   -1    0    0    0  501  0.00000000000E+00  0.00000000000E+00 -0.14428945283E+04  0.14428945283E+04  0.50400001928E-02 0. -1.
    10030    2    1    2    0    0  0.00000000000E+00  0.00000000000E+00 -0.60435221547E+03  0.22814368411E+04  0.21999346490E+04 0.  0.
        1    1    3    3  502    0  0.44067464734E+03  0.10007841971E+04 -0.17875019082E+03  0.11080229170E+04  0.50400001928E-02 0.  1.
       -1    1    3    3    0  502 -0.44067464734E+03 -0.10007841971E+04 -0.42560202465E+03  0.11734139241E+04  0.50400001928E-02 0. -1.
</event>
<event>
 5   0  0.1137869E-06  0.2202414E+04  0.7818609E-02  0.8517424E-01
       -1   -1    0    0    0  501  0.00000000000E+00  0.00000000000E+00  0.11909789535E+04  0.11909789535E+04  0.50400001928E-02 0. -1.
        1   -1    0    0  501    0  0.00000000000E+00  0.00000000000E+00 -0.10182020757E+04  0.10182020758E+04  0.50400001928E-02 0.  1.
    10030    2    1    2    0    0  0.00000000000E+00  0.00000000000E+00  0.17277687773E+03  0.22091810292E+04  0.22024143503E+04 0.  0.
        5    1    3    3  502    0 -0.92278375947E+03  0.33816235049E+03 -0.41187863235E+03  0.10656217621E+04  0.46999998093E+01 0. -1.
       -5    1    3    3    0  502  0.92278375947E+03 -0.33816235049E+03  0.58465551008E+03  0.11435592672E+04  0.46999998093E+01 0.  1.
</event>
<event>
 5   0  0.2532239E-06  0.2201535E+04  0.7818609E-02  0.8517789E-01
       -2   -1    0    0    0  501  0.00000000000E+00  0.00000000000E+00  0.42967493693E+03  0.42967493694E+03  0.25500000920E-02 0. -1.
        2   -1    0    0  501    0  0.00000000000E+00  0.00000000000E+00 -0.28200146649E+04  0.28200146649E+04  0.25500000920E-02 0.  1.
    10030    2    1    2    0    0  0.00000000000E+00  0.00000000000E+00 -0.23903397280E+04  0.32496896018E+04  0.22015354853E+04 0.  0.
        3    1    3    3  502    0  0.58909383432E+02 -0.98585934135E+03 -0.19127140586E+04  0.21526411769E+04  0.10100000352E+00 0.  1.
       -3    1    3    3    0  502 -0.58909383432E+02  0.98585934135E+03 -0.47762566938E+03  0.10970484249E+04  0.10100000352E+00 0. -1.
</event>
<event>
 5   0  0.1146827E-06  0.2199313E+04  0.7818609E-02  0.8518714E-01
        1   -1    0    0  501    0  0.00000000000E+00  0.00000000000E+00  0.11050912859E+04  0.11050912860E+04  0.50400001928E-02 0.  1.
       -1   -1    0    0    0  501  0.00000000000E+00  0.00000000000E+00 -0.10942484052E+04  0.10942484052E+04  0.50400001928E-02 0. -1.
    10030    2    1    2    0    0  0.00000000000E+00  0.00000000000E+00  0.10842880768E+02  0.21993396912E+04  0.21993129630E+04 0.  0.
        4    1    3    3  502    0 -0.57688052900E+03 -0.14865045594E+03  0.92974574905E+03  0.11042268216E+04  0.12699999809E+01 0.  1.
       -4    1    3    3    0  502  0.57688052900E+03  0.14865045594E+03 -0.91890286829E+03  0.10951128695E+04  0.12699999809E+01 0. -1.
</event>
<event>
 5   0  0.2606154E-06  0.2202825E+04  0.7818609E-02  0.8517253E-01
        2   -1    0    0  501    0  0.00000000000E+00  0.00000000000E+00  0.15558651183E+04  0.15558651183E+04  0.25500000920E-02 0.  1.
       -2   -1    0    0    0  501  0.00000000000E+00  0.00000000000E+00 -0.77970109236E+03  0.77970109236E+03  0.25500000920E-02 0. -1.
    10030    2    1    2    0    0  0.00000000000E+00  0.00000000000E+00  0.77616402591E+03  0.23355662106E+04  0.22028252153E+04 0.  0.
        2    1    3    3  502    0 -0.90920533140E+03  0.25147182762E+03 -0.21469884908E+03  0.96746473348E+03  0.25500000920E-02 0. -1.
       -2    1    3    3    0  502  0.90920533140E+03 -0.25147182762E+03  0.99086287499E+03  0.13681014771E+04  0.25500000920E-02 0.  1.
</event>
<event>
 5   0  0.1146827E-06  0.2199706E+04  0.7818609E-02  0.8518551E-01
       -1   -1    0    0    0  501  0.00000000000E+00  0.00000000000E+00  0.93244655657E+03  0.93244655658E+03  0.50400001928E-02 0.  1.
        1   -1    0    0  501    0  0.00000000000E+00  0.00000000000E+00 -0.12973145064E+04  0.12973145064E+04  0.50400001928E-02 0. -1.
    10030    2    1    2    0    0  0.00000000000E+00  0.00000000000E+00 -0.36486794981E+03  0.22297610630E+04  0.21997058388E+04 0.  0.
        4    1    3    3  502    0  0.87816701693E+03  0.13358647070E+03  0.47500476270E+03  0.10073002493E+04  0.12699999809E+01 0.  1.
       -4    1    3    3    0  502 -0.87816701693E+03 -0.13358647070E+03 -0.83987271251E+03  0.12224608136E+04  0.12699999809E+01 0. -1.
</event>
<event>
 5   0  0.1107101E-06  0.2198098E+04  0.7818609E-02  0.8519220E-01
       -1   -1    0    0    0  501  0.00000000000E+00  0.00000000000E+00  0.88464896830E+03  0.88464896832E+03  0.50400001928E-02 0. -1.
        1   -1    0    0  501    0  0.00000000000E+00  0.00000000000E+00 -0.13654100569E+04  0.13654100569E+04  0.50400001928E-02 0.  1.
    10030    2    1    2    0    0  0.00000000000E+00  0.00000000000E+00 -0.48076108855E+03  0.22500590252E+04  0.21980979033E+04 0.  0.
        1    1    3    3  502    0 -0.10637243216E+04  0.19804799012E+03 -0.43774963463E+03  0.11672005746E+04  0.50400001928E-02 0.  1.
       -1    1    3    3    0  502  0.10637243216E+04 -0.19804799012E+03 -0.43011453927E+02  0.10828584506E+04  0.50400001928E-02 0. -1.
</event>
<event>
 5   0  0.2556869E-06  0.2195954E+04  0.7818609E-02  0.8520114E-01
       -2   -1    0    0    0  501  0.00000000000E+00  0.00000000000E+00  0.11287341997E+04  0.11287341997E+04  0.25500000920E-02 0. -1.
        2   -1    0    0  501    0  0.00000000000E+00  0.00000000000E+00 -0.10680576173E+04  0.10680576173E+04  0.25500000920E-02 0.  1.
    10030    2    1    2    0    0  0.00000000000E+00  0.00000000000E+00  0.60676582412E+02  0.21967918170E+04  0.21959536970E+04 0.  0.
        5    1    3    3  502    0 -0.12535803262E+03 -0.92857261606E+03  0.60289346046E+03  0.11142101931E+04  0.46999998093E+01 0. -1.
       -5    1    3    3    0  502  0.12535803262E+03  0.92857261606E+03 -0.54221687805E+03  0.10825816239E+04  0.46999998093E+01 0.  1.
</event>
<event>
 5   0  0.1144271E-06  0.2200058E+04  0.7818609E-02  0.8518404E-01
       -1   -1    0    0    0  501  0.00000000000E+00  0.00000000000E+00  0.80166740393E+03  0.80166740395E+03  0.50400001928E-02 0. -1.
        1   -1    0    0  501    0  0.00000000000E+00  0.00000000000E+00 -0.15094336953E+04  0.15094336953E+04  0.50400001928E-02 0.  1.
    10030    2    1    2    0    0  0.00000000000E+00  0.00000000000E+00 -0.70776629137E+03  0.23111010993E+04  0.22000579919E+04 0.  0.
        3    1    3    3  502    0 -0.10200976959E+04  0.40110527081E+03 -0.45118116932E+03  0.11853477149E+04  0.10100000352E+00 0. -1.
       -3    1    3    3    0  502  0.10200976959E+04 -0.40110527081E+03 -0.25658512206E+03  0.11257533844E+04  0.10100000352E+00 0.  1.
</event>
<event>
 5   0  0.1144271E-06  0.2200762E+04  0.7818609E-02  0.8518111E-01
        1   -1    0    0  501    0  0.00000000000E+00  0.00000000000E+00  0.11440386329E+04  0.11440386329E+04  0.50400001928E-02 0.  1.
       -1   -1    0    0    0  501  0.00000000000E+00  0.00000000000E+00 -0.10583893824E+04  0.10583893825E+04  0.50400001928E-02 0. -1.
    10030    2    1    2    0    0  0.00000000000E+00  0.00000000000E+00  0.85649250406E+02  0.22024280153E+04  0.22007619973E+04 0.  0.
        3    1    3    3  502    0  0.43914569574E+03  0.82140087205E+03  0.62917771670E+03  0.11240164341E+04  0.10100000352E+00 0. -1.
       -3    1    3    3    0  502 -0.43914569574E+03 -0.82140087205E+03 -0.54352846629E+03  0.10784115812E+04  0.10100000352E+00 0.  1.
</event>
<event>
 5   0  0.2606154E-06  0.2199869E+04  0.7818609E-02  0.8518483E-01
       -2   -1    0    0    0  501  0.00000000000E+00  0.00000000000E+00  0.63914173534E+03  0.63914173534E+03  0.25500000920E-02 0. -1.
        2   -1    0    0  501    0  0.00000000000E+00  0.00000000000E+00 -0.18929379745E+04  0.18929379745E+04  0.25500000920E-02 0.  1.
    10030    2    1    2    0    0  0.00000000000E+00  0.00000000000E+00 -0.12537962392E+04  0.25320797099E+04  0.21998687797E+04 0.  0.
        2    1    3    3  502    0 -0.39340292704E+03 -0.10131065576E+03  0.54963070602E+03  0.68346442846E+03  0.25500000920E-02 0. -1.
       -2    1    3    3    0  502  0.39340292704E+03  0.10131065576E+03 -0.18034269452E+04  0.18486152814E+04  0.25500000920E-02 0.  1.
</event>
<event>
 5   0  0.2524749E-06  0.2200002E+04  0.7818609E-02  0.8518427E-01
        2   -1    0    0  501    0  0.00000000000E+00  0.00000000000E+00  0.10861899278E+04  0.10861899278E+04  0.25500000920E-02 0.  1.
       -2   -1    0    0    0  501  0.00000000000E+00  0.00000000000E+00 -0.11139880690E+04  0.11139880690E+04  0.25500000920E-02 0. -1.
    10030    2    1    2    0    0  0.00000000000E+00  0.00000000000E+00 -0.27798141236E+02  0.22001779968E+04  0.22000023820E+04 0.  0.
        4    1    3    3  502    0  0.26733325372E+03  0.23525091316E+03 -0.10547467466E+04  0.11132395847E+04  0.12699999809E+01 0. -1.
       -4    1    3    3    0  502 -0.26733325372E+03 -0.23525091316E+03  0.10269486053E+04  0.10869384120E+04  0.12699999809E+01 0.  1.
</event>
<event>
 5   0  0.1144271E-06  0.2200442E+04  0.7818609E-02  0.8518244E-01
        1   -1    0    0  501    0  0.00000000000E+00  0.00000000000E+00  0.10965696467E+04  0.10965696467E+04  0.50400001928E-02 0.  1.
       -1   -1    0    0    0  501  0.00000000000E+00  0.00000000000E+00 -0.11038846592E+04  0.11038846592E+04  0.50400001928E-02 0. -1.
    10030    2    1    2    0    0  0.00000000000E+00  0.00000000000E+00 -0.73150124570E+01  0.22004543059E+04  0.22004421472E+04 0.  0.
        3    1    3    3  502    0  0.91586403072E+03 -0.45096056810E+03 -0.41392071914E+03  0.11015909988E+04  0.10100000352E+00 0.  1.
       -3    1    3    3    0  502 -0.91586403072E+03  0.45096056810E+03  0.40660570668E+03  0.10988633071E+04  0.10100000352E+00 0. -1.
</event>
<event>
 5   0  0.2606154E-06  0.2199961E+04  0.7818609E-02  0.8518444E-01
       -2   -1    0    0    0  501  0.00000000000E+00  0.00000000000E+00  0.78311461759E+03  0.78311461760E+03  0.25500000920E-02 0. -1.
        2   -1    0    0  501    0  0.00000000000E+00  0.00000000000E+00 -0.15450580999E+04  0.15450580999E+04  0.25500000920E-02 0.  1.
    10030    2    1    2    0    0  0.00000000000E+00  0.00000000000E+00 -0.76194348232E+03  0.23281727175E+04  0.21999614388E+04 0.  0.
        2    1    3    3  502    0  0.17947781256E+03 -0.40615241357E+03 -0.14459944494E+04  0.15126374370E+04  0.25500000920E-02 0.  1.
       -2    1    3    3    0  502 -0.17947781256E+03  0.40615241357E+03  0.68405096703E+03  0.81553528051E+03  0.25500000920E-02 0. -1.
</event>
<event>
 5   0  0.2524749E-06  0.2198848E+04  0.7818609E-02  0.8518908E-01
        2   -1    0    0  501    0  0.00000000000E+00  0.00000000000E+00  0.10341875955E+04  0.10341875955E+04  0.25500000920E-02 0.  1.
       -2   -1    0    0    0  501  0.00000000000E+00  0.00000000000E+00 -0.11687758820E+04  0.11687758820E+04  0.25500000920E-02 0. -1.
    10030    2    1    2    0    0  0.00000000000E+00  0.00000000000E+00 -0.13458828649E+03  0.22029634775E+04  0.21988483523E+04 0.  0.
        4    1    3    3  502    0 -0.25541935498E+03  0.10684270270E+04 -0.11160980122E+03  0.11041891683E+04  0.12699999809E+01 0.  1.
       -4    1    3    3    0  502  0.25541935498E+03 -0.10684270270E+04 -0.22978485273E+02  0.10987743092E+04  0.12699999809E+01 0. -1.
</event>
<event>
 5   0  0.2532239E-06  0.2199314E+04  0.7818609E-02  0.8518714E-01
        2   -1    0    0  501    0  0.00000000000E+00  0.00000000000E+00  0.10403111119E+04  0.10403111119E+04  0.25500000920E-02 0.  1.
       -2   -1    0    0    0  501  0.00000000000E+00  0.00000000000E+00 -0.11623881363E+04  0.11623881363E+04  0.25500000920E-02 0. -1.
    10030    2    1    2    0    0  0.00000000000E+00  0.00000000000E+00 -0.12207702448E+03  0.22026992482E+04  0.21993137971E+04 0.  0.
        3    1    3    3  502    0 -0.69786566045E+02  0.10711947525E+04 -0.29997842843E+03  0.11145920466E+04  0.10100000352E+00 0. -1.
       -3    1    3    3    0  502  0.69786566045E+02 -0.10711947525E+04  0.17790140395E+03  0.10881072016E+04  0.10100000352E+00 0.  1.
</event>
<event>
 5   0  0.1144271E-06  0.2201411E+04  0.7818609E-02  0.8517841E-01
        1   -1    0    0  501    0  0.00000000000E+00  0.00000000000E+00  0.22286282634E+04  0.22286282634E+04  0.50400001928E-02 0.  1.
       -1   -1    0    0    0  501  0.00000000000E+00  0.00000000000E+00 -0.54363129858E+03  0.54363129860E+03  0.50400001928E-02 0. -1.
    10030    2    1    2    0    0  0.00000000000E+00  0.00000000000E+00  0.16849969648E+04  0.27722595620E+04  0.22014105268E+04 0.  0.
        3    1    3    3  502    0 -0.25543398460E+03 -0.97487385295E+03  0.28508244410E+03  0.10473287735E+04  0.10100000352E+00 0. -1.
       -3    1    3    3    0  502  0.25543398460E+03  0.97487385295E+03  0.13999145207E+04  0.17249307885E+04  0.10100000352E+00 0.  1.
</event>
<event>
 5   0  0.2606154E-06  0.2199661E+04  0.7818609E-02  0.8518569E-01
        2   -1    0    0  501    0  0.00000000000E+00  0.00000000000E+00  0.22233411646E+04  0.22233411646E+04  0.25500000920E-02 0.  1.
       -2   -1    0    0    0  501  0.00000000000E+00  0.00000000000E+00 -0.54405821085E+03  0.54405821086E+03  0.25500000920E-02 0. -1.
    10030    2    1    2    0    0  0.00000000000E+00  0.00000000000E+00  0.16792829537E+04  0.27673993754E+04  0.21996608976E+04 0.  0.
        2    1    3    3  502    0  0.65282399918E+03  0.28206920499E+02  0.19526551829E+04  0.20590864644E+04  0.25500000920E-02 0.  1.
       -2    1    3    3    0  502 -0.65282399918E+03 -0.28206920499E+02 -0.27337222921E+03  0.70831291107E+03  0.25500000920E-02 0. -1.
</event>
<event>
 5   0  0.8905000E-07  0.2200637E+04  0.7818609E-02  0.8518163E-01
       -3   -1    0    0    0  501  0.00000000000E+00  0.00000000000E+00  0.11655088582E+04  0.11655088626E+04  0.10100000352E+00 0.  1.
        3   -1    0    0  501    0  0.00000000000E+00  0.00000000000E+00 -0.10387740914E+04  0.10387740964E+04  0.10100000352E+00 0. -1.
    10030    2    1    2    0    0  0.00000000000E+00  0.00000000000E+00  0.12673476674E+03  0.22042829589E+04  0.22006366492E+04 0.  0.
        2    1    3    3  502    0  0.94414453836E+03 -0.26379086522E+03 -0.43716639519E+03  0.10733633993E+04  0.25500000920E-02 0. -1.
       -2    1    3    3    0  502 -0.94414453836E+03  0.26379086522E+03  0.56390116192E+03  0.11309195596E+04  0.25500000920E-02 0.  1.
</event>
<event>
 5   0  0.1146827E-06  0.2199966E+04  0.7818609E-02  0.8518442E-01
        1   -1    0    0  501    0  0.00000000000E+00  0.00000000000E+00  0.21909966120E+04  0.21909966120E+04  0.50400001928E-02 0.  1.
       -1   -1    0    0    0  501  0.00000000000E+00  0.00000000000E+00 -0.55224302169E+03  0.55224302172E+03  0.50400001928E-02 0. -1.
    10030    2    1    2    0    0  0.00000000000E+00  0.00000000000E+00  0.16387535903E+04  0.27432396338E+04  0.21999659903E+04 0.  0.
        4    1    3    3  502    0 -0.10915965191E+04 -0.13492685244E+03  0.80298712644E+03  0.13618289739E+04  0.12699999809E+01 0.  1.
       -4    1    3    3    0  502  0.10915965191E+04  0.13492685244E+03  0.83576646390E+03  0.13814106598E+04  0.12699999809E+01 0. -1.
</event>
<event>
 5   0  0.2606154E-06  0.2200164E+04  0.7818609E-02  0.8518360E-01
        2   -1    0    0  501    0  0.00000000000E+00  0.00000000000E+00  0.85868452720E+03  0.85868452721E+03  0.25500000920E-02 0. -1.
       -2   -1    0    0    0  501  0.00000000000E+00  0.00000000000E+00 -0.14093416522E+04  0.14093416522E+04  0.25500000920E-02 0.  1.
    10030    2    1    2    0    0  0.00000000000E+00  0.00000000000E+00 -0.55065712498E+03  0.22680261794E+04  0.22001635124E+04 0.  0.
        2    1    3    3  502    0  0.91090296213E+03  0.31231576110E+03  0.27295519402E+03  0.10008945394E+04  0.25500000920E-02 0. -1.
       -2    1    3    3    0  502 -0.91090296213E+03 -0.31231576110E+03 -0.82361231901E+03  0.12671316400E+04  0.25500000920E-02 0.  1.
</event>
<event>
 5   0  0.1137869E-06  0.2199892E+04  0.7818609E-02  0.8518473E-01
       -1   -1    0    0    0  501  0.00000000000E+00  0.00000000000E+00  0.74177000016E+03  0.74177000018E+03  0.50400001928E-02 0. -1.
        1   -1    0    0  501    0  0.00000000000E+00  0.00000000000E+00 -0.16310726415E+04  0.16310726415E+04  0.50400001928E-02 0.  1.
    10030    2    1    2    0    0  0.00000000000E+00  0.00000000000E+00 -0.88930264132E+03  0.23728426417E+04  0.21998915915E+04 0.  0.
        5    1    3    3  502    0  0.27531005842E+03 -0.85733172650E+03  0.23671205154E+03  0.93105746486E+03  0.46999998093E+01 0. -1.
       -5    1    3    3    0  502 -0.27531005842E+03  0.85733172650E+03 -0.11260146929E+04  0.14417851768E+04  0.46999998093E+01 0.  1.
</event>
<event>
 5   0  0.1137869E-06  0.2200925E+04  0.7818609E-02  0.8518043E-01
       -1   -1    0    0    0  501  0.00000000000E+00  0.00000000000E+00  0.14629139958E+04  0.14629139959E+04  0.50400001928E-02 0. -1.
        1   -1    0    0  501    0  0.00000000000E+00  0.00000000000E+00 -0.82781171592E+03  0.82781171594E+03  0.50400001928E-02 0.  1.
    10030    2    1    2    0    0  0.00000000000E+00  0.00000000000E+00  0.63510227992E+03  0.22907257118E+04  0.22009246649E+04 0.  0.
        5    1    3    3  502    0  0.38199144517E+03 -0.10308197894E+04  0.36946984999E+03  0.11597572860E+04  0.46999998093E+01 0. -1.
       -5    1    3    3    0  502 -0.38199144517E+03  0.10308197894E+04  0.26563242993E+03  0.11309684258E+04  0.46999998093E+01 0.  1.
</event>
<event>
 5   0  0.1144271E-06  0.2195416E+04  0.7818609E-02  0.8520338E-01
       -1   -1    0    0    0  501  0.00000000000E+00  0.00000000000E+00  0.97115435254E+03  0.97115435256E+03  0.50400001928E-02 0. -1.
        1   -1    0    0  501    0  0.00000000000E+00  0.00000000000E+00 -0.12407534231E+04  0.12407534231E+04  0.50400001928E-02 0.  1.
    10030    2    1    2    0    0  0.00000000000E+00  0.00000000000E+00 -0.26959907051E+03  0.22119077756E+04  0.21954162132E+04 0.  0.
        3    1    3    3  502    0 -0.13219645940E+03 -0.55440905687E+03  0.81039356615E+03  0.99074873125E+03  0.10100000352E+00 0. -1.
       -3    1    3    3    0  502  0.13219645940E+03  0.55440905687E+03 -0.10799926367E+04  0.12211590444E+04  0.10100000352E+00 0.  1.
</event>
<event>
 5   0  0.1082209E-06  0.2199824E+04  0.7818609E-02  0.8518501E-01
        1   -1    0    0  501    0  0.00000000000E+00  0.00000000000E+00  0.53635802714E+03  0.53635802716E+03  0.50400001928E-02 0.  1.
       -1   -1    0    0    0  501  0.00000000000E+00  0.00000000000E+00 -0.22555947160E+04  0.22555947160E+04  0.50400001928E-02 0. -1.
    10030    2    1    2    0    0  0.00000000000E+00  0.00000000000E+00 -0.17192366888E+04  0.27919527431E+04  0.21998239311E+04 0.  0.
        2    1    3    3  502    0 -0.92959446875E+03  0.57421289853E+03 -0.10198559095E+04  0.14946479202E+04  0.25500000920E-02 0.  1.
       -2    1    3    3    0  502  0.92959446875E+03 -0.57421289853E+03 -0.69938077930E+03  0.12973048229E+04  0.25500000920E-02 0. -1.
</event>
<event>
 5   0  0.2556869E-06  0.2200447E+04  0.7818609E-02  0.8518242E-01
        2   -1    0    0  501    0  0.00000000000E+00  0.00000000000E+00  0.23983855337E+04  0.23983855337E+04  0.25500000920E-02 0. -1.
       -2   -1    0    0    0  501  0.00000000000E+00  0.00000000000E+00 -0.50471104078E+03  0.50471104078E+03  0.25500000920E-02 0.  1.
    10030    2    1    2    0    0  0.00000000000E+00  0.00000000000E+00  0.18936744929E+04  0.29030965744E+04  0.22004469172E+04 0.  0.
        5    1    3    3  502    0 -0.17636471801E+03  0.27842920113E+03  0.23317113516E+04  0.23548943185E+04  0.46999998093E+01 0. -1.
       -5    1    3    3    0  502  0.17636471801E+03 -0.27842920113E+03 -0.43803685877E+03  0.54820225596E+03  0.46999998093E+01 0.  1.
</event>
<event>
 5   0  0.1146827E-06  0.2200283E+04  0.7818609E-02  0.8518310E-01
       -1   -1    0    0    0  501  0.00000000000E+00  0.00000000000E+00  0.80236924832E+03  0.80236924834E+03  0.50400001928E-02 0. -1.
        1   -1    0    0  501    0  0.00000000000E+00  0.00000000000E+00 -0.15084222832E+04  0.15084222832E+04  0.50400001928E-02 0.  1.
    10030    2    1    2    0    0  0.00000000000E+00  0.00000000000E+00 -0.70605303484E+03  0.23107915315E+04  0.22002833031E+04 0.  0.
        4    1    3    3  502    0  0.60042441596E+03 -0.67752080408E+03 -0.10095354148E+04  0.13559894122E+04  0.12699999809E+01 0.  1.
       -4    1    3    3    0  502 -0.60042441596E+03  0.67752080408E+03  0.30348237997E+03  0.95480211934E+03  0.12699999809E+01 0. -1.
</event>
<event>
 5   0  0.1137869E-06  0.2201907E+04  0.7818609E-02  0.8517635E-01
        1   -1    0    0  501    0  0.00000000000E+00  0.00000000000E+00  0.11388297025E+04  0.11388297025E+04  0.50400001928E-02 0.  1.
       -1   -1    0    0    0  501  0.00000000000E+00  0.00000000000E+00 -0.10643371416E+04  0.10643371416E+04  0.50400001928E-02 0. -1.
    10030    2    1    2    0    0  0.00000000000E+00  0.00000000000E+00  0.74492560939E+02  0.22031668441E+04  0.22019071282E+04 0.  0.
        5    1    3    3  502    0  0.34092063066E+03  0.10028361638E+04  0.33770029396E+03  0.11117422482E+04  0.46999998093E+01 0.  1.
       -5    1    3    3    0  502 -0.34092063066E+03 -0.10028361638E+04 -0.26320773302E+03  0.10914245959E+04  0.46999998093E+01 0. -1.
</event>
<event>
 5   0  0.2606154E-06  0.2200627E+04  0.7818609E-02  0.8518167E-01
        2   -1    0    0  501    0  0.00000000000E+00  0.00000000000E+00  0.15581093230E+04  0.15581093230E+04  0.25500000920E-02 0.  1.
       -2   -1    0    0    0  501  0.00000000000E+00  0.00000000000E+00 -0.77702479156E+03  0.77702479157E+03  0.25500000920E-02 0. -1.
    10030    2    1    2    0    0  0.00000000000E+00  0.00000000000E+00  0.78108453144E+03  0.23351341146E+04  0.22006267943E+04 0.  0.
        2    1    3    3  502    0 -0.62811070382E+03  0.86387695980E+02 -0.56370328179E+03  0.84837920777E+03  0.25500000920E-02 0. -1.
       -2    1    3    3    0  502  0.62811070382E+03 -0.86387695980E+02  0.13447878132E+04  0.14867549068E+04  0.25500000920E-02 0.  1.
</event>
<event>
 5   0  0.1082209E-06  0.2188536E+04  0.7818609E-02  0.8523215E-01
       -1   -1    0    0    0  501  0.00000000000E+00  0.00000000000E+00  0.14687555810E+04  0.14687555810E+04  0.50400001928E-02 0. -1.
        1   -1    0    0  501    0  0.00000000000E+00  0.00000000000E+00 -0.81526293385E+03  0.81526293387E+03  0.50400001928E-02 0.  1.
    10030    2    1    2    0    0  0.00000000000E+00  0.00000000000E+00  0.65349264715E+03  0.22840185149E+04  0.21885355689E+04 0.  0.
        2    1    3    3  502    0 -0.75173694776E+02 -0.67694670785E+03  0.12205666578E+04  0.13977449323E+04  0.25500000920E-02 0. -1.
       -2    1    3    3    0  502  0.75173694776E+02  0.67694670785E+03 -0.56707401063E+03  0.88627358259E+03  0.25500000920E-02 0.  1.
</event>
<event>
 5   0  0.2556869E-06  0.2197433E+04  0.7818609E-02  0.8519497E-01
       -2   -1    0    0    0  501  0.00000000000E+00  0.00000000000E+00  0.77963345411E+03  0.77963345411E+03  0.25500000920E-02 0.  1.
        2   -1    0    0  501    0  0.00000000000E+00  0.00000000000E+00 -0.15483911071E+04  0.15483911071E+04  0.25500000920E-02 0. -1.
    10030    2    1    2    0    0  0.00000000000E+00  0.00000000000E+00 -0.76875765295E+03  0.23280245612E+04  0.21974325993E+04 0.  0.
        5    1    3    3  502    0  0.99805994449E+03  0.37022500084E+03 -0.96250636360E+02  0.10688669136E+04  0.46999998093E+01 0. -1.
       -5    1    3    3    0  502 -0.99805994449E+03 -0.37022500084E+03 -0.67250701659E+03  0.12591576476E+04  0.46999998093E+01 0.  1.
</event>
<event>
 5   0  0.1107101E-06  0.2198427E+04  0.7818609E-02  0.8519083E-01
       -1   -1    0    0    0  501  0.00000000000E+00  0.00000000000E+00  0.98210887906E+03  0.98210887907E+03  0.50400001928E-02 0.  1.
        1   -1    0    0  501    0  0.00000000000E+00  0.00000000000E+00 -0.12302816471E+04  0.12302816471E+04  0.50400001928E-02 0. -1.
    10030    2    1    2    0    0  0.00000000000E+00  0.00000000000E+00 -0.24817276805E+03  0.22123905262E+04  0.21984271918E+04 0.  0.
        1    1    3    3  502    0 -0.50229979677E+01 -0.48687798606E+03  0.86766530777E+03  0.99494647602E+03  0.50400001928E-02 0.  1.
       -1    1    3    3    0  502  0.50229979677E+01  0.48687798606E+03 -0.11158380758E+04  0.12174440502E+04  0.50400001928E-02 0. -1.
</event>
<event>
 5   0  0.2532239E-06  0.2199951E+04  0.7818609E-02  0.8518448E-01
       -2   -1    0    0    0  501  0.00000000000E+00  0.00000000000E+00  0.65995150674E+03  0.65995150674E+03  0.25500000920E-02 0. -1.
        2   -1    0    0  501    0  0.00000000000E+00  0.00000000000E+00 -0.18333869268E+04  0.18333869268E+04  0.25500000920E-02 0.  1.
    10030    2    1    2    0    0  0.00000000000E+00  0.00000000000E+00 -0.11734354200E+04  0.24933384335E+04  0.21999513311E+04 0.  0.
        3    1    3    3  502    0  0.23160116052E+03  0.41502271617E+03  0.53757584383E+03  0.71754494672E+03  0.10100000352E+00 0. -1.
       -3    1    3    3    0  502 -0.23160116052E+03 -0.41502271617E+03 -0.17110112639E+04  0.17757934868E+04  0.10100000352E+00 0.  1.
</event>
<event>
 5   0  0.2556869E-06  0.2200382E+04  0.7818609E-02  0.8518269E-01
        2   -1    0    0  501    0  0.00000000000E+00  0.00000000000E+00  0.22503539194E+04  0.22503539194E+04  0.25500000920E-02 0.  1.
       -2   -1    0    0    0  501  0.00000000000E+00  0.00000000000E+00 -0.53787992630E+03  0.53787992631E+03  0.25500000920E-02 0. -1.
    10030    2    1    2    0    0  0.00000000000E+00  0.00000000000E+00  0.17124739931E+04  0.27882338457E+04  0.22003819671E+04 0.  0.
        5    1    3    3  502    0  0.68657321459E+03 -0.44628956414E+03  0.17872677629E+04  0.19659362401E+04  0.46999998093E+01 0.  1.
       -5    1    3    3    0  502 -0.68657321459E+03  0.44628956414E+03 -0.74793769830E+02  0.82229760553E+03  0.46999998093E+01 0. -1.
</event>
<event>
 5   0  0.1107101E-06  0.2199528E+04  0.7818609E-02  0.8518624E-01
       -1   -1    0    0    0  501  0.00000000000E+00  0.00000000000E+00  0.10240155734E+04  0.10240155734E+04  0.50400001928E-02 0. -1.
        1   -1    0    0  501    0  0.00000000000E+00  0.00000000000E+00 -0.11811160380E+04  0.11811160380E+04  0.50400001928E-02 0.  1.
    10030    2    1    2    0    0  0.00000000000E+00  0.00000000000E+00 -0.15710046457E+03  0.22051316114E+04  0.21995283285E+04 0.  0.
        1    1    3    3  502    0  0.81459680037E+03  0.71686060998E+03  0.10085853543E+03  0.10897841646E+04  0.50400001928E-02 0. -1.
       -1    1    3    3    0  502 -0.81459680037E+03 -0.71686060998E+03 -0.25795900000E+03  0.11153474468E+04  0.50400001928E-02 0.  1.
</event>
<event>
 5   0  0.2606154E-06  0.2199577E+04  0.7818609E-02  0.8518604E-01
        2   -1    0    0  501    0  0.00000000000E+00  0.00000000000E+00  0.24157772365E+04  0.24157772365E+04  0.25500000920E-02 0. -1.
       -2   -1    0    0    0  501  0.00000000000E+00  0.00000000000E+00 -0.50068141064E+03  0.50068141065E+03  0.25500000920E-02 0.  1.
    10030    2    1    2    0    0  0.00000000000E+00  0.00000000000E+00  0.19150958259E+04  0.29164586472E+04  0.21995770090E+04 0.  0.
        2    1    3    3  502    0  0.77760806860E+03 -0.63831364883E+03  0.15466736152E+04  0.18450793735E+04  0.25500000920E-02 0. -1.
       -2    1    3    3    0  502 -0.77760806860E+03  0.63831364883E+03  0.36842221065E+03  0.10713792736E+04  0.25500000920E-02 0.  1.
</event>
<event>
 5   0  0.2556869E-06  0.2196015E+04  0.7818609E-02  0.8520089E-01
        2   -1    0    0  501    0  0.00000000000E+00  0.00000000000E+00  0.13697489713E+04  0.13697489713E+04  0.25500000920E-02 0.  1.
       -2   -1    0    0    0  501  0.00000000000E+00  0.00000000000E+00 -0.88017623856E+03  0.88017623856E+03  0.25500000920E-02 0. -1.
    10030    2    1    2    0    0  0.00000000000E+00  0.00000000000E+00  0.48957273270E+03  0.22499252098E+04  0.21960150248E+04 0.  0.
        5    1    3    3  502    0  0.62752196358E+03  0.32244467884E+03 -0.61720230650E+03  0.93739808131E+03  0.46999998093E+01 0. -1.
       -5    1    3    3    0  502 -0.62752196358E+03 -0.32244467884E+03  0.11067750392E+04  0.13125271285E+04  0.46999998093E+01 0.  1.
</event>
<event>
 5   0  0.1082209E-06  0.2200187E+04  0.7818609E-02  0.8518350E-01
        1   -1    0    0  501    0  0.00000000000E+00  0.00000000000E+00  0.26126446810E+04  0.26126446810E+04  0.50400001928E-02 0. -1.
       -1   -1    0    0    0  501  0.00000000000E+00  0.00000000000E+00 -0.46321091407E+03  0.46321091410E+03  0.50400001928E-02 0.  1.
    10030    2    1    2    0    0  0.00000000000E+00  0.00000000000E+00  0.21494337670E+04  0.30758555951E+04  0.22001868383E+04 0.  0.
        2    1    3    3  502    0  0.76655825915E+03  0.74766912758E+03  0.14272364098E+04  0.17842714083E+04  0.25500000920E-02 0.  1.
       -2    1    3    3    0  502 -0.76655825915E+03 -0.74766912758E+03  0.72219735714E+03  0.12915841868E+04  0.25500000920E-02 0. -1.
</event>
<event>
 5   0  0.2556869E-06  0.2206365E+04  0.7818609E-02  0.8515784E-01
       -2   -1    0    0    0  501  0.00000000000E+00  0.00000000000E+00  0.88719249689E+03  0.88719249689E+03  0.25500000920E-02 0. -1.
        2   -1    0    0  501    0  0.00000000000E+00  0.00000000000E+00 -0.13717557460E+04  0.13717557460E+04  0.25500000920E-02 0.  1.
    10030    2    1    2    0    0  0.00000000000E+00  0.00000000000E+00 -0.48456324909E+03  0.22589482429E+04  0.22063647979E+04 0.  0.
        5    1    3    3  502    0 -0.27893408429E+03 -0.87545620184E+03  0.38281118589E+03  0.99538649718E+03  0.46999998093E+01 0.  1.
       -5    1    3    3    0  502  0.27893408429E+03  0.87545620184E+03 -0.86737443498E+03  0.12635617457E+04  0.46999998093E+01 0. -1.
</event>
<event>
 5   0  0.1146827E-06  0.2200488E+04  0.7818609E-02  0.8518225E-01
       -1   -1    0    0    0  501  0.00000000000E+00  0.00000000000E+00  0.99393123311E+03  0.99393123312E+03  0.50400001928E-02 0. -1.
        1   -1    0    0  501    0  0.00000000000E+00  0.00000000000E+00 -0.12179284300E+04  0.12179284300E+04  0.50400001928E-02 0.  1.
    10030    2    1    2    0    0  0.00000000000E+00  0.00000000000E+00 -0.22399719688E+03  0.22118596631E+04  0.22004882243E+04 0.  0.
        4    1    3    3  502    0 -0.57663524353E+03 -0.14131450706E+03 -0.10430994321E+04  0.12002233260E+04  0.12699999809E+01 0.  1.
       -4    1    3    3    0  502  0.57663524353E+03  0.14131450706E+03  0.81910223524E+03  0.10116363372E+04  0.12699999809E+01 0. -1.
</event>
<event>
 5   0  0.1137869E-06  0.2199697E+04  0.7818609E-02  0.8518554E-01
        1   -1    0    0  501    0  0.00000000000E+00  0.00000000000E+00  0.13289609018E+04  0.13289609018E+04  0.50400001928E-02 0. -1.
       -1   -1    0    0    0  501  0.00000000000E+00  0.00000000000E+00 -0.91023496014E+03  0.91023496015E+03  0.50400001928E-02 0.  1.
    10030    2    1    2    0    0  0.00000000000E+00  0.00000000000E+00  0.41872594170E+03  0.22391958620E+04  0.21996969551E+04 0.  0.
        5    1    3    3  502    0  0.10831405202E+03 -0.53075083165E+02 -0.90347149663E+03  0.91149971670E+03  0.46999998093E+01 0.  1.
       -5    1    3    3    0  502 -0.10831405202E+03  0.53075083165E+02  0.13221974383E+04  0.13276961453E+04  0.46999998093E+01 0. -1.
</event>
<event>
 5   0  0.1137869E-06  0.2199967E+04  0.7818609E-02  0.8518442E-01
       -1   -1    0    0    0  501  0.00000000000E+00  0.00000000000E+00  0.61916742991E+03  0.61916742993E+03  0.50400001928E-02 0.  1.
        1   -1    0    0  501    0  0.00000000000E+00  0.00000000000E+00 -0.19541783634E+04  0.19541783634E+04  0.50400001928E-02 0. -1.
    10030    2    1    2    0    0  0.00000000000E+00  0.00000000000E+00 -0.13350109335E+04  0.25733457933E+04  0.21999669042E+04 0.  0.
        5    1    3    3  502    0 -0.32245636362E+02 -0.10915418464E+04 -0.51303984091E+03  0.12065385829E+04  0.46999998093E+01 0. -1.
       -5    1    3    3    0  502  0.32245636362E+02  0.10915418464E+04 -0.82197109256E+03  0.13668072105E+04  0.46999998093E+01 0.  1.
</event>
<event>
 5   0  0.8905000E-07  0.2198304E+04  0.7818609E-02  0.8519134E-01
       -3   -1    0    0    0  501  0.00000000000E+00  0.00000000000E+00  0.17553480726E+04  0.17553480755E+04  0.10100000352E+00 0.  1.
        3   -1    0    0  501    0  0.00000000000E+00  0.00000000000E+00 -0.68825983411E+03  0.68825984152E+03  0.10100000352E+00 0. -1.
    10030    2    1    2    0    0  0.00000000000E+00  0.00000000000E+00  0.10670882384E+04  0.24436079170E+04  0.21983044246E+04 0.  0.
        4    1    3    3  502    0 -0.14725098742E+03 -0.88355862067E+03 -0.17454265790E+03  0.91259270312E+03  0.12699999809E+01 0.  1.
       -4    1    3    3    0  502  0.14725098742E+03  0.88355862067E+03  0.12416308963E+04  0.15310152139E+04  0.12699999809E+01 0. -1.
</event>
<event>
 5   0  0.2532239E-06  0.2201393E+04  0.7818609E-02  0.8517849E-01
       -2   -1    0    0    0  501  0.00000000000E+00  0.00000000000E+00  0.13336699825E+04  0.13336699825E+04  0.25500000920E-02 0. -1.
        2   -1    0    0  501    0  0.00000000000E+00  0.00000000000E+00 -0.90842007033E+03  0.90842007033E+03  0.25500000920E-02 0.  1.
    10030    2    1    2    0    0  0.00000000000E+00  0.00000000000E+00  0.42524991222E+03  0.22420900529E+04  0.22013928131E+04 0.  0.
        3    1    3    3  502    0  0.19984585932E+03 -0.92929640165E+02  0.13109669176E+04  0.13293639662E+04  0.10100000352E+00 0. -1.
       -3    1    3    3    0  502 -0.19984585932E+03  0.92929640165E+02 -0.88571700535E+03  0.91272608666E+03  0.10100000352E+00 0.  1.
</event>
<event>
 5   0  0.1137869E-06  0.2198532E+04  0.7818609E-02  0.8519039E-01
        1   -1    0    0  501    0  0.00000000000E+00  0.00000000000E+00  0.19657168779E+04  0.19657168779E+04  0.50400001928E-02 0.  1.
       -1   -1    0    0    0  501  0.00000000000E+00  0.00000000000E+00 -0.61473057343E+03  0.61473057345E+03  0.50400001928E-02 0. -1.
    10030    2    1    2    0    0  0.00000000000E+00  0.00000000000E+00  0.13509863045E+04  0.25804474513E+04  0.21985324774E+04 0.  0.
        5    1    3    3  502    0 -0.47404878019E+03  0.14977893575E+03 -0.47523004222E+03  0.68776570037E+03  0.46999998093E+01 0. -1.
       -5    1    3    3    0  502  0.47404878019E+03 -0.14977893575E+03  0.18262163467E+04  0.18926817510E+04  0.46999998093E+01 0.  1.
</event>
<event>
 5   0  0.1137869E-06  0.2200703E+04  0.7818609E-02  0.8518135E-01
        1   -1    0    0  501    0  0.00000000000E+00  0.00000000000E+00  0.88061974430E+03  0.88061974432E+03  0.50400001928E-02 0.  1.
       -1   -1    0    0    0  501  0.00000000000E+00  0.00000000000E+00 -0.13749109476E+04  0.13749109476E+04  0.50400001928E-02 0. -1.
    10030    2    1    2    0    0  0.00000000000E+00  0.00000000000E+00 -0.49429120327E+03  0.22555306919E+04  0.22007032759E+04 0.  0.
        5    1    3    3  502    0 -0.64701110497E+03 -0.58146742232E+03  0.44345445638E+03  0.97642289919E+03  0.46999998093E+01 0.  1.
       -5    1    3    3    0  502  0.64701110497E+03  0.58146742232E+03 -0.93774565965E+03  0.12791077927E+04  0.46999998093E+01 0. -1.
</event>
<event>
 5   0  0.2532239E-06  0.2200042E+04  0.7818609E-02  0.8518411E-01
        2   -1    0    0  501    0  0.00000000000E+00  0.00000000000E+00  0.15654147876E+04  0.15654147876E+04  0.25500000920E-02 0. -1.
       -2   -1    0    0    0  501  0.00000000000E+00  0.00000000000E+00 -0.77298749661E+03  0.77298749661E+03  0.25500000920E-02 0.  1.
    10030    2    1    2    0    0  0.00000000000E+00  0.00000000000E+00  0.79242729095E+03  0.23384022842E+04  0.22000418703E+04 0.  0.
        3    1    3    3  502    0  0.31956378772E+03 -0.25903993447E+01 -0.72255980804E+03  0.79007620581E+03  0.10100000352E+00 0.  1.
       -3    1    3    3    0  502 -0.31956378772E+03  0.25903993447E+01  0.15149870990E+04  0.15483260784E+04  0.10100000352E+00 0. -1.
</event>
<event>
 5   0  0.2581058E-06  0.2198520E+04  0.7818609E-02  0.8519044E-01
        2   -1    0    0  501    0  0.00000000000E+00  0.00000000000E+00  0.16939962413E+04  0.16939962413E+04  0.25500000920E-02 0. -1.
       -2   -1    0    0    0  501  0.00000000000E+00  0.00000000000E+00 -0.71332640943E+03  0.71332640944E+03  0.25500000920E-02 0.  1.
    10030    2    1    2    0    0  0.00000000000E+00  0.00000000000E+00  0.98066983190E+03  0.24073226508E+04  0.21985197351E+04 0.  0.
        1    1    3    3  502    0  0.42180548155E+02  0.76337605442E+03  0.13551913952E+04  0.15559774796E+04  0.50400001928E-02 0. -1.
       -1    1    3    3    0  502 -0.42180548155E+02 -0.76337605442E+03 -0.37452156335E+03  0.85134517121E+03  0.50400001928E-02 0.  1.
</event>
<event>
 5   0  0.2524749E-06  0.2197774E+04  0.7818609E-02  0.8519355E-01
       -2   -1    0    0    0  501  0.00000000000E+00  0.00000000000E+00  0.90509966461E+03  0.90509966462E+03  0.25500000920E-02 0.  1.
        2   -1    0    0  501    0  0.00000000000E+00  0.00000000000E+00 -0.13341652312E+04  0.13341652312E+04  0.25500000920E-02 0. -1.
    10030    2    1    2    0    0  0.00000000000E+00  0.00000000000E+00 -0.42906556658E+03  0.22392648958E+04  0.21977738767E+04 0.  0.
        4    1    3    3  502    0  0.34131000947E+03 -0.10110101343E+04 -0.48200905232E+03  0.11708835782E+04  0.12699999809E+01 0. -1.
       -4    1    3    3    0  502 -0.34131000947E+03  0.10110101343E+04  0.52943485739E+02  0.10683813176E+04  0.12699999809E+01 0.  1.
</event>
<event>
 5   0  0.1082209E-06  0.2199434E+04  0.7818609E-02  0.8518664E-01
        1   -1    0    0  501    0  0.00000000000E+00  0.00000000000E+00  0.17205006718E+04  0.17205006719E+04  0.50400001928E-02 0.  1.
       -1   -1    0    0    0  501  0.00000000000E+00  0.00000000000E+00 -0.70292214792E+03  0.70292214794E+03  0.50400001928E-02 0. -1.
    10030    2    1    2    0    0  0.00000000000E+00  0.00000000000E+00  0.10175785239E+04  0.24234228198E+04  0.21994344980E+04 0.  0.
        2    1    3    3  502    0  0.43237223037E+03 -0.39034056884E+03  0.15365556009E+04  0.16432634055E+04  0.25500000920E-02 0.  1.
       -2    1    3    3    0  502 -0.43237223037E+03  0.39034056884E+03 -0.51897707695E+03  0.78015941428E+03  0.25500000920E-02 0. -1.
</event>
<event>
 5   0  0.2556869E-06  0.2200182E+04  0.7818609E-02  0.8518352E-01
       -2   -1    0    0    0  501  0.00000000000E+00  0.00000000000E+00  0.14369305767E+04  0.14369305767E+04  0.25500000920E-02 0. -1.
        2   -1    0    0  501    0  0.00000000000E+00  0.00000000000E+00 -0.84221239011E+03  0.84221239012E+03  0.25500000920E-02 0.  1.
    10030    2    1    2    0    0  0.00000000000E+00  0.00000000000E+00  0.59471818658E+03  0.22791429668E+04  0.22001824792E+04 0.  0.
        5    1    3    3  502    0  0.26920817652E+03  0.63639826819E+03 -0.58934110648E+03  0.90819646985E+03  0.46999998093E+01 0.  1.
       -5    1    3    3    0  502 -0.26920817652E+03 -0.63639826819E+03  0.11840592931E+04  0.13709464970E+04  0.46999998093E+01 0. -1.
</event>
<event>
 5   0  0.1146827E-06  0.2199384E+04  0.7818609E-02  0.8518685E-01
       -1   -1    0    0    0  501  0.00000000000E+00  0.00000000000E+00  0.90901678465E+03  0.90901678466E+03  0.50400001928E-02 0.  1.
        1   -1    0    0  501    0  0.00000000000E+00  0.00000000000E+00 -0.13303631275E+04  0.13303631275E+04  0.50400001928E-02 0. -1.
    10030    2    1    2    0    0  0.00000000000E+00  0.00000000000E+00 -0.42134634287E+03  0.22393799122E+04  0.21993839252E+04 0.  0.
        4    1    3    3  502    0 -0.15436734935E+03 -0.10814177615E+04 -0.33957373962E+03  0.11439430016E+04  0.12699999809E+01 0.  1.
       -4    1    3    3    0  502  0.15436734935E+03  0.10814177615E+04 -0.81772603246E+02  0.10954369106E+04  0.12699999809E+01 0. -1.
</event>
<event>
 5   0  0.2581058E-06  0.2200769E+04  0.7818609E-02  0.8518108E-01
       -2   -1    0    0    0  501  0.00000000000E+00  0.00000000000E+00  0.94532610768E+03  0.94532610768E+03  0.25500000920E-02 0. -1.
        2   -1    0    0  501    0  0.00000000000E+00  0.00000000000E+00 -0.12808766626E+04  0.12808766626E+04  0.25500000920E-02 0.  1.
    10030    2    1    2    0    0  0.00000000000E+00  0.00000000000E+00 -0.33555055495E+03  0.22262027703E+04  0.22007690927E+04 0.  0.
        1    1    3    3  502    0  0.32113923211E+02 -0.80969058704E+03 -0.92083560700E+03  0.12266084811E+04  0.50400001928E-02 0.  1.
       -1    1    3    3    0  502 -0.32113923211E+02  0.80969058704E+03  0.58528505205E+03  0.99959428919E+03  0.50400001928E-02 0. -1.
</event>
<event>
 5   0  0.2556869E-06  0.2200360E+04  0.7818609E-02  0.8518278E-01
       -2   -1    0    0    0  501  0.00000000000E+00  0.00000000000E+00  0.14086720956E+04  0.14086720956E+04  0.25500000920E-02 0.  1.
        2   -1    0    0  501    0  0.00000000000E+00  0.00000000000E+00 -0.85924617546E+03  0.85924617546E+03  0.25500000920E-02 0. -1.
    10030    2    1    2    0    0  0.00000000000E+00  0.00000000000E+00  0.54942592011E+03  0.22679182710E+04  0.22003600711E+04 0.  0.
        5    1    3    3  502    0 -0.77705347375E+03 -0.67359543099E+03 -0.12822625406E+03  0.10363430744E+04  0.46999998093E+01 0. -1.
       -5    1    3    3    0  502  0.77705347375E+03  0.67359543099E+03  0.67765217417E+03  0.12315751966E+04  0.46999998093E+01 0.  1.
</event>
<event>
 5   0  0.2606154E-06  0.2198876E+04  0.7818609E-02  0.8518896E-01
       -2   -1    0    0    0  501  0.00000000000E+00  0.00000000000E+00  0.53687434368E+03  0.53687434368E+03  0.25500000920E-02 0.  1.
        2   -1    0    0  501    0  0.00000000000E+00  0.00000000000E+00 -0.22514843579E+04  0.22514843579E+04  0.25500000920E-02 0. -1.
    10030    2    1    2    0    0  0.00000000000E+00  0.00000000000E+00 -0.17146100142E+04  0.27883587016E+04  0.21988762466E+04 0.  0.
        2    1    3    3  502    0  0.17752028383E+03  0.55308394916E+03  0.32640111242E+03  0.66629797552E+03  0.25500000920E-02 0.  1.
       -2    1    3    3    0  502 -0.17752028383E+03 -0.55308394916E+03 -0.20410111267E+04  0.21220607261E+04  0.25500000920E-02 0. -1.
</event>
<event>
 5   0  0.1107101E-06  0.2200178E+04  0.7818609E-02  0.8518354E-01
        1   -1    0    0  501    0  0.00000000000E+00  0.00000000000E+00  0.15515770545E+04  0.15515770545E+04  0.50400001928E-02 0. -1.
       -1   -1    0    0    0  501  0.00000000000E+00  0.00000000000E+00 -0.77997810645E+03  0.77997810647E+03  0.50400001928E-02 0.  1.
    10030    2    1    2    0    0  0.00000000000E+00  0.00000000000E+00  0.77159894802E+03  0.23315551609E+04  0.22001782955E+04 0.  0.
        1    1    3    3  502    0 -0.11598688425E+03  0.19384291552E+02  0.15448973453E+04  0.15493664885E+04  0.50400001928E-02 0. -1.
       -1    1    3    3    0  502  0.11598688425E+03 -0.19384291552E+02 -0.77329839728E+03  0.78218867247E+03  0.50400001928E-02 0.  1.
</event>
<event>
 5   0  0.1146827E-06  0.2200464E+04  0.7818609E-02  0.8518235E-01
        1   -1    0    0  501    0  0.00000000000E+00  0.00000000000E+00  0.11849419510E+04  0.11849419510E+04  0.50400001928E-02 0.  1.
       -1   -1    0    0    0  501  0.00000000000E+00  0.00000000000E+00 -0.10215782417E+04  0.10215782417E+04  0.50400001928E-02 0. -1.
    10030    2    1    2    0    0  0.00000000000E+00  0.00000000000E+00  0.16336370932E+03  0.22065201928E+04  0.22004644191E+04 0.  0.
        4    1    3    3  502    0  0.15098782933E+03  0.56319653137E+03 -0.85390334421E+03  0.10339923557E+04  0.12699999809E+01 0. -1.
       -4    1    3    3    0  502 -0.15098782933E+03 -0.56319653137E+03  0.10172670535E+04  0.11725278370E+04  0.12699999809E+01 0.  1.
</event>
<event>
 5   0  0.2606154E-06  0.2200938E+04  0.7818609E-02  0.8518038E-01
        2   -1    0    0  501    0  0.00000000000E+00  0.00000000000E+00  0.11319887724E+04  0.11319887724E+04  0.25500000920E-02 0. -1.
       -2   -1    0    0    0  501  0.00000000000E+00  0.00000000000E+00 -0.10698266206E+04  0.10698266206E+04  0.25500000920E-02 0.  1.
    10030    2    1    2    0    0  0.00000000000E+00  0.00000000000E+00  0.62162151763E+02  0.22018153931E+04  0.22009377301E+04 0.  0.
        2    1    3    3  502    0  0.70337146379E+03 -0.70906818837E+03 -0.43118825790E+03  0.10878568038E+04  0.25500000920E-02 0.  1.
       -2    1    3    3    0  502 -0.70337146379E+03  0.70906818837E+03  0.49335040966E+03  0.11139585892E+04  0.25500000920E-02 0. -1.
</event>
<event>
 5   0  0.2556869E-06  0.2200512E+04  0.7818609E-02  0.8518215E-01
       -2   -1    0    0    0  501  0.00000000000E+00  0.00000000000E+00  0.11511023860E+04  0.11511023860E+04  0.25500000920E-02 0.  1.
        2   -1    0    0  501    0  0.00000000000E+00  0.00000000000E+00 -0.10516560635E+04  0.10516560635E+04  0.25500000920E-02 0. -1.
    10030    2    1    2    0    0  0.00000000000E+00  0.00000000000E+00  0.99446322546E+02  0.22027584495E+04  0.22005124894E+04 0.  0.
        5    1    3    3  502    0  0.10016988830E+04 -0.33096233565E+03  0.36246001145E+03  0.11154981263E+04  0.46999998093E+01 0. -1.
       -5    1    3    3    0  502 -0.10016988830E+04  0.33096233565E+03 -0.26301368891E+03  0.10872603232E+04  0.46999998093E+01 0.  1.
</event>
<event>
 5   0  0.1146827E-06  0.2198957E+04  0.7818609E-02  0.8518862E-01
       -1   -1    0    0    0  501  0.00000000000E+00  0.00000000000E+00  0.11925589532E+04  0.11925589532E+04  0.50400001928E-02 0.  1.
        1   -1    0    0  501    0  0.00000000000E+00  0.00000000000E+00 -0.10136633683E+04  0.10136633684E+04  0.50400001928E-02 0. -1.
    10030    2    1    2    0    0  0.00000000000E+00  0.00000000000E+00  0.17889558482E+03  0.22062223215E+04  0.21989573215E+04 0.  0.
        4    1    3    3  502    0 -0.35123132187E+03  0.80835109592E+03 -0.57003411375E+03  0.10496358604E+04  0.12699999809E+01 0. -1.
       -4    1    3    3    0  502  0.35123132187E+03 -0.80835109592E+03  0.74892969857E+03  0.11565864611E+04  0.12699999809E+01 0.  1.
</event>
<event>
 5   0  0.1082209E-06  0.2198626E+04  0.7818609E-02  0.8519000E-01
        1   -1    0    0  501    0  0.00000000000E+00  0.00000000000E+00  0.14343278058E+04  0.14343278058E+04  0.50400001928E-02 0. -1.
       -1   -1    0    0    0  501  0.00000000000E+00  0.00000000000E+00 -0.84254729817E+03  0.84254729819E+03  0.50400001928E-02 0.  1.
    10030    2    1    2    0    0  0.00000000000E+00  0.00000000000E+00  0.59178050765E+03  0.22768751040E+04  0.21986259505E+04 0.  0.
        2    1    3    3  502    0 -0.30432760822E+03 -0.55134288871E+03 -0.63723023092E+03  0.89591106771E+03  0.25500000920E-02 0.  1.
       -2    1    3    3    0  502  0.30432760822E+03  0.55134288871E+03  0.12290107386E+04  0.13809640363E+04  0.25500000920E-02 0. -1.
</event>
<event>
 5   0  0.2524749E-06  0.2200121E+04  0.7818609E-02  0.8518378E-01
       -2   -1    0    0    0  501  0.00000000000E+00  0.00000000000E+00  0.10529043297E+04  0.10529043297E+04  0.25500000920E-02 0.  1.
        2   -1    0    0  501    0  0.00000000000E+00  0.00000000000E+00 -0.11493284078E+04  0.11493284078E+04  0.25500000920E-02 0. -1.
    10030    2    1    2    0    0  0.00000000000E+00  0.00000000000E+00 -0.96424078116E+02  0.22022327375E+04  0.22001207756E+04 0.  0.
        4    1    3    3  502    0  0.65831984130E+03 -0.41517071643E+03 -0.82637679515E+03  0.11351880715E+04  0.12699999809E+01 0. -1.
       -4    1    3    3    0  502 -0.65831984130E+03  0.41517071643E+03  0.72995271703E+03  0.10670446660E+04  0.12699999809E+01 0.  1.
</event>
<event>
 5   0  0.1137869E-06  0.2200209E+04  0.7818609E-02  0.8518341E-01
        1   -1    0    0  501    0  0.00000000000E+00  0.00000000000E+00  0.86246487377E+03  0.86246487378E+03  0.50400001928E-02 0. -1.
       -1   -1    0    0    0  501  0.00000000000E+00  0.00000000000E+00 -0.14032217206E+04  0.14032217206E+04  0.50400001928E-02 0.  1.
    10030    2    1    2    0    0  0.00000000000E+00  0.00000000000E+00 -0.54075684685E+03  0.22656865944E+04  0.22002085757E+04 0.  0.
        5    1    3    3  502    0  0.72196951183E+02  0.89425524106E+03 -0.92595832845E+03  0.12893121236E+04  0.46999998093E+01 0.  1.
       -5    1    3    3    0  502 -0.72196951183E+02 -0.89425524106E+03  0.38520148160E+03  0.97637447086E+03  0.46999998093E+01 0. -1.
</event>
<event>
 5   0  0.2524749E-06  0.2199637E+04  0.7818609E-02  0.8518579E-01
       -2   -1    0    0    0  501  0.00000000000E+00  0.00000000000E+00  0.10528573424E+04  0.10528573424E+04  0.25500000920E-02 0. -1.
        2   -1    0    0  501    0  0.00000000000E+00  0.00000000000E+00 -0.11488744514E+04  0.11488744514E+04  0.25500000920E-02 0.  1.
    10030    2    1    2    0    0  0.00000000000E+00  0.00000000000E+00 -0.96017109002E+02  0.22017317938E+04  0.21996371534E+04 0.  0.
        4    1    3    3  502    0  0.60391872122E+03  0.14068621743E+03  0.86120044898E+03  0.10612154634E+04  0.12699999809E+01 0. -1.
       -4    1    3    3    0  502 -0.60391872122E+03 -0.14068621743E+03 -0.95721755798E+03  0.11405163304E+04  0.12699999809E+01 0.  1.
</event>
<event>
 5   0  0.2524749E-06  0.2199760E+04  0.7818609E-02  0.8518528E-01
       -2   -1    0    0    0  501  0.00000000000E+00  0.00000000000E+00  0.13020888032E+04  0.13020888032E+04  0.25500000920E-02 0. -1.
        2   -1    0    0  501    0  0.00000000000E+00  0.00000000000E+00 -0.92907295812E+03  0.92907295812E+03  0.25500000920E-02 0.  1.
    10030    2    1    2    0    0  0.00000000000E+00  0.00000000000E+00  0.37301584513E+03  0.22311617614E+04  0.21997595288E+04 0.  0.
        4    1    3    3  502    0  0.48508287979E+03  0.81900234678E+03 -0.37241541869E+03  0.10221375158E+04  0.12699999809E+01 0.  1.
       -4    1    3    3    0  502 -0.48508287979E+03 -0.81900234678E+03  0.74543126383E+03  0.12090242455E+04  0.12699999809E+01 0. -1.
</event>
<event>
 5   0  0.2532239E-06  0.2200779E+04  0.7818609E-02  0.8518104E-01
        2   -1    0    0  501    0  0.00000000000E+00  0.00000000000E+00  0.13670037636E+04  0.13670037636E+04  0.25500000920E-02 0.  1.
       -2   -1    0    0    0  501  0.00000000000E+00  0.00000000000E+00 -0.88577450635E+03  0.88577450635E+03  0.25500000920E-02 0. -1.
    10030    2    1    2    0    0  0.00000000000E+00  0.00000000000E+00  0.48122925725E+03  0.22527782699E+04  0.22007790292E+04 0.  0.
        3    1    3    3  502    0 -0.34727136261E+03 -0.63285806939E+03 -0.60952051607E+03  0.94478675106E+03  0.10100000352E+00 0. -1.
       -3    1    3    3    0  502  0.34727136261E+03  0.63285806939E+03  0.10907497733E+04  0.13079915189E+04  0.10100000352E+00 0.  1.
</event>
<event>
 5   0  0.1082209E-06  0.2200003E+04  0.7818609E-02  0.8518427E-01
       -1   -1    0    0    0  501  0.00000000000E+00  0.00000000000E+00  0.10492209477E+04  0.10492209477E+04  0.50400001928E-02 0.  1.
        1   -1    0    0  501    0  0.00000000000E+00  0.00000000000E+00 -0.11532393685E+04  0.11532393685E+04  0.50400001928E-02 0. -1.
    10030    2    1    2    0    0  0.00000000000E+00  0.00000000000E+00 -0.10401842082E+03  0.22024603163E+04  0.22000026393E+04 0.  0.
        2    1    3    3  502    0 -0.36963685068E+03  0.71101666409E+02 -0.10867576206E+04  0.11500995497E+04  0.25500000920E-02 0. -1.
       -2    1    3    3    0  502  0.36963685068E+03 -0.71101666409E+02  0.98273919974E+03  0.10523607666E+04  0.25500000920E-02 0.  1.
</event>
<event>
 5   0  0.1107101E-06  0.2199656E+04  0.7818609E-02  0.8518571E-01
       -1   -1    0    0    0  501  0.00000000000E+00  0.00000000000E+00  0.80699371968E+03  0.80699371969E+03  0.50400001928E-02 0. -1.
        1   -1    0    0  501    0  0.00000000000E+00  0.00000000000E+00 -0.14989235053E+04  0.14989235053E+04  0.50400001928E-02 0.  1.
    10030    2    1    2    0    0  0.00000000000E+00  0.00000000000E+00 -0.69192978566E+03  0.23059172250E+04  0.21996562051E+04 0.  0.
        1    1    3    3  502    0 -0.30473419571E+03 -0.10399353579E+04 -0.54290560725E+03  0.12120540323E+04  0.50400001928E-02 0.  1.
       -1    1    3    3    0  502  0.30473419571E+03  0.10399353579E+04 -0.14902417841E+03  0.10938631928E+04  0.50400001928E-02 0. -1.
</event>
<event>
 5   0  0.1137869E-06  0.2195977E+04  0.7818609E-02  0.8520104E-01
        1   -1    0    0  501    0  0.00000000000E+00  0.00000000000E+00  0.12365829825E+04  0.12365829825E+04  0.50400001928E-02 0.  1.
       -1   -1    0    0    0  501  0.00000000000E+00  0.00000000000E+00 -0.97492748929E+03  0.97492748930E+03  0.50400001928E-02 0. -1.
    10030    2    1    2    0    0  0.00000000000E+00  0.00000000000E+00  0.26165549321E+03  0.22115104718E+04  0.21959769966E+04 0.  0.
        5    1    3    3  502    0 -0.96880682859E+03 -0.50963870356E+03  0.21650818849E+03  0.11158925419E+04  0.46999998093E+01 0.  1.
       -5    1    3    3    0  502  0.96880682859E+03  0.50963870356E+03  0.45147304716E+02  0.10956179299E+04  0.46999998093E+01 0. -1.
</event>
<event>
 5   0  0.2581058E-06  0.2197596E+04  0.7818609E-02  0.8519429E-01
       -2   -1    0    0    0  501  0.00000000000E+00  0.00000000000E+00  0.78797169350E+03  0.78797169350E+03  0.25500000920E-02 0.  1.
        2   -1    0    0  501    0  0.00000000000E+00  0.00000000000E+00 -0.15322344420E+04  0.15322344420E+04  0.25500000920E-02 0. -1.
    10030    2    1    2    0    0  0.00000000000E+00  0.00000000000E+00 -0.74426274852E+03  0.23202061355E+04  0.21975962942E+04 0.  0.
        1    1    3    3  502    0 -0.67901333087E+02  0.83054994682E+03 -0.11282835663E+04  0.14026573392E+04  0.50400001928E-02 0.  1.
       -1    1    3    3    0  502  0.67901333087E+02 -0.83054994682E+03  0.38402081775E+03  0.91754879635E+03  0.50400001928E-02 0. -1.
</event>
<event>
 5   0  0.2556869E-06  0.2199815E+04  0.7818609E-02  0.8518505E-01
        2   -1    0    0  501    0  0.00000000000E+00  0.00000000000E+00  0.16234877022E+04  0.16234877022E+04  0.25500000920E-02 0.  1.
       -2   -1    0    0    0  501  0.00000000000E+00  0.00000000000E+00 -0.74518359011E+03  0.74518359011E+03  0.25500000920E-02 0. -1.
    10030    2    1    2    0    0  0.00000000000E+00  0.00000000000E+00  0.87830411207E+03  0.23686712923E+04  0.21998148962E+04 0.  0.
        5    1    3    3  502    0  0.10270349433E+04 -0.35202911421E+03  0.62888497716E+03  0.12546886771E+04  0.46999998093E+01 0.  1.
       -5    1    3    3    0  502 -0.10270349433E+04  0.35202911421E+03  0.24941913491E+03  0.11139826152E+04  0.46999998093E+01 0. -1.
</event>
<event>
 5   0  0.2524749E-06  0.2204077E+04  0.7818609E-02  0.8516733E-01
       -2   -1    0    0    0  501  0.00000000000E+00  0.00000000000E+00  0.13148656620E+04  0.13148656620E+04  0.25500000920E-02 0. -1.
        2   -1    0    0  501    0  0.00000000000E+00  0.00000000000E+00 -0.92365999002E+03  0.92365999002E+03  0.25500000920E-02 0.  1.
    10030    2    1    2    0    0  0.00000000000E+00  0.00000000000E+00  0.39120567196E+03  0.22385256520E+04  0.22040769535E+04 0.  0.
        4    1    3    3  502    0  0.60320765673E+03  0.85729888701E+03  0.54101593622E+03  0.11796273628E+04  0.12699999809E+01 0.  1.
       -4    1    3    3    0  502 -0.60320765673E+03 -0.85729888701E+03 -0.14981026426E+03  0.10588982893E+04  0.12699999809E+01 0. -1.
</event>
<event>
 5   0  0.1137869E-06  0.2203357E+04  0.7818609E-02  0.8517032E-01
       -1   -1    0    0    0  501  0.00000000000E+00  0.00000000000E+00  0.13672705368E+04  0.13672705368E+04  0.50400001928E-02 0.  1.
        1   -1    0    0  501    0  0.00000000000E+00  0.00000000000E+00 -0.88767743533E+03  0.88767743534E+03  0.50400001928E-02 0. -1.
    10030    2    1    2    0    0  0.00000000000E+00  0.00000000000E+00  0.47959310146E+03  0.22549479721E+04  0.22033567151E+04 0.  0.
        5    1    3    3  502    0 -0.28529732810E+03 -0.62759291694E+03  0.11192223992E+04  0.13145144745E+04  0.46999998093E+01 0.  1.
       -5    1    3    3    0  502  0.28529732810E+03  0.62759291694E+03 -0.63962929779E+03  0.94043349760E+03  0.46999998093E+01 0. -1.
</event>
<event>
 5   0  0.1107101E-06  0.2201673E+04  0.7818609E-02  0.8517732E-01
       -1   -1    0    0    0  501  0.00000000000E+00  0.00000000000E+00  0.50800613868E+03  0.50800613870E+03  0.50400001928E-02 0.  1.
        1   -1    0    0  501    0  0.00000000000E+00  0.00000000000E+00 -0.23854853493E+04  0.23854853493E+04  0.50400001928E-02 0. -1.
    10030    2    1    2    0    0  0.00000000000E+00  0.00000000000E+00 -0.18774792106E+04  0.28934914880E+04  0.22016731830E+04 0.  0.
        1    1    3    3  502    0 -0.55917421328E+03 -0.36794225849E+02  0.30652590308E+03  0.63873918397E+03  0.50400001928E-02 0.  1.
       -1    1    3    3    0  502  0.55917421328E+03  0.36794225849E+02 -0.21840051137E+04  0.22547523040E+04  0.50400001928E-02 0. -1.
</event>
<event>
 5   0  0.1082209E-06  0.2200296E+04  0.7818609E-02  0.8518305E-01
       -1   -1    0    0    0  501  0.00000000000E+00  0.00000000000E+00  0.70060176209E+03  0.70060176211E+03  0.50400001928E-02 0. -1.
        1   -1    0    0  501    0  0.00000000000E+00  0.00000000000E+00 -0.17275522019E+04  0.17275522019E+04  0.50400001928E-02 0.  1.
    10030    2    1    2    0    0  0.00000000000E+00  0.00000000000E+00 -0.10269504398E+04  0.24281539640E+04  0.22002964498E+04 0.  0.
        2    1    3    3  502    0  0.60899463203E+03  0.60017955173E+03 -0.12774338003E+04  0.15371815346E+04  0.25500000920E-02 0.  1.
       -2    1    3    3    0  502 -0.60899463203E+03 -0.60017955173E+03  0.25048336045E+03  0.89097242944E+03  0.25500000920E-02 0. -1.
</event>
<event>
 5   0  0.1082209E-06  0.2199855E+04  0.7818609E-02  0.8518489E-01
       -1   -1    0    0    0  501  0.00000000000E+00  0.00000000000E+00  0.52532962398E+03  0.52532962400E+03  0.50400001928E-02 0. -1.
        1   -1    0    0  501    0  0.00000000000E+00  0.00000000000E+00 -0.23030113585E+04  0.23030113585E+04  0.50400001928E-02 0.  1.
    10030    2    1    2    0    0  0.00000000000E+00  0.00000000000E+00 -0.17776817345E+04  0.28283409825E+04  0.21998546234E+04 0.  0.
        2    1    3    3  502    0 -0.24210380834E+03  0.60195133458E+02  0.48847485667E+03  0.54849374993E+03  0.25500000920E-02 0. -1.
       -2    1    3    3    0  502  0.24210380834E+03 -0.60195133458E+02 -0.22661565912E+04  0.22798472326E+04  0.25500000920E-02 0.  1.
</event>
<event>
 5   0  0.1137869E-06  0.2199552E+04  0.7818609E-02  0.8518615E-01
        1   -1    0    0  501    0  0.00000000000E+00  0.00000000000E+00  0.15234755417E+04  0.15234755417E+04  0.50400001928E-02 0. -1.
       -1   -1    0    0    0  501  0.00000000000E+00  0.00000000000E+00 -0.79391310033E+03  0.79391310035E+03  0.50400001928E-02 0.  1.
    10030    2    1    2    0    0  0.00000000000E+00  0.00000000000E+00  0.72956244134E+03  0.23173886420E+04  0.21995519458E+04 0.  0.
        5    1    3    3  502    0 -0.22326535034E+03  0.59121726084E+03 -0.58349295329E+03  0.86015776618E+03  0.46999998093E+01 0. -1.
       -5    1    3    3    0  502  0.22326535034E+03 -0.59121726084E+03  0.13130553946E+04  0.14572308759E+04  0.46999998093E+01 0.  1.
</event>
<event>
 5   0  0.2581058E-06  0.2192419E+04  0.7818609E-02  0.8521590E-01
        2   -1    0    0  501    0  0.00000000000E+00  0.00000000000E+00  0.16732024683E+04  0.16732024683E+04  0.25500000920E-02 0. -1.
       -2   -1    0    0    0  501  0.00000000000E+00  0.00000000000E+00 -0.71818902507E+03  0.71818902508E+03  0.25500000920E-02 0.  1.
    10030    2    1    2    0    0  0.00000000000E+00  0.00000000000E+00  0.95501344320E+03  0.23913914934E+04  0.21924193481E+04 0.  0.
        1    1    3    3  502    0  0.37352054502E+03 -0.64513627245E+02 -0.64443184165E+03  0.74764430327E+03  0.50400001928E-02 0.  1.
       -1    1    3    3    0  502 -0.37352054502E+03  0.64513627245E+02  0.15994452849E+04  0.16437471901E+04  0.50400001928E-02 0. -1.
</event>
<event>
 5   0  0.1082209E-06  0.2199596E+04  0.7818609E-02  0.8518596E-01
       -1   -1    0    0    0  501  0.00000000000E+00  0.00000000000E+00  0.70992096330E+03  0.70992096331E+03  0.50400001928E-02 0.  1.
        1   -1    0    0  501    0  0.00000000000E+00  0.00000000000E+00 -0.17037893893E+04  0.17037893893E+04  0.50400001928E-02 0. -1.
    10030    2    1    2    0    0  0.00000000000E+00  0.00000000000E+00 -0.99386842603E+03  0.24137103527E+04  0.21995961489E+04 0.  0.
        2    1    3    3  502    0  0.65205313673E+03 -0.39135641576E+03 -0.13687675984E+04  0.15658409484E+04  0.25500000920E-02 0.  1.
       -2    1    3    3    0  502 -0.65205313673E+03  0.39135641576E+03  0.37489917233E+03  0.84786940427E+03  0.25500000920E-02 0. -1.
</event>
<event>
 5   0  0.1107101E-06  0.2199324E+04  0.7818609E-02  0.8518710E-01
       -1   -1    0    0    0  501  0.00000000000E+00  0.00000000000E+00  0.10374529555E+04  0.10374529555E+04  0.50400001928E-02 0. -1.
        1   -1    0    0  501    0  0.00000000000E+00  0.00000000000E+00 -0.11656009023E+04  0.11656009024E+04  0.50400001928E-02 0.  1.
    10030    2    1    2    0    0  0.00000000000E+00  0.00000000000E+00 -0.12814794687E+03  0.22030538578E+04  0.21993236243E+04 0.  0.
        1    1    3    3  502    0  0.85600329804E+03 -0.62048638531E+03 -0.36709506901E+03  0.11191531577E+04  0.50400001928E-02 0.  1.
       -1    1    3    3    0  502 -0.85600329804E+03  0.62048638531E+03  0.23894712214E+03  0.10839007002E+04  0.50400001928E-02 0. -1.
</event>
<event>
 5   0  0.2524749E-06  0.2200539E+04  0.7818609E-02  0.8518204E-01
        2   -1    0    0  501    0  0.00000000000E+00  0.00000000000E+00  0.16287918591E+04  0.16287918591E+04  0.25500000920E-02 0. -1.
       -2   -1    0    0    0  501  0.00000000000E+00  0.00000000000E+00 -0.74324593086E+03  0.74324593086E+03  0.25500000920E-02 0.  1.
    10030    2    1    2    0    0  0.00000000000E+00  0.00000000000E+00  0.88554592822E+03  0.23720377899E+04  0.22005389535E+04 0.  0.
        4    1    3    3  502    0 -0.31568198176E+03  0.42295835497E+03 -0.59789068205E+03  0.79751098063E+03  0.12699999809E+01 0.  1.
       -4    1    3    3    0  502  0.31568198176E+03 -0.42295835497E+03  0.14834366103E+04  0.15745268093E+04  0.12699999809E+01 0. -1.
</event>
<event>
 5   0  0.1137869E-06  0.2200241E+04  0.7818609E-02  0.8518328E-01
       -1   -1    0    0    0  501  0.00000000000E+00  0.00000000000E+00  0.89828621614E+03  0.89828621615E+03  0.50400001928E-02 0. -1.
        1   -1    0    0  501    0  0.00000000000E+00  0.00000000000E+00 -0.13473043640E+04  0.13473043640E+04  0.50400001928E-02 0.  1.
    10030    2    1    2    0    0  0.00000000000E+00  0.00000000000E+00 -0.44901814781E+03  0.22455905801E+04  0.22002408405E+04 0.  0.
        5    1    3    3  502    0  0.60058157013E+03 -0.28104129824E+03 -0.11204176701E+04  0.13019371256E+04  0.46999998093E+01 0.  1.
       -5    1    3    3    0  502 -0.60058157013E+03  0.28104129824E+03  0.67139952225E+03  0.94365345449E+03  0.46999998093E+01 0. -1.
</event>
<event>
 5   0  0.1137869E-06  0.2199529E+04  0.7818609E-02  0.8518624E-01
        1   -1    0    0  501    0  0.00000000000E+00  0.00000000000E+00  0.13525366809E+04  0.13525366809E+04  0.50400001928E-02 0. -1.
       -1   -1    0    0    0  501  0.00000000000E+00  0.00000000000E+00 -0.89423237724E+03  0.89423237725E+03  0.50400001928E-02 0.  1.
    10030    2    1    2    0    0  0.00000000000E+00  0.00000000000E+00  0.45830430363E+03  0.22467690581E+04  0.21995291237E+04 0.  0.
        5    1    3    3  502    0  0.74211145150E+03 -0.39551728829E+03  0.95310264255E+03  0.12710586411E+04  0.46999998093E+01 0. -1.
       -5    1    3    3    0  502 -0.74211145150E+03  0.39551728829E+03 -0.49479833891E+03  0.97571041707E+03  0.46999998093E+01 0.  1.
</event>
<event>
 5   0  0.1082209E-06  0.2202265E+04  0.7818609E-02  0.8517486E-01
       -1   -1    0    0    0  501  0.00000000000E+00  0.00000000000E+00  0.11538180448E+04  0.11538180448E+04  0.50400001928E-02 0. -1.
        1   -1    0    0  501    0  0.00000000000E+00  0.00000000000E+00 -0.10508526202E+04  0.10508526203E+04  0.50400001928E-02 0.  1.
    10030    2    1    2    0    0  0.00000000000E+00  0.00000000000E+00  0.10296542458E+03  0.22046706651E+04  0.22022649393E+04 0.  0.
        2    1    3    3  502    0 -0.89978233529E+03 -0.41423906187E+03  0.53293474298E+03  0.11248207375E+04  0.25500000920E-02 0. -1.
       -2    1    3    3    0  502  0.89978233529E+03  0.41423906187E+03 -0.42996931840E+03  0.10798499276E+04  0.25500000920E-02 0.  1.
</event>
<event>
 5   0  0.2581058E-06  0.2199762E+04  0.7818609E-02  0.8518527E-01
       -2   -1    0    0    0  501  0.00000000000E+00  0.00000000000E+00  0.52660055087E+03  0.52660055088E+03  0.25500000920E-02 0. -1.
        2   -1    0    0  501    0  0.00000000000E+00  0.00000000000E+00 -0.22972597599E+04  0.22972597599E+04  0.25500000920E-02 0.  1.
    10030    2    1    2    0    0  0.00000000000E+00  0.00000000000E+00 -0.17706592091E+04  0.28238603108E+04  0.21997620372E+04 0.  0.
        1    1    3    3  502    0  0.85090571732E+03  0.67149127222E+03 -0.11247932407E+04  0.15620822331E+04  0.50400001928E-02 0.  1.
       -1    1    3    3    0  502 -0.85090571732E+03 -0.67149127222E+03 -0.64586596835E+03  0.12617780778E+04  0.50400001928E-02 0. -1.
</event>
<event>
 5   0  0.1146827E-06  0.2198937E+04  0.7818609E-02  0.8518871E-01
        1   -1    0    0  501    0  0.00000000000E+00  0.00000000000E+00  0.15204529422E+04  0.15204529423E+04  0.50400001928E-02 0.  1.
       -1   -1    0    0    0  501  0.00000000000E+00  0.00000000000E+00 -0.79504655722E+03  0.79504655723E+03  0.50400001928E-02 0. -1.
    10030    2    1    2    0    0  0.00000000000E+00  0.00000000000E+00  0.72540638503E+03  0.23154994995E+04  0.21989369042E+04 0.  0.
        4    1    3    3  502    0 -0.94430578040E+03  0.33963233303E+03 -0.11029080692E+03  0.10095688206E+04  0.12699999809E+01 0. -1.
       -4    1    3    3    0  502  0.94430578040E+03 -0.33963233303E+03  0.83569719194E+03  0.13059306789E+04  0.12699999809E+01 0.  1.
</event>
<event>
 5   0  0.2581058E-06  0.2201970E+04  0.7818609E-02  0.8517609E-01
       -2   -1    0    0    0  501  0.00000000000E+00  0.00000000000E+00  0.10809564655E+04  0.10809564656E+04  0.25500000920E-02 0. -1.
        2   -1    0    0  501    0  0.00000000000E+00  0.00000000000E+00 -0.11213844661E+04  0.11213844661E+04  0.25500000920E-02 0.  1.
    10030    2    1    2    0    0  0.00000000000E+00  0.00000000000E+00 -0.40428000579E+02  0.22023409317E+04  0.22019698354E+04 0.  0.
        1    1    3    3  502    0  0.16449691245E+03  0.28946310264E+03 -0.10698286474E+04  0.11204380647E+04  0.50400001928E-02 0.  1.
       -1    1    3    3    0  502 -0.16449691245E+03 -0.28946310264E+03  0.10294006468E+04  0.10819028670E+04  0.50400001928E-02 0. -1.
</event>
<event>
 5   0  0.2532239E-06  0.2199798E+04  0.7818609E-02  0.8518512E-01
       -2   -1    0    0    0  501  0.00000000000E+00  0.00000000000E+00  0.55239403646E+03  0.55239403647E+03  0.25500000920E-02 0.  1.
        2   -1    0    0  501    0  0.00000000000E+00  0.00000000000E+00 -0.21900630309E+04  0.21900630309E+04  0.25500000920E-02 0. -1.
    10030    2    1    2    0    0  0.00000000000E+00  0.00000000000E+00 -0.16376689944E+04  0.27424570673E+04  0.21997979523E+04 0.  0.
        3    1    3    3  502    0  0.53472290653E+02 -0.12845377611E+03 -0.21790471265E+04  0.21834848404E+04  0.10100000352E+00 0. -1.
       -3    1    3    3    0  502 -0.53472290653E+02  0.12845377611E+03  0.54137813206E+03  0.55897222699E+03  0.10100000352E+00 0.  1.
</event>
<event>
 5   0  0.2532239E-06  0.2200787E+04  0.7818609E-02  0.8518100E-01
        2   -1    0    0  501    0  0.00000000000E+00  0.00000000000E+00  0.20622688053E+04  0.20622688053E+04  0.25500000920E-02 0.  1.
       -2   -1    0    0    0  501  0.00000000000E+00  0.00000000000E+00 -0.58715253228E+03  0.58715253228E+03  0.25500000920E-02 0. -1.
    10030    2    1    2    0    0  0.00000000000E+00  0.00000000000E+00  0.14751162731E+04  0.26494213376E+04  0.22007874512E+04 0.  0.
        3    1    3    3  502    0  0.66491773289E+03 -0.58623752054E+03 -0.47327504834E+02  0.88771049612E+03  0.10100000352E+00 0. -1.
       -3    1    3    3    0  502 -0.66491773289E+03  0.58623752054E+03  0.15224437779E+04  0.17617108415E+04  0.10100000352E+00 0.  1.
</event>
<event>
 5   0  0.1107101E-06  0.2200146E+04  0.7818609E-02  0.8518367E-01
       -1   -1    0    0    0  501  0.00000000000E+00  0.00000000000E+00  0.97960494274E+03  0.97960494275E+03  0.50400001928E-02 0.  1.
        1   -1    0    0  501    0  0.00000000000E+00  0.00000000000E+00 -0.12353560003E+04  0.12353560003E+04  0.50400001928E-02 0. -1.
    10030    2    1    2    0    0  0.00000000000E+00  0.00000000000E+00 -0.25575105756E+03  0.22149609431E+04  0.22001462169E+04 0.  0.
        1    1    3    3  502    0  0.21209872420E+03 -0.10173362349E+04  0.23538924836E+03  0.10655360069E+04  0.50400001928E-02 0.  1.
       -1    1    3    3    0  502 -0.21209872420E+03  0.10173362349E+04 -0.49114030592E+03  0.11494249362E+04  0.50400001928E-02 0. -1.
</event>
<event>
 5   0  0.1137869E-06  0.2199627E+04  0.7818609E-02  0.8518583E-01
       -1   -1    0    0    0  501  0.00000000000E+00  0.00000000000E+00  0.69684900514E+03  0.69684900516E+03  0.50400001928E-02 0.  1.
        1   -1    0    0  501    0  0.00000000000E+00  0.00000000000E+00 -0.17357988853E+04  0.17357988853E+04  0.50400001928E-02 0. -1.
    10030    2    1    2    0    0  0.00000000000E+00  0.00000000000E+00 -0.10389498801E+04  0.24326478905E+04  0.21996269924E+04 0.  0.
        5    1    3    3  502    0  0.14778544725E+03 -0.48802276253E+03  0.55820951691E+03  0.75605999095E+03  0.46999998093E+01 0.  1.
       -5    1    3    3    0  502 -0.14778544725E+03  0.48802276253E+03 -0.15971593971E+04  0.16765878995E+04  0.46999998093E+01 0. -1.
</event>
<event>
 5   0  0.2532239E-06  0.2199888E+04  0.7818609E-02  0.8518475E-01
       -2   -1    0    0    0  501  0.00000000000E+00  0.00000000000E+00  0.97424402032E+03  0.97424402032E+03  0.25500000920E-02 0. -1.
        2   -1    0    0  501    0  0.00000000000E+00  0.00000000000E+00 -0.12418626081E+04  0.12418626081E+04  0.25500000920E-02 0.  1.
    10030    2    1    2    0    0  0.00000000000E+00  0.00000000000E+00 -0.26761858775E+03  0.22161066284E+04  0.21998883790E+04 0.  0.
        3    1    3    3  502    0 -0.37976778411E+03 -0.70955920231E+03  0.62150458106E+03  0.10168410819E+04  0.10100000352E+00 0. -1.
       -3    1    3    3    0  502  0.37976778411E+03  0.70955920231E+03 -0.88912316881E+03  0.11992655465E+04  0.10100000352E+00 0.  1.
</event>
<event>
 5   0  0.1137869E-06  0.2200064E+04  0.7818609E-02  0.8518402E-01
        1   -1    0    0  501    0  0.00000000000E+00  0.00000000000E+00  0.14239634541E+04  0.14239634542E+04  0.50400001928E-02 0. -1.
       -1   -1    0    0    0  501  0.00000000000E+00  0.00000000000E+00 -0.84979007274E+03  0.84979007275E+03  0.50400001928E-02 0.  1.
    10030    2    1    2    0    0  0.00000000000E+00  0.00000000000E+00  0.57417338141E+03  0.22737535269E+04  0.22000636421E+04 0.  0.
        5    1    3    3  502    0 -0.52617066122E+03  0.58370247696E+03 -0.50842464244E+03  0.93599244301E+03  0.46999998093E+01 0.  1.
       -5    1    3    3    0  502  0.52617066122E+03 -0.58370247696E+03  0.10825980238E+04  0.13377610839E+04  0.46999998093E+01 0. -1.
</event>
<event>
 5   0  0.2606154E-06  0.2199519E+04  0.7818609E-02  0.8518628E-01
        2   -1    0    0  501    0  0.00000000000E+00  0.00000000000E+00  0.14397350136E+04  0.14397350136E+04  0.25500000920E-02 0. -1.
       -2   -1    0    0    0  501  0.00000000000E+00  0.00000000000E+00 -0.84006505580E+03  0.84006505580E+03  0.25500000920E-02 0.  1.
    10030    2    1    2    0    0  0.00000000000E+00  0.00000000000E+00  0.59966995782E+03  0.22798000694E+04  0.21995191061E+04 0.  0.
        2    1    3    3  502    0 -0.59497776742E+03 -0.32368817005E+03 -0.59821766872E+03  0.90367967463E+03  0.25500000920E-02 0.  1.
       -2    1    3    3    0  502  0.59497776742E+03  0.32368817005E+03  0.11978876265E+04  0.13761203948E+04  0.25500000920E-02 0. -1.
</event>
<event>
 5   0  0.1144271E-06  0.2200091E+04  0.7818609E-02  0.8518390E-01
       -1   -1    0    0    0  501  0.00000000000E+00  0.00000000000E+00  0.56450303476E+03  0.56450303478E+03  0.50400001928E-02 0. -1.
        1   -1    0    0  501    0  0.00000000000E+00  0.00000000000E+00 -0.21436552559E+04  0.21436552559E+04  0.50400001928E-02 0.  1.
    10030    2    1    2    0    0  0.00000000000E+00  0.00000000000E+00 -0.15791522212E+04  0.27081582907E+04  0.22000908140E+04 0.  0.
        3    1    3    3  502    0  0.25426489490E+02  0.73719371397E+03  0.21497066413E+03  0.76831860248E+03  0.10100000352E+00 0. -1.
       -3    1    3    3    0  502 -0.25426489490E+02 -0.73719371397E+03 -0.17941228853E+04  0.19398396882E+04  0.10100000352E+00 0.  1.
</event>
<event>
 5   0  0.1107101E-06  0.2199647E+04  0.7818609E-02  0.8518575E-01
        1   -1    0    0  501    0  0.00000000000E+00  0.00000000000E+00  0.19781462603E+04  0.19781462603E+04  0.50400001928E-02 0.  1.
       -1   -1    0    0    0  501  0.00000000000E+00  0.00000000000E+00 -0.61148749664E+03  0.61148749666E+03  0.50400001928E-02 0. -1.
    10030    2    1    2    0    0  0.00000000000E+00  0.00000000000E+00  0.13666587637E+04  0.25896337570E+04  0.21996469760E+04 0.  0.
        1    1    3    3  502    0 -0.41821563075E+03  0.78880066230E+03  0.14394617249E+04  0.16938597510E+04  0.50400001928E-02 0.  1.
       -1    1    3    3    0  502  0.41821563075E+03 -0.78880066230E+03 -0.72802961191E+02  0.89577400600E+03  0.50400001928E-02 0. -1.
</event>
<event>
 5   0  0.1146827E-06  0.2200803E+04  0.7818609E-02  0.8518094E-01
       -1   -1    0    0    0  501  0.00000000000E+00  0.00000000000E+00  0.16960263210E+04  0.16960263210E+04  0.50400001928E-02 0. -1.
        1   -1    0    0  501    0  0.00000000000E+00  0.00000000000E+00 -0.71395301288E+03  0.71395301290E+03  0.50400001928E-02 0.  1.
    10030    2    1    2    0    0  0.00000000000E+00  0.00000000000E+00  0.98207330807E+03  0.24099793339E+04  0.22008026734E+04 0.  0.
        4    1    3    3  502    0 -0.58015653052E+03  0.84243948514E+03  0.93530086419E+03  0.13860285731E+04  0.12699999809E+01 0. -1.
       -4    1    3    3    0  502  0.58015653052E+03 -0.84243948514E+03  0.46772443889E+02  0.10239507608E+04  0.12699999809E+01 0.  1.
</event>
<event>
 5   0  0.2524749E-06  0.2199950E+04  0.7818609E-02  0.8518449E-01
        2   -1    0    0  501    0  0.00000000000E+00  0.00000000000E+00  0.19538130237E+04  0.19538130237E+04  0.25500000920E-02 0. -1.
       -2   -1    0    0    0  501  0.00000000000E+00  0.00000000000E+00 -0.61927377814E+03  0.61927377814E+03  0.25500000920E-02 0.  1.
    10030    2    1    2    0    0  0.00000000000E+00  0.00000000000E+00  0.13345392456E+04  0.25730868019E+04  0.21999501567E+04 0.  0.
        4    1    3    3  502    0  0.21544231300E+03 -0.12511243665E+03 -0.58583953433E+03  0.63661454973E+03  0.12699999809E+01 0.  1.
       -4    1    3    3    0  502 -0.21544231300E+03  0.12511243665E+03  0.19203787799E+04  0.19364722521E+04  0.12699999809E+01 0. -1.
</event>
<event>
 5   0  0.1144271E-06  0.2199583E+04  0.7818609E-02  0.8518602E-01
       -1   -1    0    0    0  501  0.00000000000E+00  0.00000000000E+00  0.12276113520E+04  0.12276113520E+04  0.50400001928E-02 0. -1.
        1   -1    0    0  501    0  0.00000000000E+00  0.00000000000E+00 -0.98528056085E+03  0.98528056086E+03  0.50400001928E-02 0.  1.
    10030    2    1    2    0    0  0.00000000000E+00  0.00000000000E+00  0.24233079114E+03  0.22128919129E+04  0.21995832345E+04 0.  0.
        3    1    3    3  502    0  0.70351802523E+03  0.53803259495E+03  0.77712648036E+03  0.11782793649E+04  0.10100000352E+00 0.  1.
       -3    1    3    3    0  502 -0.70351802523E+03 -0.53803259495E+03 -0.53479568921E+03  0.10346125480E+04  0.10100000352E+00 0. -1.
</event>
<event>
 5   0  0.1137869E-06  0.2199165E+04  0.7818609E-02  0.8518776E-01
        1   -1    0    0  501    0  0.00000000000E+00  0.00000000000E+00  0.14075885685E+04  0.14075885685E+04  0.50400001928E-02 0. -1.
       -1   -1    0    0    0  501  0.00000000000E+00  0.00000000000E+00 -0.85897355530E+03  0.85897355532E+03  0.50400001928E-02 0.  1.
    10030    2    1    2    0    0  0.00000000000E+00  0.00000000000E+00  0.54861501319E+03  0.22665621238E+04  0.21991647115E+04 0.  0.
        5    1    3    3  502    0  0.24043974649E+03  0.62407361520E+02 -0.82966550550E+03  0.86606748668E+03  0.46999998093E+01 0.  1.
       -5    1    3    3    0  502 -0.24043974649E+03 -0.62407361520E+02  0.13782805187E+04  0.14004946371E+04  0.46999998093E+01 0. -1.
</event>
<event>
 5   0  0.1146827E-06  0.2200194E+04  0.7818609E-02  0.8518347E-01
       -1   -1    0    0    0  501  0.00000000000E+00  0.00000000000E+00  0.17352704848E+04  0.17352704848E+04  0.50400001928E-02 0. -1.
        1   -1    0    0  501    0  0.00000000000E+00  0.00000000000E+00 -0.69742057612E+03  0.69742057614E+03  0.50400001928E-02 0.  1.
    10030    2    1    2    0    0  0.00000000000E+00  0.00000000000E+00  0.10378499087E+04  0.24326910609E+04  0.22001939380E+04 0.  0.
        4    1    3    3  502    0 -0.27094069261E+03  0.47378253154E+03 -0.53716930838E+03  0.76578797644E+03  0.12699999809E+01 0.  1.
       -4    1    3    3    0  502  0.27094069261E+03 -0.47378253154E+03  0.15750192171E+04  0.16669030845E+04  0.12699999809E+01 0. -1.
</event>
<event>
 5   0  0.2606154E-06  0.2199768E+04  0.7818609E-02  0.8518525E-01
        2   -1    0    0  501    0  0.00000000000E+00  0.00000000000E+00  0.10438555579E+04  0.10438555579E+04  0.25500000920E-02 0. -1.
       -2   -1    0    0    0  501  0.00000000000E+00  0.00000000000E+00 -0.11589193310E+04  0.11589193310E+04  0.25500000920E-02 0.  1.
    10030    2    1    2    0    0  0.00000000000E+00  0.00000000000E+00 -0.11506377318E+03  0.22027748889E+04  0.21997676103E+04 0.  0.
        2    1    3    3  502    0 -0.14721724881E+01 -0.10944610344E+04  0.51691797228E+02  0.10956820547E+04  0.25500000920E-02 0.  1.
       -2    1    3    3    0  502  0.14721724881E+01  0.10944610344E+04 -0.16675557041E+03  0.11070928342E+04  0.25500000920E-02 0. -1.
</event>
<event>
 5   0  0.2524749E-06  0.2198590E+04  0.7818609E-02  0.8519015E-01
       -2   -1    0    0    0  501  0.00000000000E+00  0.00000000000E+00  0.50706300798E+03  0.50706300799E+03  0.25500000920E-02 0.  1.
        2   -1    0    0  501    0  0.00000000000E+00  0.00000000000E+00 -0.23832335321E+04  0.23832335321E+04  0.25500000920E-02 0. -1.
    10030    2    1    2    0    0  0.00000000000E+00  0.00000000000E+00 -0.18761705241E+04  0.28902965401E+04  0.21985900605E+04 0.  0.
        4    1    3    3  502    0 -0.16409099627E+03 -0.50800453289E+03  0.32521229486E+03  0.62510727889E+03  0.12699999809E+01 0.  1.
       -4    1    3    3    0  502  0.16409099627E+03  0.50800453289E+03 -0.22013828190E+04  0.22651892612E+04  0.12699999809E+01 0. -1.
</event>
<event>
 5   0  0.2524749E-06  0.2199743E+04  0.7818609E-02  0.8518535E-01
        2   -1    0    0  501    0  0.00000000000E+00  0.00000000000E+00  0.15763225416E+04  0.15763225416E+04  0.25500000920E-02 0. -1.
       -2   -1    0    0    0  501  0.00000000000E+00  0.00000000000E+00 -0.76743033555E+03  0.76743033555E+03  0.25500000920E-02 0.  1.
    10030    2    1    2    0    0  0.00000000000E+00  0.00000000000E+00  0.80889220608E+03  0.23437528772E+04  0.21997433824E+04 0.  0.
        4    1    3    3  502    0  0.35713724867E+03 -0.68989898571E+03  0.12340118448E+04  0.14581819060E+04  0.12699999809E+01 0. -1.
       -4    1    3    3    0  502 -0.35713724867E+03  0.68989898571E+03 -0.42511963875E+03  0.88557097119E+03  0.12699999809E+01 0.  1.
</event>
<event>
 5   0  0.1146827E-06  0.2199338E+04  0.7818609E-02  0.8518704E-01
        1   -1    0    0  501    0  0.00000000000E+00  0.00000000000E+00  0.13363051545E+04  0.13363051545E+04  0.50400001928E-02 0. -1.
       -1   -1    0    0    0  501  0.00000000000E+00  0.00000000000E+00 -0.90493670374E+03  0.90493670375E+03  0.50400001928E-02 0.  1.
    10030    2    1    2    0    0  0.00000000000E+00  0.00000000000E+00  0.43136845075E+03  0.22412418583E+04  0.21993377019E+04 0.  0.
        4    1    3    3  502    0  0.66649015921E+03 -0.28536234721E+02 -0.67518414653E+03  0.94915683300E+03  0.12699999809E+01 0. -1.
       -4    1    3    3    0  502 -0.66649015921E+03  0.28536234721E+02  0.11065525973E+04  0.12920850252E+04  0.12699999809E+01 0.  1.
</event>
<event>
 5   0  0.2606154E-06  0.2200432E+04  0.7818609E-02  0.8518248E-01
       -2   -1    0    0    0  501  0.00000000000E+00  0.00000000000E+00  0.10006989233E+04  0.10006989233E+04  0.25500000920E-02 0. -1.
        2   -1    0    0  501    0  0.00000000000E+00  0.00000000000E+00 -0.12096293600E+04  0.12096293600E+04  0.25500000920E-02 0.  1.
    10030    2    1    2    0    0  0.00000000000E+00  0.00000000000E+00 -0.20893043663E+03  0.22103282833E+04  0.22004315923E+04 0.  0.
        2    1    3    3  502    0  0.47981339366E+03 -0.77690703613E+03  0.51202907083E+03  0.10468902545E+04  0.25500000920E-02 0. -1.
       -2    1    3    3    0  502 -0.47981339366E+03  0.77690703613E+03 -0.72095950746E+03  0.11634380288E+04  0.25500000920E-02 0.  1.
</event>
<event>
 5   0  0.2524749E-06  0.2199191E+04  0.7818609E-02  0.8518765E-01
       -2   -1    0    0    0  501  0.00000000000E+00  0.00000000000E+00  0.42212482592E+03  0.42212482592E+03  0.25500000920E-02 0. -1.
        2   -1    0    0  501    0  0.00000000000E+00  0.00000000000E+00 -0.28643425744E+04  0.28643425744E+04  0.25500000920E-02 0.  1.
    10030    2    1    2    0    0  0.00000000000E+00  0.00000000000E+00 -0.24422177485E+04  0.32864674003E+04  0.21991908608E+04 0.  0.
        4    1    3    3  502    0 -0.97500210267E+03  0.35523544302E+02 -0.19790171377E+04  0.22064454371E+04  0.12699999809E+01 0. -1.
       -4    1    3    3    0  502  0.97500210267E+03 -0.35523544302E+02 -0.46320061075E+03  0.10800219633E+04  0.12699999809E+01 0.  1.
</event>
<event>
 5   0  0.2556869E-06  0.2199862E+04  0.7818609E-02  0.8518486E-01
        2   -1    0    0  501    0  0.00000000000E+00  0.00000000000E+00  0.14277983420E+04  0.14277983420E+04  0.25500000920E-02 0.  1.
       -2   -1    0    0    0  501  0.00000000000E+00  0.00000000000E+00 -0.84735225935E+03  0.84735225936E+03  0.25500000920E-02 0. -1.
    10030    2    1    2    0    0  0.00000000000E+00  0.00000000000E+00  0.58044608268E+03  0.22751506014E+04  0.21998619511E+04 0.  0.
        5    1    3    3  502    0  0.26327803046E+03 -0.73337156036E+03 -0.51266870270E+03  0.93273814954E+03  0.46999998093E+01 0. -1.
       -5    1    3    3    0  502 -0.26327803046E+03  0.73337156036E+03  0.10931147854E+04  0.13424124519E+04  0.46999998093E+01 0.  1.
</event>
<event>
 5   0  0.1082209E-06  0.2200045E+04  0.7818609E-02  0.8518409E-01
        1   -1    0    0  501    0  0.00000000000E+00  0.00000000000E+00  0.88384073591E+03  0.88384073592E+03  0.50400001928E-02 0.  1.
       -1   -1    0    0    0  501  0.00000000000E+00  0.00000000000E+00 -0.13690814762E+04  0.13690814762E+04  0.50400001928E-02 0. -1.
    10030    2    1    2    0    0  0.00000000000E+00  0.00000000000E+00 -0.48524074029E+03  0.22529222121E+04  0.22000454354E+04 0.  0.
        2    1    3    3  502    0 -0.60310280362E+03  0.40275614519E+03  0.60436471473E+03  0.94403506961E+03  0.25500000920E-02 0.  1.
       -2    1    3    3    0  502  0.60310280362E+03 -0.40275614519E+03 -0.10896054550E+04  0.13088871425E+04  0.25500000920E-02 0. -1.
</event>
<event>
 5   0  0.2556869E-06  0.2199269E+04  0.7818609E-02  0.8518732E-01
        2   -1    0    0  501    0  0.00000000000E+00  0.00000000000E+00  0.20930332752E+04  0.20930332752E+04  0.25500000920E-02 0.  1.
       -2   -1    0    0    0  501  0.00000000000E+00  0.00000000000E+00 -0.57772431049E+03  0.57772431049E+03  0.25500000920E-02 0. -1.
    10030    2    1    2    0    0  0.00000000000E+00  0.00000000000E+00  0.15153089647E+04  0.26707575857E+04  0.21992691565E+04 0.  0.
        5    1    3    3  502    0  0.22846890532E+03  0.82625641090E+03 -0.78664304640E+02  0.86087621647E+03  0.46999998093E+01 0. -1.
       -5    1    3    3    0  502 -0.22846890532E+03 -0.82625641090E+03  0.15939732693E+04  0.18098813692E+04  0.46999998093E+01 0.  1.
</event>
<event>
 5   0  0.1137869E-06  0.2199735E+04  0.7818609E-02  0.8518538E-01
       -1   -1    0    0    0  501  0.00000000000E+00  0.00000000000E+00  0.10543985193E+04  0.10543985193E+04  0.50400001928E-02 0.  1.
        1   -1    0    0  501    0  0.00000000000E+00  0.00000000000E+00 -0.11472972373E+04  0.11472972373E+04  0.50400001928E-02 0. -1.
    10030    2    1    2    0    0  0.00000000000E+00  0.00000000000E+00 -0.92898717955E+02  0.22016957566E+04  0.21997349915E+04 0.  0.
        5    1    3    3  502    0 -0.78003971002E+03 -0.70158808402E+03 -0.37689304702E+03  0.11147906744E+04  0.46999998093E+01 0. -1.
       -5    1    3    3    0  502  0.78003971002E+03  0.70158808402E+03  0.28399432906E+03  0.10869050822E+04  0.46999998093E+01 0.  1.
</event>
<event>
 5   0  0.1082209E-06  0.2198888E+04  0.7818609E-02  0.8518891E-01
       -1   -1    0    0    0  501  0.00000000000E+00  0.00000000000E+00  0.95521297174E+03  0.95521297175E+03  0.50400001928E-02 0. -1.
        1   -1    0    0  501    0  0.00000000000E+00  0.00000000000E+00 -0.12654527674E+04  0.12654527674E+04  0.50400001928E-02 0.  1.
    10030    2    1    2    0    0  0.00000000000E+00  0.00000000000E+00 -0.31023979568E+03  0.22206657392E+04  0.21988878085E+04 0.  0.
        2    1    3    3  502    0  0.57946541749E+03  0.47640114008E+03 -0.96684575823E+03  0.12237356482E+04  0.25500000920E-02 0.  1.
       -2    1    3    3    0  502 -0.57946541749E+03 -0.47640114008E+03  0.65660596255E+03  0.99693009103E+03  0.25500000920E-02 0. -1.
</event>
<event>
 5   0  0.2581058E-06  0.2199158E+04  0.7818609E-02  0.8518779E-01
        2   -1    0    0  501    0  0.00000000000E+00  0.00000000000E+00  0.10420533566E+04  0.10420533566E+04  0.25500000920E-02 0.  1.
       -2   -1    0    0    0  501  0.00000000000E+00  0.00000000000E+00 -0.11602801652E+04  0.11602801652E+04  0.25500000920E-02 0. -1.
    10030    2    1    2    0    0  0.00000000000E+00  0.00000000000E+00 -0.11822680862E+03  0.22023335218E+04  0.21991578759E+04 0.  0.
        1    1    3    3  502    0  0.85918004944E+03  0.24982540763E+03  0.58092666269E+03  0.10668077986E+04  0.50400001928E-02 0.  1.
       -1    1    3    3    0  502 -0.85918004944E+03 -0.24982540763E+03 -0.69915347131E+03  0.11355257232E+04  0.50400001928E-02 0. -1.
</event>
<event>
 5   0  0.1146827E-06  0.2200485E+04  0.7818609E-02  0.8518226E-01
       -1   -1    0    0    0  501  0.00000000000E+00  0.00000000000E+00  0.48848447371E+03  0.48848447373E+03  0.50400001928E-02 0.  1.
        1   -1    0    0  501    0  0.00000000000E+00  0.00000000000E+00 -0.24781406883E+04  0.24781406883E+04  0.50400001928E-02 0. -1.
    10030    2    1    2    0    0  0.00000000000E+00  0.00000000000E+00 -0.19896562146E+04  0.29666251620E+04  0.22004847193E+04 0.  0.
        4    1    3    3  502    0 -0.10953481150E+04  0.70389182717E+02 -0.10974086771E+04  0.15521113193E+04  0.12699999809E+01 0. -1.
       -4    1    3    3    0  502  0.10953481150E+04 -0.70389182717E+02 -0.89224753753E+03  0.14145138427E+04  0.12699999809E+01 0.  1.
</event>
<event>
 5   0  0.2532239E-06  0.2199392E+04  0.7818609E-02  0.8518681E-01
        2   -1    0    0  501    0  0.00000000000E+00  0.00000000000E+00  0.20077320015E+04  0.20077320015E+04  0.25500000920E-02 0. -1.
       -2   -1    0    0    0  501  0.00000000000E+00  0.00000000000E+00 -0.60233714369E+03  0.60233714370E+03  0.25500000920E-02 0.  1.
    10030    2    1    2    0    0  0.00000000000E+00  0.00000000000E+00  0.14053948578E+04  0.26100691452E+04  0.21993922425E+04 0.  0.
        3    1    3    3  502    0 -0.91111288474E+02 -0.31908639766E+03  0.19468982382E+04  0.19749759888E+04  0.10100000352E+00 0. -1.
       -3    1    3    3    0  502  0.91111288474E+02  0.31908639766E+03 -0.54150338045E+03  0.63509315639E+03  0.10100000352E+00 0.  1.
</event>
<event>
 5   0  0.1137869E-06  0.2200013E+04  0.7818609E-02  0.8518423E-01
       -1   -1    0    0    0  501  0.00000000000E+00  0.00000000000E+00  0.10356608791E+04  0.10356608791E+04  0.50400001928E-02 0. -1.
        1   -1    0    0  501    0  0.00000000000E+00  0.00000000000E+00 -0.11683504144E+04  0.11683504144E+04  0.50400001928E-02 0.  1.
    10030    2    1    2    0    0  0.00000000000E+00  0.00000000000E+00 -0.13268953524E+03  0.22040112935E+04  0.22000134702E+04 0.  0.
        5    1    3    3  502    0  0.10282688383E+04  0.14699062056E+03 -0.42901044815E+03  0.11238394462E+04  0.46999998093E+01 0.  1.
       -5    1    3    3    0  502 -0.10282688383E+04 -0.14699062056E+03  0.29632091291E+03  0.10801718473E+04  0.46999998093E+01 0. -1.
</event>
<event>
 5   0  0.1144271E-06  0.2199148E+04  0.7818609E-02  0.8518783E-01
        1   -1    0    0  501    0  0.00000000000E+00  0.00000000000E+00  0.11068267779E+04  0.11068267779E+04  0.50400001928E-02 0.  1.
       -1   -1    0    0    0  501  0.00000000000E+00  0.00000000000E+00 -0.10923688979E+04  0.10923688979E+04  0.50400001928E-02 0. -1.
    10030    2    1    2    0    0  0.00000000000E+00  0.00000000000E+00  0.14457880032E+02  0.21991956758E+04  0.21991481510E+04 0.  0.
        3    1    3    3  502    0 -0.30856374994E+03 -0.65854208944E+03 -0.81751542292E+03  0.10941758306E+04  0.10100000352E+00 0. -1.
       -3    1    3    3    0  502  0.30856374994E+03  0.65854208944E+03  0.83197330295E+03  0.11050198452E+04  0.10100000352E+00 0.  1.
</event>
<event>
 5   0  0.8905000E-07  0.2200059E+04  0.7818609E-02  0.8518404E-01
        3   -1    0    0  501    0  0.00000000000E+00  0.00000000000E+00  0.16207293677E+04  0.16207293708E+04  0.10100000352E+00 0. -1.
       -3   -1    0    0    0  501  0.00000000000E+00  0.00000000000E+00 -0.74661721412E+03  0.74661722095E+03  0.10100000352E+00 0.  1.
    10030    2    1    2    0    0  0.00000000000E+00  0.00000000000E+00  0.87411215357E+03  0.23673465918E+04  0.22000585966E+04 0.  0.
        4    1    3    3  502    0 -0.54837538849E+03  0.24459513982E+03 -0.55472205475E+03  0.81747203013E+03  0.12699999809E+01 0.  1.
       -4    1    3    3    0  502  0.54837538849E+03 -0.24459513982E+03  0.14288342083E+04  0.15498745617E+04  0.12699999809E+01 0. -1.
</event>
<event>
 5   0  0.2606154E-06  0.2200492E+04  0.7818609E-02  0.8518223E-01
        2   -1    0    0  501    0  0.00000000000E+00  0.00000000000E+00  0.17533605205E+04  0.17533605205E+04  0.25500000920E-02 0. -1.
       -2   -1    0    0    0  501  0.00000000000E+00  0.00000000000E+00 -0.69041233975E+03  0.69041233976E+03  0.25500000920E-02 0.  1.
    10030    2    1    2    0    0  0.00000000000E+00  0.00000000000E+00  0.10629481808E+04  0.24437728603E+04  0.22004924353E+04 0.  0.
        2    1    3    3  502    0  0.48479897286E+03  0.73835983521E+03 -0.19705185550E+03  0.90500537241E+03  0.25500000920E-02 0.  1.
       -2    1    3    3    0  502 -0.48479897286E+03 -0.73835983521E+03  0.12600000363E+04  0.15387674879E+04  0.25500000920E-02 0. -1.
</event>
<event>
 5   0  0.2556869E-06  0.2199994E+04  0.7818609E-02  0.8518431E-01
       -2   -1    0    0    0  501  0.00000000000E+00  0.00000000000E+00  0.91270220895E+03  0.91270220895E+03  0.25500000920E-02 0.  1.
        2   -1    0    0  501    0  0.00000000000E+00  0.00000000000E+00 -0.13257258217E+04  0.13257258217E+04  0.25500000920E-02 0. -1.
    10030    2    1    2    0    0  0.00000000000E+00  0.00000000000E+00 -0.41302361271E+03  0.22384280306E+04  0.21999935326E+04 0.  0.
        5    1    3    3  502    0 -0.48707894457E+02  0.95889320653E+03  0.33963583069E+03  0.10184415683E+04  0.46999998093E+01 0.  1.
       -5    1    3    3    0  502  0.48707894457E+02 -0.95889320653E+03 -0.75265944340E+03  0.12199864623E+04  0.46999998093E+01 0. -1.
</event>
<event>
 5   0  0.1146827E-06  0.2200711E+04  0.7818609E-02  0.8518132E-01
        1   -1    0    0  501    0  0.00000000000E+00  0.00000000000E+00  0.11776198781E+04  0.11776198781E+04  0.50400001928E-02 0.  1.
       -1   -1    0    0    0  501  0.00000000000E+00  0.00000000000E+00 -0.10281608161E+04  0.10281608161E+04  0.50400001928E-02 0. -1.
    10030    2    1    2    0    0  0.00000000000E+00  0.00000000000E+00  0.14945906200E+03  0.22057806942E+04  0.22007113531E+04 0.  0.
        4    1    3    3  502    0 -0.84145493208E+03  0.10607135819E+03  0.77740323873E+03  0.11505020401E+04  0.12699999809E+01 0.  1.
       -4    1    3    3    0  502  0.84145493208E+03 -0.10607135819E+03 -0.62794417673E+03  0.10552786541E+04  0.12699999809E+01 0. -1.
</event>
<event>
 5   0  0.2524749E-06  0.2199831E+04  0.7818609E-02  0.8518498E-01
        2   -1    0    0  501    0  0.00000000000E+00  0.00000000000E+00  0.18612035572E+04  0.18612035572E+04  0.25500000920E-02 0.  1.
       -2   -1    0    0    0  501  0.00000000000E+00  0.00000000000E+00 -0.65001715151E+03  0.65001715152E+03  0.25500000920E-02 0. -1.
    10030    2    1    2    0    0  0.00000000000E+00  0.00000000000E+00  0.12111864057E+04  0.25112207087E+04  0.21998311159E+04 0.  0.
        4    1    3    3  502    0  0.64779960033E+03  0.23060860843E+03  0.15855924512E+04  0.17282736146E+04  0.12699999809E+01 0.  1.
       -4    1    3    3    0  502 -0.64779960033E+03 -0.23060860843E+03 -0.37440604552E+03  0.78294709418E+03  0.12699999809E+01 0. -1.
</event>
<event>
 5   0  0.1137869E-06  0.2200093E+04  0.7818609E-02  0.8518389E-01
       -1   -1    0    0    0  501  0.00000000000E+00  0.00000000000E+00  0.96181666527E+03  0.96181666528E+03  0.50400001928E-02 0. -1.
        1   -1    0    0  501    0  0.00000000000E+00  0.00000000000E+00 -0.12581424435E+04  0.12581424435E+04  0.50400001928E-02 0.  1.
    10030    2    1    2    0    0  0.00000000000E+00  0.00000000000E+00 -0.29632577824E+03  0.22199591088E+04  0.22000930612E+04 0.  0.
        5    1    3    3  502    0  0.32545516505E+02  0.74843638702E+03 -0.96095742969E+03  0.12184734333E+04  0.46999998093E+01 0.  1.
       -5    1    3    3    0  502 -0.32545516505E+02 -0.74843638702E+03  0.66463165145E+03  0.10014856755E+04  0.46999998093E+01 0. -1.
</event>
<event>
 5   0  0.2606154E-06  0.2201055E+04  0.7818609E-02  0.8517989E-01
        2   -1    0    0  501    0  0.00000000000E+00  0.00000000000E+00  0.19278467919E+04  0.19278467919E+04  0.25500000920E-02 0.  1.
       -2   -1    0    0    0  501  0.00000000000E+00  0.00000000000E+00 -0.62824514801E+03  0.62824514801E+03  0.25500000920E-02 0. -1.
    10030    2    1    2    0    0  0.00000000000E+00  0.00000000000E+00  0.12996016439E+04  0.25560919400E+04  0.22010546501E+04 0.  0.
        2    1    3    3  502    0  0.26940216868E+03 -0.10598779107E+04  0.79317206562E+03  0.13509406499E+04  0.25500000920E-02 0. -1.
       -2    1    3    3    0  502 -0.26940216868E+03  0.10598779107E+04  0.50642957832E+03  0.12051512900E+04  0.25500000920E-02 0.  1.
</event>
<event>
 5   0  0.2532239E-06  0.2200711E+04  0.7818609E-02  0.8518132E-01
        2   -1    0    0  501    0  0.00000000000E+00  0.00000000000E+00  0.10996603579E+04  0.10996603579E+04  0.25500000920E-02 0. -1.
       -2   -1    0    0    0  501  0.00000000000E+00  0.00000000000E+00 -0.11010511692E+04  0.11010511692E+04  0.25500000920E-02 0.  1.
    10030    2    1    2    0    0  0.00000000000E+00  0.00000000000E+00 -0.13908113102E+01  0.22007115270E+04  0.22007110876E+04 0.  0.
        3    1    3    3  502    0 -0.15105125571E+03 -0.95100808752E+03  0.53179831393E+03  0.11000192368E+04  0.10100000352E+00 0. -1.
       -3    1    3    3    0  502  0.15105125571E+03  0.95100808752E+03 -0.53318912524E+03  0.11006922903E+04  0.10100000352E+00 0.  1.
</event>
<event>
 5   0  0.1082209E-06  0.2200308E+04  0.7818609E-02  0.8518300E-01
        1   -1    0    0  501    0  0.00000000000E+00  0.00000000000E+00  0.95379681242E+03  0.95379681243E+03  0.50400001928E-02 0. -1.
       -1   -1    0    0    0  501  0.00000000000E+00  0.00000000000E+00 -0.12689689448E+04  0.12689689448E+04  0.50400001928E-02 0.  1.
    10030    2    1    2    0    0  0.00000000000E+00  0.00000000000E+00 -0.31517213234E+03  0.22227657572E+04  0.22003077372E+04 0.  0.
        2    1    3    3  502    0  0.84024820760E+03 -0.69434676298E+03 -0.30811723647E+03  0.11327271115E+04  0.25500000920E-02 0. -1.
       -2    1    3    3    0  502 -0.84024820760E+03  0.69434676298E+03 -0.70548958727E+01  0.10900386457E+04  0.25500000920E-02 0.  1.
</event>
<event>
 5   0  0.1137869E-06  0.2202630E+04  0.7818609E-02  0.8517334E-01
       -1   -1    0    0    0  501  0.00000000000E+00  0.00000000000E+00  0.91364707077E+03  0.91364707079E+03  0.50400001928E-02 0. -1.
        1   -1    0    0  501    0  0.00000000000E+00  0.00000000000E+00 -0.13275312705E+04  0.13275312705E+04  0.50400001928E-02 0.  1.
    10030    2    1    2    0    0  0.00000000000E+00  0.00000000000E+00 -0.41388419972E+03  0.22411783413E+04  0.22026302973E+04 0.  0.
        5    1    3    3  502    0  0.32128988579E+03  0.54651193003E+03 -0.11232413533E+04  0.12898045232E+04  0.46999998093E+01 0.  1.
       -5    1    3    3    0  502 -0.32128988579E+03 -0.54651193003E+03  0.70935715357E+03  0.95137381807E+03  0.46999998093E+01 0. -1.
</event>
<event>
 5   0  0.2532239E-06  0.2200601E+04  0.7818609E-02  0.8518178E-01
       -2   -1    0    0    0  501  0.00000000000E+00  0.00000000000E+00  0.12005144595E+04  0.12005144595E+04  0.25500000920E-02 0.  1.
        2   -1    0    0  501    0  0.00000000000E+00  0.00000000000E+00 -0.10084524246E+04  0.10084524246E+04  0.25500000920E-02 0. -1.
    10030    2    1    2    0    0  0.00000000000E+00  0.00000000000E+00  0.19206203485E+03  0.22089668841E+04  0.22006014791E+04 0.  0.
        3    1    3    3  502    0  0.55413200092E+03 -0.58632037288E+02  0.10484062093E+04  0.11872891729E+04  0.10100000352E+00 0.  1.
       -3    1    3    3    0  502 -0.55413200092E+03  0.58632037288E+02 -0.85634417445E+03  0.10216777112E+04  0.10100000352E+00 0. -1.
</event>
<event>
 5   0  0.2532239E-06  0.2200356E+04  0.7818609E-02  0.8518280E-01
       -2   -1    0    0    0  501  0.00000000000E+00  0.00000000000E+00  0.91026587550E+03  0.91026587550E+03  0.25500000920E-02 0. -1.
        2   -1    0    0  501    0  0.00000000000E+00  0.00000000000E+00 -0.13297122015E+04  0.13297122015E+04  0.25500000920E-02 0.  1.
    10030    2    1    2    0    0  0.00000000000E+00  0.00000000000E+00 -0.41944632595E+03  0.22399780770E+04  0.22003560087E+04 0.  0.
        3    1    3    3  502    0  0.49695569567E+03 -0.25475144932E+03 -0.11746996037E+04  0.13006853707E+04  0.10100000352E+00 0.  1.
       -3    1    3    3    0  502 -0.49695569567E+03  0.25475144932E+03  0.75525327772E+03  0.93929270629E+03  0.10100000352E+00 0. -1.
</event>
<event>
 5   0  0.2606154E-06  0.2213135E+04  0.7818609E-02  0.8512981E-01
       -2   -1    0    0    0  501  0.00000000000E+00  0.00000000000E+00  0.17196745115E+04  0.17196745115E+04  0.25500000920E-02 0. -1.
        2   -1    0    0  501    0  0.00000000000E+00  0.00000000000E+00 -0.71204846246E+03  0.71204846246E+03  0.25500000920E-02 0.  1.
    10030    2    1    2    0    0  0.00000000000E+00  0.00000000000E+00  0.10076260491E+04  0.24317229740E+04  0.22131349637E+04 0.  0.
        2    1    3    3  502    0  0.52687410138E+03  0.25220606079E+03 -0.52884663142E+03  0.78796127784E+03  0.25500000920E-02 0.  1.
       -2    1    3    3    0  502 -0.52687410138E+03 -0.25220606079E+03  0.15364726805E+04  0.16437616961E+04  0.25500000920E-02 0. -1.
</event>
<event>
 5   0  0.1107101E-06  0.2202338E+04  0.7818609E-02  0.8517456E-01
        1   -1    0    0  501    0  0.00000000000E+00  0.00000000000E+00  0.79172966338E+03  0.79172966340E+03  0.50400001928E-02 0.  1.
       -1   -1    0    0    0  501  0.00000000000E+00  0.00000000000E+00 -0.15315494232E+04  0.15315494232E+04  0.50400001928E-02 0. -1.
    10030    2    1    2    0    0  0.00000000000E+00  0.00000000000E+00 -0.73981975981E+03  0.23232790866E+04  0.22023379480E+04 0.  0.
        1    1    3    3  502    0 -0.19451765461E+03 -0.73553536640E+03 -0.12096935030E+04  0.14290583489E+04  0.50400001928E-02 0. -1.
       -1    1    3    3    0  502  0.19451765461E+03  0.73553536640E+03  0.46987374322E+03  0.89422073772E+03  0.50400001928E-02 0.  1.
</event>
<event>
 5   0  0.2524749E-06  0.2200021E+04  0.7818609E-02  0.8518419E-01
       -2   -1    0    0    0  501  0.00000000000E+00  0.00000000000E+00  0.14594199738E+04  0.14594199738E+04  0.25500000920E-02 0.  1.
        2   -1    0    0  501    0  0.00000000000E+00  0.00000000000E+00 -0.82911248496E+03  0.82911248496E+03  0.25500000920E-02 0. -1.
    10030    2    1    2    0    0  0.00000000000E+00  0.00000000000E+00  0.63030748883E+03  0.22885324588E+04  0.22000212009E+04 0.  0.
        4    1    3    3  502    0 -0.56881972837E+02  0.79616878992E+03  0.11025079563E+04  0.13611192848E+04  0.12699999809E+01 0.  1.
       -4    1    3    3    0  502  0.56881972837E+02 -0.79616878992E+03 -0.47220046745E+03  0.92741317396E+03  0.12699999809E+01 0. -1.
</event>
<event>
 5   0  0.2532239E-06  0.2199736E+04  0.7818609E-02  0.8518538E-01
        2   -1    0    0  501    0  0.00000000000E+00  0.00000000000E+00  0.10475297360E+04  0.10475297360E+04  0.25500000920E-02 0.  1.
       -2   -1    0    0    0  501  0.00000000000E+00  0.00000000000E+00 -0.11548213919E+04  0.11548213919E+04  0.25500000920E-02 0. -1.
    10030    2    1    2    0    0  0.00000000000E+00  0.00000000000E+00 -0.10729165589E+03  0.22023511279E+04  0.21997361185E+04 0.  0.
        3    1    3    3  502    0 -0.84401000666E+03 -0.58566019422E+03  0.33970668569E+03  0.10820126603E+04  0.10100000352E+00 0.  1.
       -3    1    3    3    0  502  0.84401000666E+03  0.58566019422E+03 -0.44699834158E+03  0.11203384676E+04  0.10100000352E+00 0. -1.
</event>
<event>
 5   0  0.1082209E-06  0.2200412E+04  0.7818609E-02  0.8518257E-01
        1   -1    0    0  501    0  0.00000000000E+00  0.00000000000E+00  0.78079609881E+03  0.78079609883E+03  0.50400001928E-02 0.  1.
       -1   -1    0    0    0  501  0.00000000000E+00  0.00000000000E+00 -0.15502805876E+04  0.15502805876E+04  0.50400001928E-02 0. -1.
    10030    2    1    2    0    0  0.00000000000E+00  0.00000000000E+00 -0.76948448874E+03  0.23310766864E+04  0.22004118113E+04 0.  0.
        2    1    3    3  502    0 -0.99533039388E+02  0.60817398183E+03 -0.13502750131E+04  0.14842590842E+04  0.25500000920E-02 0. -1.
       -2    1    3    3    0  502  0.99533039388E+02 -0.60817398183E+03  0.58079052437E+03  0.84681760215E+03  0.25500000920E-02 0.  1.
</event>
<event>
 5   0  0.1107101E-06  0.2200147E+04  0.7818609E-02  0.8518367E-01
        1   -1    0    0  501    0  0.00000000000E+00  0.00000000000E+00  0.13953669177E+04  0.13953669177E+04  0.50400001928E-02 0. -1.
       -1   -1    0    0    0  501  0.00000000000E+00  0.00000000000E+00 -0.86727118258E+03  0.86727118259E+03  0.50400001928E-02 0.  1.
    10030    2    1    2    0    0  0.00000000000E+00  0.00000000000E+00  0.52809573509E+03  0.22626381003E+04  0.22001468286E+04 0.  0.
        1    1    3    3  502    0  0.67732016246E+03  0.33828114823E+03 -0.55672150183E+03  0.93975292942E+03  0.50400001928E-02 0.  1.
       -1    1    3    3    0  502 -0.67732016246E+03 -0.33828114823E+03  0.10848172369E+04  0.13228851709E+04  0.50400001928E-02 0. -1.
</event>
<event>
 5   0  0.2581058E-06  0.2199592E+04  0.7818609E-02  0.8518598E-01
       -2   -1    0    0    0  501  0.00000000000E+00  0.00000000000E+00  0.10239745768E+04  0.10239745768E+04  0.25500000920E-02 0.  1.
        2   -1    0    0  501    0  0.00000000000E+00  0.00000000000E+00 -0.11812313866E+04  0.11812313866E+04  0.25500000920E-02 0. -1.
    10030    2    1    2    0    0  0.00000000000E+00  0.00000000000E+00 -0.15725680971E+03  0.22052059634E+04  0.21995916978E+04 0.  0.
        1    1    3    3  502    0  0.12502124298E+03 -0.26838361692E+03  0.98326857590E+03  0.10268773877E+04  0.50400001928E-02 0.  1.
       -1    1    3    3    0  502 -0.12502124298E+03  0.26838361692E+03 -0.11405253856E+04  0.11783285757E+04  0.50400001928E-02 0. -1.
</event>
<event>
 5   0  0.1137869E-06  0.2200089E+04  0.7818609E-02  0.8518391E-01
        1   -1    0    0  501    0  0.00000000000E+00  0.00000000000E+00  0.61244271041E+03  0.61244271043E+03  0.50400001928E-02 0. -1.
       -1   -1    0    0    0  501  0.00000000000E+00  0.00000000000E+00 -0.19758556834E+04  0.19758556834E+04  0.50400001928E-02 0.  1.
    10030    2    1    2    0    0  0.00000000000E+00  0.00000000000E+00 -0.13634129730E+04  0.25882983938E+04  0.22000894620E+04 0.  0.
        5    1    3    3  502    0  0.98577571410E+03  0.28892308631E+03 -0.21876722537E+03  0.10502911488E+04  0.46999998093E+01 0. -1.
       -5    1    3    3    0  502 -0.98577571410E+03 -0.28892308631E+03 -0.11446457476E+04  0.15380072451E+04  0.46999998093E+01 0.  1.
</event>
<event>
 5   0  0.1107101E-06  0.2200007E+04  0.7818609E-02  0.8518425E-01
        1   -1    0    0  501    0  0.00000000000E+00  0.00000000000E+00  0.85099968183E+03  0.85099968185E+03  0.50400001928E-02 0. -1.
       -1   -1    0    0    0  501  0.00000000000E+00  0.00000000000E+00 -0.14218661660E+04  0.14218661661E+04  0.50400001928E-02 0.  1.
    10030    2    1    2    0    0  0.00000000000E+00  0.00000000000E+00 -0.57086648421E+03  0.22728658479E+04  0.22000069590E+04 0.  0.
        1    1    3    3  502    0 -0.10852258268E+04  0.17307631779E+03 -0.23548814539E+03  0.11238884168E+04  0.50400001928E-02 0. -1.
       -1    1    3    3    0  502  0.10852258268E+04 -0.17307631779E+03 -0.33537833882E+03  0.11489774310E+04  0.50400001928E-02 0.  1.
</event>
<event>
 5   0  0.2532239E-06  0.2198844E+04  0.7818609E-02  0.8518909E-01
       -2   -1    0    0    0  501  0.00000000000E+00  0.00000000000E+00  0.70168265800E+03  0.70168265800E+03  0.25500000920E-02 0.  1.
        2   -1    0    0  501    0  0.00000000000E+00  0.00000000000E+00 -0.17226149182E+04  0.17226149182E+04  0.25500000920E-02 0. -1.
    10030    2    1    2    0    0  0.00000000000E+00  0.00000000000E+00 -0.10209322602E+04  0.24242975762E+04  0.21988442551E+04 0.  0.
        3    1    3    3  502    0 -0.80193374459E+03 -0.74987665885E+03 -0.57395774984E+03  0.12388866950E+04  0.10100000352E+00 0. -1.
       -3    1    3    3    0  502  0.80193374459E+03  0.74987665885E+03 -0.44697451035E+03  0.11854108812E+04  0.10100000352E+00 0.  1.
</event>
<event>
 5   0  0.1107101E-06  0.2200256E+04  0.7818609E-02  0.8518322E-01
        1   -1    0    0  501    0  0.00000000000E+00  0.00000000000E+00  0.11880891639E+04  0.11880891639E+04  0.50400001928E-02 0.  1.
       -1   -1    0    0    0  501  0.00000000000E+00  0.00000000000E+00 -0.10186791280E+04  0.10186791280E+04  0.50400001928E-02 0. -1.
    10030    2    1    2    0    0  0.00000000000E+00  0.00000000000E+00  0.16941003587E+03  0.22067682919E+04  0.22002560155E+04 0.  0.
        1    1    3    3  502    0  0.41699684455E+03 -0.83546254728E+03  0.66814629804E+03  0.11481739902E+04  0.50400001928E-02 0.  1.
       -1    1    3    3    0  502 -0.41699684455E+03  0.83546254728E+03 -0.49873626217E+03  0.10585943017E+04  0.50400001928E-02 0. -1.
</event>
<event>
 5   0  0.1107101E-06  0.2200280E+04  0.7818609E-02  0.8518312E-01
        1   -1    0    0  501    0  0.00000000000E+00  0.00000000000E+00  0.12167806345E+04  0.12167806345E+04  0.50400001928E-02 0. -1.
       -1   -1    0    0    0  501  0.00000000000E+00  0.00000000000E+00 -0.99468064947E+03  0.99468064948E+03  0.50400001928E-02 0.  1.
    10030    2    1    2    0    0  0.00000000000E+00  0.00000000000E+00  0.22209998499E+03  0.22114612840E+04  0.22002801201E+04 0.  0.
        1    1    3    3  502    0 -0.13588282337E+02 -0.52624083040E+02  0.12154304608E+04  0.12166450347E+04  0.50400001928E-02 0. -1.
       -1    1    3    3    0  502  0.13588282337E+02  0.52624083040E+02 -0.99333047579E+03  0.99481624921E+03  0.50400001928E-02 0.  1.
</event>
<event>
 5   0  0.1082209E-06  0.2199822E+04  0.7818609E-02  0.8518502E-01
       -1   -1    0    0    0  501  0.00000000000E+00  0.00000000000E+00  0.10544967674E+04  0.10544967674E+04  0.50400001928E-02 0.  1.
        1   -1    0    0  501    0  0.00000000000E+00  0.00000000000E+00 -0.11472806582E+04  0.11472806583E+04  0.50400001928E-02 0. -1.
    10030    2    1    2    0    0  0.00000000000E+00  0.00000000000E+00 -0.92783890826E+02  0.22017774257E+04  0.21998215795E+04 0.  0.
        2    1    3    3  502    0  0.63925494592E+03  0.80774033305E+03 -0.43236729417E+03  0.11171538876E+04  0.25500000920E-02 0.  1.
       -2    1    3    3    0  502 -0.63925494592E+03 -0.80774033305E+03  0.33958340334E+03  0.10846235381E+04  0.25500000920E-02 0. -1.
</event>
<event>
 5   0  0.2581058E-06  0.2200735E+04  0.7818609E-02  0.8518122E-01
       -2   -1    0    0    0  501  0.00000000000E+00  0.00000000000E+00  0.59663573699E+03  0.59663573699E+03  0.25500000920E-02 0. -1.
        2   -1    0    0  501    0  0.00000000000E+00  0.00000000000E+00 -0.20293936255E+04  0.20293936255E+04  0.25500000920E-02 0.  1.
    10030    2    1    2    0    0  0.00000000000E+00  0.00000000000E+00 -0.14327578885E+04  0.26260293625E+04  0.22007351148E+04 0.  0.
        1    1    3    3  502    0 -0.78676341734E+03  0.10620573935E+02 -0.16342513817E+04  0.18138045788E+04  0.50400001928E-02 0.  1.
       -1    1    3    3    0  502  0.78676341734E+03 -0.10620573935E+02  0.20149349318E+03  0.81222478371E+03  0.50400001928E-02 0. -1.
</event>
<event>
 5   0  0.8905000E-07  0.2200896E+04  0.7818609E-02  0.8518055E-01
       -3   -1    0    0    0  501  0.00000000000E+00  0.00000000000E+00  0.89844312990E+03  0.89844313557E+03  0.10100000352E+00 0. -1.
        3   -1    0    0  501    0  0.00000000000E+00  0.00000000000E+00 -0.13478712916E+04  0.13478712954E+04  0.10100000352E+00 0.  1.
    10030    2    1    2    0    0  0.00000000000E+00  0.00000000000E+00 -0.44942816173E+03  0.22463144310E+04  0.22008959199E+04 0.  0.
        4    1    3    3  502    0 -0.68802135863E+03  0.74319736043E+03  0.21459654641E+03  0.10352627672E+04  0.12699999809E+01 0. -1.
       -4    1    3    3    0  502  0.68802135863E+03 -0.74319736043E+03 -0.66402470814E+03  0.12110516638E+04  0.12699999809E+01 0.  1.
</event>
<event>
 5   0  0.2532239E-06  0.2198599E+04  0.7818609E-02  0.8519012E-01
        2   -1    0    0  501    0  0.00000000000E+00  0.00000000000E+00  0.18734704327E+04  0.18734704327E+04  0.25500000920E-02 0. -1.
       -2   -1    0    0    0  501  0.00000000000E+00  0.00000000000E+00 -0.64503763594E+03  0.64503763595E+03  0.25500000920E-02 0.  1.
    10030    2    1    2    0    0  0.00000000000E+00  0.00000000000E+00  0.12284327968E+04  0.25185080687E+04  0.21985985890E+04 0.  0.
        3    1    3    3  502    0  0.76477008777E+03  0.50540224602E+03 -0.80827584611E+02  0.92023791819E+03  0.10100000352E+00 0.  1.
       -3    1    3    3    0  502 -0.76477008777E+03 -0.50540224602E+03  0.13092603814E+04  0.15982701505E+04  0.10100000352E+00 0. -1.
</event>
<event>
 5   0  0.2606154E-06  0.2199921E+04  0.7818609E-02  0.8518461E-01
        2   -1    0    0  501    0  0.00000000000E+00  0.00000000000E+00  0.84603323941E+03  0.84603323941E+03  0.25500000920E-02 0. -1.
       -2   -1    0    0    0  501  0.00000000000E+00  0.00000000000E+00 -0.14301015080E+04  0.14301015080E+04  0.25500000920E-02 0.  1.
    10030    2    1    2    0    0  0.00000000000E+00  0.00000000000E+00 -0.58406826863E+03  0.22761347475E+04  0.21999212818E+04 0.  0.
        2    1    3    3  502    0 -0.26857274310E+03  0.99229192349E+03  0.11285254852E+03  0.10341712999E+04  0.25500000920E-02 0. -1.
       -2    1    3    3    0  502  0.26857274310E+03 -0.99229192349E+03 -0.69692081715E+03  0.12419634476E+04  0.25500000920E-02 0.  1.
</event>
<event>
 5   0  0.2581058E-06  0.2200188E+04  0.7818609E-02  0.8518350E-01
       -2   -1    0    0    0  501  0.00000000000E+00  0.00000000000E+00  0.80636007822E+03  0.80636007822E+03  0.25500000920E-02 0. -1.
        2   -1    0    0  501    0  0.00000000000E+00  0.00000000000E+00 -0.15008268709E+04  0.15008268709E+04  0.25500000920E-02 0.  1.
    10030    2    1    2    0    0  0.00000000000E+00  0.00000000000E+00 -0.69446679269E+03  0.23071869491E+04  0.22001880583E+04 0.  0.
        1    1    3    3  502    0  0.28403368095E+03  0.62698366544E+03 -0.12471177926E+04  0.14244600512E+04  0.50400001928E-02 0.  1.
       -1    1    3    3    0  502 -0.28403368095E+03 -0.62698366544E+03  0.55265099994E+03  0.88272689797E+03  0.50400001928E-02 0. -1.
</event>
<event>
 5   0  0.2532239E-06  0.2200018E+04  0.7818609E-02  0.8518420E-01
       -2   -1    0    0    0  501  0.00000000000E+00  0.00000000000E+00  0.12472162786E+04  0.12472162786E+04  0.25500000920E-02 0.  1.
        2   -1    0    0  501    0  0.00000000000E+00  0.00000000000E+00 -0.97017679172E+03  0.97017679172E+03  0.25500000920E-02 0. -1.
    10030    2    1    2    0    0  0.00000000000E+00  0.00000000000E+00  0.27703948691E+03  0.22173930704E+04  0.22000184434E+04 0.  0.
        3    1    3    3  502    0  0.24534679957E+03 -0.46673484529E+03  0.11115370128E+04  0.12302646093E+04  0.10100000352E+00 0.  1.
       -3    1    3    3    0  502 -0.24534679957E+03  0.46673484529E+03 -0.83449752584E+03  0.98712846110E+03  0.10100000352E+00 0. -1.
</event>
<event>
 5   0  0.1107101E-06  0.2200151E+04  0.7818609E-02  0.8518365E-01
       -1   -1    0    0    0  501  0.00000000000E+00  0.00000000000E+00  0.22409586304E+04  0.22409586304E+04  0.50400001928E-02 0.  1.
        1   -1    0    0  501    0  0.00000000000E+00  0.00000000000E+00 -0.54002161866E+03  0.54002161869E+03  0.50400001928E-02 0. -1.
    10030    2    1    2    0    0  0.00000000000E+00  0.00000000000E+00  0.17009370118E+04  0.27809802491E+04  0.22001510012E+04 0.  0.
        1    1    3    3  502    0  0.42864465497E+02  0.32364287865E+02 -0.53836329567E+03  0.54103590240E+03  0.50400001928E-02 0. -1.
       -1    1    3    3    0  502 -0.42864465497E+02 -0.32364287865E+02  0.22393003074E+04  0.22399443467E+04  0.50400001928E-02 0.  1.
</event>
<event>
 5   0  0.8905000E-07  0.2200172E+04  0.7818609E-02  0.8518357E-01
        3   -1    0    0  501    0  0.00000000000E+00  0.00000000000E+00  0.14593202236E+04  0.14593202271E+04  0.10100000352E+00 0. -1.
       -3   -1    0    0    0  501  0.00000000000E+00  0.00000000000E+00 -0.82928252628E+03  0.82928253244E+03  0.10100000352E+00 0.  1.
    10030    2    1    2    0    0  0.00000000000E+00  0.00000000000E+00  0.63003769733E+03  0.22886027595E+04  0.22001716049E+04 0.  0.
        2    1    3    3  502    0 -0.31953962066E+03  0.11001190206E+02  0.14099235722E+04  0.14457216450E+04  0.25500000920E-02 0. -1.
       -2    1    3    3    0  502  0.31953962066E+03 -0.11001190206E+02 -0.77988587489E+03  0.84288111453E+03  0.25500000920E-02 0.  1.
</event>
<event>
 5   0  0.8905000E-07  0.2199644E+04  0.7818609E-02  0.8518576E-01
        3   -1    0    0  501    0  0.00000000000E+00  0.00000000000E+00  0.11218211036E+04  0.11218211081E+04  0.10100000352E+00 0.  1.
       -3   -1    0    0    0  501  0.00000000000E+00  0.00000000000E+00 -0.10782544704E+04  0.10782544751E+04  0.10100000352E+00 0. -1.
    10030    2    1    2    0    0  0.00000000000E+00  0.00000000000E+00  0.43566633249E+02  0.22000755832E+04  0.21996441804E+04 0.  0.
        5    1    3    3  502    0 -0.30734657465E+03 -0.57785654794E+03  0.90581549349E+03  0.11175436927E+04  0.46999998093E+01 0.  1.
       -5    1    3    3    0  502  0.30734657465E+03  0.57785654794E+03 -0.86224886024E+03  0.10825318905E+04  0.46999998093E+01 0. -1.
</event>
<event>
 5   0  0.2524749E-06  0.2199358E+04  0.7818609E-02  0.8518695E-01
       -2   -1    0    0    0  501  0.00000000000E+00  0.00000000000E+00  0.47736449873E+03  0.47736449874E+03  0.25500000920E-02 0.  1.
        2   -1    0    0  501    0  0.00000000000E+00  0.00000000000E+00 -0.25332719320E+04  0.25332719320E+04  0.25500000920E-02 0. -1.
    10030    2    1    2    0    0  0.00000000000E+00  0.00000000000E+00 -0.20559074332E+04  0.30106364307E+04  0.21993581663E+04 0.  0.
        4    1    3    3  502    0 -0.10757894076E+04  0.22670525292E+03 -0.10607595703E+04  0.15277207206E+04  0.12699999809E+01 0. -1.
       -4    1    3    3    0  502  0.10757894076E+04 -0.22670525292E+03 -0.99514786296E+03  0.14829157101E+04  0.12699999809E+01 0.  1.
</event>
<event>
 5   0  0.2606154E-06  0.2200844E+04  0.7818609E-02  0.8518077E-01
       -2   -1    0    0    0  501  0.00000000000E+00  0.00000000000E+00  0.76853010888E+03  0.76853010889E+03  0.25500000920E-02 0.  1.
        2   -1    0    0  501    0  0.00000000000E+00  0.00000000000E+00 -0.15756417972E+04  0.15756417972E+04  0.25500000920E-02 0. -1.
    10030    2    1    2    0    0  0.00000000000E+00  0.00000000000E+00 -0.80711168831E+03  0.23441719061E+04  0.22008436219E+04 0.  0.
        2    1    3    3  502    0 -0.67652358839E+03  0.53333729326E+02  0.51911445781E+03  0.85440533276E+03  0.25500000920E-02 0. -1.
       -2    1    3    3    0  502  0.67652358839E+03 -0.53333729326E+02 -0.13262261461E+04  0.14897665733E+04  0.25500000920E-02 0.  1.
</event>
<event>
 5   0  0.1082209E-06  0.2203621E+04  0.7818609E-02  0.8516922E-01
       -1   -1    0    0    0  501  0.00000000000E+00  0.00000000000E+00  0.10520034317E+04  0.10520034317E+04  0.50400001928E-02 0.  1.
        1   -1    0    0  501    0  0.00000000000E+00  0.00000000000E+00 -0.11539756756E+04  0.11539756756E+04  0.50400001928E-02 0. -1.
    10030    2    1    2    0    0  0.00000000000E+00  0.00000000000E+00 -0.10197224387E+03  0.22059791073E+04  0.22036209936E+04 0.  0.
        2    1    3    3  502    0 -0.54399713241E+03 -0.91357333484E+03  0.23817805636E+03  0.10896228268E+04  0.25500000920E-02 0.  1.
       -2    1    3    3    0  502  0.54399713241E+03  0.91357333484E+03 -0.34015030023E+03  0.11163562805E+04  0.25500000920E-02 0. -1.
</event>
<event>
 5   0  0.1082209E-06  0.2209007E+04  0.7818609E-02  0.8514688E-01
       -1   -1    0    0    0  501  0.00000000000E+00  0.00000000000E+00  0.83201568709E+03  0.83201568711E+03  0.50400001928E-02 0. -1.
        1   -1    0    0  501    0  0.00000000000E+00  0.00000000000E+00 -0.14662323765E+04  0.14662323765E+04  0.50400001928E-02 0.  1.
    10030    2    1    2    0    0  0.00000000000E+00  0.00000000000E+00 -0.63421668936E+03  0.22982480636E+04  0.22090073229E+04 0.  0.
        2    1    3    3  502    0  0.64381103573E+03 -0.54019724332E+03  0.42851899036E+03  0.94336325799E+03  0.25500000920E-02 0. -1.
       -2    1    3    3    0  502 -0.64381103573E+03  0.54019724332E+03 -0.10627356797E+04  0.13548848056E+04  0.25500000920E-02 0.  1.
</event>
<event>
 5   0  0.2581058E-06  0.2200377E+04  0.7818609E-02  0.8518271E-01
       -2   -1    0    0    0  501  0.00000000000E+00  0.00000000000E+00  0.69410852236E+03  0.69410852236E+03  0.25500000920E-02 0.  1.
        2   -1    0    0  501    0  0.00000000000E+00  0.00000000000E+00 -0.17438414595E+04  0.17438414595E+04  0.25500000920E-02 0. -1.
    10030    2    1    2    0    0  0.00000000000E+00  0.00000000000E+00 -0.10497329372E+04  0.24379499819E+04  0.22003774392E+04 0.  0.
        1    1    3    3  502    0  0.30540669076E+03  0.11211719811E+03 -0.16893264422E+04  0.17203683737E+04  0.50400001928E-02 0. -1.
       -1    1    3    3    0  502 -0.30540669076E+03 -0.11211719811E+03  0.63959350497E+03  0.71758160825E+03  0.50400001928E-02 0.  1.
</event>
<event>
 5   0  0.1107101E-06  0.2196759E+04  0.7818609E-02  0.8519778E-01
       -1   -1    0    0    0  501  0.00000000000E+00  0.00000000000E+00  0.60732601724E+03  0.60732601726E+03  0.50400001928E-02 0.  1.
        1   -1    0    0  501    0  0.00000000000E+00  0.00000000000E+00 -0.19864747587E+04  0.19864747587E+04  0.50400001928E-02 0. -1.
    10030    2    1    2    0    0  0.00000000000E+00  0.00000000000E+00 -0.13791487414E+04  0.25938007759E+04  0.21967592527E+04 0.  0.
        1    1    3    3  502    0  0.56337342532E+03 -0.63465603893E+03 -0.15129317449E+04  0.17346873980E+04  0.50400001928E-02 0. -1.
       -1    1    3    3    0  502 -0.56337342532E+03  0.63465603893E+03  0.13378300344E+03  0.85911337794E+03  0.50400001928E-02 0.  1.
</event>
<event>
 5   0  0.1137869E-06  0.2199773E+04  0.7818609E-02  0.8518522E-01
        1   -1    0    0  501    0  0.00000000000E+00  0.00000000000E+00  0.14275124563E+04  0.14275124563E+04  0.50400001928E-02 0. -1.
       -1   -1    0    0    0  501  0.00000000000E+00  0.00000000000E+00 -0.84745375357E+03  0.84745375358E+03  0.50400001928E-02 0.  1.
    10030    2    1    2    0    0  0.00000000000E+00  0.00000000000E+00  0.58005870273E+03  0.22749662099E+04  0.21997734332E+04 0.  0.
        5    1    3    3  502    0  0.92943079469E+03 -0.58470913305E+03  0.22460291260E+03  0.11208010219E+04  0.46999998093E+01 0.  1.
       -5    1    3    3    0  502 -0.92943079469E+03  0.58470913305E+03  0.35545579013E+03  0.11541651880E+04  0.46999998093E+01 0. -1.
</event>
<event>
 5   0  0.1107101E-06  0.2196650E+04  0.7818609E-02  0.8519824E-01
       -1   -1    0    0    0  501  0.00000000000E+00  0.00000000000E+00  0.85189223389E+03  0.85189223390E+03  0.50400001928E-02 0.  1.
        1   -1    0    0  501    0  0.00000000000E+00  0.00000000000E+00 -0.14160454505E+04  0.14160454505E+04  0.50400001928E-02 0. -1.
    10030    2    1    2    0    0  0.00000000000E+00  0.00000000000E+00 -0.56415321662E+03  0.22679376844E+04  0.21966502882E+04 0.  0.
        1    1    3    3  502    0  0.10773404921E+04 -0.21071055813E+03 -0.24547696699E+03  0.11248646214E+04  0.50400001928E-02 0. -1.
       -1    1    3    3    0  502 -0.10773404921E+04  0.21071055813E+03 -0.31867624963E+03  0.11430730630E+04  0.50400001928E-02 0.  1.
</event>
<event>
 5   0  0.1144271E-06  0.2199655E+04  0.7818609E-02  0.8518572E-01
        1   -1    0    0  501    0  0.00000000000E+00  0.00000000000E+00  0.16973762333E+04  0.16973762333E+04  0.50400001928E-02 0.  1.
       -1   -1    0    0    0  501  0.00000000000E+00  0.00000000000E+00 -0.71264144183E+03  0.71264144185E+03  0.50400001928E-02 0. -1.
    10030    2    1    2    0    0  0.00000000000E+00  0.00000000000E+00  0.98473479145E+03  0.24100176751E+04  0.21996551059E+04 0.  0.
        3    1    3    3  502    0 -0.52096656329E+03 -0.70690304960E+03  0.12178912573E+04  0.15014583599E+04  0.10100000352E+00 0.  1.
       -3    1    3    3    0  502  0.52096656329E+03  0.70690304960E+03 -0.23315646584E+03  0.90855931528E+03  0.10100000352E+00 0. -1.
</event>
<event>
 5   0  0.2532239E-06  0.2204431E+04  0.7818609E-02  0.8516586E-01
       -2   -1    0    0    0  501  0.00000000000E+00  0.00000000000E+00  0.67895299338E+03  0.67895299338E+03  0.25500000920E-02 0.  1.
        2   -1    0    0  501    0  0.00000000000E+00  0.00000000000E+00 -0.17893414452E+04  0.17893414452E+04  0.25500000920E-02 0. -1.
    10030    2    1    2    0    0  0.00000000000E+00  0.00000000000E+00 -0.11103884519E+04  0.24682944386E+04  0.22044307478E+04 0.  0.
        3    1    3    3  502    0  0.64716922898E+03  0.87901350205E+03 -0.38396487039E+03  0.11571178763E+04  0.10100000352E+00 0.  1.
       -3    1    3    3    0  502 -0.64716922898E+03 -0.87901350205E+03 -0.72642358148E+03  0.13111765623E+04  0.10100000352E+00 0. -1.
</event>
<event>
 5   0  0.2581058E-06  0.2201115E+04  0.7818609E-02  0.8517964E-01
       -2   -1    0    0    0  501  0.00000000000E+00  0.00000000000E+00  0.60508066974E+03  0.60508066974E+03  0.25500000920E-02 0. -1.
        2   -1    0    0  501    0  0.00000000000E+00  0.00000000000E+00 -0.20017605229E+04  0.20017605229E+04  0.25500000920E-02 0.  1.
    10030    2    1    2    0    0  0.00000000000E+00  0.00000000000E+00 -0.13966798531E+04  0.26068411926E+04  0.22011148065E+04 0.  0.
        1    1    3    3  502    0  0.88917710790E+03  0.42239821389E+03 -0.12811572136E+04  0.16156794194E+04  0.50400001928E-02 0.  1.
       -1    1    3    3    0  502 -0.88917710790E+03 -0.42239821389E+03 -0.11552263948E+03  0.99116177316E+03  0.50400001928E-02 0. -1.
</event>
<event>
 5   0  0.8905000E-07  0.2200034E+04  0.7818609E-02  0.8518414E-01
       -3   -1    0    0    0  501  0.00000000000E+00  0.00000000000E+00  0.98362924751E+03  0.98362925269E+03  0.10100000352E+00 0.  1.
        3   -1    0    0  501    0  0.00000000000E+00  0.00000000000E+00 -0.12301766969E+04  0.12301767010E+04  0.10100000352E+00 0. -1.
    10030    2    1    2    0    0  0.00000000000E+00  0.00000000000E+00 -0.24654744938E+03  0.22138059537E+04  0.22000343534E+04 0.  0.
        1    1    3    3  502    0 -0.75309966356E+03  0.75873184251E+03 -0.38413513470E+03  0.11359546267E+04  0.50400001928E-02 0. -1.
       -1    1    3    3    0  502  0.75309966356E+03 -0.75873184251E+03  0.13758768532E+03  0.10778513271E+04  0.50400001928E-02 0.  1.
</event>
<event>
 5   0  0.2524749E-06  0.2199679E+04  0.7818609E-02  0.8518562E-01
        2   -1    0    0  501    0  0.00000000000E+00  0.00000000000E+00  0.87266513588E+03  0.87266513589E+03  0.25500000920E-02 0.  1.
       -2   -1    0    0    0  501  0.00000000000E+00  0.00000000000E+00 -0.13861519381E+04  0.13861519381E+04  0.25500000920E-02 0. -1.
    10030    2    1    2    0    0  0.00000000000E+00  0.00000000000E+00 -0.51348680224E+03  0.22588170740E+04  0.21996785851E+04 0.  0.
        4    1    3    3  502    0  0.10800370850E+04  0.12750129361E+01 -0.47008634300E+03  0.11779068356E+04  0.12699999809E+01 0.  1.
       -4    1    3    3    0  502 -0.10800370850E+04 -0.12750129361E+01 -0.43400459243E+02  0.10809102384E+04  0.12699999809E+01 0. -1.
</event>
<event>
 5   0  0.1082209E-06  0.2199727E+04  0.7818609E-02  0.8518542E-01
       -1   -1    0    0    0  501  0.00000000000E+00  0.00000000000E+00  0.80433958313E+03  0.80433958315E+03  0.50400001928E-02 0. -1.
        1   -1    0    0  501    0  0.00000000000E+00  0.00000000000E+00 -0.15039663239E+04  0.15039663239E+04  0.50400001928E-02 0.  1.
    10030    2    1    2    0    0  0.00000000000E+00  0.00000000000E+00 -0.69962674076E+03  0.23083059071E+04  0.21997269340E+04 0.  0.
        2    1    3    3  502    0 -0.93487367909E+03  0.21381761365E+03 -0.91490419635E+03  0.13254268959E+04  0.25500000920E-02 0.  1.
       -2    1    3    3    0  502  0.93487367909E+03 -0.21381761365E+03  0.21527745558E+03  0.98287901120E+03  0.25500000920E-02 0. -1.
</event>
<event>
 5   0  0.2556869E-06  0.2198284E+04  0.7818609E-02  0.8519143E-01
       -2   -1    0    0    0  501  0.00000000000E+00  0.00000000000E+00  0.99409482533E+03  0.99409482533E+03  0.25500000920E-02 0.  1.
        2   -1    0    0  501    0  0.00000000000E+00  0.00000000000E+00 -0.12152893903E+04  0.12152893903E+04  0.25500000920E-02 0. -1.
    10030    2    1    2    0    0  0.00000000000E+00  0.00000000000E+00 -0.22119456499E+03  0.22093842156E+04  0.21982837799E+04 0.  0.
        5    1    3    3  502    0  0.26979591178E+03  0.48038108521E+02  0.95919919689E+03  0.99758843377E+03  0.46999998093E+01 0.  1.
       -5    1    3    3    0  502 -0.26979591178E+03 -0.48038108521E+02 -0.11803937619E+04  0.12117957819E+04  0.46999998093E+01 0. -1.
</event>
<event>
 5   0  0.2556869E-06  0.2201757E+04  0.7818609E-02  0.8517697E-01
       -2   -1    0    0    0  501  0.00000000000E+00  0.00000000000E+00  0.67096353184E+03  0.67096353184E+03  0.25500000920E-02 0.  1.
        2   -1    0    0  501    0  0.00000000000E+00  0.00000000000E+00 -0.18062590862E+04  0.18062590862E+04  0.25500000920E-02 0. -1.
    10030    2    1    2    0    0  0.00000000000E+00  0.00000000000E+00 -0.11352955544E+04  0.24772226180E+04  0.22017574579E+04 0.  0.
        5    1    3    3  502    0  0.13729307795E+03 -0.15903977722E+03 -0.17834809905E+04  0.17958200281E+04  0.46999998093E+01 0. -1.
       -5    1    3    3    0  502 -0.13729307795E+03  0.15903977722E+03  0.64818543611E+03  0.68140258993E+03  0.46999998093E+01 0.  1.
</event>
<event>
 5   0  0.2532239E-06  0.2199964E+04  0.7818609E-02  0.8518443E-01
       -2   -1    0    0    0  501  0.00000000000E+00  0.00000000000E+00  0.10158357314E+04  0.10158357314E+04  0.25500000920E-02 0. -1.
        2   -1    0    0  501    0  0.00000000000E+00  0.00000000000E+00 -0.11910981313E+04  0.11910981313E+04  0.25500000920E-02 0.  1.
    10030    2    1    2    0    0  0.00000000000E+00  0.00000000000E+00 -0.17526239987E+03  0.22069338627E+04  0.21999636737E+04 0.  0.
        3    1    3    3  502    0 -0.13524852558E+03 -0.60617022000E+03 -0.99837629392E+03  0.11757932360E+04  0.10100000352E+00 0.  1.
       -3    1    3    3    0  502  0.13524852558E+03  0.60617022000E+03  0.82311389404E+03  0.10311406267E+04  0.10100000352E+00 0. -1.
</event>
<event>
 5   0  0.2556869E-06  0.2200031E+04  0.7818609E-02  0.8518415E-01
        2   -1    0    0  501    0  0.00000000000E+00  0.00000000000E+00  0.98751357854E+03  0.98751357854E+03  0.25500000920E-02 0.  1.
       -2   -1    0    0    0  501  0.00000000000E+00  0.00000000000E+00 -0.12253339631E+04  0.12253339631E+04  0.25500000920E-02 0. -1.
    10030    2    1    2    0    0  0.00000000000E+00  0.00000000000E+00 -0.23782038453E+03  0.22128475416E+04  0.22000308423E+04 0.  0.
        5    1    3    3  502    0  0.88524084907E+03  0.42711490001E+03  0.37786317383E+03  0.10530342667E+04  0.46999998093E+01 0. -1.
       -5    1    3    3    0  502 -0.88524084907E+03 -0.42711490001E+03 -0.61568355836E+03  0.11598132749E+04  0.46999998093E+01 0.  1.
</event>
<event>
 5   0  0.2606154E-06  0.2200046E+04  0.7818609E-02  0.8518409E-01
       -2   -1    0    0    0  501  0.00000000000E+00  0.00000000000E+00  0.15868368081E+04  0.15868368081E+04  0.25500000920E-02 0.  1.
        2   -1    0    0  501    0  0.00000000000E+00  0.00000000000E+00 -0.76255533695E+03  0.76255533695E+03  0.25500000920E-02 0. -1.
    10030    2    1    2    0    0  0.00000000000E+00  0.00000000000E+00  0.82428147113E+03  0.23493921450E+04  0.22000462512E+04 0.  0.
        2    1    3    3  502    0  0.52988158817E+03 -0.65156896763E+03  0.11708145480E+04  0.14408758874E+04  0.25500000920E-02 0.  1.
       -2    1    3    3    0  502 -0.52988158817E+03  0.65156896763E+03 -0.34653307686E+03  0.90851625765E+03  0.25500000920E-02 0. -1.
</event>
<event>
 5   0  0.2556869E-06  0.2199631E+04  0.7818609E-02  0.8518582E-01
        2   -1    0    0  501    0  0.00000000000E+00  0.00000000000E+00  0.18010061910E+04  0.18010061910E+04  0.25500000920E-02 0. -1.
       -2   -1    0    0    0  501  0.00000000000E+00  0.00000000000E+00 -0.67162143524E+03  0.67162143525E+03  0.25500000920E-02 0.  1.
    10030    2    1    2    0    0  0.00000000000E+00  0.00000000000E+00  0.11293847558E+04  0.24726276263E+04  0.21996312081E+04 0.  0.
        5    1    3    3  502    0  0.49833304060E+02 -0.45139714122E+03  0.16906722909E+04  0.17506106428E+04  0.46999998093E+01 0. -1.
       -5    1    3    3    0  502 -0.49833304060E+02  0.45139714122E+03 -0.56128753516E+03  0.72201698347E+03  0.46999998093E+01 0.  1.
</event>
<event>
 5   0  0.2606154E-06  0.2200025E+04  0.7818609E-02  0.8518418E-01
       -2   -1    0    0    0  501  0.00000000000E+00  0.00000000000E+00  0.11704643496E+04  0.11704643496E+04  0.25500000920E-02 0.  1.
        2   -1    0    0  501    0  0.00000000000E+00  0.00000000000E+00 -0.10338010458E+04  0.10338010458E+04  0.25500000920E-02 0. -1.
    10030    2    1    2    0    0  0.00000000000E+00  0.00000000000E+00  0.13666330378E+03  0.22042653955E+04  0.22000247897E+04 0.  0.
        2    1    3    3  502    0  0.17822846726E+03 -0.98154752139E+03 -0.39605537477E+03  0.10733409445E+04  0.25500000920E-02 0. -1.
       -2    1    3    3    0  502 -0.17822846726E+03  0.98154752139E+03  0.53271867856E+03  0.11309244510E+04  0.25500000920E-02 0.  1.
</event>
<event>
 5   0  0.2524749E-06  0.2199848E+04  0.7818609E-02  0.8518491E-01
        2   -1    0    0  501    0  0.00000000000E+00  0.00000000000E+00  0.20377342966E+04  0.20377342966E+04  0.25500000920E-02 0.  1.
       -2   -1    0    0    0  501  0.00000000000E+00  0.00000000000E+00 -0.59371477312E+03  0.59371477313E+03  0.25500000920E-02 0. -1.
    10030    2    1    2    0    0  0.00000000000E+00  0.00000000000E+00  0.14440195234E+04  0.26314490697E+04  0.21998481362E+04 0.  0.
        4    1    3    3  502    0  0.87827747750E+01 -0.88314472274E+03 -0.62214593621E+02  0.88537788938E+03  0.12699999809E+01 0.  1.
       -4    1    3    3    0  502 -0.87827747750E+01  0.88314472274E+03  0.15062341171E+04  0.17460711803E+04  0.12699999809E+01 0. -1.
</event>
<event>
 5   0  0.2581058E-06  0.2201112E+04  0.7818609E-02  0.8517965E-01
       -2   -1    0    0    0  501  0.00000000000E+00  0.00000000000E+00  0.61568266472E+03  0.61568266473E+03  0.25500000920E-02 0.  1.
        2   -1    0    0  501    0  0.00000000000E+00  0.00000000000E+00 -0.19672850488E+04  0.19672850488E+04  0.25500000920E-02 0. -1.
    10030    2    1    2    0    0  0.00000000000E+00  0.00000000000E+00 -0.13516023841E+04  0.25829677135E+04  0.22011118110E+04 0.  0.
        1    1    3    3  502    0 -0.13990523840E+03  0.99383978688E+03 -0.12057328754E+04  0.15687838489E+04  0.50400001928E-02 0. -1.
       -1    1    3    3    0  502  0.13990523840E+03 -0.99383978688E+03 -0.14586950872E+03  0.10141838647E+04  0.50400001928E-02 0.  1.
</event>
<event>
 5   0  0.1107101E-06  0.2206713E+04  0.7818609E-02  0.8515639E-01
        1   -1    0    0  501    0  0.00000000000E+00  0.00000000000E+00  0.97149433136E+03  0.97149433138E+03  0.50400001928E-02 0.  1.
       -1   -1    0    0    0  501  0.00000000000E+00  0.00000000000E+00 -0.12531161576E+04  0.12531161576E+04  0.50400001928E-02 0. -1.
    10030    2    1    2    0    0  0.00000000000E+00  0.00000000000E+00 -0.28162182621E+03  0.22246104890E+04  0.22067127078E+04 0.  0.
        1    1    3    3  502    0 -0.90497095343E+03 -0.40310113188E+03 -0.63047908976E+03  0.11742941845E+04  0.50400001928E-02 0. -1.
       -1    1    3    3    0  502  0.90497095343E+03  0.40310113188E+03  0.34885726355E+03  0.10503163045E+04  0.50400001928E-02 0.  1.
</event>
<event>
 5   0  0.1137869E-06  0.2197119E+04  0.7818609E-02  0.8519628E-01
        1   -1    0    0  501    0  0.00000000000E+00  0.00000000000E+00  0.13178527986E+04  0.13178527987E+04  0.50400001928E-02 0. -1.
       -1   -1    0    0    0  501  0.00000000000E+00  0.00000000000E+00 -0.91575665752E+03  0.91575665754E+03  0.50400001928E-02 0.  1.
    10030    2    1    2    0    0  0.00000000000E+00  0.00000000000E+00  0.40209614112E+03  0.22336094562E+04  0.21971185439E+04 0.  0.
        5    1    3    3  502    0  0.67969792598E+03 -0.50841044938E+03  0.91001130370E+03  0.12444328501E+04  0.46999998093E+01 0. -1.
       -5    1    3    3    0  502 -0.67969792598E+03  0.50841044938E+03 -0.50791516257E+03  0.98917660607E+03  0.46999998093E+01 0.  1.
</event>
<event>
 5   0  0.1082209E-06  0.2200334E+04  0.7818609E-02  0.8518289E-01
        1   -1    0    0  501    0  0.00000000000E+00  0.00000000000E+00  0.12735748159E+04  0.12735748159E+04  0.50400001928E-02 0.  1.
       -1   -1    0    0    0  501  0.00000000000E+00  0.00000000000E+00 -0.95036990739E+03  0.95036990740E+03  0.50400001928E-02 0. -1.
    10030    2    1    2    0    0  0.00000000000E+00  0.00000000000E+00  0.32320490848E+03  0.22239447233E+04  0.22003337745E+04 0.  0.
        2    1    3    3  502    0 -0.58461352750E+03 -0.51228034566E+03  0.94852167537E+03  0.12263349859E+04  0.25500000920E-02 0. -1.
       -2    1    3    3    0  502  0.58461352750E+03  0.51228034566E+03 -0.62531676689E+03  0.99760973734E+03  0.25500000920E-02 0.  1.
</event>
<event>
 5   0  0.1137869E-06  0.2201205E+04  0.7818609E-02  0.8517927E-01
       -1   -1    0    0    0  501  0.00000000000E+00  0.00000000000E+00  0.96932313907E+03  0.96932313908E+03  0.50400001928E-02 0.  1.
        1   -1    0    0  501    0  0.00000000000E+00  0.00000000000E+00 -0.12496620975E+04  0.12496620975E+04  0.50400001928E-02 0. -1.
    10030    2    1    2    0    0  0.00000000000E+00  0.00000000000E+00 -0.28033895844E+03  0.22189852366E+04  0.22012054762E+04 0.  0.
        5    1    3    3  502    0 -0.40626814462E+03 -0.60878455779E+03 -0.96877703036E+03  0.12141760448E+04  0.46999998093E+01 0. -1.
       -5    1    3    3    0  502  0.40626814462E+03  0.60878455779E+03  0.68843807192E+03  0.10048091918E+04  0.46999998093E+01 0.  1.
</event>
<event>
 5   0  0.2581058E-06  0.2200148E+04  0.7818609E-02  0.8518367E-01
        2   -1    0    0  501    0  0.00000000000E+00  0.00000000000E+00  0.12744750906E+04  0.12744750906E+04  0.25500000920E-02 0.  1.
       -2   -1    0    0    0  501  0.00000000000E+00  0.00000000000E+00 -0.94953792385E+03  0.94953792386E+03  0.25500000920E-02 0. -1.
    10030    2    1    2    0    0  0.00000000000E+00  0.00000000000E+00  0.32493716672E+03  0.22240130144E+04  0.22001476601E+04 0.  0.
        1    1    3    3  502    0 -0.86931147884E+03 -0.31287127417E+03  0.76608193817E+03  0.12001968245E+04  0.50400001928E-02 0.  1.
       -1    1    3    3    0  502  0.86931147884E+03  0.31287127417E+03 -0.44114477145E+03  0.10238161900E+04  0.50400001928E-02 0. -1.
</event>
<event>
 5   0  0.2524749E-06  0.2201546E+04  0.7818609E-02  0.8517785E-01
        2   -1    0    0  501    0  0.00000000000E+00  0.00000000000E+00  0.12424530420E+04  0.12424530420E+04  0.25500000920E-02 0.  1.
       -2   -1    0    0    0  501  0.00000000000E+00  0.00000000000E+00 -0.97524921647E+03  0.97524921648E+03  0.25500000920E-02 0. -1.
    10030    2    1    2    0    0  0.00000000000E+00  0.00000000000E+00  0.26720382550E+03  0.22177022585E+04  0.22015461437E+04 0.  0.
        4    1    3    3  502    0 -0.62457886479E+03  0.89150365159E+03 -0.31374872263E+02  0.10889736060E+04  0.12699999809E+01 0. -1.
       -4    1    3    3    0  502  0.62457886479E+03 -0.89150365159E+03  0.29857869777E+03  0.11287286524E+04  0.12699999809E+01 0.  1.
</event>
<event>
 5   0  0.1146827E-06  0.2199091E+04  0.7818609E-02  0.8518806E-01
        1   -1    0    0  501    0  0.00000000000E+00  0.00000000000E+00  0.10275849150E+04  0.10275849150E+04  0.50400001928E-02 0. -1.
       -1   -1    0    0    0  501  0.00000000000E+00  0.00000000000E+00 -0.11765457415E+04  0.11765457415E+04  0.50400001928E-02 0.  1.
    10030    2    1    2    0    0  0.00000000000E+00  0.00000000000E+00 -0.14896082646E+03  0.22041306566E+04  0.21990913176E+04 0.  0.
        4    1    3    3  502    0 -0.10986348642E+03 -0.10673441344E+04 -0.31525069813E+03  0.11183372042E+04  0.12699999809E+01 0.  1.
       -4    1    3    3    0  502  0.10986348642E+03  0.10673441344E+04  0.16628987167E+03  0.10857934523E+04  0.12699999809E+01 0. -1.
</event>
<event>
 5   0  0.1082209E-06  0.2200016E+04  0.7818609E-02  0.8518421E-01
        1   -1    0    0  501    0  0.00000000000E+00  0.00000000000E+00  0.12447801934E+04  0.12447801934E+04  0.50400001928E-02 0. -1.
       -1   -1    0    0    0  501  0.00000000000E+00  0.00000000000E+00 -0.97207365134E+03  0.97207365135E+03  0.50400001928E-02 0.  1.
    10030    2    1    2    0    0  0.00000000000E+00  0.00000000000E+00  0.27270654207E+03  0.22168538448E+04  0.22000163888E+04 0.  0.
        2    1    3    3  502    0  0.39245282213E+03 -0.59931834441E+03 -0.70479064098E+03  0.10049535030E+04  0.25500000920E-02 0.  1.
       -2    1    3    3    0  502 -0.39245282213E+03  0.59931834441E+03  0.97749718305E+03  0.12119003418E+04  0.25500000920E-02 0. -1.
</event>
<event>
 5   0  0.1082209E-06  0.2201425E+04  0.7818609E-02  0.8517835E-01
        1   -1    0    0  501    0  0.00000000000E+00  0.00000000000E+00  0.19824463007E+04  0.19824463007E+04  0.50400001928E-02 0.  1.
       -1   -1    0    0    0  501  0.00000000000E+00  0.00000000000E+00 -0.61114817574E+03  0.61114817576E+03  0.50400001928E-02 0. -1.
    10030    2    1    2    0    0  0.00000000000E+00  0.00000000000E+00  0.13712981249E+04  0.25935944764E+04  0.22014253930E+04 0.  0.
        2    1    3    3  502    0 -0.39889917747E+03  0.62125622159E+03 -0.27617239481E+03  0.78825823073E+03  0.25500000920E-02 0. -1.
       -2    1    3    3    0  502  0.39889917747E+03 -0.62125622159E+03  0.16474705197E+04  0.18053362457E+04  0.25500000920E-02 0.  1.
</event>
<event>
 5   0  0.2606154E-06  0.2198920E+04  0.7818609E-02  0.8518878E-01
        2   -1    0    0  501    0  0.00000000000E+00  0.00000000000E+00  0.13471439647E+04  0.13471439647E+04  0.25500000920E-02 0. -1.
       -2   -1    0    0    0  501  0.00000000000E+00  0.00000000000E+00 -0.89731474704E+03  0.89731474704E+03  0.25500000920E-02 0.  1.
    10030    2    1    2    0    0  0.00000000000E+00  0.00000000000E+00  0.44982921763E+03  0.22444587117E+04  0.21989198675E+04 0.  0.
        2    1    3    3  502    0  0.60325216081E+02  0.10641590253E+03  0.13401764870E+04  0.13457475589E+04  0.25500000920E-02 0. -1.
       -2    1    3    3    0  502 -0.60325216081E+02 -0.10641590253E+03 -0.89034726939E+03  0.89871115278E+03  0.25500000920E-02 0.  1.
</event>
<event>
 5   0  0.1107101E-06  0.2199988E+04  0.7818609E-02  0.8518433E-01
        1   -1    0    0  501    0  0.00000000000E+00  0.00000000000E+00  0.14849853866E+04  0.14849853866E+04  0.50400001928E-02 0. -1.
       -1   -1    0    0    0  501  0.00000000000E+00  0.00000000000E+00 -0.81481394596E+03  0.81481394598E+03  0.50400001928E-02 0.  1.
    10030    2    1    2    0    0  0.00000000000E+00  0.00000000000E+00  0.67017144060E+03  0.22997993326E+04  0.21999880023E+04 0.  0.
        1    1    3    3  502    0  0.38335346343E+03  0.79792299878E+03  0.10176611201E+04  0.13488050806E+04  0.50400001928E-02 0. -1.
       -1    1    3    3    0  502 -0.38335346343E+03 -0.79792299878E+03 -0.34748967953E+03  0.95099425199E+03  0.50400001928E-02 0.  1.
</event>
<event>
 5   0  0.1082209E-06  0.2199672E+04  0.7818609E-02  0.8518565E-01
       -1   -1    0    0    0  501  0.00000000000E+00  0.00000000000E+00  0.10197415019E+04  0.10197415019E+04  0.50400001928E-02 0. -1.
        1   -1    0    0  501    0  0.00000000000E+00  0.00000000000E+00 -0.11862213046E+04  0.11862213046E+04  0.50400001928E-02 0.  1.
    10030    2    1    2    0    0  0.00000000000E+00  0.00000000000E+00 -0.16647980272E+03  0.22059628066E+04  0.21996718799E+04 0.  0.
        2    1    3    3  502    0  0.22594162708E+03 -0.20440483526E+03  0.97657389337E+03  0.10229992790E+04  0.25500000920E-02 0. -1.
       -2    1    3    3    0  502 -0.22594162708E+03  0.20440483526E+03 -0.11430536961E+04  0.11829635276E+04  0.25500000920E-02 0.  1.
</event>
<event>
 5   0  0.1144271E-06  0.2197426E+04  0.7818609E-02  0.8519500E-01
       -1   -1    0    0    0  501  0.00000000000E+00  0.00000000000E+00  0.81827971576E+03  0.81827971577E+03  0.50400001928E-02 0.  1.
        1   -1    0    0  501    0  0.00000000000E+00  0.00000000000E+00 -0.14752535382E+04  0.14752535382E+04  0.50400001928E-02 0. -1.
    10030    2    1    2    0    0  0.00000000000E+00  0.00000000000E+00 -0.65697382244E+03  0.22935332540E+04  0.21974258085E+04 0.  0.
        3    1    3    3  502    0  0.29436518442E+03 -0.10065452006E+04 -0.67051716142E+03  0.12447398831E+04  0.10100000352E+00 0.  1.
       -3    1    3    3    0  502 -0.29436518442E+03  0.10065452006E+04  0.13543338978E+02  0.10487933709E+04  0.10100000352E+00 0. -1.
</event>
<event>
 5   0  0.1146827E-06  0.2200181E+04  0.7818609E-02  0.8518353E-01
       -1   -1    0    0    0  501  0.00000000000E+00  0.00000000000E+00  0.12904813879E+04  0.12904813879E+04  0.50400001928E-02 0. -1.
        1   -1    0    0  501    0  0.00000000000E+00  0.00000000000E+00 -0.93778876620E+03  0.93778876622E+03  0.50400001928E-02 0.  1.
    10030    2    1    2    0    0  0.00000000000E+00  0.00000000000E+00  0.35269262169E+03  0.22282701541E+04  0.22001808549E+04 0.  0.
        4    1    3    3  502    0 -0.55085285068E+03 -0.19578357144E+03  0.11201380836E+04  0.12635192951E+04  0.12699999809E+01 0. -1.
       -4    1    3    3    0  502  0.55085285068E+03  0.19578357144E+03 -0.76744546192E+03  0.96475085897E+03  0.12699999809E+01 0.  1.
</event>
<event>
 5   0  0.2524749E-06  0.2200682E+04  0.7818609E-02  0.8518144E-01
        2   -1    0    0  501    0  0.00000000000E+00  0.00000000000E+00  0.17282812646E+04  0.17282812646E+04  0.25500000920E-02 0. -1.
       -2   -1    0    0    0  501  0.00000000000E+00  0.00000000000E+00 -0.70055153850E+03  0.70055153850E+03  0.25500000920E-02 0.  1.
    10030    2    1    2    0    0  0.00000000000E+00  0.00000000000E+00  0.10277297261E+04  0.24288328031E+04  0.22006818024E+04 0.  0.
        4    1    3    3  502    0  0.80185255350E+03 -0.66906117829E+03  0.89640830562E+03  0.13762847965E+04  0.12699999809E+01 0.  1.
       -4    1    3    3    0  502 -0.80185255350E+03  0.66906117829E+03  0.13132142051E+03  0.10525480066E+04  0.12699999809E+01 0. -1.
</event>
<event>
 5   0  0.2606154E-06  0.2200363E+04  0.7818609E-02  0.8518277E-01
        2   -1    0    0  501    0  0.00000000000E+00  0.00000000000E+00  0.10345508144E+04  0.10345508144E+04  0.25500000920E-02 0.  1.
       -2   -1    0    0    0  501  0.00000000000E+00  0.00000000000E+00 -0.11699753449E+04  0.11699753449E+04  0.25500000920E-02 0. -1.
    10030    2    1    2    0    0  0.00000000000E+00  0.00000000000E+00 -0.13542453052E+03  0.22045261593E+04  0.22003626482E+04 0.  0.
        2    1    3    3  502    0 -0.93614888483E+02  0.10396548738E+04 -0.41586503358E+03  0.11236501813E+04  0.25500000920E-02 0. -1.
       -2    1    3    3    0  502  0.93614888483E+02 -0.10396548738E+04  0.28044050306E+03  0.10808759779E+04  0.25500000920E-02 0.  1.
</event>
<event>
 5   0  0.2556869E-06  0.2199664E+04  0.7818609E-02  0.8518568E-01
       -2   -1    0    0    0  501  0.00000000000E+00  0.00000000000E+00  0.64318965969E+03  0.64318965969E+03  0.25500000920E-02 0.  1.
        2   -1    0    0  501    0  0.00000000000E+00  0.00000000000E+00 -0.18806750461E+04  0.18806750461E+04  0.25500000920E-02 0. -1.
    10030    2    1    2    0    0  0.00000000000E+00  0.00000000000E+00 -0.12374853864E+04  0.25238647058E+04  0.21996642861E+04 0.  0.
        5    1    3    3  502    0 -0.56315535642E+03  0.43339471461E+03  0.34440164852E+03  0.78968950836E+03  0.46999998093E+01 0.  1.
       -5    1    3    3    0  502  0.56315535642E+03 -0.43339471461E+03 -0.15818870350E+04  0.17341751975E+04  0.46999998093E+01 0. -1.
</event>
<event>
 5   0  0.2532239E-06  0.2201473E+04  0.7818609E-02  0.8517815E-01
       -2   -1    0    0    0  501  0.00000000000E+00  0.00000000000E+00  0.11256368722E+04  0.11256368722E+04  0.25500000920E-02 0. -1.
        2   -1    0    0  501    0  0.00000000000E+00  0.00000000000E+00 -0.10763866848E+04  0.10763866848E+04  0.25500000920E-02 0.  1.
    10030    2    1    2    0    0  0.00000000000E+00  0.00000000000E+00  0.49250187356E+02  0.22020235570E+04  0.22014727262E+04 0.  0.
        3    1    3    3  502    0  0.49055339806E+03 -0.59361612968E+03  0.81133176245E+03  0.11186071628E+04  0.10100000352E+00 0. -1.
       -3    1    3    3    0  502 -0.49055339806E+03  0.59361612968E+03 -0.76208157509E+03  0.10834163941E+04  0.10100000352E+00 0.  1.
</event>
<event>
 5   0  0.2581058E-06  0.2198982E+04  0.7818609E-02  0.8518852E-01
       -2   -1    0    0    0  501  0.00000000000E+00  0.00000000000E+00  0.65934164448E+03  0.65934164448E+03  0.25500000920E-02 0. -1.
        2   -1    0    0  501    0  0.00000000000E+00  0.00000000000E+00 -0.18334660099E+04  0.18334660099E+04  0.25500000920E-02 0.  1.
    10030    2    1    2    0    0  0.00000000000E+00  0.00000000000E+00 -0.11741243654E+04  0.24928076544E+04  0.21989820318E+04 0.  0.
        1    1    3    3  502    0  0.88808084563E+03  0.32252446137E+03  0.50361244606E+02  0.94617433464E+03  0.50400001928E-02 0. -1.
       -1    1    3    3    0  502 -0.88808084563E+03 -0.32252446137E+03 -0.12244856100E+04  0.15466333197E+04  0.50400001928E-02 0.  1.
</event>
<event>
 5   0  0.1144271E-06  0.2199968E+04  0.7818609E-02  0.8518441E-01
       -1   -1    0    0    0  501  0.00000000000E+00  0.00000000000E+00  0.14832698986E+04  0.14832698986E+04  0.50400001928E-02 0. -1.
        1   -1    0    0  501    0  0.00000000000E+00  0.00000000000E+00 -0.81574175521E+03  0.81574175522E+03  0.50400001928E-02 0.  1.
    10030    2    1    2    0    0  0.00000000000E+00  0.00000000000E+00  0.66752814342E+03  0.22990116539E+04  0.21999683548E+04 0.  0.
        3    1    3    3  502    0  0.42376328326E+03  0.55001613850E+03  0.12253275658E+04  0.14083752080E+04  0.10100000352E+00 0. -1.
       -3    1    3    3    0  502 -0.42376328326E+03 -0.55001613850E+03 -0.55779942238E+03  0.89063644584E+03  0.10100000352E+00 0.  1.
</event>
<event>
 5   0  0.1144271E-06  0.2200438E+04  0.7818609E-02  0.8518246E-01
        1   -1    0    0  501    0  0.00000000000E+00  0.00000000000E+00  0.86792850606E+03  0.86792850607E+03  0.50400001928E-02 0.  1.
       -1   -1    0    0    0  501  0.00000000000E+00  0.00000000000E+00 -0.13946794632E+04  0.13946794632E+04  0.50400001928E-02 0. -1.
    10030    2    1    2    0    0  0.00000000000E+00  0.00000000000E+00 -0.52675095712E+03  0.22626079693E+04  0.22004381954E+04 0.  0.
        3    1    3    3  502    0  0.51058903830E+03  0.97289432650E+03 -0.20468827351E+03  0.11176411929E+04  0.10100000352E+00 0.  1.
       -3    1    3    3    0  502 -0.51058903830E+03 -0.97289432650E+03 -0.32206268361E+03  0.11449667763E+04  0.10100000352E+00 0. -1.
</event>
<event>
 5   0  0.2556869E-06  0.2199737E+04  0.7818609E-02  0.8518538E-01
       -2   -1    0    0    0  501  0.00000000000E+00  0.00000000000E+00  0.69198411456E+03  0.69198411456E+03  0.25500000920E-02 0.  1.
        2   -1    0    0  501    0  0.00000000000E+00  0.00000000000E+00 -0.17481767694E+04  0.17481767694E+04  0.25500000920E-02 0. -1.
    10030    2    1    2    0    0  0.00000000000E+00  0.00000000000E+00 -0.10561926549E+04  0.24401608840E+04  0.21997368514E+04 0.  0.
        5    1    3    3  502    0  0.61543878368E+03 -0.12382960052E+03 -0.15299023144E+04  0.16536994431E+04  0.46999998093E+01 0. -1.
       -5    1    3    3    0  502 -0.61543878368E+03  0.12382960052E+03  0.47370965957E+03  0.78646144088E+03  0.46999998093E+01 0.  1.
</event>
<event>
 5   0  0.1146827E-06  0.2198440E+04  0.7818609E-02  0.8519078E-01
       -1   -1    0    0    0  501  0.00000000000E+00  0.00000000000E+00  0.18269061892E+04  0.18269061892E+04  0.50400001928E-02 0.  1.
        1   -1    0    0  501    0  0.00000000000E+00  0.00000000000E+00 -0.66138284756E+03  0.66138284758E+03  0.50400001928E-02 0. -1.
    10030    2    1    2    0    0  0.00000000000E+00  0.00000000000E+00  0.11655233417E+04  0.24882890368E+04  0.21984398265E+04 0.  0.
        4    1    3    3  502    0 -0.84999543862E+03  0.30185868808E+03 -0.12829520707E+03  0.91108297444E+03  0.12699999809E+01 0. -1.
       -4    1    3    3    0  502  0.84999543862E+03 -0.30185868808E+03  0.12938185487E+04  0.15772060624E+04  0.12699999809E+01 0.  1.
</event>
<event>
 5   0  0.2581058E-06  0.2200045E+04  0.7818609E-02  0.8518409E-01
       -2   -1    0    0    0  501  0.00000000000E+00  0.00000000000E+00  0.19905468806E+04  0.19905468807E+04  0.25500000920E-02 0.  1.
        2   -1    0    0  501    0  0.00000000000E+00  0.00000000000E+00 -0.60789803944E+03  0.60789803945E+03  0.25500000920E-02 0. -1.
    10030    2    1    2    0    0  0.00000000000E+00  0.00000000000E+00  0.13826488412E+04  0.25984449201E+04  0.22000450415E+04 0.  0.
        1    1    3    3  502    0  0.10294083142E+04 -0.54278328977E+02  0.23783935206E+03  0.10579202105E+04  0.50400001928E-02 0. -1.
       -1    1    3    3    0  502 -0.10294083142E+04  0.54278328977E+02  0.11448094891E+04  0.15405247096E+04  0.50400001928E-02 0.  1.
</event>
<event>
 5   0  0.2532239E-06  0.2198937E+04  0.7818609E-02  0.8518871E-01
       -2   -1    0    0    0  501  0.00000000000E+00  0.00000000000E+00  0.12849944245E+04  0.12849944245E+04  0.25500000920E-02 0.  1.
        2   -1    0    0  501    0  0.00000000000E+00  0.00000000000E+00 -0.94072890449E+03  0.94072890449E+03  0.25500000920E-02 0. -1.
    10030    2    1    2    0    0  0.00000000000E+00  0.00000000000E+00  0.34426552005E+03  0.22257233290E+04  0.21989373773E+04 0.  0.
        3    1    3    3  502    0  0.29675863501E+03  0.78757909178E+03 -0.54393446247E+03  0.10021033993E+04  0.10100000352E+00 0. -1.
       -3    1    3    3    0  502 -0.29675863501E+03 -0.78757909178E+03  0.88819998252E+03  0.12236199297E+04  0.10100000352E+00 0.  1.
</event>
<event>
 5   0  0.1107101E-06  0.2200075E+04  0.7818609E-02  0.8518397E-01
        1   -1    0    0  501    0  0.00000000000E+00  0.00000000000E+00  0.16044554630E+04  0.16044554630E+04  0.50400001928E-02 0. -1.
       -1   -1    0    0    0  501  0.00000000000E+00  0.00000000000E+00 -0.75420137117E+03  0.75420137118E+03  0.50400001928E-02 0.  1.
    10030    2    1    2    0    0  0.00000000000E+00  0.00000000000E+00  0.85025409182E+03  0.23586568342E+04  0.22000750080E+04 0.  0.
        1    1    3    3  502    0 -0.31588589688E+03 -0.99888459154E+03  0.78475871184E+03  0.13089692750E+04  0.50400001928E-02 0. -1.
       -1    1    3    3    0  502  0.31588589688E+03  0.99888459154E+03  0.65495379977E+02  0.10496875592E+04  0.50400001928E-02 0.  1.
</event>
<event>
 5   0  0.2532239E-06  0.2203446E+04  0.7818609E-02  0.8516995E-01
        2   -1    0    0  501    0  0.00000000000E+00  0.00000000000E+00  0.24492358347E+04  0.24492358347E+04  0.25500000920E-02 0.  1.
       -2   -1    0    0    0  501  0.00000000000E+00  0.00000000000E+00 -0.49558045806E+03  0.49558045807E+03  0.25500000920E-02 0. -1.
    10030    2    1    2    0    0  0.00000000000E+00  0.00000000000E+00  0.19536553767E+04  0.29448162928E+04  0.22034458622E+04 0.  0.
        3    1    3    3  502    0  0.10697220812E+03 -0.24276415840E+02 -0.48826424569E+03  0.50043419298E+03  0.10100000352E+00 0. -1.
       -3    1    3    3    0  502 -0.10697220812E+03  0.24276415840E+02  0.24419196224E+04  0.24443820998E+04  0.10100000352E+00 0.  1.
</event>
<event>
 5   0  0.2581058E-06  0.2199432E+04  0.7818609E-02  0.8518665E-01
        2   -1    0    0  501    0  0.00000000000E+00  0.00000000000E+00  0.26298285290E+04  0.26298285290E+04  0.25500000920E-02 0.  1.
       -2   -1    0    0    0  501  0.00000000000E+00  0.00000000000E+00 -0.45986836056E+03  0.45986836056E+03  0.25500000920E-02 0. -1.
    10030    2    1    2    0    0  0.00000000000E+00  0.00000000000E+00  0.21699601685E+04  0.30896968896E+04  0.21994316850E+04 0.  0.
        1    1    3    3  502    0 -0.35283570526E+03 -0.29146559927E+03 -0.31974110429E+03  0.55828272789E+03  0.50400001928E-02 0. -1.
       -1    1    3    3    0  502  0.35283570526E+03  0.29146559927E+03  0.24897012728E+04  0.25314141617E+04  0.50400001928E-02 0.  1.
</event>
<event>
 5   0  0.1082209E-06  0.2190994E+04  0.7818609E-02  0.8522186E-01
       -1   -1    0    0    0  501  0.00000000000E+00  0.00000000000E+00  0.64414329611E+03  0.64414329613E+03  0.50400001928E-02 0. -1.
        1   -1    0    0  501    0  0.00000000000E+00  0.00000000000E+00 -0.18631157715E+04  0.18631157715E+04  0.50400001928E-02 0.  1.
    10030    2    1    2    0    0  0.00000000000E+00  0.00000000000E+00 -0.12189724754E+04  0.25072590677E+04  0.21909938696E+04 0.  0.
        2    1    3    3  502    0  0.27381954291E+03  0.12256393578E+03  0.59622117440E+03  0.66744194447E+03  0.25500000920E-02 0. -1.
       -2    1    3    3    0  502 -0.27381954291E+03 -0.12256393578E+03 -0.18151936498E+04  0.18398171232E+04  0.25500000920E-02 0.  1.
</event>
<event>
 5   0  0.2524749E-06  0.2199702E+04  0.7818609E-02  0.8518552E-01
        2   -1    0    0  501    0  0.00000000000E+00  0.00000000000E+00  0.23398361790E+04  0.23398361790E+04  0.25500000920E-02 0.  1.
       -2   -1    0    0    0  501  0.00000000000E+00  0.00000000000E+00 -0.51699001558E+03  0.51699001558E+03  0.25500000920E-02 0. -1.
    10030    2    1    2    0    0  0.00000000000E+00  0.00000000000E+00  0.18228461635E+04  0.28568261946E+04  0.21997017458E+04 0.  0.
        4    1    3    3  502    0  0.91459578473E+03  0.51423238553E+03  0.13397097154E+04  0.17016886114E+04  0.12699999809E+01 0. -1.
       -4    1    3    3    0  502 -0.91459578473E+03 -0.51423238553E+03  0.48313644802E+03  0.11551375832E+04  0.12699999809E+01 0.  1.
</event>
<event>
 5   0  0.2606154E-06  0.2199593E+04  0.7818609E-02  0.8518597E-01
       -2   -1    0    0    0  501  0.00000000000E+00  0.00000000000E+00  0.14865412570E+04  0.14865412570E+04  0.25500000920E-02 0.  1.
        2   -1    0    0  501    0  0.00000000000E+00  0.00000000000E+00 -0.81366919514E+03  0.81366919514E+03  0.25500000920E-02 0. -1.
    10030    2    1    2    0    0  0.00000000000E+00  0.00000000000E+00  0.67287206187E+03  0.23002104521E+04  0.21995934426E+04 0.  0.
        2    1    3    3  502    0  0.15069349467E+03  0.34934997344E+03 -0.74265715991E+03  0.83444208334E+03  0.25500000920E-02 0. -1.
       -2    1    3    3    0  502 -0.15069349467E+03 -0.34934997344E+03  0.14155292218E+04  0.14657683688E+04  0.25500000920E-02 0.  1.
</event>
<event>
 5   0  0.1144271E-06  0.2199763E+04  0.7818609E-02  0.8518527E-01
        1   -1    0    0  501    0  0.00000000000E+00  0.00000000000E+00  0.12890913719E+04  0.12890913719E+04  0.50400001928E-02 0.  1.
       -1   -1    0    0    0  501  0.00000000000E+00  0.00000000000E+00 -0.93844346659E+03  0.93844346660E+03  0.50400001928E-02 0. -1.
    10030    2    1    2    0    0  0.00000000000E+00  0.00000000000E+00  0.35064790528E+03  0.22275348385E+04  0.21997630561E+04 0.  0.
        3    1    3    3  502    0  0.15281672349E+03 -0.10892038700E+04  0.17064563819E+03  0.11130309813E+04  0.10100000352E+00 0. -1.
       -3    1    3    3    0  502 -0.15281672349E+03  0.10892038700E+04  0.18000226709E+03  0.11145038572E+04  0.10100000352E+00 0.  1.
</event>
<event>
 5   0  0.1146827E-06  0.2198908E+04  0.7818609E-02  0.8518883E-01
       -1   -1    0    0    0  501  0.00000000000E+00  0.00000000000E+00  0.87604289852E+03  0.87604289853E+03  0.50400001928E-02 0.  1.
        1   -1    0    0  501    0  0.00000000000E+00  0.00000000000E+00 -0.13798400993E+04  0.13798400993E+04  0.50400001928E-02 0. -1.
    10030    2    1    2    0    0  0.00000000000E+00  0.00000000000E+00 -0.50379720081E+03  0.22558829979E+04  0.21989080200E+04 0.  0.
        4    1    3    3  502    0 -0.57129441387E+03 -0.86784075438E+03  0.11696244394E+03  0.10455652579E+04  0.12699999809E+01 0.  1.
       -4    1    3    3    0  502  0.57129441387E+03  0.86784075438E+03 -0.62075964476E+03  0.12103177400E+04  0.12699999809E+01 0. -1.
</event>
<event>
 5   0  0.1137869E-06  0.2199359E+04  0.7818609E-02  0.8518695E-01
       -1   -1    0    0    0  501  0.00000000000E+00  0.00000000000E+00  0.81834898570E+03  0.81834898571E+03  0.50400001928E-02 0. -1.
        1   -1    0    0  501    0  0.00000000000E+00  0.00000000000E+00 -0.14777254984E+04  0.14777254984E+04  0.50400001928E-02 0.  1.
    10030    2    1    2    0    0  0.00000000000E+00  0.00000000000E+00 -0.65937651267E+03  0.22960744841E+04  0.21993591455E+04 0.  0.
        5    1    3    3  502    0 -0.49378152433E+03  0.62276196164E+03 -0.11231227685E+04  0.13758922552E+04  0.46999998093E+01 0.  1.
       -5    1    3    3    0  502  0.49378152433E+03 -0.62276196164E+03  0.46374625585E+03  0.92018222893E+03  0.46999998093E+01 0. -1.
</event>
<event>
 5   0  0.1146827E-06  0.2202842E+04  0.7818609E-02  0.8517246E-01
        1   -1    0    0  501    0  0.00000000000E+00  0.00000000000E+00  0.17040935702E+04  0.17040935702E+04  0.50400001928E-02 0.  1.
       -1   -1    0    0    0  501  0.00000000000E+00  0.00000000000E+00 -0.71189030030E+03  0.71189030032E+03  0.50400001928E-02 0. -1.
    10030    2    1    2    0    0  0.00000000000E+00  0.00000000000E+00  0.99220326989E+03  0.24159838705E+04  0.22028415135E+04 0.  0.
        4    1    3    3  502    0  0.68575760132E+02 -0.52519693579E+03  0.15552493441E+04  0.16429657913E+04  0.12699999809E+01 0.  1.
       -4    1    3    3    0  502 -0.68575760132E+02  0.52519693579E+03 -0.56304607418E+03  0.77301807921E+03  0.12699999809E+01 0. -1.
</event>
<event>
 5   0  0.1107101E-06  0.2200475E+04  0.7818609E-02  0.8518230E-01
       -1   -1    0    0    0  501  0.00000000000E+00  0.00000000000E+00  0.74604916113E+03  0.74604916115E+03  0.50400001928E-02 0. -1.
        1   -1    0    0  501    0  0.00000000000E+00  0.00000000000E+00 -0.16225778848E+04  0.16225778848E+04  0.50400001928E-02 0.  1.
    10030    2    1    2    0    0  0.00000000000E+00  0.00000000000E+00 -0.87652872368E+03  0.23686270460E+04  0.22004752849E+04 0.  0.
        1    1    3    3  502    0  0.18991477323E+03  0.94788476220E+03 -0.10037361081E+04  0.13935707080E+04  0.50400001928E-02 0.  1.
       -1    1    3    3    0  502 -0.18991477323E+03 -0.94788476220E+03  0.12720738443E+03  0.97505633795E+03  0.50400001928E-02 0. -1.
</event>
<event>
 5   0  0.2556869E-06  0.2188805E+04  0.7818609E-02  0.8523102E-01
        2   -1    0    0  501    0  0.00000000000E+00  0.00000000000E+00  0.11616037220E+04  0.11616037220E+04  0.25500000920E-02 0. -1.
       -2   -1    0    0    0  501  0.00000000000E+00  0.00000000000E+00 -0.10310886440E+04  0.10310886440E+04  0.25500000920E-02 0.  1.
    10030    2    1    2    0    0  0.00000000000E+00  0.00000000000E+00  0.13051507806E+03  0.21926923660E+04  0.21888046113E+04 0.  0.
        5    1    3    3  502    0  0.68397303323E+03 -0.84925865300E+03 -0.27831927152E+02  0.10908052420E+04  0.46999998093E+01 0.  1.
       -5    1    3    3    0  502 -0.68397303323E+03  0.84925865300E+03  0.15834700521E+03  0.11018871240E+04  0.46999998093E+01 0. -1.
</event>
<event>
 5   0  0.1146827E-06  0.2199607E+04  0.7818609E-02  0.8518592E-01
       -1   -1    0    0    0  501  0.00000000000E+00  0.00000000000E+00  0.53711462380E+03  0.53711462382E+03  0.50400001928E-02 0. -1.
        1   -1    0    0  501    0  0.00000000000E+00  0.00000000000E+00 -0.22519732449E+04  0.22519732449E+04  0.50400001928E-02 0.  1.
    10030    2    1    2    0    0  0.00000000000E+00  0.00000000000E+00 -0.17148586211E+04  0.27890878687E+04  0.21996070215E+04 0.  0.
        4    1    3    3  502    0 -0.16264759610E+03  0.10625453734E+04 -0.56247631622E+03  0.12131933606E+04  0.12699999809E+01 0.  1.
       -4    1    3    3    0  502  0.16264759610E+03 -0.10625453734E+04 -0.11523823048E+04  0.15758945080E+04  0.12699999809E+01 0. -1.
</event>
<event>
 5   0  0.8905000E-07  0.2200105E+04  0.7818609E-02  0.8518385E-01
       -4   -1    0    0    0  501  0.00000000000E+00  0.00000000000E+00  0.76932535270E+03  0.76932640095E+03  0.12699999809E+01 0.  1.
        4   -1    0    0  501    0  0.00000000000E+00  0.00000000000E+00 -0.15729537718E+04  0.15729542845E+04  0.12699999809E+01 0. -1.
    10030    2    1    2    0    0  0.00000000000E+00  0.00000000000E+00 -0.80362841907E+03  0.23422806854E+04  0.22001045824E+04 0.  0.
        3    1    3    3  502    0 -0.56303004374E+02 -0.73144220842E+03 -0.12745041840E+04  0.14705572610E+04  0.10100000352E+00 0. -1.
       -3    1    3    3    0  502  0.56303004374E+02  0.73144220842E+03  0.47087576492E+03  0.87172342446E+03  0.10100000352E+00 0.  1.
</event>
<event>
 5   0  0.2532239E-06  0.2199705E+04  0.7818609E-02  0.8518551E-01
       -2   -1    0    0    0  501  0.00000000000E+00  0.00000000000E+00  0.70589525434E+03  0.70589525434E+03  0.25500000920E-02 0. -1.
        2   -1    0    0  501    0  0.00000000000E+00  0.00000000000E+00 -0.17136761358E+04  0.17136761358E+04  0.25500000920E-02 0.  1.
    10030    2    1    2    0    0  0.00000000000E+00  0.00000000000E+00 -0.10077808814E+04  0.24195713901E+04  0.21997053000E+04 0.  0.
        3    1    3    3  502    0  0.58287676367E+03  0.91549178558E+03 -0.70005645076E+03  0.12914912216E+04  0.10100000352E+00 0.  1.
       -3    1    3    3    0  502 -0.58287676367E+03 -0.91549178558E+03 -0.30772443067E+03  0.11280801685E+04  0.10100000352E+00 0. -1.
</event>
<event>
 5   0  0.2532239E-06  0.2199796E+04  0.7818609E-02  0.8518513E-01
       -2   -1    0    0    0  501  0.00000000000E+00  0.00000000000E+00  0.13926642266E+04  0.13926642266E+04  0.25500000920E-02 0. -1.
        2   -1    0    0  501    0  0.00000000000E+00  0.00000000000E+00 -0.86867730715E+03  0.86867730716E+03  0.25500000920E-02 0.  1.
    10030    2    1    2    0    0  0.00000000000E+00  0.00000000000E+00  0.52398691948E+03  0.22613415338E+04  0.21997961816E+04 0.  0.
        3    1    3    3  502    0  0.22770824143E+02 -0.51929961038E+03 -0.73444802506E+03  0.89978025511E+03  0.10100000352E+00 0.  1.
       -3    1    3    3    0  502 -0.22770824143E+02  0.51929961038E+03  0.12584349445E+04  0.13615612787E+04  0.10100000352E+00 0. -1.
</event>
<event>
 5   0  0.1137869E-06  0.2200191E+04  0.7818609E-02  0.8518349E-01
       -1   -1    0    0    0  501  0.00000000000E+00  0.00000000000E+00  0.55256525389E+03  0.55256525392E+03  0.50400001928E-02 0.  1.
        1   -1    0    0  501    0  0.00000000000E+00  0.00000000000E+00 -0.21901665267E+04  0.21901665267E+04  0.50400001928E-02 0. -1.
    10030    2    1    2    0    0  0.00000000000E+00  0.00000000000E+00 -0.16376012728E+04  0.27427317806E+04  0.22001908307E+04 0.  0.
        5    1    3    3  502    0  0.57900219795E+03 -0.73676342516E+03 -0.10038945842E+03  0.94242454512E+03  0.46999998093E+01 0.  1.
       -5    1    3    3    0  502 -0.57900219795E+03  0.73676342516E+03 -0.15372118144E+04  0.18003072355E+04  0.46999998093E+01 0. -1.
</event>
<event>
 5   0  0.2556869E-06  0.2198543E+04  0.7818609E-02  0.8519035E-01
       -2   -1    0    0    0  501  0.00000000000E+00  0.00000000000E+00  0.11351058214E+04  0.11351058214E+04  0.25500000920E-02 0.  1.
        2   -1    0    0  501    0  0.00000000000E+00  0.00000000000E+00 -0.10645686378E+04  0.10645686378E+04  0.25500000920E-02 0. -1.
    10030    2    1    2    0    0  0.00000000000E+00  0.00000000000E+00  0.70537183669E+02  0.21996744592E+04  0.21985432068E+04 0.  0.
        5    1    3    3  502    0 -0.21926161328E+03  0.96170811565E+03 -0.45017980129E+03  0.10842703068E+04  0.46999998093E+01 0. -1.
       -5    1    3    3    0  502  0.21926161328E+03 -0.96170811565E+03  0.52071698496E+03  0.11154041524E+04  0.46999998093E+01 0.  1.
</event>
<event>
 5   0  0.2532239E-06  0.2197710E+04  0.7818609E-02  0.8519382E-01
        2   -1    0    0  501    0  0.00000000000E+00  0.00000000000E+00  0.68833191992E+03  0.68833191992E+03  0.25500000920E-02 0.  1.
       -2   -1    0    0    0  501  0.00000000000E+00  0.00000000000E+00 -0.17542152887E+04  0.17542152887E+04  0.25500000920E-02 0. -1.
    10030    2    1    2    0    0  0.00000000000E+00  0.00000000000E+00 -0.10658833688E+04  0.24425472086E+04  0.21977100606E+04 0.  0.
        3    1    3    3  502    0 -0.11247563047E+02  0.10960838303E+04 -0.44716812405E+03  0.11838435759E+04  0.10100000352E+00 0. -1.
       -3    1    3    3    0  502  0.11247563047E+02 -0.10960838303E+04 -0.61871524474E+03  0.12587036327E+04  0.10100000352E+00 0.  1.
</event>
<event>
 5   0  0.1144271E-06  0.2199778E+04  0.7818609E-02  0.8518520E-01
        1   -1    0    0  501    0  0.00000000000E+00  0.00000000000E+00  0.21047968194E+04  0.21047968194E+04  0.50400001928E-02 0.  1.
       -1   -1    0    0    0  501  0.00000000000E+00  0.00000000000E+00 -0.57476142942E+03  0.57476142944E+03  0.50400001928E-02 0. -1.
    10030    2    1    2    0    0  0.00000000000E+00  0.00000000000E+00  0.15300353900E+04  0.26795582488E+04  0.21997781966E+04 0.  0.
        3    1    3    3  502    0  0.20989923886E+03 -0.89883332885E+03  0.36395089194E+02  0.92373354180E+03  0.10100000352E+00 0. -1.
       -3    1    3    3    0  502 -0.20989923886E+03  0.89883332885E+03  0.14936403008E+04  0.17558247070E+04  0.10100000352E+00 0.  1.
</event>
<event>
 5   0  0.1144271E-06  0.2199325E+04  0.7818609E-02  0.8518709E-01
       -1   -1    0    0    0  501  0.00000000000E+00  0.00000000000E+00  0.71491103618E+03  0.71491103620E+03  0.50400001928E-02 0.  1.
        1   -1    0    0  501    0  0.00000000000E+00  0.00000000000E+00 -0.16914794852E+04  0.16914794852E+04  0.50400001928E-02 0. -1.
    10030    2    1    2    0    0  0.00000000000E+00  0.00000000000E+00 -0.97656844905E+03  0.24063905214E+04  0.21993247614E+04 0.  0.
        3    1    3    3  502    0 -0.41253805359E+03  0.96158630312E+03 -0.85839396914E+03  0.13533942812E+04  0.10100000352E+00 0. -1.
       -3    1    3    3    0  502  0.41253805359E+03 -0.96158630312E+03 -0.11817447991E+03  0.10529962402E+04  0.10100000352E+00 0.  1.
</event>
<event>
 5   0  0.1146827E-06  0.2200695E+04  0.7818609E-02  0.8518139E-01
       -1   -1    0    0    0  501  0.00000000000E+00  0.00000000000E+00  0.12381268750E+04  0.12381268750E+04  0.50400001928E-02 0. -1.
        1   -1    0    0  501    0  0.00000000000E+00  0.00000000000E+00 -0.97790029852E+03  0.97790029853E+03  0.50400001928E-02 0.  1.
    10030    2    1    2    0    0  0.00000000000E+00  0.00000000000E+00  0.26022657650E+03  0.22160271736E+04  0.22006950181E+04 0.  0.
        4    1    3    3  502    0 -0.61698747858E+03  0.49409052707E+03  0.90092925110E+03  0.11985299855E+04  0.12699999809E+01 0. -1.
       -4    1    3    3    0  502  0.61698747858E+03 -0.49409052707E+03 -0.64070267459E+03  0.10174971881E+04  0.12699999809E+01 0.  1.
</event>
<event>
 5   0  0.2581058E-06  0.2197239E+04  0.7818609E-02  0.8519578E-01
        2   -1    0    0  501    0  0.00000000000E+00  0.00000000000E+00  0.25729502675E+04  0.25729502675E+04  0.25500000920E-02 0. -1.
       -2   -1    0    0    0  501  0.00000000000E+00  0.00000000000E+00 -0.46909742880E+03  0.46909742881E+03  0.25500000920E-02 0.  1.
    10030    2    1    2    0    0  0.00000000000E+00  0.00000000000E+00  0.21038528387E+04  0.30420476963E+04  0.21972385896E+04 0.  0.
        1    1    3    3  502    0 -0.69699074219E+02  0.10697837815E+04  0.13844023559E+04  0.17509612169E+04  0.50400001928E-02 0. -1.
       -1    1    3    3    0  502  0.69699074219E+02 -0.10697837815E+04  0.71945048279E+03  0.12910864794E+04  0.50400001928E-02 0.  1.
</event>
<event>
 5   0  0.8905000E-07  0.2200211E+04  0.7818609E-02  0.8518340E-01
        4   -1    0    0  501    0  0.00000000000E+00  0.00000000000E+00  0.12444129917E+04  0.12444136398E+04  0.12699999809E+01 0.  1.
       -4   -1    0    0    0  501  0.00000000000E+00  0.00000000000E+00 -0.97253094523E+03  0.97253177446E+03  0.12699999809E+01 0. -1.
    10030    2    1    2    0    0  0.00000000000E+00  0.00000000000E+00  0.27188204649E+03  0.22169454142E+04  0.22002106996E+04 0.  0.
        4    1    3    3  502    0 -0.66511360879E+03  0.81451510379E+03  0.46153840972E+03  0.11484033627E+04  0.12699999809E+01 0.  1.
       -4    1    3    3    0  502  0.66511360879E+03 -0.81451510379E+03 -0.18965636323E+03  0.10685420515E+04  0.12699999809E+01 0. -1.
</event>
<event>
 5   0  0.2606154E-06  0.2203905E+04  0.7818609E-02  0.8516804E-01
        2   -1    0    0  501    0  0.00000000000E+00  0.00000000000E+00  0.16073465895E+04  0.16073465895E+04  0.25500000920E-02 0. -1.
       -2   -1    0    0    0  501  0.00000000000E+00  0.00000000000E+00 -0.75546831521E+03  0.75546831522E+03  0.25500000920E-02 0.  1.
    10030    2    1    2    0    0  0.00000000000E+00  0.00000000000E+00  0.85187827426E+03  0.23628149047E+04  0.22039050977E+04 0.  0.
        2    1    3    3  502    0 -0.45693870877E+03  0.19745067436E+03 -0.62806462300E+03  0.80140184867E+03  0.25500000920E-02 0.  1.
       -2    1    3    3    0  502  0.45693870877E+03 -0.19745067436E+03  0.14799428973E+04  0.15614130560E+04  0.25500000920E-02 0. -1.
</event>
<event>
 5   0  0.2532239E-06  0.2203584E+04  0.7818609E-02  0.8516938E-01
       -2   -1    0    0    0  501  0.00000000000E+00  0.00000000000E+00  0.12559395390E+04  0.12559395390E+04  0.25500000920E-02 0.  1.
        2   -1    0    0  501    0  0.00000000000E+00  0.00000000000E+00 -0.96656395918E+03  0.96656395918E+03  0.25500000920E-02 0. -1.
    10030    2    1    2    0    0  0.00000000000E+00  0.00000000000E+00  0.28937557978E+03  0.22225034981E+04  0.22035842559E+04 0.  0.
        3    1    3    3  502    0  0.14946700567E+03  0.64284419154E+03  0.10345077968E+04  0.12271085658E+04  0.10100000352E+00 0.  1.
       -3    1    3    3    0  502 -0.14946700567E+03 -0.64284419154E+03 -0.74513221700E+03  0.99539493237E+03  0.10100000352E+00 0. -1.
</event>
<event>
 5   0  0.1082209E-06  0.2200887E+04  0.7818609E-02  0.8518059E-01
       -1   -1    0    0    0  501  0.00000000000E+00  0.00000000000E+00  0.62494936990E+03  0.62494936992E+03  0.50400001928E-02 0.  1.
        1   -1    0    0  501    0  0.00000000000E+00  0.00000000000E+00 -0.19377191407E+04  0.19377191407E+04  0.50400001928E-02 0. -1.
    10030    2    1    2    0    0  0.00000000000E+00  0.00000000000E+00 -0.13127697708E+04  0.25626685106E+04  0.22008874174E+04 0.  0.
        2    1    3    3  502    0  0.59903428991E+03 -0.61553255290E+03 -0.14574018785E+04  0.16916685963E+04  0.25500000920E-02 0. -1.
       -2    1    3    3    0  502 -0.59903428991E+03  0.61553255290E+03  0.14463210773E+03  0.87099991432E+03  0.25500000920E-02 0.  1.
</event>
<event>
 5   0  0.1107101E-06  0.2199708E+04  0.7818609E-02  0.8518550E-01
        1   -1    0    0  501    0  0.00000000000E+00  0.00000000000E+00  0.19593377643E+04  0.19593377643E+04  0.50400001928E-02 0.  1.
       -1   -1    0    0    0  501  0.00000000000E+00  0.00000000000E+00 -0.61739175951E+03  0.61739175954E+03  0.50400001928E-02 0. -1.
    10030    2    1    2    0    0  0.00000000000E+00  0.00000000000E+00  0.13419460048E+04  0.25767295239E+04  0.21997081532E+04 0.  0.
        1    1    3    3  502    0 -0.97497069201E+02  0.10054093501E+04  0.11806653969E+04  0.15538096471E+04  0.50400001928E-02 0.  1.
       -1    1    3    3    0  502  0.97497069201E+02 -0.10054093501E+04  0.16128060793E+03  0.10229198768E+04  0.50400001928E-02 0. -1.
</event>
<event>
 5   0  0.2532239E-06  0.2198997E+04  0.7818609E-02  0.8518846E-01
        2   -1    0    0  501    0  0.00000000000E+00  0.00000000000E+00  0.10625082513E+04  0.10625082513E+04  0.25500000920E-02 0.  1.
       -2   -1    0    0    0  501  0.00000000000E+00  0.00000000000E+00 -0.11377768613E+04  0.11377768613E+04  0.25500000920E-02 0. -1.
    10030    2    1    2    0    0  0.00000000000E+00  0.00000000000E+00 -0.75268610028E+02  0.22002851126E+04  0.21989973199E+04 0.  0.
        3    1    3    3  502    0  0.85002469214E+03  0.24898992577E+03  0.61417587512E+03  0.10778450613E+04  0.10100000352E+00 0.  1.
       -3    1    3    3    0  502 -0.85002469214E+03 -0.24898992577E+03 -0.68944448515E+03  0.11224400513E+04  0.10100000352E+00 0. -1.
</event>
<event>
 5   0  0.2556869E-06  0.2199400E+04  0.7818609E-02  0.8518678E-01
       -2   -1    0    0    0  501  0.00000000000E+00  0.00000000000E+00  0.85141354187E+03  0.85141354188E+03  0.25500000920E-02 0. -1.
        2   -1    0    0  501    0  0.00000000000E+00  0.00000000000E+00 -0.14203914952E+04  0.14203914952E+04  0.25500000920E-02 0.  1.
    10030    2    1    2    0    0  0.00000000000E+00  0.00000000000E+00 -0.56897795333E+03  0.22718050371E+04  0.21994004217E+04 0.  0.
        5    1    3    3  502    0  0.38469774315E+03  0.56500817268E+03  0.60531756129E+03  0.91304875487E+03  0.46999998093E+01 0. -1.
       -5    1    3    3    0  502 -0.38469774315E+03 -0.56500817268E+03 -0.11742955146E+04  0.13587562822E+04  0.46999998093E+01 0.  1.
</event>
<event>
 5   0  0.1144271E-06  0.2200364E+04  0.7818609E-02  0.8518276E-01
       -1   -1    0    0    0  501  0.00000000000E+00  0.00000000000E+00  0.13331622423E+04  0.13331622424E+04  0.50400001928E-02 0.  1.
        1   -1    0    0  501    0  0.00000000000E+00  0.00000000000E+00 -0.90791711829E+03  0.90791711830E+03  0.50400001928E-02 0. -1.
    10030    2    1    2    0    0  0.00000000000E+00  0.00000000000E+00  0.42524512406E+03  0.22410793607E+04  0.22003643528E+04 0.  0.
        3    1    3    3  502    0  0.66290469411E+03 -0.22473875933E+03 -0.65187696407E+03  0.95650077360E+03  0.10100000352E+00 0. -1.
       -3    1    3    3    0  502 -0.66290469411E+03  0.22473875933E+03  0.10771220881E+04  0.12845785871E+04  0.10100000352E+00 0.  1.
</event>
<event>
 5   0  0.1082209E-06  0.2200126E+04  0.7818609E-02  0.8518376E-01
       -1   -1    0    0    0  501  0.00000000000E+00  0.00000000000E+00  0.75755435138E+03  0.75755435140E+03  0.50400001928E-02 0. -1.
        1   -1    0    0  501    0  0.00000000000E+00  0.00000000000E+00 -0.15974283917E+04  0.15974283917E+04  0.50400001928E-02 0.  1.
    10030    2    1    2    0    0  0.00000000000E+00  0.00000000000E+00 -0.83987404032E+03  0.23549827431E+04  0.22001262047E+04 0.  0.
        2    1    3    3  502    0 -0.30056890800E+03 -0.97893748919E+03  0.10190826408E+02  0.10240918558E+04  0.25500000920E-02 0. -1.
       -2    1    3    3    0  502  0.30056890800E+03  0.97893748919E+03 -0.85006486673E+03  0.13308908873E+04  0.25500000920E-02 0.  1.
</event>
<event>
 5   0  0.1082209E-06  0.2200245E+04  0.7818609E-02  0.8518326E-01
        1   -1    0    0  501    0  0.00000000000E+00  0.00000000000E+00  0.94501719196E+03  0.94501719198E+03  0.50400001928E-02 0. -1.
       -1   -1    0    0    0  501  0.00000000000E+00  0.00000000000E+00 -0.12806847833E+04  0.12806847833E+04  0.50400001928E-02 0.  1.
    10030    2    1    2    0    0  0.00000000000E+00  0.00000000000E+00 -0.33566759132E+03  0.22257019753E+04  0.22002446570E+04 0.  0.
        2    1    3    3  502    0  0.48234523952E+03  0.98868803179E+03 -0.15731232649E+03  0.11112642001E+04  0.25500000920E-02 0. -1.
       -2    1    3    3    0  502 -0.48234523952E+03 -0.98868803179E+03 -0.17835526483E+03  0.11144377752E+04  0.25500000920E-02 0.  1.
</event>
<event>
 5   0  0.2524749E-06  0.2202504E+04  0.7818609E-02  0.8517387E-01
       -2   -1    0    0    0  501  0.00000000000E+00  0.00000000000E+00  0.57208689367E+03  0.57208689368E+03  0.25500000920E-02 0.  1.
        2   -1    0    0  501    0  0.00000000000E+00  0.00000000000E+00 -0.21198808497E+04  0.21198808497E+04  0.25500000920E-02 0. -1.
    10030    2    1    2    0    0  0.00000000000E+00  0.00000000000E+00 -0.15477939560E+04  0.26919677434E+04  0.22025040752E+04 0.  0.
        4    1    3    3  502    0  0.55578398483E+03 -0.72063099617E+03 -0.15966634430E+02  0.91019855897E+03  0.12699999809E+01 0.  1.
       -4    1    3    3    0  502 -0.55578398483E+03  0.72063099617E+03 -0.15318273216E+04  0.17817691844E+04  0.12699999809E+01 0. -1.
</event>
<event>
 5   0  0.1137869E-06  0.2199485E+04  0.7818609E-02  0.8518642E-01
       -1   -1    0    0    0  501  0.00000000000E+00  0.00000000000E+00  0.16859921569E+04  0.16859921569E+04  0.50400001928E-02 0.  1.
        1   -1    0    0  501    0  0.00000000000E+00  0.00000000000E+00 -0.71734249787E+03  0.71734249789E+03  0.50400001928E-02 0. -1.
    10030    2    1    2    0    0  0.00000000000E+00  0.00000000000E+00  0.96864965900E+03  0.24033346548E+04  0.21994852354E+04 0.  0.
        5    1    3    3  502    0  0.26096131386E+03 -0.77291701702E+03 -0.32152998420E+03  0.87687236429E+03  0.46999998093E+01 0. -1.
       -5    1    3    3    0  502 -0.26096131386E+03  0.77291701702E+03  0.12901796432E+04  0.15264622905E+04  0.46999998093E+01 0.  1.
</event>
<event>
 5   0  0.2556869E-06  0.2199570E+04  0.7818609E-02  0.8518607E-01
       -2   -1    0    0    0  501  0.00000000000E+00  0.00000000000E+00  0.10352930494E+04  0.10352930494E+04  0.25500000920E-02 0. -1.
        2   -1    0    0  501    0  0.00000000000E+00  0.00000000000E+00 -0.11682939760E+04  0.11682939760E+04  0.25500000920E-02 0.  1.
    10030    2    1    2    0    0  0.00000000000E+00  0.00000000000E+00 -0.13300092659E+03  0.22035870254E+04  0.21995696243E+04 0.  0.
        5    1    3    3  502    0 -0.93733642700E+03  0.24449873890E+03  0.45514753086E+03  0.10703086357E+04  0.46999998093E+01 0. -1.
       -5    1    3    3    0  502  0.93733642700E+03 -0.24449873890E+03 -0.58814845746E+03  0.11332783898E+04  0.46999998093E+01 0.  1.
</event>
<event>
 5   0  0.1082209E-06  0.2200027E+04  0.7818609E-02  0.8518417E-01
        1   -1    0    0  501    0  0.00000000000E+00  0.00000000000E+00  0.27587944235E+04  0.27587944235E+04  0.50400001928E-02 0. -1.
       -1   -1    0    0    0  501  0.00000000000E+00  0.00000000000E+00 -0.43860827367E+03  0.43860827370E+03  0.50400001928E-02 0.  1.
    10030    2    1    2    0    0  0.00000000000E+00  0.00000000000E+00  0.23201861498E+04  0.31974026972E+04  0.22000273267E+04 0.  0.
        2    1    3    3  502    0 -0.80216548843E+03 -0.73130359782E+03  0.14190810935E+04  0.17866352658E+04  0.25500000920E-02 0. -1.
       -2    1    3    3    0  502  0.80216548843E+03  0.73130359782E+03  0.90110505637E+03  0.14107674314E+04  0.25500000920E-02 0.  1.
</event>
<event>
 5   0  0.2581058E-06  0.2206030E+04  0.7818609E-02  0.8515922E-01
       -2   -1    0    0    0  501  0.00000000000E+00  0.00000000000E+00  0.91249405469E+03  0.91249405469E+03  0.25500000920E-02 0.  1.
        2   -1    0    0  501    0  0.00000000000E+00  0.00000000000E+00 -0.13333153064E+04  0.13333153064E+04  0.25500000920E-02 0. -1.
    10030    2    1    2    0    0  0.00000000000E+00  0.00000000000E+00 -0.42082125167E+03  0.22458093610E+04  0.22060301812E+04 0.  0.
        1    1    3    3  502    0  0.29846453668E+03  0.32419258619E+03  0.81899060098E+03  0.93001479403E+03  0.50400001928E-02 0.  1.
       -1    1    3    3    0  502 -0.29846453668E+03 -0.32419258619E+03 -0.12398118527E+04  0.13157945670E+04  0.50400001928E-02 0. -1.
</event>
<event>
 5   0  0.1137869E-06  0.2201229E+04  0.7818609E-02  0.8517917E-01
       -1   -1    0    0    0  501  0.00000000000E+00  0.00000000000E+00  0.75753177514E+03  0.75753177516E+03  0.50400001928E-02 0. -1.
        1   -1    0    0  501    0  0.00000000000E+00  0.00000000000E+00 -0.15990780534E+04  0.15990780534E+04  0.50400001928E-02 0.  1.
    10030    2    1    2    0    0  0.00000000000E+00  0.00000000000E+00 -0.84154627821E+03  0.23566098285E+04  0.22012291443E+04 0.  0.
        5    1    3    3  502    0  0.88119014449E+03  0.29756139511E+02  0.28447459614E+03  0.92646067614E+03  0.46999998093E+01 0. -1.
       -5    1    3    3    0  502 -0.88119014449E+03 -0.29756139511E+02 -0.11260208744E+04  0.14301491524E+04  0.46999998093E+01 0.  1.
</event>
<event>
 5   0  0.1082209E-06  0.2200088E+04  0.7818609E-02  0.8518391E-01
       -1   -1    0    0    0  501  0.00000000000E+00  0.00000000000E+00  0.11855410727E+04  0.11855410727E+04  0.50400001928E-02 0. -1.
        1   -1    0    0  501    0  0.00000000000E+00  0.00000000000E+00 -0.10207130360E+04  0.10207130360E+04  0.50400001928E-02 0.  1.
    10030    2    1    2    0    0  0.00000000000E+00  0.00000000000E+00  0.16482803666E+03  0.22062541088E+04  0.22000883870E+04 0.  0.
        2    1    3    3  502    0 -0.98827726414E+03  0.29895571649E+03  0.46299144361E+03  0.11315597855E+04  0.25500000920E-02 0. -1.
       -2    1    3    3    0  502  0.98827726414E+03 -0.29895571649E+03 -0.29816340695E+03  0.10746943233E+04  0.25500000920E-02 0.  1.
</event>
<event>
 5   0  0.2606154E-06  0.2201908E+04  0.7818609E-02  0.8517634E-01
        2   -1    0    0  501    0  0.00000000000E+00  0.00000000000E+00  0.14281753507E+04  0.14281753507E+04  0.25500000920E-02 0. -1.
       -2   -1    0    0    0  501  0.00000000000E+00  0.00000000000E+00 -0.84870507632E+03  0.84870507633E+03  0.25500000920E-02 0.  1.
    10030    2    1    2    0    0  0.00000000000E+00  0.00000000000E+00  0.57947027438E+03  0.22768804270E+04  0.22019079636E+04 0.  0.
        2    1    3    3  502    0 -0.91907713453E+03  0.12177276027E+03 -0.32425682179E+03  0.98217812583E+03  0.25500000920E-02 0.  1.
       -2    1    3    3    0  502  0.91907713453E+03 -0.12177276027E+03  0.90372709617E+03  0.12947023012E+04  0.25500000920E-02 0. -1.
</event>
<event>
 5   0  0.2606154E-06  0.2197707E+04  0.7818609E-02  0.8519383E-01
        2   -1    0    0  501    0  0.00000000000E+00  0.00000000000E+00  0.12365132115E+04  0.12365132115E+04  0.25500000920E-02 0.  1.
       -2   -1    0    0    0  501  0.00000000000E+00  0.00000000000E+00 -0.97651912601E+03  0.97651912601E+03  0.25500000920E-02 0. -1.
    10030    2    1    2    0    0  0.00000000000E+00  0.00000000000E+00  0.25999408547E+03  0.22130323375E+04  0.21977068054E+04 0.  0.
        2    1    3    3  502    0 -0.10896581418E+04  0.77303972738E+02  0.10222092959E+02  0.10924446263E+04  0.25500000920E-02 0.  1.
       -2    1    3    3    0  502  0.10896581418E+04 -0.77303972738E+02  0.24977199251E+03  0.11205877112E+04  0.25500000920E-02 0. -1.
</event>
<event>
 5   0  0.2524749E-06  0.2200598E+04  0.7818609E-02  0.8518179E-01
       -2   -1    0    0    0  501  0.00000000000E+00  0.00000000000E+00  0.72595401171E+03  0.72595401171E+03  0.25500000920E-02 0. -1.
        2   -1    0    0  501    0  0.00000000000E+00  0.00000000000E+00 -0.16676781751E+04  0.16676781751E+04  0.25500000920E-02 0.  1.
    10030    2    1    2    0    0  0.00000000000E+00  0.00000000000E+00 -0.94172416343E+03  0.23936321869E+04  0.22005977929E+04 0.  0.
        4    1    3    3  502    0  0.45116256479E+03 -0.14502121094E+03  0.60925842093E+03  0.77186543378E+03  0.12699999809E+01 0. -1.
       -4    1    3    3    0  502 -0.45116256479E+03  0.14502121094E+03 -0.15509825844E+04  0.16217667531E+04  0.12699999809E+01 0.  1.
</event>
<event>
 5   0  0.2606154E-06  0.2200248E+04  0.7818609E-02  0.8518325E-01
       -2   -1    0    0    0  501  0.00000000000E+00  0.00000000000E+00  0.11793949388E+04  0.11793949389E+04  0.25500000920E-02 0.  1.
        2   -1    0    0  501    0  0.00000000000E+00  0.00000000000E+00 -0.10261811215E+04  0.10261811215E+04  0.25500000920E-02 0. -1.
    10030    2    1    2    0    0  0.00000000000E+00  0.00000000000E+00  0.15321381739E+03  0.22055760603E+04  0.22002480051E+04 0.  0.
        2    1    3    3  502    0 -0.63046189709E+03  0.84452637319E+03  0.39291153629E+03  0.11247606297E+04  0.25500000920E-02 0.  1.
       -2    1    3    3    0  502  0.63046189709E+03 -0.84452637319E+03 -0.23969771891E+03  0.10808154307E+04  0.25500000920E-02 0. -1.
</event>
<event>
 5   0  0.2606154E-06  0.2196694E+04  0.7818609E-02  0.8519806E-01
        2   -1    0    0  501    0  0.00000000000E+00  0.00000000000E+00  0.20709343265E+04  0.20709343265E+04  0.25500000920E-02 0.  1.
       -2   -1    0    0    0  501  0.00000000000E+00  0.00000000000E+00 -0.58252248179E+03  0.58252248179E+03  0.25500000920E-02 0. -1.
    10030    2    1    2    0    0  0.00000000000E+00  0.00000000000E+00  0.14884118447E+04  0.26534568083E+04  0.21966937006E+04 0.  0.
        2    1    3    3  502    0 -0.85062780564E+03  0.22403524431E+03 -0.50285042531E+02  0.88107209689E+03  0.25500000920E-02 0.  1.
       -2    1    3    3    0  502  0.85062780564E+03 -0.22403524431E+03  0.15386968873E+04  0.17723847114E+04  0.25500000920E-02 0. -1.
</event>
<event>
 5   0  0.2532239E-06  0.2200344E+04  0.7818609E-02  0.8518285E-01
       -2   -1    0    0    0  501  0.00000000000E+00  0.00000000000E+00  0.86447123672E+03  0.86447123672E+03  0.25500000920E-02 0. -1.
        2   -1    0    0  501    0  0.00000000000E+00  0.00000000000E+00 -0.14001374710E+04  0.14001374710E+04  0.25500000920E-02 0.  1.
    10030    2    1    2    0    0  0.00000000000E+00  0.00000000000E+00 -0.53566623429E+03  0.22646087077E+04  0.22003441287E+04 0.  0.
        3    1    3    3  502    0  0.90031901004E+03 -0.20500578581E+03  0.34778117463E+03  0.98668812078E+03  0.10100000352E+00 0. -1.
       -3    1    3    3    0  502 -0.90031901004E+03  0.20500578581E+03 -0.88344740892E+03  0.12779205870E+04  0.10100000352E+00 0.  1.
</event>
<event>
 5   0  0.1146827E-06  0.2200022E+04  0.7818609E-02  0.8518419E-01
       -1   -1    0    0    0  501  0.00000000000E+00  0.00000000000E+00  0.71739258531E+03  0.71739258533E+03  0.50400001928E-02 0.  1.
        1   -1    0    0  501    0  0.00000000000E+00  0.00000000000E+00 -0.16866978627E+04  0.16866978627E+04  0.50400001928E-02 0. -1.
    10030    2    1    2    0    0  0.00000000000E+00  0.00000000000E+00 -0.96930527736E+03  0.24040904480E+04  0.22000223093E+04 0.  0.
        4    1    3    3  502    0  0.98726959202E+03 -0.37895478729E+03 -0.15371681389E+03  0.10686152020E+04  0.12699999809E+01 0.  1.
       -4    1    3    3    0  502 -0.98726959202E+03  0.37895478729E+03 -0.81558846347E+03  0.13354752460E+04  0.12699999809E+01 0. -1.
</event>
<event>
 5   0  0.1107101E-06  0.2201464E+04  0.7818609E-02  0.8517819E-01
        1   -1    0    0  501    0  0.00000000000E+00  0.00000000000E+00  0.13520105394E+04  0.13520105394E+04  0.50400001928E-02 0.  1.
       -1   -1    0    0    0  501  0.00000000000E+00  0.00000000000E+00 -0.89615521314E+03  0.89615521316E+03  0.50400001928E-02 0. -1.
    10030    2    1    2    0    0  0.00000000000E+00  0.00000000000E+00  0.45585532629E+03  0.22481657526E+04  0.22014643246E+04 0.  0.
        1    1    3    3  502    0 -0.68594551029E+02 -0.33931535748E+03 -0.83911672586E+03  0.90772077419E+03  0.50400001928E-02 0. -1.
       -1    1    3    3    0  502  0.68594551029E+02  0.33931535748E+03  0.12949720522E+04  0.13404449784E+04  0.50400001928E-02 0.  1.
</event>
<event>
 5   0  0.1144271E-06  0.2199861E+04  0.7818609E-02  0.8518486E-01
        1   -1    0    0  501    0  0.00000000000E+00  0.00000000000E+00  0.10744334404E+04  0.10744334404E+04  0.50400001928E-02 0. -1.
       -1   -1    0    0    0  501  0.00000000000E+00  0.00000000000E+00 -0.11260321386E+04  0.11260321386E+04  0.50400001928E-02 0.  1.
    10030    2    1    2    0    0  0.00000000000E+00  0.00000000000E+00 -0.51598698218E+02  0.22004655790E+04  0.21998605271E+04 0.  0.
        3    1    3    3  502    0  0.16990214643E+03  0.10776185623E+04 -0.16625901351E+03  0.11035264270E+04  0.10100000352E+00 0.  1.
       -3    1    3    3    0  502 -0.16990214643E+03 -0.10776185623E+04  0.11466031529E+03  0.10969391521E+04  0.10100000352E+00 0. -1.
</event>
<event>
 5   0  0.1082209E-06  0.2199548E+04  0.7818609E-02  0.8518616E-01
       -1   -1    0    0    0  501  0.00000000000E+00  0.00000000000E+00  0.97308375951E+03  0.97308375953E+03  0.50400001928E-02 0.  1.
        1   -1    0    0  501    0  0.00000000000E+00  0.00000000000E+00 -0.12429586763E+04  0.12429586763E+04  0.50400001928E-02 0. -1.
    10030    2    1    2    0    0  0.00000000000E+00  0.00000000000E+00 -0.26987491680E+03  0.22160424358E+04  0.21995480460E+04 0.  0.
        2    1    3    3  502    0  0.30986316004E+03 -0.47240874105E+02  0.92712897621E+03  0.97868024230E+03  0.25500000920E-02 0.  1.
       -2    1    3    3    0  502 -0.30986316004E+03  0.47240874105E+02 -0.11970038930E+04  0.12373621935E+04  0.25500000920E-02 0. -1.
</event>
<event>
 5   0  0.1107101E-06  0.2193173E+04  0.7818609E-02  0.8521275E-01
       -1   -1    0    0    0  501  0.00000000000E+00  0.00000000000E+00  0.71325473867E+03  0.71325473869E+03  0.50400001928E-02 0.  1.
        1   -1    0    0  501    0  0.00000000000E+00  0.00000000000E+00 -0.16859368782E+04  0.16859368783E+04  0.50400001928E-02 0. -1.
    10030    2    1    2    0    0  0.00000000000E+00  0.00000000000E+00 -0.97268213958E+03  0.23991916169E+04  0.21931734701E+04 0.  0.
        1    1    3    3  502    0  0.67679488099E+02 -0.10696908635E+04 -0.23287956879E+03  0.10968372487E+04  0.50400001928E-02 0.  1.
       -1    1    3    3    0  502 -0.67679488099E+02  0.10696908635E+04 -0.73980257078E+03  0.13023543682E+04  0.50400001928E-02 0. -1.
</event>
<event>
 5   0  0.2524749E-06  0.2200943E+04  0.7818609E-02  0.8518036E-01
       -2   -1    0    0    0  501  0.00000000000E+00  0.00000000000E+00  0.10396489629E+04  0.10396489629E+04  0.25500000920E-02 0.  1.
        2   -1    0    0  501    0  0.00000000000E+00  0.00000000000E+00 -0.11648521580E+04  0.11648521580E+04  0.25500000920E-02 0. -1.
    10030    2    1    2    0    0  0.00000000000E+00  0.00000000000E+00 -0.12520319517E+03  0.22045011209E+04  0.22009428325E+04 0.  0.
        4    1    3    3  502    0 -0.69460460598E+03  0.82849704004E+03 -0.26824504900E+03  0.11139299454E+04  0.12699999809E+01 0. -1.
       -4    1    3    3    0  502  0.69460460598E+03 -0.82849704004E+03  0.14304185382E+03  0.10905711755E+04  0.12699999809E+01 0.  1.
</event>
<event>
 5   0  0.2524749E-06  0.2200370E+04  0.7818609E-02  0.8518274E-01
       -2   -1    0    0    0  501  0.00000000000E+00  0.00000000000E+00  0.86190075508E+03  0.86190075508E+03  0.25500000920E-02 0. -1.
        2   -1    0    0  501    0  0.00000000000E+00  0.00000000000E+00 -0.14043463407E+04  0.14043463407E+04  0.25500000920E-02 0.  1.
    10030    2    1    2    0    0  0.00000000000E+00  0.00000000000E+00 -0.54244558558E+03  0.22662470957E+04  0.22003701247E+04 0.  0.
        4    1    3    3  502    0  0.10173509474E+04 -0.32111717777E+03 -0.54813348064E+03  0.11994044845E+04  0.12699999809E+01 0. -1.
       -4    1    3    3    0  502 -0.10173509474E+04  0.32111717777E+03  0.56878950548E+01  0.10668426112E+04  0.12699999809E+01 0.  1.
</event>
<event>
 5   0  0.2606154E-06  0.2197868E+04  0.7818609E-02  0.8519316E-01
        2   -1    0    0  501    0  0.00000000000E+00  0.00000000000E+00  0.17205154573E+04  0.17205154573E+04  0.25500000920E-02 0.  1.
       -2   -1    0    0    0  501  0.00000000000E+00  0.00000000000E+00 -0.70191530788E+03  0.70191530788E+03  0.25500000920E-02 0. -1.
    10030    2    1    2    0    0  0.00000000000E+00  0.00000000000E+00  0.10186001495E+04  0.24224307652E+04  0.21978681825E+04 0.  0.
        2    1    3    3  502    0 -0.73044166041E+03  0.41640682319E+03  0.12892121997E+04  0.15391581327E+04  0.25500000920E-02 0.  1.
       -2    1    3    3    0  502  0.73044166041E+03 -0.41640682319E+03 -0.27061205020E+03  0.88327263253E+03  0.25500000920E-02 0. -1.
</event>
<event>
 5   0  0.8905000E-07  0.2200817E+04  0.7818609E-02  0.8518088E-01
        3   -1    0    0  501    0  0.00000000000E+00  0.00000000000E+00  0.81965734657E+03  0.81965735280E+03  0.10100000352E+00 0. -1.
       -3   -1    0    0    0  501  0.00000000000E+00  0.00000000000E+00 -0.14773230736E+04  0.14773230771E+04  0.10100000352E+00 0.  1.
    10030    2    1    2    0    0  0.00000000000E+00  0.00000000000E+00 -0.65766572703E+03  0.22969804299E+04  0.22008168680E+04 0.  0.
        2    1    3    3  502    0  0.10690855241E+04  0.22383032900E+03 -0.18937228479E+03  0.11085602087E+04  0.25500000920E-02 0. -1.
       -2    1    3    3    0  502 -0.10690855241E+04 -0.22383032900E+03 -0.46829344224E+03  0.11884202212E+04  0.25500000920E-02 0.  1.
</event>
<event>
 5   0  0.1146827E-06  0.2199178E+04  0.7818609E-02  0.8518770E-01
       -1   -1    0    0    0  501  0.00000000000E+00  0.00000000000E+00  0.77335765805E+03  0.77335765806E+03  0.50400001928E-02 0.  1.
        1   -1    0    0  501    0  0.00000000000E+00  0.00000000000E+00 -0.15634373781E+04  0.15634373781E+04  0.50400001928E-02 0. -1.
    10030    2    1    2    0    0  0.00000000000E+00  0.00000000000E+00 -0.79007972009E+03  0.23367950362E+04  0.21991782732E+04 0.  0.
        4    1    3    3  502    0  0.57491374017E+03  0.41600030719E+03 -0.12875487897E+04  0.14701583463E+04  0.12699999809E+01 0. -1.
       -4    1    3    3    0  502 -0.57491374017E+03 -0.41600030719E+03  0.49746906965E+03  0.86663668995E+03  0.12699999809E+01 0.  1.
</event>
<event>
 5   0  0.1144271E-06  0.2200441E+04  0.7818609E-02  0.8518244E-01
       -1   -1    0    0    0  501  0.00000000000E+00  0.00000000000E+00  0.52824417363E+03  0.52824417365E+03  0.50400001928E-02 0.  1.
        1   -1    0    0  501    0  0.00000000000E+00  0.00000000000E+00 -0.22915267003E+04  0.22915267004E+04  0.50400001928E-02 0. -1.
    10030    2    1    2    0    0  0.00000000000E+00  0.00000000000E+00 -0.17632825267E+04  0.28197708740E+04  0.22004414359E+04 0.  0.
        3    1    3    3  502    0 -0.77890281077E+03 -0.33965483149E+03  0.13940928249E+02  0.84985254771E+03  0.10100000352E+00 0.  1.
       -3    1    3    3    0  502  0.77890281077E+03  0.33965483149E+03 -0.17772234550E+04  0.19699183263E+04  0.10100000352E+00 0. -1.
</event>
<event>
 5   0  0.1146827E-06  0.2199379E+04  0.7818609E-02  0.8518687E-01
       -1   -1    0    0    0  501  0.00000000000E+00  0.00000000000E+00  0.98233065519E+03  0.98233065521E+03  0.50400001928E-02 0. -1.
        1   -1    0    0  501    0  0.00000000000E+00  0.00000000000E+00 -0.12310692570E+04  0.12310692570E+04  0.50400001928E-02 0.  1.
    10030    2    1    2    0    0  0.00000000000E+00  0.00000000000E+00 -0.24873860184E+03  0.22133999123E+04  0.21993790668E+04 0.  0.
        4    1    3    3  502    0  0.35247074239E+03 -0.83216536922E+03 -0.75492613287E+03  0.11775609984E+04  0.12699999809E+01 0.  1.
       -4    1    3    3    0  502 -0.35247074239E+03  0.83216536922E+03  0.50618753104E+03  0.10358389138E+04  0.12699999809E+01 0. -1.
</event>
<event>
 5   0  0.1146827E-06  0.2198215E+04  0.7818609E-02  0.8519172E-01
       -1   -1    0    0    0  501  0.00000000000E+00  0.00000000000E+00  0.88553068746E+03  0.88553068748E+03  0.50400001928E-02 0. -1.
        1   -1    0    0  501    0  0.00000000000E+00  0.00000000000E+00 -0.13641952549E+04  0.13641952549E+04  0.50400001928E-02 0.  1.
    10030    2    1    2    0    0  0.00000000000E+00  0.00000000000E+00 -0.47866456742E+03  0.22497259424E+04  0.21982145136E+04 0.  0.
        4    1    3    3  502    0 -0.88641913250E+03  0.64944162209E+03 -0.26271163232E+03  0.11298372952E+04  0.12699999809E+01 0. -1.
       -4    1    3    3    0  502  0.88641913250E+03 -0.64944162209E+03 -0.21595293510E+03  0.11198886472E+04  0.12699999809E+01 0.  1.
</event>
<event>
 5   0  0.2581058E-06  0.2201052E+04  0.7818609E-02  0.8517991E-01
        2   -1    0    0  501    0  0.00000000000E+00  0.00000000000E+00  0.17482508147E+04  0.17482508147E+04  0.25500000920E-02 0. -1.
       -2   -1    0    0    0  501  0.00000000000E+00  0.00000000000E+00 -0.69278225124E+03  0.69278225125E+03  0.25500000920E-02 0.  1.
    10030    2    1    2    0    0  0.00000000000E+00  0.00000000000E+00  0.10554685635E+04  0.24410330660E+04  0.22010516897E+04 0.  0.
        1    1    3    3  502    0 -0.23492723210E+03  0.76921405600E+03  0.13608191303E+04  0.15807307720E+04  0.50400001928E-02 0. -1.
       -1    1    3    3    0  502  0.23492723210E+03 -0.76921405600E+03 -0.30535056677E+03  0.86030229395E+03  0.50400001928E-02 0.  1.
</event>
<event>
 5   0  0.2606154E-06  0.2200213E+04  0.7818609E-02  0.8518340E-01
        2   -1    0    0  501    0  0.00000000000E+00  0.00000000000E+00  0.10799432086E+04  0.10799432086E+04  0.25500000920E-02 0.  1.
       -2   -1    0    0    0  501  0.00000000000E+00  0.00000000000E+00 -0.11206458031E+04  0.11206458031E+04  0.25500000920E-02 0. -1.
    10030    2    1    2    0    0  0.00000000000E+00  0.00000000000E+00 -0.40702594537E+02  0.22005890117E+04  0.22002125573E+04 0.  0.
        2    1    3    3  502    0  0.95680070751E+03  0.12445823978E+01 -0.56336654383E+03  0.11103382393E+04  0.25500000920E-02 0. -1.
       -2    1    3    3    0  502 -0.95680070751E+03 -0.12445823978E+01  0.52266394929E+03  0.10902507724E+04  0.25500000920E-02 0.  1.
</event>
<event>
 5   0  0.2532239E-06  0.2194239E+04  0.7818609E-02  0.8520830E-01
       -2   -1    0    0    0  501  0.00000000000E+00  0.00000000000E+00  0.83797189916E+03  0.83797189916E+03  0.25500000920E-02 0. -1.
        2   -1    0    0  501    0  0.00000000000E+00  0.00000000000E+00 -0.14364095613E+04  0.14364095613E+04  0.25500000920E-02 0.  1.
    10030    2    1    2    0    0  0.00000000000E+00  0.00000000000E+00 -0.59843766211E+03  0.22743814604E+04  0.21942386817E+04 0.  0.
        3    1    3    3  502    0 -0.15253912248E+03 -0.67977061875E+03 -0.11777087344E+04  0.13683399253E+04  0.10100000352E+00 0.  1.
       -3    1    3    3    0  502  0.15253912248E+03  0.67977061875E+03  0.57927107226E+03  0.90604153512E+03  0.10100000352E+00 0. -1.
</event>
<event>
 5   0  0.2556869E-06  0.2199902E+04  0.7818609E-02  0.8518469E-01
       -2   -1    0    0    0  501  0.00000000000E+00  0.00000000000E+00  0.80192547536E+03  0.80192547536E+03  0.25500000920E-02 0.  1.
        2   -1    0    0  501    0  0.00000000000E+00  0.00000000000E+00 -0.15087340133E+04  0.15087340133E+04  0.25500000920E-02 0. -1.
    10030    2    1    2    0    0  0.00000000000E+00  0.00000000000E+00 -0.70680853798E+03  0.23106594887E+04  0.21999020349E+04 0.  0.
        5    1    3    3  502    0 -0.38669913222E+03  0.53779640160E+03  0.56893454314E+03  0.87319516307E+03  0.46999998093E+01 0.  1.
       -5    1    3    3    0  502  0.38669913222E+03 -0.53779640160E+03 -0.12757430811E+04  0.14374643256E+04  0.46999998093E+01 0. -1.
</event>
<event>
 5   0  0.1137869E-06  0.2200543E+04  0.7818609E-02  0.8518202E-01
       -1   -1    0    0    0  501  0.00000000000E+00  0.00000000000E+00  0.19396770088E+04  0.19396770088E+04  0.50400001928E-02 0.  1.
        1   -1    0    0  501    0  0.00000000000E+00  0.00000000000E+00 -0.62412344489E+03  0.62412344491E+03  0.50400001928E-02 0. -1.
    10030    2    1    2    0    0  0.00000000000E+00  0.00000000000E+00  0.13155535639E+04  0.25638004537E+04  0.22005434754E+04 0.  0.
        5    1    3    3  502    0 -0.59450398913E+03  0.73174013172E+03 -0.30351904127E+01  0.94282019274E+03  0.46999998093E+01 0. -1.
       -5    1    3    3    0  502  0.59450398913E+03 -0.73174013172E+03  0.13185887543E+04  0.16209802610E+04  0.46999998093E+01 0.  1.
</event>
<event>
 5   0  0.1082209E-06  0.2199766E+04  0.7818609E-02  0.8518526E-01
       -1   -1    0    0    0  501  0.00000000000E+00  0.00000000000E+00  0.79626066783E+03  0.79626066785E+03  0.50400001928E-02 0.  1.
        1   -1    0    0  501    0  0.00000000000E+00  0.00000000000E+00 -0.15192793228E+04  0.15192793228E+04  0.50400001928E-02 0. -1.
    10030    2    1    2    0    0  0.00000000000E+00  0.00000000000E+00 -0.72301865493E+03  0.23155399906E+04  0.21997657768E+04 0.  0.
        2    1    3    3  502    0  0.52084736026E+03  0.39058589451E+03  0.57165973711E+03  0.86639146389E+03  0.25500000920E-02 0.  1.
       -2    1    3    3    0  502 -0.52084736026E+03 -0.39058589451E+03 -0.12946783920E+04  0.14491485267E+04  0.25500000920E-02 0. -1.
</event>
<event>
 5   0  0.1137869E-06  0.2214805E+04  0.7818609E-02  0.8512291E-01
       -1   -1    0    0    0  501  0.00000000000E+00  0.00000000000E+00  0.14863218373E+04  0.14863218373E+04  0.50400001928E-02 0.  1.
        1   -1    0    0  501    0  0.00000000000E+00  0.00000000000E+00 -0.82508399850E+03  0.82508399851E+03  0.50400001928E-02 0. -1.
    10030    2    1    2    0    0  0.00000000000E+00  0.00000000000E+00  0.66123783878E+03  0.23114058358E+04  0.22148050610E+04 0.  0.
        5    1    3    3  502    0  0.10850766234E+04  0.18393858748E+03  0.45883337730E+03  0.11923820029E+04  0.46999998093E+01 0. -1.
       -5    1    3    3    0  502 -0.10850766234E+04 -0.18393858748E+03  0.20240446149E+03  0.11190238329E+04  0.46999998093E+01 0.  1.
</event>
<event>
 5   0  0.2606154E-06  0.2199345E+04  0.7818609E-02  0.8518701E-01
       -2   -1    0    0    0  501  0.00000000000E+00  0.00000000000E+00  0.58847926259E+03  0.58847926259E+03  0.25500000920E-02 0.  1.
        2   -1    0    0  501    0  0.00000000000E+00  0.00000000000E+00 -0.20549230618E+04  0.20549230618E+04  0.25500000920E-02 0. -1.
    10030    2    1    2    0    0  0.00000000000E+00  0.00000000000E+00 -0.14664437992E+04  0.26434023244E+04  0.21993450007E+04 0.  0.
        2    1    3    3  502    0  0.86694927170E+03  0.55340525051E+03 -0.26552634204E+03  0.10622441571E+04  0.25500000920E-02 0.  1.
       -2    1    3    3    0  502 -0.86694927170E+03 -0.55340525051E+03 -0.12009174572E+04  0.15811581673E+04  0.25500000920E-02 0. -1.
</event>
<event>
 5   0  0.2581058E-06  0.2200384E+04  0.7818609E-02  0.8518268E-01
        2   -1    0    0  501    0  0.00000000000E+00  0.00000000000E+00  0.96840705363E+03  0.96840705363E+03  0.25500000920E-02 0.  1.
       -2   -1    0    0    0  501  0.00000000000E+00  0.00000000000E+00 -0.12499110504E+04  0.12499110504E+04  0.25500000920E-02 0. -1.
    10030    2    1    2    0    0  0.00000000000E+00  0.00000000000E+00 -0.28150399679E+03  0.22183181041E+04  0.22003842189E+04 0.  0.
        1    1    3    3  502    0  0.96675063137E+03 -0.51564882816E+03 -0.40329999636E+02  0.10964155262E+04  0.50400001928E-02 0.  1.
       -1    1    3    3    0  502 -0.96675063137E+03  0.51564882816E+03 -0.24117399716E+03  0.11219025778E+04  0.50400001928E-02 0. -1.
</event>
<event>
 5   0  0.2581058E-06  0.2205337E+04  0.7818609E-02  0.8516210E-01
       -2   -1    0    0    0  501  0.00000000000E+00  0.00000000000E+00  0.90789354548E+03  0.90789354549E+03  0.25500000920E-02 0. -1.
        2   -1    0    0  501    0  0.00000000000E+00  0.00000000000E+00 -0.13392296007E+04  0.13392296007E+04  0.25500000920E-02 0.  1.
    10030    2    1    2    0    0  0.00000000000E+00  0.00000000000E+00 -0.43133605520E+03  0.22471231462E+04  0.22053370812E+04 0.  0.
        1    1    3    3  502    0  0.19767120785E+03 -0.42856852592E+03  0.79977509995E+03  0.92864691802E+03  0.50400001928E-02 0. -1.
       -1    1    3    3    0  502 -0.19767120785E+03  0.42856852592E+03 -0.12311111552E+04  0.13184762281E+04  0.50400001928E-02 0.  1.
</event>
<event>
 5   0  0.2532239E-06  0.2200737E+04  0.7818609E-02  0.8518121E-01
        2   -1    0    0  501    0  0.00000000000E+00  0.00000000000E+00  0.10638145977E+04  0.10638145977E+04  0.25500000920E-02 0. -1.
       -2   -1    0    0    0  501  0.00000000000E+00  0.00000000000E+00 -0.11381783361E+04  0.11381783361E+04  0.25500000920E-02 0.  1.
    10030    2    1    2    0    0  0.00000000000E+00  0.00000000000E+00 -0.74363738397E+02  0.22019929338E+04  0.22007369027E+04 0.  0.
        3    1    3    3  502    0 -0.30906806844E+03 -0.48043428046E+03  0.90381782755E+03  0.10692178657E+04  0.10100000352E+00 0. -1.
       -3    1    3    3    0  502  0.30906806844E+03  0.48043428046E+03 -0.97818156594E+03  0.11327750681E+04  0.10100000352E+00 0.  1.
</event>
<event>
 5   0  0.1146827E-06  0.2199644E+04  0.7818609E-02  0.8518576E-01
        1   -1    0    0  501    0  0.00000000000E+00  0.00000000000E+00  0.83424841760E+03  0.83424841761E+03  0.50400001928E-02 0.  1.
       -1   -1    0    0    0  501  0.00000000000E+00  0.00000000000E+00 -0.14499385857E+04  0.14499385857E+04  0.50400001928E-02 0. -1.
    10030    2    1    2    0    0  0.00000000000E+00  0.00000000000E+00 -0.61569016814E+03  0.22841870034E+04  0.21996444902E+04 0.  0.
        4    1    3    3  502    0 -0.53786945159E+01  0.14971215764E+03  0.82360304268E+03  0.83711782045E+03  0.12699999809E+01 0.  1.
       -4    1    3    3    0  502  0.53786945159E+01 -0.14971215764E+03 -0.14392932108E+04  0.14470691829E+04  0.12699999809E+01 0. -1.
</event>
<event>
 5   0  0.2532239E-06  0.2200148E+04  0.7818609E-02  0.8518367E-01
        2   -1    0    0  501    0  0.00000000000E+00  0.00000000000E+00  0.10443169485E+04  0.10443169485E+04  0.25500000920E-02 0. -1.
       -2   -1    0    0    0  501  0.00000000000E+00  0.00000000000E+00 -0.11588077020E+04  0.11588077020E+04  0.25500000920E-02 0.  1.
    10030    2    1    2    0    0  0.00000000000E+00  0.00000000000E+00 -0.11449075353E+03  0.22031246505E+04  0.22001477435E+04 0.  0.
        3    1    3    3  502    0  0.95986365213E+03 -0.82875545911E+02 -0.58895906162E+03  0.11291941256E+04  0.10100000352E+00 0.  1.
       -3    1    3    3    0  502 -0.95986365213E+03  0.82875545911E+02  0.47446830809E+03  0.10739305249E+04  0.10100000352E+00 0. -1.
</event>
<event>
 5   0  0.1082209E-06  0.2201945E+04  0.7818609E-02  0.8517619E-01
       -1   -1    0    0    0  501  0.00000000000E+00  0.00000000000E+00  0.10019068452E+04  0.10019068452E+04  0.50400001928E-02 0. -1.
        1   -1    0    0  501    0  0.00000000000E+00  0.00000000000E+00 -0.12098338115E+04  0.12098338115E+04  0.50400001928E-02 0.  1.
    10030    2    1    2    0    0  0.00000000000E+00  0.00000000000E+00 -0.20792696628E+03  0.22117406567E+04  0.22019453011E+04 0.  0.
        2    1    3    3  502    0  0.21629968209E+03  0.86029885078E+03 -0.75896951228E+03  0.11674478086E+04  0.25500000920E-02 0.  1.
       -2    1    3    3    0  502 -0.21629968209E+03 -0.86029885078E+03  0.55104254600E+03  0.10442928481E+04  0.25500000920E-02 0. -1.
</event>
<event>
 5   0  0.8905000E-07  0.2201246E+04  0.7818609E-02  0.8517910E-01
        4   -1    0    0  501    0  0.00000000000E+00  0.00000000000E+00  0.11252464045E+04  0.11252471212E+04  0.12699999809E+01 0.  1.
       -4   -1    0    0    0  501  0.00000000000E+00  0.00000000000E+00 -0.10765367388E+04  0.10765374879E+04  0.12699999809E+01 0. -1.
    10030    2    1    2    0    0  0.00000000000E+00  0.00000000000E+00  0.48709665731E+02  0.22017846091E+04  0.22012457458E+04 0.  0.
        2    1    3    3  502    0 -0.68458218364E+02 -0.26815388051E+03  0.10898750488E+04  0.11244646074E+04  0.25500000920E-02 0.  1.
       -2    1    3    3    0  502  0.68458218364E+02  0.26815388051E+03 -0.10411653830E+04  0.10773200017E+04  0.25500000920E-02 0. -1.
</event>
<event>
 5   0  0.2532239E-06  0.2200086E+04  0.7818609E-02  0.8518392E-01
       -2   -1    0    0    0  501  0.00000000000E+00  0.00000000000E+00  0.79236937320E+03  0.79236937321E+03  0.25500000920E-02 0.  1.
        2   -1    0    0  501    0  0.00000000000E+00  0.00000000000E+00 -0.15271849499E+04  0.15271849499E+04  0.25500000920E-02 0. -1.
    10030    2    1    2    0    0  0.00000000000E+00  0.00000000000E+00 -0.73481557668E+03  0.23195543231E+04  0.22000859815E+04 0.  0.
        3    1    3    3  502    0  0.68604665739E+03  0.64161400135E+03  0.23618892120E+03  0.96856272876E+03  0.10100000352E+00 0.  1.
       -3    1    3    3    0  502 -0.68604665739E+03 -0.64161400135E+03 -0.97100449788E+03  0.13509915943E+04  0.10100000352E+00 0. -1.
</event>
<event>
 5   0  0.1082209E-06  0.2192786E+04  0.7818609E-02  0.8521437E-01
        1   -1    0    0  501    0  0.00000000000E+00  0.00000000000E+00  0.17543097784E+04  0.17543097784E+04  0.50400001928E-02 0.  1.
       -1   -1    0    0    0  501  0.00000000000E+00  0.00000000000E+00 -0.68521370815E+03  0.68521370817E+03  0.50400001928E-02 0. -1.
    10030    2    1    2    0    0  0.00000000000E+00  0.00000000000E+00  0.10690960702E+04  0.24395234866E+04  0.21927855422E+04 0.  0.
        2    1    3    3  502    0 -0.42801213349E+03  0.44825446616E+03  0.15407204278E+04  0.16607064429E+04  0.25500000920E-02 0.  1.
       -2    1    3    3    0  502  0.42801213349E+03 -0.44825446616E+03 -0.47162435756E+03  0.77881704366E+03  0.25500000920E-02 0. -1.
</event>
<event>
 5   0  0.1082209E-06  0.2203428E+04  0.7818609E-02  0.8517003E-01
       -1   -1    0    0    0  501  0.00000000000E+00  0.00000000000E+00  0.58015234992E+03  0.58015234994E+03  0.50400001928E-02 0. -1.
        1   -1    0    0  501    0  0.00000000000E+00  0.00000000000E+00 -0.20921632254E+04  0.20921632254E+04  0.50400001928E-02 0.  1.
    10030    2    1    2    0    0  0.00000000000E+00  0.00000000000E+00 -0.15120108755E+04  0.26723155753E+04  0.22034277040E+04 0.  0.
        2    1    3    3  502    0  0.42994312251E+02  0.52263846256E+03 -0.19310908897E+04  0.20010276104E+04  0.25500000920E-02 0.  1.
       -2    1    3    3    0  502 -0.42994312251E+02 -0.52263846256E+03  0.41908001426E+03  0.67128796488E+03  0.25500000920E-02 0. -1.
</event>
<event>
 5   0  0.1137869E-06  0.2200073E+04  0.7818609E-02  0.8518398E-01
       -1   -1    0    0    0  501  0.00000000000E+00  0.00000000000E+00  0.10289171799E+04  0.10289171799E+04  0.50400001928E-02 0.  1.
        1   -1    0    0  501    0  0.00000000000E+00  0.00000000000E+00 -0.11760716718E+04  0.11760716718E+04  0.50400001928E-02 0. -1.
    10030    2    1    2    0    0  0.00000000000E+00  0.00000000000E+00 -0.14715449195E+03  0.22049888517E+04  0.22000730423E+04 0.  0.
        5    1    3    3  502    0 -0.13101898868E+03  0.63190610464E+03  0.81924819966E+03  0.10429098730E+04  0.46999998093E+01 0.  1.
       -5    1    3    3    0  502  0.13101898868E+03 -0.63190610464E+03 -0.96640269161E+03  0.11620789787E+04  0.46999998093E+01 0. -1.
</event>
<event>
 5   0  0.2606154E-06  0.2197373E+04  0.7818609E-02  0.8519522E-01
       -2   -1    0    0    0  501  0.00000000000E+00  0.00000000000E+00  0.10267252464E+04  0.10267252464E+04  0.25500000920E-02 0. -1.
        2   -1    0    0  501    0  0.00000000000E+00  0.00000000000E+00 -0.11756910280E+04  0.11756910280E+04  0.25500000920E-02 0.  1.
    10030    2    1    2    0    0  0.00000000000E+00  0.00000000000E+00 -0.14896578160E+03  0.22024162744E+04  0.21973726680E+04 0.  0.
        2    1    3    3  502    0 -0.69036097347E+03  0.81738994694E+03 -0.32483021518E+03  0.11181409874E+04  0.25500000920E-02 0.  1.
       -2    1    3    3    0  502  0.69036097347E+03 -0.81738994694E+03  0.17586443358E+03  0.10842752870E+04  0.25500000920E-02 0. -1.
</event>
<event>
 5   0  0.2606154E-06  0.2200278E+04  0.7818609E-02  0.8518312E-01
        2   -1    0    0  501    0  0.00000000000E+00  0.00000000000E+00  0.23373699079E+04  0.23373699079E+04  0.25500000920E-02 0.  1.
       -2   -1    0    0    0  501  0.00000000000E+00  0.00000000000E+00 -0.51780673955E+03  0.51780673956E+03  0.25500000920E-02 0. -1.
    10030    2    1    2    0    0  0.00000000000E+00  0.00000000000E+00  0.18195631683E+04  0.28551766474E+04  0.22002780653E+04 0.  0.
        2    1    3    3  502    0  0.51948608708E+02  0.55446715875E+03  0.21409529380E+04  0.22121961873E+04  0.25500000920E-02 0.  1.
       -2    1    3    3    0  502 -0.51948608708E+02 -0.55446715875E+03 -0.32138976971E+03  0.64298046017E+03  0.25500000920E-02 0. -1.
</event>
<event>
 5   0  0.1144271E-06  0.2200553E+04  0.7818609E-02  0.8518198E-01
        1   -1    0    0  501    0  0.00000000000E+00  0.00000000000E+00  0.15910104128E+04  0.15910104128E+04  0.50400001928E-02 0.  1.
       -1   -1    0    0    0  501  0.00000000000E+00  0.00000000000E+00 -0.76090520031E+03  0.76090520032E+03  0.50400001928E-02 0. -1.
    10030    2    1    2    0    0  0.00000000000E+00  0.00000000000E+00  0.83010521247E+03  0.23519156131E+04  0.22005527459E+04 0.  0.
        3    1    3    3  502    0  0.10263978241E+03 -0.20473820346E+03 -0.73514742798E+03  0.76999636880E+03  0.10100000352E+00 0. -1.
       -3    1    3    3    0  502 -0.10263978241E+03  0.20473820346E+03  0.15652526405E+04  0.15819192443E+04  0.10100000352E+00 0.  1.
</event>
<event>
 5   0  0.2524749E-06  0.2196835E+04  0.7818609E-02  0.8519747E-01
        2   -1    0    0  501    0  0.00000000000E+00  0.00000000000E+00  0.19514398357E+04  0.19514398357E+04  0.25500000920E-02 0. -1.
       -2   -1    0    0    0  501  0.00000000000E+00  0.00000000000E+00 -0.61827218387E+03  0.61827218388E+03  0.25500000920E-02 0.  1.
    10030    2    1    2    0    0  0.00000000000E+00  0.00000000000E+00  0.13331676518E+04  0.25697120196E+04  0.21968349678E+04 0.  0.
        4    1    3    3  502    0 -0.10395878094E+04 -0.62344386984E+02  0.10749695601E+04  0.14967266965E+04  0.12699999809E+01 0.  1.
       -4    1    3    3    0  502  0.10395878094E+04  0.62344386984E+02  0.25819809175E+03  0.10729853231E+04  0.12699999809E+01 0. -1.
</event>
<event>
 5   0  0.1107101E-06  0.2202592E+04  0.7818609E-02  0.8517350E-01
       -1   -1    0    0    0  501  0.00000000000E+00  0.00000000000E+00  0.59740193446E+03  0.59740193448E+03  0.50400001928E-02 0.  1.
        1   -1    0    0  501    0  0.00000000000E+00  0.00000000000E+00 -0.20302118440E+04  0.20302118440E+04  0.50400001928E-02 0. -1.
    10030    2    1    2    0    0  0.00000000000E+00  0.00000000000E+00 -0.14328099095E+04  0.26276137785E+04  0.22025916399E+04 0.  0.
        1    1    3    3  502    0 -0.99402191354E+03 -0.36546627285E+03 -0.35612309518E+03  0.11173490145E+04  0.50400001928E-02 0.  1.
       -1    1    3    3    0  502  0.99402191354E+03  0.36546627285E+03 -0.10766868144E+04  0.15102647640E+04  0.50400001928E-02 0. -1.
</event>
<event>
 5   0  0.2606154E-06  0.2199265E+04  0.7818609E-02  0.8518734E-01
        2   -1    0    0  501    0  0.00000000000E+00  0.00000000000E+00  0.22998955314E+04  0.22998955314E+04  0.25500000920E-02 0.  1.
       -2   -1    0    0    0  501  0.00000000000E+00  0.00000000000E+00 -0.52575936010E+03  0.52575936011E+03  0.25500000920E-02 0. -1.
    10030    2    1    2    0    0  0.00000000000E+00  0.00000000000E+00  0.17741361713E+04  0.28256548915E+04  0.21992649707E+04 0.  0.
        2    1    3    3  502    0 -0.18029224057E+03  0.10602930043E+04  0.11813588488E+04  0.15976029785E+04  0.25500000920E-02 0.  1.
       -2    1    3    3    0  502  0.18029224057E+03 -0.10602930043E+04  0.59277732245E+03  0.12280519130E+04  0.25500000920E-02 0. -1.
</event>
<event>
 5   0  0.1144271E-06  0.2199042E+04  0.7818609E-02  0.8518827E-01
        1   -1    0    0  501    0  0.00000000000E+00  0.00000000000E+00  0.13079613113E+04  0.13079613113E+04  0.50400001928E-02 0. -1.
       -1   -1    0    0    0  501  0.00000000000E+00  0.00000000000E+00 -0.92429858677E+03  0.92429858678E+03  0.50400001928E-02 0.  1.
    10030    2    1    2    0    0  0.00000000000E+00  0.00000000000E+00  0.38366272452E+03  0.22322598981E+04  0.21990423294E+04 0.  0.
        3    1    3    3  502    0  0.32292751993E+03  0.29369074846E+03  0.12162384361E+04  0.12921967275E+04  0.10100000352E+00 0. -1.
       -3    1    3    3    0  502 -0.32292751993E+03 -0.29369074846E+03 -0.83257571163E+03  0.94006317056E+03  0.10100000352E+00 0.  1.
</event>
<event>
 5   0  0.2581058E-06  0.2199537E+04  0.7818609E-02  0.8518621E-01
        2   -1    0    0  501    0  0.00000000000E+00  0.00000000000E+00  0.16022870141E+04  0.16022870141E+04  0.25500000920E-02 0.  1.
       -2   -1    0    0    0  501  0.00000000000E+00  0.00000000000E+00 -0.75485256764E+03  0.75485256764E+03  0.25500000920E-02 0. -1.
    10030    2    1    2    0    0  0.00000000000E+00  0.00000000000E+00  0.84743444641E+03  0.23571395817E+04  0.21995367391E+04 0.  0.
        1    1    3    3  502    0  0.43427825539E+03  0.94519556238E+03  0.41063337193E+02  0.10409987761E+04  0.50400001928E-02 0.  1.
       -1    1    3    3    0  502 -0.43427825539E+03 -0.94519556238E+03  0.80637110922E+03  0.13161408056E+04  0.50400001928E-02 0. -1.
</event>
<event>
 5   0  0.8905000E-07  0.2199947E+04  0.7818609E-02  0.8518450E-01
       -4   -1    0    0    0  501  0.00000000000E+00  0.00000000000E+00  0.15107891085E+04  0.15107896423E+04  0.12699999809E+01 0. -1.
        4   -1    0    0  501    0  0.00000000000E+00  0.00000000000E+00 -0.80086616883E+03  0.80086717580E+03  0.12699999809E+01 0.  1.
    10030    2    1    2    0    0  0.00000000000E+00  0.00000000000E+00  0.70992293967E+03  0.23116568181E+04  0.21999469685E+04 0.  0.
        2    1    3    3  502    0 -0.68488307065E+03 -0.21885136287E+03  0.12296869737E+04  0.14244615800E+04  0.25500000920E-02 0. -1.
       -2    1    3    3    0  502  0.68488307065E+03  0.21885136287E+03 -0.51976403403E+03  0.88719523814E+03  0.25500000920E-02 0.  1.
</event>
<event>
 5   0  0.1107101E-06  0.2184347E+04  0.7818609E-02  0.8524972E-01
        1   -1    0    0  501    0  0.00000000000E+00  0.00000000000E+00  0.12232015094E+04  0.12232015094E+04  0.50400001928E-02 0. -1.
       -1   -1    0    0    0  501  0.00000000000E+00  0.00000000000E+00 -0.97518074079E+03  0.97518074081E+03  0.50400001928E-02 0.  1.
    10030    2    1    2    0    0  0.00000000000E+00  0.00000000000E+00  0.24802076863E+03  0.21983822502E+04  0.21843466338E+04 0.  0.
        1    1    3    3  502    0  0.80457332750E+03 -0.28402175888E+02 -0.61876823558E+03  0.10153910834E+04  0.50400001928E-02 0.  1.
       -1    1    3    3    0  502 -0.80457332750E+03  0.28402175888E+02  0.86678900421E+03  0.11829911668E+04  0.50400001928E-02 0. -1.
</event>
<event>
 5   0  0.1146827E-06  0.2198975E+04  0.7818609E-02  0.8518855E-01
        1   -1    0    0  501    0  0.00000000000E+00  0.00000000000E+00  0.13545573508E+04  0.13545573508E+04  0.50400001928E-02 0. -1.
       -1   -1    0    0    0  501  0.00000000000E+00  0.00000000000E+00 -0.89244881239E+03  0.89244881240E+03  0.50400001928E-02 0.  1.
    10030    2    1    2    0    0  0.00000000000E+00  0.00000000000E+00  0.46210853838E+03  0.22470061632E+04  0.21989753059E+04 0.  0.
        4    1    3    3  502    0 -0.26719951686E+03  0.91505897649E+03  0.79087374328E+03  0.12386328766E+04  0.12699999809E+01 0.  1.
       -4    1    3    3    0  502  0.26719951686E+03 -0.91505897649E+03 -0.32876520490E+03  0.10083732866E+04  0.12699999809E+01 0. -1.
</event>
<event>
 5   0  0.1146827E-06  0.2200614E+04  0.7818609E-02  0.8518173E-01
        1   -1    0    0  501    0  0.00000000000E+00  0.00000000000E+00  0.18620190716E+04  0.18620190716E+04  0.50400001928E-02 0. -1.
       -1   -1    0    0    0  501  0.00000000000E+00  0.00000000000E+00 -0.65019497865E+03  0.65019497867E+03  0.50400001928E-02 0.  1.
    10030    2    1    2    0    0  0.00000000000E+00  0.00000000000E+00  0.12118240929E+04  0.25122140503E+04  0.22006139603E+04 0.  0.
        4    1    3    3  502    0 -0.33778212447E+03 -0.96557628714E+03  0.14326308263E+03  0.10329376814E+04  0.12699999809E+01 0.  1.
       -4    1    3    3    0  502  0.33778212447E+03  0.96557628714E+03  0.10685610103E+04  0.14792763689E+04  0.12699999809E+01 0. -1.
</event>
<event>
 5   0  0.2606154E-06  0.2203487E+04  0.7818609E-02  0.8516978E-01
       -2   -1    0    0    0  501  0.00000000000E+00  0.00000000000E+00  0.87600298179E+03  0.87600298180E+03  0.25500000920E-02 0. -1.
        2   -1    0    0  501    0  0.00000000000E+00  0.00000000000E+00 -0.13856561968E+04  0.13856561968E+04  0.25500000920E-02 0.  1.
    10030    2    1    2    0    0  0.00000000000E+00  0.00000000000E+00 -0.50965321499E+03  0.22616591786E+04  0.22034872000E+04 0.  0.
        2    1    3    3  502    0  0.10466199991E+04  0.31536489710E+03 -0.39619627542E+03  0.11626865138E+04  0.25500000920E-02 0.  1.
       -2    1    3    3    0  502 -0.10466199991E+04 -0.31536489710E+03 -0.11345693957E+03  0.10989726648E+04  0.25500000920E-02 0. -1.
</event>
<event>
 5   0  0.2606154E-06  0.2198259E+04  0.7818609E-02  0.8519153E-01
       -2   -1    0    0    0  501  0.00000000000E+00  0.00000000000E+00  0.80606230326E+03  0.80606230326E+03  0.25500000920E-02 0. -1.
        2   -1    0    0  501    0  0.00000000000E+00  0.00000000000E+00 -0.14987494944E+04  0.14987494944E+04  0.25500000920E-02 0.  1.
    10030    2    1    2    0    0  0.00000000000E+00  0.00000000000E+00 -0.69268719114E+03  0.23048117977E+04  0.21982588287E+04 0.  0.
        2    1    3    3  502    0  0.59874889211E+02 -0.33339180292E+03 -0.14426610308E+04  0.14818926906E+04  0.25500000920E-02 0.  1.
       -2    1    3    3    0  502 -0.59874889211E+02  0.33339180292E+03  0.74997383966E+03  0.82291910708E+03  0.25500000920E-02 0. -1.
</event>
<event>
 5   0  0.2524749E-06  0.2199859E+04  0.7818609E-02  0.8518487E-01
        2   -1    0    0  501    0  0.00000000000E+00  0.00000000000E+00  0.97098280511E+03  0.97098280511E+03  0.25500000920E-02 0. -1.
       -2   -1    0    0    0  501  0.00000000000E+00  0.00000000000E+00 -0.12459999444E+04  0.12459999444E+04  0.25500000920E-02 0.  1.
    10030    2    1    2    0    0  0.00000000000E+00  0.00000000000E+00 -0.27501713929E+03  0.22169827495E+04  0.21998586511E+04 0.  0.
        4    1    3    3  502    0 -0.16368691806E+03  0.44391640350E+03 -0.11382071689E+04  0.12326282297E+04  0.12699999809E+01 0.  1.
       -4    1    3    3    0  502  0.16368691806E+03 -0.44391640350E+03  0.86319002964E+03  0.98435451978E+03  0.12699999809E+01 0. -1.
</event>
<event>
 5   0  0.2556869E-06  0.2204213E+04  0.7818609E-02  0.8516677E-01
        2   -1    0    0  501    0  0.00000000000E+00  0.00000000000E+00  0.21115044150E+04  0.21115044150E+04  0.25500000920E-02 0.  1.
       -2   -1    0    0    0  501  0.00000000000E+00  0.00000000000E+00 -0.57524811551E+03  0.57524811552E+03  0.25500000920E-02 0. -1.
    10030    2    1    2    0    0  0.00000000000E+00  0.00000000000E+00  0.15362562995E+04  0.26867525306E+04  0.22042131799E+04 0.  0.
        5    1    3    3  502    0 -0.10918269198E+03 -0.10641657203E+04  0.44506389679E+03  0.11586515881E+04  0.46999998093E+01 0. -1.
       -5    1    3    3    0  502  0.10918269198E+03  0.10641657203E+04  0.10911924027E+04  0.15281009424E+04  0.46999998093E+01 0.  1.
</event>
<event>
 5   0  0.2606154E-06  0.2200440E+04  0.7818609E-02  0.8518245E-01
       -2   -1    0    0    0  501  0.00000000000E+00  0.00000000000E+00  0.76555993265E+03  0.76555993266E+03  0.25500000920E-02 0.  1.
        2   -1    0    0  501    0  0.00000000000E+00  0.00000000000E+00 -0.15811752699E+04  0.15811752699E+04  0.25500000920E-02 0. -1.
    10030    2    1    2    0    0  0.00000000000E+00  0.00000000000E+00 -0.81561533727E+03  0.23467352026E+04  0.22004403497E+04 0.  0.
        2    1    3    3  502    0 -0.11207455781E+03 -0.10923392218E+04 -0.33454748115E+03  0.11479057884E+04  0.25500000920E-02 0. -1.
       -2    1    3    3    0  502  0.11207455781E+03  0.10923392218E+04 -0.48106785612E+03  0.11988294141E+04  0.25500000920E-02 0.  1.
</event>
<event>
 5   0  0.2581058E-06  0.2199798E+04  0.7818609E-02  0.8518512E-01
        2   -1    0    0  501    0  0.00000000000E+00  0.00000000000E+00  0.21807866341E+04  0.21807866341E+04  0.25500000920E-02 0. -1.
       -2   -1    0    0    0  501  0.00000000000E+00  0.00000000000E+00 -0.55474357641E+03  0.55474357641E+03  0.25500000920E-02 0.  1.
    10030    2    1    2    0    0  0.00000000000E+00  0.00000000000E+00  0.16260430577E+04  0.27355302105E+04  0.21997976059E+04 0.  0.
        1    1    3    3  502    0 -0.41749621989E+03  0.34438593413E+03 -0.37770845629E+03  0.65997609292E+03  0.50400001928E-02 0.  1.
       -1    1    3    3    0  502  0.41749621989E+03 -0.34438593413E+03  0.20037515140E+04  0.20755541176E+04  0.50400001928E-02 0. -1.
</event>
<event>
 5   0  0.2524749E-06  0.2199807E+04  0.7818609E-02  0.8518508E-01
        2   -1    0    0  501    0  0.00000000000E+00  0.00000000000E+00  0.75480446612E+03  0.75480446613E+03  0.25500000920E-02 0.  1.
       -2   -1    0    0    0  501  0.00000000000E+00  0.00000000000E+00 -0.16027827801E+04  0.16027827801E+04  0.25500000920E-02 0. -1.
    10030    2    1    2    0    0  0.00000000000E+00  0.00000000000E+00 -0.84797831396E+03  0.23575872462E+04  0.21998069012E+04 0.  0.
        4    1    3    3  502    0 -0.77239161306E+03  0.48785131566E+03  0.23247894938E+03  0.94267480337E+03  0.12699999809E+01 0.  1.
       -4    1    3    3    0  502  0.77239161306E+03 -0.48785131566E+03 -0.10804572633E+04  0.14149124428E+04  0.12699999809E+01 0. -1.
</event>
<event>
 5   0  0.2524749E-06  0.2199607E+04  0.7818609E-02  0.8518592E-01
        2   -1    0    0  501    0  0.00000000000E+00  0.00000000000E+00  0.16615008461E+04  0.16615008461E+04  0.25500000920E-02 0. -1.
       -2   -1    0    0    0  501  0.00000000000E+00  0.00000000000E+00 -0.72799680345E+03  0.72799680346E+03  0.25500000920E-02 0.  1.
    10030    2    1    2    0    0  0.00000000000E+00  0.00000000000E+00  0.93350404262E+03  0.23894976495E+04  0.21996066056E+04 0.  0.
        4    1    3    3  502    0 -0.24870871414E+03 -0.85442005108E+03 -0.23531953067E+03  0.92047082658E+03  0.12699999809E+01 0.  1.
       -4    1    3    3    0  502  0.24870871414E+03  0.85442005108E+03  0.11688235733E+04  0.14690268229E+04  0.12699999809E+01 0. -1.
</event>
<event>
 5   0  0.2556869E-06  0.2199868E+04  0.7818609E-02  0.8518483E-01
        2   -1    0    0  501    0  0.00000000000E+00  0.00000000000E+00  0.22336476389E+04  0.22336476389E+04  0.25500000920E-02 0. -1.
       -2   -1    0    0    0  501  0.00000000000E+00  0.00000000000E+00 -0.54164958469E+03  0.54164958469E+03  0.25500000920E-02 0.  1.
    10030    2    1    2    0    0  0.00000000000E+00  0.00000000000E+00  0.16919980542E+04  0.27752972236E+04  0.21998675560E+04 0.  0.
        5    1    3    3  502    0 -0.65114161684E+03 -0.37591839062E+03  0.18588260282E+04  0.20051324981E+04  0.46999998093E+01 0. -1.
       -5    1    3    3    0  502  0.65114161684E+03  0.37591839062E+03 -0.16682797399E+03  0.77016472556E+03  0.46999998093E+01 0.  1.
</event>
<event>
 5   0  0.1146827E-06  0.2199592E+04  0.7818609E-02  0.8518598E-01
        1   -1    0    0  501    0  0.00000000000E+00  0.00000000000E+00  0.19358154459E+04  0.19358154459E+04  0.50400001928E-02 0.  1.
       -1   -1    0    0    0  501  0.00000000000E+00  0.00000000000E+00 -0.62482802343E+03  0.62482802345E+03  0.50400001928E-02 0. -1.
    10030    2    1    2    0    0  0.00000000000E+00  0.00000000000E+00  0.13109874225E+04  0.25606434694E+04  0.21995924521E+04 0.  0.
        4    1    3    3  502    0 -0.36099044423E+03 -0.79477098072E+03  0.14343186654E+04  0.16790612435E+04  0.12699999809E+01 0.  1.
       -4    1    3    3    0  502  0.36099044423E+03  0.79477098072E+03 -0.12333124291E+03  0.88158222588E+03  0.12699999809E+01 0. -1.
</event>
<event>
 5   0  0.2556869E-06  0.2199266E+04  0.7818609E-02  0.8518734E-01
        2   -1    0    0  501    0  0.00000000000E+00  0.00000000000E+00  0.14867027430E+04  0.14867027430E+04  0.25500000920E-02 0.  1.
       -2   -1    0    0    0  501  0.00000000000E+00  0.00000000000E+00 -0.81333849070E+03  0.81333849070E+03  0.25500000920E-02 0. -1.
    10030    2    1    2    0    0  0.00000000000E+00  0.00000000000E+00  0.67336425230E+03  0.23000412337E+04  0.21992658458E+04 0.  0.
        5    1    3    3  502    0 -0.45931908536E+03  0.99529722563E+03  0.42773406904E+03  0.11766771492E+04  0.46999998093E+01 0.  1.
       -5    1    3    3    0  502  0.45931908536E+03 -0.99529722563E+03  0.24563018326E+03  0.11233640845E+04  0.46999998093E+01 0. -1.
</event>
<event>
 5   0  0.2532239E-06  0.2200123E+04  0.7818609E-02  0.8518377E-01
        2   -1    0    0  501    0  0.00000000000E+00  0.00000000000E+00  0.26147284277E+04  0.26147284277E+04  0.25500000920E-02 0. -1.
       -2   -1    0    0    0  501  0.00000000000E+00  0.00000000000E+00 -0.46281475509E+03  0.46281475509E+03  0.25500000920E-02 0.  1.
    10030    2    1    2    0    0  0.00000000000E+00  0.00000000000E+00  0.21519136726E+04  0.30775431828E+04  0.22001226301E+04 0.  0.
        3    1    3    3  502    0  0.39491464442E+03 -0.25188775776E+02  0.25117218504E+04  0.25427030331E+04  0.10100000352E+00 0. -1.
       -3    1    3    3    0  502 -0.39491464442E+03  0.25188775776E+02 -0.35980817771E+03  0.53484014972E+03  0.10100000352E+00 0.  1.
</event>
<event>
 5   0  0.8905000E-07  0.2199721E+04  0.7818609E-02  0.8518544E-01
        4   -1    0    0  501    0  0.00000000000E+00  0.00000000000E+00  0.10375162718E+04  0.10375170491E+04  0.12699999809E+01 0.  1.
       -4   -1    0    0    0  501  0.00000000000E+00  0.00000000000E+00 -0.11659497194E+04  0.11659504110E+04  0.12699999809E+01 0. -1.
    10030    2    1    2    0    0  0.00000000000E+00  0.00000000000E+00 -0.12843344760E+03  0.22034674601E+04  0.21997212772E+04 0.  0.
        5    1    3    3  502    0  0.22682757870E+03 -0.87101668846E+03  0.56895984009E+03  0.10648277850E+04  0.46999998093E+01 0.  1.
       -5    1    3    3    0  502 -0.22682757870E+03  0.87101668846E+03 -0.69739328769E+03  0.11386396751E+04  0.46999998093E+01 0. -1.
</event>
<event>
 5   0  0.1107101E-06  0.2198931E+04  0.7818609E-02  0.8518873E-01
       -1   -1    0    0    0  501  0.00000000000E+00  0.00000000000E+00  0.92607955009E+03  0.92607955010E+03  0.50400001928E-02 0. -1.
        1   -1    0    0  501    0  0.00000000000E+00  0.00000000000E+00 -0.13053139080E+04  0.13053139080E+04  0.50400001928E-02 0.  1.
    10030    2    1    2    0    0  0.00000000000E+00  0.00000000000E+00 -0.37923435795E+03  0.22313934581E+04  0.21989311192E+04 0.  0.
        1    1    3    3  502    0 -0.61718876837E+02  0.18262346057E+03 -0.12880311985E+04  0.13023766415E+04  0.50400001928E-02 0.  1.
       -1    1    3    3    0  502  0.61718876837E+02 -0.18262346057E+03  0.90879684055E+03  0.92901681660E+03  0.50400001928E-02 0. -1.
</event>
<event>
 5   0  0.1137869E-06  0.2200527E+04  0.7818609E-02  0.8518209E-01
        1   -1    0    0  501    0  0.00000000000E+00  0.00000000000E+00  0.26412753383E+04  0.26412753383E+04  0.50400001928E-02 0. -1.
       -1   -1    0    0    0  501  0.00000000000E+00  0.00000000000E+00 -0.45833141242E+03  0.45833141244E+03  0.50400001928E-02 0.  1.
    10030    2    1    2    0    0  0.00000000000E+00  0.00000000000E+00  0.21829439259E+04  0.30996067507E+04  0.22005267155E+04 0.  0.
        5    1    3    3  502    0 -0.61432246582E+03 -0.88140905218E+03  0.14256438796E+04  0.17851488932E+04  0.46999998093E+01 0. -1.
       -5    1    3    3    0  502  0.61432246582E+03  0.88140905218E+03  0.75730004625E+03  0.13144578576E+04  0.46999998093E+01 0.  1.
</event>
<event>
 5   0  0.1137869E-06  0.2199950E+04  0.7818609E-02  0.8518449E-01
        1   -1    0    0  501    0  0.00000000000E+00  0.00000000000E+00  0.74232009426E+03  0.74232009428E+03  0.50400001928E-02 0. -1.
       -1   -1    0    0    0  501  0.00000000000E+00  0.00000000000E+00 -0.16299510920E+04  0.16299510920E+04  0.50400001928E-02 0.  1.
    10030    2    1    2    0    0  0.00000000000E+00  0.00000000000E+00 -0.88763099772E+03  0.23722711863E+04  0.21999504070E+04 0.  0.
        5    1    3    3  502    0 -0.27401797561E+03 -0.38195787882E+02  0.70417672215E+03  0.75659217230E+03  0.46999998093E+01 0. -1.
       -5    1    3    3    0  502  0.27401797561E+03  0.38195787882E+02 -0.15918077199E+04  0.16156790140E+04  0.46999998093E+01 0.  1.
</event>
<event>
 5   0  0.2581058E-06  0.2199247E+04  0.7818609E-02  0.8518742E-01
       -2   -1    0    0    0  501  0.00000000000E+00  0.00000000000E+00  0.71791451193E+03  0.71791451194E+03  0.25500000920E-02 0. -1.
        2   -1    0    0  501    0  0.00000000000E+00  0.00000000000E+00 -0.16842833410E+04  0.16842833410E+04  0.25500000920E-02 0.  1.
    10030    2    1    2    0    0  0.00000000000E+00  0.00000000000E+00 -0.96636882909E+03  0.24021978530E+04  0.21992466462E+04 0.  0.
        1    1    3    3  502    0 -0.54087051358E+03  0.70372508404E+03 -0.11922442713E+04  0.14863432675E+04  0.50400001928E-02 0.  1.
       -1    1    3    3    0  502  0.54087051358E+03 -0.70372508404E+03  0.22587544217E+03  0.91585458549E+03  0.50400001928E-02 0. -1.
</event>
<event>
 5   0  0.2581058E-06  0.2200742E+04  0.7818609E-02  0.8518119E-01
        2   -1    0    0  501    0  0.00000000000E+00  0.00000000000E+00  0.19247352530E+04  0.19247352530E+04  0.25500000920E-02 0.  1.
       -2   -1    0    0    0  501  0.00000000000E+00  0.00000000000E+00 -0.62908180988E+03  0.62908180989E+03  0.25500000920E-02 0. -1.
    10030    2    1    2    0    0  0.00000000000E+00  0.00000000000E+00  0.12956534431E+04  0.25538170629E+04  0.22007416355E+04 0.  0.
        1    1    3    3  502    0  0.83740146182E+03  0.44093011105E+03 -0.36262614303E+01  0.94640040199E+03  0.50400001928E-02 0. -1.
       -1    1    3    3    0  502 -0.83740146182E+03 -0.44093011105E+03  0.12992797045E+04  0.16074166609E+04  0.50400001928E-02 0.  1.
</event>
<event>
 5   0  0.1146827E-06  0.2200332E+04  0.7818609E-02  0.8518290E-01
       -1   -1    0    0    0  501  0.00000000000E+00  0.00000000000E+00  0.76496460198E+03  0.76496460200E+03  0.50400001928E-02 0.  1.
        1   -1    0    0  501    0  0.00000000000E+00  0.00000000000E+00 -0.15822495408E+04  0.15822495408E+04  0.50400001928E-02 0. -1.
    10030    2    1    2    0    0  0.00000000000E+00  0.00000000000E+00 -0.81728493880E+03  0.23472141428E+04  0.22003316934E+04 0.  0.
        4    1    3    3  502    0 -0.82151116019E+03  0.61021669140E+03  0.22197390873E+02  0.10235913901E+04  0.12699999809E+01 0.  1.
       -4    1    3    3    0  502  0.82151116019E+03 -0.61021669140E+03 -0.83948232968E+03  0.13236227527E+04  0.12699999809E+01 0. -1.
</event>
<event>
 5   0  0.2606154E-06  0.2198133E+04  0.7818609E-02  0.8519206E-01
        2   -1    0    0  501    0  0.00000000000E+00  0.00000000000E+00  0.20749317776E+04  0.20749317776E+04  0.25500000920E-02 0. -1.
       -2   -1    0    0    0  501  0.00000000000E+00  0.00000000000E+00 -0.58216212138E+03  0.58216212139E+03  0.25500000920E-02 0.  1.
    10030    2    1    2    0    0  0.00000000000E+00  0.00000000000E+00  0.14927696562E+04  0.26570938990E+04  0.21981325578E+04 0.  0.
        2    1    3    3  502    0  0.71791180160E+03 -0.71063958636E+03  0.22290397699E+03  0.10344525893E+04  0.25500000920E-02 0.  1.
       -2    1    3    3    0  502 -0.71791180160E+03  0.71063958636E+03  0.12698656792E+04  0.16226413097E+04  0.25500000920E-02 0. -1.
</event>
<event>
 5   0  0.8905000E-07  0.2199765E+04  0.7818609E-02  0.8518526E-01
        3   -1    0    0  501    0  0.00000000000E+00  0.00000000000E+00  0.12747655783E+04  0.12747655823E+04  0.10100000352E+00 0. -1.
       -3   -1    0    0    0  501  0.00000000000E+00  0.00000000000E+00 -0.94899170016E+03  0.94899170553E+03  0.10100000352E+00 0.  1.
    10030    2    1    2    0    0  0.00000000000E+00  0.00000000000E+00  0.32577387814E+03  0.22237572878E+04  0.21997654092E+04 0.  0.
        1    1    3    3  502    0  0.73623804607E+03  0.30334476963E+03 -0.60412235478E+03  0.99951404658E+03  0.50400001928E-02 0.  1.
       -1    1    3    3    0  502 -0.73623804607E+03 -0.30334476963E+03  0.92989623292E+03  0.12242432413E+04  0.50400001928E-02 0. -1.
</event>
<event>
 5   0  0.2556869E-06  0.2199608E+04  0.7818609E-02  0.8518591E-01
        2   -1    0    0  501    0  0.00000000000E+00  0.00000000000E+00  0.17425387593E+04  0.17425387594E+04  0.25500000920E-02 0.  1.
       -2   -1    0    0    0  501  0.00000000000E+00  0.00000000000E+00 -0.69414180627E+03  0.69414180627E+03  0.25500000920E-02 0. -1.
    10030    2    1    2    0    0  0.00000000000E+00  0.00000000000E+00  0.10483969531E+04  0.24366805656E+04  0.21996081487E+04 0.  0.
        5    1    3    3  502    0  0.60832589466E+03  0.45422619106E+03  0.14056770472E+04  0.15976019147E+04  0.46999998093E+01 0.  1.
       -5    1    3    3    0  502 -0.60832589466E+03 -0.45422619106E+03 -0.35728009415E+03  0.83907865092E+03  0.46999998093E+01 0. -1.
</event>
<event>
 5   0  0.2556869E-06  0.2200244E+04  0.7818609E-02  0.8518327E-01
        2   -1    0    0  501    0  0.00000000000E+00  0.00000000000E+00  0.17526254640E+04  0.17526254641E+04  0.25500000920E-02 0.  1.
       -2   -1    0    0    0  501  0.00000000000E+00  0.00000000000E+00 -0.69054600916E+03  0.69054600916E+03  0.25500000920E-02 0. -1.
    10030    2    1    2    0    0  0.00000000000E+00  0.00000000000E+00  0.10620794549E+04  0.24431714732E+04  0.22002440953E+04 0.  0.
        5    1    3    3  502    0  0.61627513713E+02  0.29249368744E+03  0.17066563802E+04  0.17326420859E+04  0.46999998093E+01 0.  1.
       -5    1    3    3    0  502 -0.61627513713E+02 -0.29249368744E+03 -0.64457692531E+03  0.71052938734E+03  0.46999998093E+01 0. -1.
</event>
<event>
 5   0  0.1107101E-06  0.2199575E+04  0.7818609E-02  0.8518605E-01
       -1   -1    0    0    0  501  0.00000000000E+00  0.00000000000E+00  0.91966375554E+03  0.91966375555E+03  0.50400001928E-02 0.  1.
        1   -1    0    0  501    0  0.00000000000E+00  0.00000000000E+00 -0.13151897997E+04  0.13151897997E+04  0.50400001928E-02 0. -1.
    10030    2    1    2    0    0  0.00000000000E+00  0.00000000000E+00 -0.39552604420E+03  0.22348535553E+04  0.21995748594E+04 0.  0.
        1    1    3    3  502    0 -0.11824797344E+03  0.76584746187E+03  0.59515586857E+03  0.97709540271E+03  0.50400001928E-02 0.  1.
       -1    1    3    3    0  502  0.11824797344E+03 -0.76584746187E+03 -0.99068191277E+03  0.12577581526E+04  0.50400001928E-02 0. -1.
</event>
<event>
 5   0  0.1146827E-06  0.2198803E+04  0.7818609E-02  0.8518927E-01
        1   -1    0    0  501    0  0.00000000000E+00  0.00000000000E+00  0.10881655876E+04  0.10881655876E+04  0.50400001928E-02 0.  1.
       -1   -1    0    0    0  501  0.00000000000E+00  0.00000000000E+00 -0.11107533548E+04  0.11107533548E+04  0.50400001928E-02 0. -1.
    10030    2    1    2    0    0  0.00000000000E+00  0.00000000000E+00 -0.22587767188E+02  0.21989189425E+04  0.21988029262E+04 0.  0.
        4    1    3    3  502    0  0.56073006911E+02  0.54489523087E+03 -0.96456344486E+03  0.11092516607E+04  0.12699999809E+01 0. -1.
       -4    1    3    3    0  502 -0.56073006911E+02 -0.54489523087E+03  0.94197567768E+03  0.10896672818E+04  0.12699999809E+01 0.  1.
</event>
<event>
 5   0  0.2532239E-06  0.2199439E+04  0.7818609E-02  0.8518662E-01
        2   -1    0    0  501    0  0.00000000000E+00  0.00000000000E+00  0.13704790654E+04  0.13704790654E+04  0.25500000920E-02 0. -1.
       -2   -1    0    0    0  501  0.00000000000E+00  0.00000000000E+00 -0.88245253658E+03  0.88245253658E+03  0.25500000920E-02 0.  1.
    10030    2    1    2    0    0  0.00000000000E+00  0.00000000000E+00  0.48802652880E+03  0.22529316020E+04  0.21994387717E+04 0.  0.
        3    1    3    3  502    0 -0.77333665754E+03  0.19763252731E+03  0.10189001907E+04  0.12943205981E+04  0.10100000352E+00 0. -1.
       -3    1    3    3    0  502  0.77333665754E+03 -0.19763252731E+03 -0.53087366189E+03  0.95861100392E+03  0.10100000352E+00 0.  1.
</event>
<event>
 5   0  0.2581058E-06  0.2201260E+04  0.7818609E-02  0.8517904E-01
        2   -1    0    0  501    0  0.00000000000E+00  0.00000000000E+00  0.12254098851E+04  0.12254098851E+04  0.25500000920E-02 0. -1.
       -2   -1    0    0    0  501  0.00000000000E+00  0.00000000000E+00 -0.98855595683E+03  0.98855595683E+03  0.25500000920E-02 0.  1.
    10030    2    1    2    0    0  0.00000000000E+00  0.00000000000E+00  0.23685392827E+03  0.22139658419E+04  0.22012598588E+04 0.  0.
        1    1    3    3  502    0  0.90119224985E+03 -0.43969086487E+03 -0.33796614007E+03  0.10581571905E+04  0.50400001928E-02 0.  1.
       -1    1    3    3    0  502 -0.90119224985E+03  0.43969086487E+03  0.57482006834E+03  0.11558086515E+04  0.50400001928E-02 0. -1.
</event>
<event>
 5   0  0.2556869E-06  0.2199982E+04  0.7818609E-02  0.8518436E-01
       -2   -1    0    0    0  501  0.00000000000E+00  0.00000000000E+00  0.57738531909E+03  0.57738531910E+03  0.25500000920E-02 0.  1.
        2   -1    0    0  501    0  0.00000000000E+00  0.00000000000E+00 -0.20956195530E+04  0.20956195530E+04  0.25500000920E-02 0. -1.
    10030    2    1    2    0    0  0.00000000000E+00  0.00000000000E+00 -0.15182342339E+04  0.26730048721E+04  0.21999817857E+04 0.  0.
        5    1    3    3  502    0 -0.94719899496E+02  0.10370596767E+04 -0.32869871132E+03  0.10920300203E+04  0.46999998093E+01 0.  1.
       -5    1    3    3    0  502  0.94719899496E+02 -0.10370596767E+04 -0.11895355226E+04  0.15809748518E+04  0.46999998093E+01 0. -1.
</event>
<event>
 5   0  0.1082209E-06  0.2200324E+04  0.7818609E-02  0.8518293E-01
       -1   -1    0    0    0  501  0.00000000000E+00  0.00000000000E+00  0.51080854968E+03  0.51080854970E+03  0.50400001928E-02 0. -1.
        1   -1    0    0  501    0  0.00000000000E+00  0.00000000000E+00 -0.23694911401E+04  0.23694911401E+04  0.50400001928E-02 0.  1.
    10030    2    1    2    0    0  0.00000000000E+00  0.00000000000E+00 -0.18586825904E+04  0.28802996898E+04  0.22003239150E+04 0.  0.
        2    1    3    3  502    0  0.76862104925E+03  0.40978788455E+03 -0.49604044289E+02  0.87244769980E+03  0.25500000920E-02 0. -1.
       -2    1    3    3    0  502 -0.76862104925E+03 -0.40978788455E+03 -0.18090785461E+04  0.20078519900E+04  0.25500000920E-02 0.  1.
</event>
<event>
 5   0  0.2532239E-06  0.2199692E+04  0.7818609E-02  0.8518556E-01
        2   -1    0    0  501    0  0.00000000000E+00  0.00000000000E+00  0.95419196800E+03  0.95419196800E+03  0.25500000920E-02 0. -1.
       -2   -1    0    0    0  501  0.00000000000E+00  0.00000000000E+00 -0.12677340248E+04  0.12677340248E+04  0.25500000920E-02 0.  1.
    10030    2    1    2    0    0  0.00000000000E+00  0.00000000000E+00 -0.31354205685E+03  0.22219259929E+04  0.21996923640E+04 0.  0.
        3    1    3    3  502    0 -0.55683531612E+03 -0.94157379574E+02  0.79655354458E+03  0.97643675729E+03  0.10100000352E+00 0. -1.
       -3    1    3    3    0  502  0.55683531612E+03  0.94157379574E+02 -0.11100956014E+04  0.12454892356E+04  0.10100000352E+00 0.  1.
</event>
<event>
 5   0  0.2524749E-06  0.2199432E+04  0.7818609E-02  0.8518665E-01
       -2   -1    0    0    0  501  0.00000000000E+00  0.00000000000E+00  0.76829882824E+03  0.76829882824E+03  0.25500000920E-02 0.  1.
        2   -1    0    0  501    0  0.00000000000E+00  0.00000000000E+00 -0.15740948976E+04  0.15740948976E+04  0.25500000920E-02 0. -1.
    10030    2    1    2    0    0  0.00000000000E+00  0.00000000000E+00 -0.80579606934E+03  0.23423937258E+04  0.21994319861E+04 0.  0.
        4    1    3    3  502    0 -0.55486129584E+03  0.57702763791E+03 -0.12059257254E+04  0.14474427176E+04  0.12699999809E+01 0. -1.
       -4    1    3    3    0  502  0.55486129584E+03 -0.57702763791E+03  0.40012965610E+03  0.89495100823E+03  0.12699999809E+01 0.  1.
</event>
<event>
 5   0  0.8905000E-07  0.2199511E+04  0.7818609E-02  0.8518632E-01
        3   -1    0    0  501    0  0.00000000000E+00  0.00000000000E+00  0.14985663627E+04  0.14985663661E+04  0.10100000352E+00 0.  1.
       -3   -1    0    0    0  501  0.00000000000E+00  0.00000000000E+00 -0.80707913336E+03  0.80707913968E+03  0.10100000352E+00 0. -1.
    10030    2    1    2    0    0  0.00000000000E+00  0.00000000000E+00  0.69148722937E+03  0.23056455058E+04  0.21995105388E+04 0.  0.
        2    1    3    3  502    0  0.29718670803E+03 -0.41007915921E+03  0.13690546346E+04  0.14597244428E+04  0.25500000920E-02 0.  1.
       -2    1    3    3    0  502 -0.29718670803E+03  0.41007915921E+03 -0.67756740525E+03  0.84592106305E+03  0.25500000920E-02 0. -1.
</event>
<event>
 5   0  0.2532239E-06  0.2200118E+04  0.7818609E-02  0.8518379E-01
       -2   -1    0    0    0  501  0.00000000000E+00  0.00000000000E+00  0.63897516349E+03  0.63897516350E+03  0.25500000920E-02 0. -1.
        2   -1    0    0  501    0  0.00000000000E+00  0.00000000000E+00 -0.18938606047E+04  0.18938606047E+04  0.25500000920E-02 0.  1.
    10030    2    1    2    0    0  0.00000000000E+00  0.00000000000E+00 -0.12548854412E+04  0.25328357682E+04  0.22001180782E+04 0.  0.
        3    1    3    3  502    0 -0.37606689556E+02  0.97732017417E+03 -0.47744219286E+02  0.97920810179E+03  0.10100000352E+00 0. -1.
       -3    1    3    3    0  502  0.37606689556E+02 -0.97732017417E+03 -0.12071412219E+04  0.15536276664E+04  0.10100000352E+00 0.  1.
</event>
<event>
 5   0  0.2524749E-06  0.2201225E+04  0.7818609E-02  0.8517918E-01
        2   -1    0    0  501    0  0.00000000000E+00  0.00000000000E+00  0.12675979341E+04  0.12675979341E+04  0.25500000920E-02 0.  1.
       -2   -1    0    0    0  501  0.00000000000E+00  0.00000000000E+00 -0.95562455413E+03  0.95562455413E+03  0.25500000920E-02 0. -1.
    10030    2    1    2    0    0  0.00000000000E+00  0.00000000000E+00  0.31197338000E+03  0.22232224883E+04  0.22012248505E+04 0.  0.
        4    1    3    3  502    0 -0.16455034834E+03  0.23449209796E+03 -0.91731018336E+03  0.96100101277E+03  0.12699999809E+01 0. -1.
       -4    1    3    3    0  502  0.16455034834E+03 -0.23449209796E+03  0.12292835634E+04  0.12622214755E+04  0.12699999809E+01 0.  1.
</event>
<event>
 5   0  0.2581058E-06  0.2199211E+04  0.7818609E-02  0.8518757E-01
       -2   -1    0    0    0  501  0.00000000000E+00  0.00000000000E+00  0.65223968559E+03  0.65223968560E+03  0.25500000920E-02 0.  1.
        2   -1    0    0  501    0  0.00000000000E+00  0.00000000000E+00 -0.18538159135E+04  0.18538159135E+04  0.25500000920E-02 0. -1.
    10030    2    1    2    0    0  0.00000000000E+00  0.00000000000E+00 -0.12015762280E+04  0.25060555991E+04  0.21992110482E+04 0.  0.
        1    1    3    3  502    0  0.73604614208E+03 -0.33272388492E+03 -0.14509860571E+04  0.16606714440E+04  0.50400001928E-02 0. -1.
       -1    1    3    3    0  502 -0.73604614208E+03  0.33272388492E+03  0.24940982917E+03  0.84538415515E+03  0.50400001928E-02 0.  1.
</event>
<event>
 5   0  0.1146827E-06  0.2199515E+04  0.7818609E-02  0.8518630E-01
       -1   -1    0    0    0  501  0.00000000000E+00  0.00000000000E+00  0.77774720706E+03  0.77774720707E+03  0.50400001928E-02 0.  1.
        1   -1    0    0  501    0  0.00000000000E+00  0.00000000000E+00 -0.15550894283E+04  0.15550894283E+04  0.50400001928E-02 0. -1.
    10030    2    1    2    0    0  0.00000000000E+00  0.00000000000E+00 -0.77734222125E+03  0.23328366354E+04  0.21995149098E+04 0.  0.
        4    1    3    3  502    0 -0.67068980482E+03  0.44761259217E+03  0.40451157592E+03  0.90211588774E+03  0.12699999809E+01 0.  1.
       -4    1    3    3    0  502  0.67068980482E+03 -0.44761259217E+03 -0.11818537972E+04  0.14307207476E+04  0.12699999809E+01 0. -1.
</event>
<event>
 5   0  0.2532239E-06  0.2204536E+04  0.7818609E-02  0.8516542E-01
        2   -1    0    0  501    0  0.00000000000E+00  0.00000000000E+00  0.84206249349E+03  0.84206249350E+03  0.25500000920E-02 0.  1.
       -2   -1    0    0    0  501  0.00000000000E+00  0.00000000000E+00 -0.14428799232E+04  0.14428799232E+04  0.25500000920E-02 0. -1.
    10030    2    1    2    0    0  0.00000000000E+00  0.00000000000E+00 -0.60081742971E+03  0.22849424167E+04  0.22045362922E+04 0.  0.
        3    1    3    3  502    0 -0.60015568231E+03 -0.18989276781E+03  0.63744128974E+03  0.89586690660E+03  0.10100000352E+00 0.  1.
       -3    1    3    3    0  502  0.60015568231E+03  0.18989276781E+03 -0.12382587195E+04  0.13890755101E+04  0.10100000352E+00 0. -1.
</event>
<event>
 5   0  0.2556869E-06  0.2199652E+04  0.7818609E-02  0.8518573E-01
       -2   -1    0    0    0  501  0.00000000000E+00  0.00000000000E+00  0.55370495327E+03  0.55370495328E+03  0.25500000920E-02 0. -1.
        2   -1    0    0  501    0  0.00000000000E+00  0.00000000000E+00 -0.21845872956E+04  0.21845872956E+04  0.25500000920E-02 0.  1.
    10030    2    1    2    0    0  0.00000000000E+00  0.00000000000E+00 -0.16308823424E+04  0.27382922489E+04  0.21996516146E+04 0.  0.
        5    1    3    3  502    0  0.78652922523E+03 -0.69565459889E+03 -0.12227098751E+04  0.16117087429E+04  0.46999998093E+01 0.  1.
       -5    1    3    3    0  502 -0.78652922523E+03  0.69565459889E+03 -0.40817246725E+03  0.11265835061E+04  0.46999998093E+01 0. -1.
</event>
<event>
 5   0  0.1144271E-06  0.2201044E+04  0.7818609E-02  0.8517993E-01
        1   -1    0    0  501    0  0.00000000000E+00  0.00000000000E+00  0.10650327556E+04  0.10650327556E+04  0.50400001928E-02 0.  1.
       -1   -1    0    0    0  501  0.00000000000E+00  0.00000000000E+00 -0.11371943366E+04  0.11371943366E+04  0.50400001928E-02 0. -1.
    10030    2    1    2    0    0  0.00000000000E+00  0.00000000000E+00 -0.72161580976E+02  0.22022270922E+04  0.22010444957E+04 0.  0.
        3    1    3    3  502    0 -0.96539443765E+03 -0.32864206923E+03  0.37785295899E+03  0.10875499523E+04  0.10100000352E+00 0.  1.
       -3    1    3    3    0  502  0.96539443765E+03  0.32864206923E+03 -0.45001453997E+03  0.11146771399E+04  0.10100000352E+00 0. -1.
</event>
<event>
 5   0  0.1146827E-06  0.2203624E+04  0.7818609E-02  0.8516921E-01
       -1   -1    0    0    0  501  0.00000000000E+00  0.00000000000E+00  0.15145756414E+04  0.15145756414E+04  0.50400001928E-02 0. -1.
        1   -1    0    0  501    0  0.00000000000E+00  0.00000000000E+00 -0.80153764996E+03  0.80153764997E+03  0.50400001928E-02 0.  1.
    10030    2    1    2    0    0  0.00000000000E+00  0.00000000000E+00  0.71303799147E+03  0.23161132914E+04  0.22036237431E+04 0.  0.
        4    1    3    3  502    0 -0.59564046977E+03  0.75899815701E+03  0.91577309578E+03  0.13302284569E+04  0.12699999809E+01 0. -1.
       -4    1    3    3    0  502  0.59564046977E+03 -0.75899815701E+03 -0.20273510432E+03  0.98588483455E+03  0.12699999809E+01 0.  1.
</event>
<event>
 5   0  0.2524749E-06  0.2197885E+04  0.7818609E-02  0.8519309E-01
       -2   -1    0    0    0  501  0.00000000000E+00  0.00000000000E+00  0.71479036992E+03  0.71479036992E+03  0.25500000920E-02 0. -1.
        2   -1    0    0  501    0  0.00000000000E+00  0.00000000000E+00 -0.16895512747E+04  0.16895512747E+04  0.25500000920E-02 0.  1.
    10030    2    1    2    0    0  0.00000000000E+00  0.00000000000E+00 -0.97476090480E+03  0.24043416446E+04  0.21978853297E+04 0.  0.
        4    1    3    3  502    0  0.27865339256E+03 -0.10539591311E+04 -0.33581706294E+03  0.11407244522E+04  0.12699999809E+01 0.  1.
       -4    1    3    3    0  502 -0.27865339256E+03  0.10539591311E+04 -0.63894384186E+03  0.12636171925E+04  0.12699999809E+01 0. -1.
</event>
<event>
 5   0  0.1144271E-06  0.2200014E+04  0.7818609E-02  0.8518422E-01
       -1   -1    0    0    0  501  0.00000000000E+00  0.00000000000E+00  0.59677776451E+03  0.59677776453E+03  0.50400001928E-02 0. -1.
        1   -1    0    0  501    0  0.00000000000E+00  0.00000000000E+00 -0.20275819368E+04  0.20275819368E+04  0.50400001928E-02 0.  1.
    10030    2    1    2    0    0  0.00000000000E+00  0.00000000000E+00 -0.14308041723E+04  0.26243597014E+04  0.22000143778E+04 0.  0.
        3    1    3    3  502    0 -0.77907867408E+03  0.71848712161E+03 -0.10669050111E+04  0.15038196824E+04  0.10100000352E+00 0.  1.
       -3    1    3    3    0  502  0.77907867408E+03 -0.71848712161E+03 -0.36389916120E+03  0.11205400189E+04  0.10100000352E+00 0. -1.
</event>
<event>
 5   0  0.2556869E-06  0.2199743E+04  0.7818609E-02  0.8518535E-01
       -2   -1    0    0    0  501  0.00000000000E+00  0.00000000000E+00  0.71165390060E+03  0.71165390061E+03  0.25500000920E-02 0. -1.
        2   -1    0    0  501    0  0.00000000000E+00  0.00000000000E+00 -0.16998681755E+04  0.16998681755E+04  0.25500000920E-02 0.  1.
    10030    2    1    2    0    0  0.00000000000E+00  0.00000000000E+00 -0.98821427485E+03  0.24115220761E+04  0.21997434556E+04 0.  0.
        5    1    3    3  502    0 -0.43650857544E+03 -0.29595197076E+03  0.56399255217E+03  0.77216383904E+03  0.46999998093E+01 0. -1.
       -5    1    3    3    0  502  0.43650857544E+03  0.29595197076E+03 -0.15522068270E+04  0.16393582370E+04  0.46999998093E+01 0.  1.
</event>
<event>
 5   0  0.2606154E-06  0.2199794E+04  0.7818609E-02  0.8518514E-01
        2   -1    0    0  501    0  0.00000000000E+00  0.00000000000E+00  0.25262071432E+04  0.25262071432E+04  0.25500000920E-02 0. -1.
       -2   -1    0    0    0  501  0.00000000000E+00  0.00000000000E+00 -0.47888911445E+03  0.47888911446E+03  0.25500000920E-02 0.  1.
    10030    2    1    2    0    0  0.00000000000E+00  0.00000000000E+00  0.20473180288E+04  0.30050962577E+04  0.21997937192E+04 0.  0.
        2    1    3    3  502    0 -0.52863356852E+03  0.82899303339E+03  0.16971939975E+04  0.19614153982E+04  0.25500000920E-02 0. -1.
       -2    1    3    3    0  502  0.52863356852E+03 -0.82899303339E+03  0.35012403129E+03  0.10436808595E+04  0.25500000920E-02 0.  1.
</event>
<event>
 5   0  0.2556869E-06  0.2204227E+04  0.7818609E-02  0.8516671E-01
       -2   -1    0    0    0  501  0.00000000000E+00  0.00000000000E+00  0.67632507526E+03  0.67632507526E+03  0.25500000920E-02 0. -1.
        2   -1    0    0  501    0  0.00000000000E+00  0.00000000000E+00 -0.17959617567E+04  0.17959617567E+04  0.25500000920E-02 0.  1.
    10030    2    1    2    0    0  0.00000000000E+00  0.00000000000E+00 -0.11196366814E+04  0.24722868320E+04  0.22042268216E+04 0.  0.
        5    1    3    3  502    0  0.10302938482E+04  0.17334158724E+03 -0.16632731129E+03  0.10579412007E+04  0.46999998093E+01 0. -1.
       -5    1    3    3    0  502 -0.10302938482E+04 -0.17334158724E+03 -0.95330937015E+03  0.14143456313E+04  0.46999998093E+01 0.  1.
</event>
<event>
 5   0  0.1137869E-06  0.2199049E+04  0.7818609E-02  0.8518824E-01
        1   -1    0    0  501    0  0.00000000000E+00  0.00000000000E+00  0.10140685596E+04  0.10140685596E+04  0.50400001928E-02 0. -1.
       -1   -1    0    0    0  501  0.00000000000E+00  0.00000000000E+00 -0.11921816367E+04  0.11921816367E+04  0.50400001928E-02 0.  1.
    10030    2    1    2    0    0  0.00000000000E+00  0.00000000000E+00 -0.17811307705E+03  0.22062501963E+04  0.21990488081E+04 0.  0.
        5    1    3    3  502    0  0.39810856676E+03 -0.36668230102E+03  0.87114895960E+03  0.10256066208E+04  0.46999998093E+01 0. -1.
       -5    1    3    3    0  502 -0.39810856676E+03  0.36668230102E+03 -0.10492620366E+04  0.11806435755E+04  0.46999998093E+01 0.  1.
</event>
<event>
 5   0  0.1146827E-06  0.2200744E+04  0.7818609E-02  0.8518118E-01
        1   -1    0    0  501    0  0.00000000000E+00  0.00000000000E+00  0.87718692540E+03  0.87718692541E+03  0.50400001928E-02 0. -1.
       -1   -1    0    0    0  501  0.00000000000E+00  0.00000000000E+00 -0.13803429918E+04  0.13803429918E+04  0.50400001928E-02 0.  1.
    10030    2    1    2    0    0  0.00000000000E+00  0.00000000000E+00 -0.50315606636E+03  0.22575299172E+04  0.22007442604E+04 0.  0.
        4    1    3    3  502    0 -0.22133140414E+03 -0.75107921699E+02 -0.13545849719E+04  0.13746020694E+04  0.12699999809E+01 0.  1.
       -4    1    3    3    0  502  0.22133140414E+03  0.75107921699E+02  0.85142890549E+03  0.88292784777E+03  0.12699999809E+01 0. -1.
</event>
<event>
 5   0  0.2532239E-06  0.2203998E+04  0.7818609E-02  0.8516766E-01
        2   -1    0    0  501    0  0.00000000000E+00  0.00000000000E+00  0.16125902428E+04  0.16125902428E+04  0.25500000920E-02 0.  1.
       -2   -1    0    0    0  501  0.00000000000E+00  0.00000000000E+00 -0.75307556585E+03  0.75307556586E+03  0.25500000920E-02 0. -1.
    10030    2    1    2    0    0  0.00000000000E+00  0.00000000000E+00  0.85951467691E+03  0.23656658086E+04  0.22039984660E+04 0.  0.
        3    1    3    3  502    0  0.10149662514E+04  0.14305770792E+03 -0.46257776582E+01  0.10250089791E+04  0.10100000352E+00 0.  1.
       -3    1    3    3    0  502 -0.10149662514E+04 -0.14305770792E+03  0.86414045457E+03  0.13406568295E+04  0.10100000352E+00 0. -1.
</event>
<event>
 5   0  0.1082209E-06  0.2200132E+04  0.7818609E-02  0.8518373E-01
       -1   -1    0    0    0  501  0.00000000000E+00  0.00000000000E+00  0.56532719939E+03  0.56532719941E+03  0.50400001928E-02 0. -1.
        1   -1    0    0  501    0  0.00000000000E+00  0.00000000000E+00 -0.21406099356E+04  0.21406099356E+04  0.50400001928E-02 0.  1.
    10030    2    1    2    0    0  0.00000000000E+00  0.00000000000E+00 -0.15752827362E+04  0.27059371350E+04  0.22001318323E+04 0.  0.
        2    1    3    3  502    0 -0.83698428683E+03  0.37190705900E+03 -0.38223332658E+02  0.91668892221E+03  0.25500000920E-02 0. -1.
       -2    1    3    3    0  502  0.83698428683E+03 -0.37190705900E+03 -0.15370594035E+04  0.17892482128E+04  0.25500000920E-02 0.  1.
</event>
<event>
 5   0  0.2524749E-06  0.2190026E+04  0.7818609E-02  0.8522591E-01
        2   -1    0    0  501    0  0.00000000000E+00  0.00000000000E+00  0.23453784177E+04  0.23453784177E+04  0.25500000920E-02 0. -1.
       -2   -1    0    0    0  501  0.00000000000E+00  0.00000000000E+00 -0.51124081363E+03  0.51124081364E+03  0.25500000920E-02 0.  1.
    10030    2    1    2    0    0  0.00000000000E+00  0.00000000000E+00  0.18341376041E+04  0.28566192314E+04  0.21900257264E+04 0.  0.
        4    1    3    3  502    0  0.17035926193E+03  0.36860963319E+03  0.22435350776E+04  0.22799882888E+04  0.12699999809E+01 0. -1.
       -4    1    3    3    0  502 -0.17035926193E+03 -0.36860963319E+03 -0.40939747345E+03  0.57663094261E+03  0.12699999809E+01 0.  1.
</event>
<event>
 5   0  0.1146827E-06  0.2199414E+04  0.7818609E-02  0.8518672E-01
        1   -1    0    0  501    0  0.00000000000E+00  0.00000000000E+00  0.15397832688E+04  0.15397832688E+04  0.50400001928E-02 0.  1.
       -1   -1    0    0    0  501  0.00000000000E+00  0.00000000000E+00 -0.78540637577E+03  0.78540637579E+03  0.50400001928E-02 0. -1.
    10030    2    1    2    0    0  0.00000000000E+00  0.00000000000E+00  0.75437689307E+03  0.23251896446E+04  0.21994141008E+04 0.  0.
        4    1    3    3  502    0  0.10594857725E+04 -0.17273216689E+03  0.62960468914E+03  0.12444879192E+04  0.12699999809E+01 0.  1.
       -4    1    3    3    0  502 -0.10594857725E+04  0.17273216689E+03  0.12477220392E+03  0.10807017254E+04  0.12699999809E+01 0. -1.
</event>
<event>
 5   0  0.1107101E-06  0.2200052E+04  0.7818609E-02  0.8518406E-01
        1   -1    0    0  501    0  0.00000000000E+00  0.00000000000E+00  0.10595066629E+04  0.10595066629E+04  0.50400001928E-02 0.  1.
       -1   -1    0    0    0  501  0.00000000000E+00  0.00000000000E+00 -0.11420950356E+04  0.11420950356E+04  0.50400001928E-02 0. -1.
    10030    2    1    2    0    0  0.00000000000E+00  0.00000000000E+00 -0.82588372700E+02  0.22016016985E+04  0.22000520902E+04 0.  0.
        1    1    3    3  502    0 -0.76314690173E+03  0.17608653507E+02  0.75132054188E+03  0.10710676052E+04  0.50400001928E-02 0.  1.
       -1    1    3    3    0  502  0.76314690173E+03 -0.17608653507E+02 -0.83390891458E+03  0.11305340933E+04  0.50400001928E-02 0. -1.
</event>
<event>
 5   0  0.1137869E-06  0.2199836E+04  0.7818609E-02  0.8518497E-01
        1   -1    0    0  501    0  0.00000000000E+00  0.00000000000E+00  0.73580348816E+03  0.73580348817E+03  0.50400001928E-02 0. -1.
       -1   -1    0    0    0  501  0.00000000000E+00  0.00000000000E+00 -0.16442149355E+04  0.16442149355E+04  0.50400001928E-02 0.  1.
    10030    2    1    2    0    0  0.00000000000E+00  0.00000000000E+00 -0.90841144734E+03  0.23800184237E+04  0.21998355255E+04 0.  0.
        5    1    3    3  502    0  0.78657445128E+03 -0.76428215107E+03 -0.36387830233E+03  0.11555328134E+04  0.46999998093E+01 0. -1.
       -5    1    3    3    0  502 -0.78657445128E+03  0.76428215107E+03 -0.54453314500E+03  0.12244856103E+04  0.46999998093E+01 0.  1.
</event>
<event>
 5   0  0.1144271E-06  0.2199564E+04  0.7818609E-02  0.8518610E-01
       -1   -1    0    0    0  501  0.00000000000E+00  0.00000000000E+00  0.18675623398E+04  0.18675623398E+04  0.50400001928E-02 0.  1.
        1   -1    0    0  501    0  0.00000000000E+00  0.00000000000E+00 -0.64764643880E+03  0.64764643882E+03  0.50400001928E-02 0. -1.
    10030    2    1    2    0    0  0.00000000000E+00  0.00000000000E+00  0.12199159010E+04  0.25152087786E+04  0.21995636828E+04 0.  0.
        3    1    3    3  502    0  0.79575358048E+03  0.68883644481E+03  0.24510922038E+03  0.10806470047E+04  0.10100000352E+00 0. -1.
       -3    1    3    3    0  502 -0.79575358048E+03 -0.68883644481E+03  0.97480668061E+03  0.14345617740E+04  0.10100000352E+00 0.  1.
</event>
<event>
 5   0  0.2606154E-06  0.2200096E+04  0.7818609E-02  0.8518388E-01
       -2   -1    0    0    0  501  0.00000000000E+00  0.00000000000E+00  0.80456319606E+03  0.80456319606E+03  0.25500000920E-02 0.  1.
        2   -1    0    0  501    0  0.00000000000E+00  0.00000000000E+00 -0.15040531328E+04  0.15040531328E+04  0.25500000920E-02 0. -1.
    10030    2    1    2    0    0  0.00000000000E+00  0.00000000000E+00 -0.69948993676E+03  0.23086163289E+04  0.22000961757E+04 0.  0.
        2    1    3    3  502    0 -0.74392537668E+02  0.48823484525E+03 -0.13811832055E+04  0.14668246525E+04  0.25500000920E-02 0. -1.
       -2    1    3    3    0  502  0.74392537668E+02 -0.48823484525E+03  0.68169326879E+03  0.84179167642E+03  0.25500000920E-02 0.  1.
</event>
<event>
 5   0  0.1146827E-06  0.2199676E+04  0.7818609E-02  0.8518563E-01
       -1   -1    0    0    0  501  0.00000000000E+00  0.00000000000E+00  0.88313926921E+03  0.88313926923E+03  0.50400001928E-02 0.  1.
        1   -1    0    0  501    0  0.00000000000E+00  0.00000000000E+00 -0.13697082123E+04  0.13697082123E+04  0.50400001928E-02 0. -1.
    10030    2    1    2    0    0  0.00000000000E+00  0.00000000000E+00 -0.48656894307E+03  0.22528474815E+04  0.21996755303E+04 0.  0.
        4    1    3    3  502    0  0.10170759932E+04  0.20783965501E+03  0.12881676869E+03  0.10460574893E+04  0.12699999809E+01 0.  1.
       -4    1    3    3    0  502 -0.10170759932E+04 -0.20783965501E+03 -0.61538571175E+03  0.12067899922E+04  0.12699999809E+01 0. -1.
</event>
<event>
 5   0  0.2556869E-06  0.2198718E+04  0.7818609E-02  0.8518962E-01
        2   -1    0    0  501    0  0.00000000000E+00  0.00000000000E+00  0.13812515340E+04  0.13812515340E+04  0.25500000920E-02 0. -1.
       -2   -1    0    0    0  501  0.00000000000E+00  0.00000000000E+00 -0.87499614390E+03  0.87499614391E+03  0.25500000920E-02 0.  1.
    10030    2    1    2    0    0  0.00000000000E+00  0.00000000000E+00  0.50625539008E+03  0.22562476779E+04  0.21987175953E+04 0.  0.
        5    1    3    3  502    0 -0.84141060504E+03  0.59029702862E+03  0.65339173393E+03  0.12179348243E+04  0.46999998093E+01 0. -1.
       -5    1    3    3    0  502  0.84141060504E+03 -0.59029702862E+03 -0.14713634384E+03  0.10383128536E+04  0.46999998093E+01 0.  1.
</event>
<event>
 5   0  0.2524749E-06  0.2201035E+04  0.7818609E-02  0.8517997E-01
       -2   -1    0    0    0  501  0.00000000000E+00  0.00000000000E+00  0.52540623887E+03  0.52540623887E+03  0.25500000920E-02 0.  1.
        2   -1    0    0  501    0  0.00000000000E+00  0.00000000000E+00 -0.23051481999E+04  0.23051481999E+04  0.25500000920E-02 0. -1.
    10030    2    1    2    0    0  0.00000000000E+00  0.00000000000E+00 -0.17797419611E+04  0.28305544388E+04  0.22010354343E+04 0.  0.
        4    1    3    3  502    0 -0.65181325571E+03  0.19766878026E+02  0.25018022866E+03  0.69845759320E+03  0.12699999809E+01 0.  1.
       -4    1    3    3    0  502  0.65181325571E+03 -0.19766878026E+02 -0.20299221897E+04  0.21320968456E+04  0.12699999809E+01 0. -1.
</event>
<event>
 5   0  0.1107101E-06  0.2200127E+04  0.7818609E-02  0.8518375E-01
       -1   -1    0    0    0  501  0.00000000000E+00  0.00000000000E+00  0.73947061174E+03  0.73947061176E+03  0.50400001928E-02 0. -1.
        1   -1    0    0  501    0  0.00000000000E+00  0.00000000000E+00 -0.16364953580E+04  0.16364953581E+04  0.50400001928E-02 0.  1.
    10030    2    1    2    0    0  0.00000000000E+00  0.00000000000E+00 -0.89702474630E+03  0.23759659698E+04  0.22001274723E+04 0.  0.
        1    1    3    3  502    0 -0.51322432380E+03 -0.86525095855E+03  0.32121809314E+02  0.10065238390E+04  0.50400001928E-02 0.  1.
       -1    1    3    3    0  502  0.51322432380E+03  0.86525095855E+03 -0.92914655561E+03  0.13694421308E+04  0.50400001928E-02 0. -1.
</event>
<event>
 5   0  0.2556869E-06  0.2200933E+04  0.7818609E-02  0.8518040E-01
        2   -1    0    0  501    0  0.00000000000E+00  0.00000000000E+00  0.21700878733E+04  0.21700878733E+04  0.25500000920E-02 0.  1.
       -2   -1    0    0    0  501  0.00000000000E+00  0.00000000000E+00 -0.55805418505E+03  0.55805418506E+03  0.25500000920E-02 0. -1.
    10030    2    1    2    0    0  0.00000000000E+00  0.00000000000E+00  0.16120336883E+04  0.27281420584E+04  0.22009330927E+04 0.  0.
        5    1    3    3  502    0  0.71001875581E+03 -0.57762301577E+03  0.15632823064E+04  0.18115321254E+04  0.46999998093E+01 0.  1.
       -5    1    3    3    0  502 -0.71001875581E+03  0.57762301577E+03  0.48751381869E+02  0.91660993295E+03  0.46999998093E+01 0. -1.
</event>
<event>
 5   0  0.2581058E-06  0.2200873E+04  0.7818609E-02  0.8518065E-01
        2   -1    0    0  501    0  0.00000000000E+00  0.00000000000E+00  0.10337777649E+04  0.10337777649E+04  0.25500000920E-02 0.  1.
       -2   -1    0    0    0  501  0.00000000000E+00  0.00000000000E+00 -0.11713936576E+04  0.11713936576E+04  0.25500000920E-02 0. -1.
    10030    2    1    2    0    0  0.00000000000E+00  0.00000000000E+00 -0.13761589270E+03  0.22051714225E+04  0.22008732060E+04 0.  0.
        1    1    3    3  502    0  0.48937733011E+02  0.85084244063E+03  0.62870746016E+03  0.10590565759E+04  0.50400001928E-02 0.  1.
       -1    1    3    3    0  502 -0.48937733011E+02 -0.85084244063E+03 -0.76632335286E+03  0.11461148466E+04  0.50400001928E-02 0. -1.
</event>
<event>
 5   0  0.2532239E-06  0.2200263E+04  0.7818609E-02  0.8518319E-01
       -2   -1    0    0    0  501  0.00000000000E+00  0.00000000000E+00  0.88345029313E+03  0.88345029313E+03  0.25500000920E-02 0.  1.
        2   -1    0    0  501    0  0.00000000000E+00  0.00000000000E+00 -0.13699575976E+04  0.13699575976E+04  0.25500000920E-02 0. -1.
    10030    2    1    2    0    0  0.00000000000E+00  0.00000000000E+00 -0.48650730446E+03  0.22534078907E+04  0.22002631126E+04 0.  0.
        3    1    3    3  502    0 -0.60091256131E+03 -0.71062932306E+03 -0.84410951626E+03  0.12564278040E+04  0.10100000352E+00 0. -1.
       -3    1    3    3    0  502  0.60091256131E+03  0.71062932306E+03  0.35760221181E+03  0.99698008667E+03  0.10100000352E+00 0.  1.
</event>
<event>
 5   0  0.1107101E-06  0.2196811E+04  0.7818609E-02  0.8519757E-01
        1   -1    0    0  501    0  0.00000000000E+00  0.00000000000E+00  0.20574060668E+04  0.20574060668E+04  0.50400001928E-02 0. -1.
       -1   -1    0    0    0  501  0.00000000000E+00  0.00000000000E+00 -0.58641539148E+03  0.58641539150E+03  0.50400001928E-02 0.  1.
    10030    2    1    2    0    0  0.00000000000E+00  0.00000000000E+00  0.14709906753E+04  0.26438214583E+04  0.21968109469E+04 0.  0.
        1    1    3    3  502    0  0.72913777312E+03 -0.43853432548E+03  0.15714952865E+04  0.17870511135E+04  0.50400001928E-02 0. -1.
       -1    1    3    3    0  502 -0.72913777312E+03  0.43853432548E+03 -0.10050461118E+03  0.85677034479E+03  0.50400001928E-02 0.  1.
</event>
<event>
 5   0  0.1082209E-06  0.2200891E+04  0.7818609E-02  0.8518057E-01
        1   -1    0    0  501    0  0.00000000000E+00  0.00000000000E+00  0.81949180690E+03  0.81949180691E+03  0.50400001928E-02 0.  1.
       -1   -1    0    0    0  501  0.00000000000E+00  0.00000000000E+00 -0.14777215411E+04  0.14777215411E+04  0.50400001928E-02 0. -1.
    10030    2    1    2    0    0  0.00000000000E+00  0.00000000000E+00 -0.65822973423E+03  0.22972133481E+04  0.22008913611E+04 0.  0.
        2    1    3    3  502    0 -0.35284386430E+03  0.14213478637E+03  0.74868537480E+03  0.83978025728E+03  0.25500000920E-02 0.  1.
       -2    1    3    3    0  502  0.35284386430E+03 -0.14213478637E+03 -0.14069151090E+04  0.14574330908E+04  0.25500000920E-02 0. -1.
</event>
<event>
 5   0  0.2581058E-06  0.2199397E+04  0.7818609E-02  0.8518679E-01
        2   -1    0    0  501    0  0.00000000000E+00  0.00000000000E+00  0.10573589292E+04  0.10573589292E+04  0.25500000920E-02 0.  1.
       -2   -1    0    0    0  501  0.00000000000E+00  0.00000000000E+00 -0.11437337366E+04  0.11437337366E+04  0.25500000920E-02 0. -1.
    10030    2    1    2    0    0  0.00000000000E+00  0.00000000000E+00 -0.86374807386E+02  0.22010926658E+04  0.21993972620E+04 0.  0.
        1    1    3    3  502    0  0.55098203488E+03  0.82370078898E+03 -0.52028635335E+03  0.11192685478E+04  0.50400001928E-02 0. -1.
       -1    1    3    3    0  502 -0.55098203488E+03 -0.82370078898E+03  0.43391154596E+03  0.10818241180E+04  0.50400001928E-02 0.  1.
</event>
<event>
 5   0  0.2532239E-06  0.2199994E+04  0.7818609E-02  0.8518430E-01
        2   -1    0    0  501    0  0.00000000000E+00  0.00000000000E+00  0.59403568548E+03  0.59403568549E+03  0.25500000920E-02 0. -1.
       -2   -1    0    0    0  501  0.00000000000E+00  0.00000000000E+00 -0.20369041183E+04  0.20369041183E+04  0.25500000920E-02 0.  1.
    10030    2    1    2    0    0  0.00000000000E+00  0.00000000000E+00 -0.14428684328E+04  0.26309398037E+04  0.21999943038E+04 0.  0.
        3    1    3    3  502    0  0.67622651086E+03 -0.80161566497E+03 -0.11182873941E+04  0.15331133925E+04  0.10100000352E+00 0.  1.
       -3    1    3    3    0  502 -0.67622651086E+03  0.80161566497E+03 -0.32458103868E+03  0.10978264112E+04  0.10100000352E+00 0. -1.
</event>
<event>
 5   0  0.1137869E-06  0.2200079E+04  0.7818609E-02  0.8518395E-01
       -1   -1    0    0    0  501  0.00000000000E+00  0.00000000000E+00  0.76764655774E+03  0.76764655776E+03  0.50400001928E-02 0. -1.
        1   -1    0    0  501    0  0.00000000000E+00  0.00000000000E+00 -0.15763594638E+04  0.15763594638E+04  0.50400001928E-02 0.  1.
    10030    2    1    2    0    0  0.00000000000E+00  0.00000000000E+00 -0.80871290601E+03  0.23440060215E+04  0.22000790133E+04 0.  0.
        5    1    3    3  502    0  0.22398106618E+03 -0.38409487268E+03 -0.14763440066E+04  0.15418528156E+04  0.46999998093E+01 0.  1.
       -5    1    3    3    0  502 -0.22398106618E+03  0.38409487268E+03  0.66763110060E+03  0.80215320588E+03  0.46999998093E+01 0. -1.
</event>
<event>
 5   0  0.2532239E-06  0.2201434E+04  0.7818609E-02  0.8517832E-01
       -2   -1    0    0    0  501  0.00000000000E+00  0.00000000000E+00  0.17763015473E+04  0.17763015473E+04  0.25500000920E-02 0. -1.
        2   -1    0    0  501    0  0.00000000000E+00  0.00000000000E+00 -0.68207865282E+03  0.68207865283E+03  0.25500000920E-02 0.  1.
    10030    2    1    2    0    0  0.00000000000E+00  0.00000000000E+00  0.10942228945E+04  0.24583802002E+04  0.22014335025E+04 0.  0.
        3    1    3    3  502    0  0.95717970759E+03  0.61112085383E+02 -0.55967582655E+02  0.96076014703E+03  0.10100000352E+00 0.  1.
       -3    1    3    3    0  502 -0.95717970759E+03 -0.61112085383E+02  0.11501904772E+04  0.14976200532E+04  0.10100000352E+00 0. -1.
</event>
<event>
 5   0  0.1146827E-06  0.2202004E+04  0.7818609E-02  0.8517594E-01
       -1   -1    0    0    0  501  0.00000000000E+00  0.00000000000E+00  0.10191394580E+04  0.10191394580E+04  0.50400001928E-02 0.  1.
        1   -1    0    0  501    0  0.00000000000E+00  0.00000000000E+00 -0.11894403386E+04  0.11894403386E+04  0.50400001928E-02 0. -1.
    10030    2    1    2    0    0  0.00000000000E+00  0.00000000000E+00 -0.17030088061E+03  0.22085797966E+04  0.22020041616E+04 0.  0.
        4    1    3    3  502    0 -0.79013044193E+03  0.69100417601E+03 -0.41842433255E+03  0.11299882395E+04  0.12699999809E+01 0. -1.
       -4    1    3    3    0  502  0.79013044193E+03 -0.69100417601E+03  0.24812345194E+03  0.10785915570E+04  0.12699999809E+01 0.  1.
</event>
<event>
 5   0  0.1146827E-06  0.2202639E+04  0.7818609E-02  0.8517330E-01
       -1   -1    0    0    0  501  0.00000000000E+00  0.00000000000E+00  0.10158558954E+04  0.10158558954E+04  0.50400001928E-02 0.  1.
        1   -1    0    0  501    0  0.00000000000E+00  0.00000000000E+00 -0.11939736380E+04  0.11939736380E+04  0.50400001928E-02 0. -1.
    10030    2    1    2    0    0  0.00000000000E+00  0.00000000000E+00 -0.17811774259E+03  0.22098295334E+04  0.22026394704E+04 0.  0.
        4    1    3    3  502    0 -0.79646300914E+03  0.33030284698E+03 -0.77645984613E+03  0.11603209906E+04  0.12699999809E+01 0. -1.
       -4    1    3    3    0  502  0.79646300914E+03 -0.33030284698E+03  0.59834210354E+03  0.10495085428E+04  0.12699999809E+01 0.  1.
</event>
<event>
 5   0  0.2532239E-06  0.2201352E+04  0.7818609E-02  0.8517866E-01
       -2   -1    0    0    0  501  0.00000000000E+00  0.00000000000E+00  0.92072296726E+03  0.92072296726E+03  0.25500000920E-02 0.  1.
        2   -1    0    0  501    0  0.00000000000E+00  0.00000000000E+00 -0.13158005128E+04  0.13158005128E+04  0.25500000920E-02 0. -1.
    10030    2    1    2    0    0  0.00000000000E+00  0.00000000000E+00 -0.39507754551E+03  0.22365234800E+04  0.22013520867E+04 0.  0.
        3    1    3    3  502    0  0.10908926115E+04  0.14630848571E+03 -0.19153854062E+03  0.11172018106E+04  0.10100000352E+00 0. -1.
       -3    1    3    3    0  502 -0.10908926115E+04 -0.14630848571E+03 -0.20353900489E+03  0.11193216694E+04  0.10100000352E+00 0.  1.
</event>
<event>
 5   0  0.1144271E-06  0.2202078E+04  0.7818609E-02  0.8517564E-01
       -1   -1    0    0    0  501  0.00000000000E+00  0.00000000000E+00  0.22129925669E+04  0.22129925669E+04  0.50400001928E-02 0. -1.
        1   -1    0    0  501    0  0.00000000000E+00  0.00000000000E+00 -0.54780425900E+03  0.54780425902E+03  0.50400001928E-02 0.  1.
    10030    2    1    2    0    0  0.00000000000E+00  0.00000000000E+00  0.16651883079E+04  0.27607968259E+04  0.22020778854E+04 0.  0.
        3    1    3    3  502    0  0.23303429163E+03 -0.10751964759E+04  0.77745454052E+03  0.13471406814E+04  0.10100000352E+00 0. -1.
       -3    1    3    3    0  502 -0.23303429163E+03  0.10751964759E+04  0.88773376734E+03  0.14136561444E+04  0.10100000352E+00 0.  1.
</event>
<event>
 5   0  0.1107101E-06  0.2201202E+04  0.7818609E-02  0.8517928E-01
       -1   -1    0    0    0  501  0.00000000000E+00  0.00000000000E+00  0.84408059181E+03  0.84408059182E+03  0.50400001928E-02 0. -1.
        1   -1    0    0  501    0  0.00000000000E+00  0.00000000000E+00 -0.14350794150E+04  0.14350794150E+04  0.50400001928E-02 0.  1.
    10030    2    1    2    0    0  0.00000000000E+00  0.00000000000E+00 -0.59099882322E+03  0.22791600069E+04  0.22012021097E+04 0.  0.
        1    1    3    3  502    0  0.80005102121E+03  0.75578168709E+03 -0.28936621258E+03  0.11379896309E+04  0.50400001928E-02 0. -1.
       -1    1    3    3    0  502 -0.80005102121E+03 -0.75578168709E+03 -0.30163261064E+03  0.11411703759E+04  0.50400001928E-02 0.  1.
</event>
<event>
 5   0  0.1146827E-06  0.2200736E+04  0.7818609E-02  0.8518122E-01
        1   -1    0    0  501    0  0.00000000000E+00  0.00000000000E+00  0.16894405053E+04  0.16894405053E+04  0.50400001928E-02 0. -1.
       -1   -1    0    0    0  501  0.00000000000E+00  0.00000000000E+00 -0.71669270163E+03  0.71669270165E+03  0.50400001928E-02 0.  1.
    10030    2    1    2    0    0  0.00000000000E+00  0.00000000000E+00  0.97274780362E+03  0.24061332069E+04  0.22007359496E+04 0.  0.
        4    1    3    3  502    0  0.40563190454E+01 -0.11003345952E+04  0.49451111086E+03  0.12063563017E+04  0.12699999809E+01 0. -1.
       -4    1    3    3    0  502 -0.40563190454E+01  0.11003345952E+04  0.47823669276E+03  0.11997769052E+04  0.12699999809E+01 0.  1.
</event>
<event>
 5   0  0.2606154E-06  0.2205227E+04  0.7818609E-02  0.8516256E-01
       -2   -1    0    0    0  501  0.00000000000E+00  0.00000000000E+00  0.11089615150E+04  0.11089615150E+04  0.25500000920E-02 0.  1.
        2   -1    0    0  501    0  0.00000000000E+00  0.00000000000E+00 -0.10963015280E+04  0.10963015280E+04  0.25500000920E-02 0. -1.
    10030    2    1    2    0    0  0.00000000000E+00  0.00000000000E+00  0.12659987002E+02  0.22052630430E+04  0.22052267034E+04 0.  0.
        2    1    3    3  502    0 -0.60126934186E+03 -0.49229158404E+03 -0.77591072678E+03  0.10981408294E+04  0.25500000920E-02 0. -1.
       -2    1    3    3    0  502  0.60126934186E+03  0.49229158404E+03  0.78857071378E+03  0.11071222136E+04  0.25500000920E-02 0.  1.
</event>
<event>
 5   0  0.2606154E-06  0.2199971E+04  0.7818609E-02  0.8518440E-01
       -2   -1    0    0    0  501  0.00000000000E+00  0.00000000000E+00  0.82746174333E+03  0.82746174333E+03  0.25500000920E-02 0. -1.
        2   -1    0    0  501    0  0.00000000000E+00  0.00000000000E+00 -0.14622649258E+04  0.14622649258E+04  0.25500000920E-02 0.  1.
    10030    2    1    2    0    0  0.00000000000E+00  0.00000000000E+00 -0.63480318242E+03  0.22897266691E+04  0.21999711677E+04 0.  0.
        2    1    3    3  502    0 -0.10916681059E+04  0.50227823874E+02 -0.44783900321E+03  0.11810257662E+04  0.25500000920E-02 0.  1.
       -2    1    3    3    0  502  0.10916681059E+04 -0.50227823874E+02 -0.18696417921E+03  0.11087009029E+04  0.25500000920E-02 0. -1.
</event>
<event>
 5   0  0.2606154E-06  0.2199908E+04  0.7818609E-02  0.8518467E-01
        2   -1    0    0  501    0  0.00000000000E+00  0.00000000000E+00  0.98341408867E+03  0.98341408867E+03  0.25500000920E-02 0. -1.
       -2   -1    0    0    0  501  0.00000000000E+00  0.00000000000E+00 -0.12303041891E+04  0.12303041891E+04  0.25500000920E-02 0.  1.
    10030    2    1    2    0    0  0.00000000000E+00  0.00000000000E+00 -0.24689010043E+03  0.22137182778E+04  0.21999077007E+04 0.  0.
        2    1    3    3  502    0  0.66888083305E+03  0.44870298826E+03  0.63036552198E+03  0.10227886545E+04  0.25500000920E-02 0.  1.
       -2    1    3    3    0  502 -0.66888083305E+03 -0.44870298826E+03 -0.87725562240E+03  0.11909296233E+04  0.25500000920E-02 0. -1.
</event>
<event>
 5   0  0.1082209E-06  0.2198838E+04  0.7818609E-02  0.8518912E-01
       -1   -1    0    0    0  501  0.00000000000E+00  0.00000000000E+00  0.14075728513E+04  0.14075728513E+04  0.50400001928E-02 0.  1.
        1   -1    0    0  501    0  0.00000000000E+00  0.00000000000E+00 -0.85872770061E+03  0.85872770062E+03  0.50400001928E-02 0. -1.
    10030    2    1    2    0    0  0.00000000000E+00  0.00000000000E+00  0.54884515067E+03  0.22663005519E+04  0.21988376912E+04 0.  0.
        2    1    3    3  502    0  0.13966981173E+03 -0.20391511111E+03  0.13785667919E+04  0.14005482600E+04  0.25500000920E-02 0.  1.
       -2    1    3    3    0  502 -0.13966981173E+03  0.20391511111E+03 -0.82972164128E+03  0.86575229186E+03  0.25500000920E-02 0. -1.
</event>
<event>
 5   0  0.1146827E-06  0.2200804E+04  0.7818609E-02  0.8518094E-01
        1   -1    0    0  501    0  0.00000000000E+00  0.00000000000E+00  0.11634219989E+04  0.11634219989E+04  0.50400001928E-02 0.  1.
       -1   -1    0    0    0  501  0.00000000000E+00  0.00000000000E+00 -0.10407956849E+04  0.10407956849E+04  0.50400001928E-02 0. -1.
    10030    2    1    2    0    0  0.00000000000E+00  0.00000000000E+00  0.12262631401E+03  0.22042176838E+04  0.22008040315E+04 0.  0.
        4    1    3    3  502    0 -0.10574080097E+04  0.19342044686E+03 -0.17433846036E+03  0.10889989347E+04  0.12699999809E+01 0. -1.
       -4    1    3    3    0  502  0.10574080097E+04 -0.19342044686E+03  0.29696477437E+03  0.11152187491E+04  0.12699999809E+01 0.  1.
</event>
<event>
 5   0  0.1144271E-06  0.2199695E+04  0.7818609E-02  0.8518555E-01
       -1   -1    0    0    0  501  0.00000000000E+00  0.00000000000E+00  0.52409185537E+03  0.52409185540E+03  0.50400001928E-02 0.  1.
        1   -1    0    0  501    0  0.00000000000E+00  0.00000000000E+00 -0.23081158244E+04  0.23081158244E+04  0.50400001928E-02 0. -1.
    10030    2    1    2    0    0  0.00000000000E+00  0.00000000000E+00 -0.17840239690E+04  0.28322076798E+04  0.21996951651E+04 0.  0.
        3    1    3    3  502    0  0.39288903592E+03  0.98199774383E+03 -0.50364391812E+03  0.11714685527E+04  0.10100000352E+00 0.  1.
       -3    1    3    3    0  502 -0.39288903592E+03 -0.98199774383E+03 -0.12803800509E+04  0.16607391271E+04  0.10100000352E+00 0. -1.
</event>
<event>
 5   0  0.2556869E-06  0.2199583E+04  0.7818609E-02  0.8518602E-01
       -2   -1    0    0    0  501  0.00000000000E+00  0.00000000000E+00  0.69393705444E+03  0.69393705445E+03  0.25500000920E-02 0. -1.
        2   -1    0    0  501    0  0.00000000000E+00  0.00000000000E+00 -0.17430127730E+04  0.17430127730E+04  0.25500000920E-02 0.  1.
    10030    2    1    2    0    0  0.00000000000E+00  0.00000000000E+00 -0.10490757186E+04  0.24369498275E+04  0.21995828237E+04 0.  0.
        5    1    3    3  502    0  0.49660540599E+03  0.53727120819E+03 -0.14342711724E+04  0.16101034645E+04  0.46999998093E+01 0.  1.
       -5    1    3    3    0  502 -0.49660540599E+03 -0.53727120819E+03  0.38519545378E+03  0.82684636301E+03  0.46999998093E+01 0. -1.
</event>
<event>
 5   0  0.1146827E-06  0.2199538E+04  0.7818609E-02  0.8518620E-01
       -1   -1    0    0    0  501  0.00000000000E+00  0.00000000000E+00  0.56943896809E+03  0.56943896811E+03  0.50400001928E-02 0. -1.
        1   -1    0    0  501    0  0.00000000000E+00  0.00000000000E+00 -0.21240066181E+04  0.21240066182E+04  0.50400001928E-02 0.  1.
    10030    2    1    2    0    0  0.00000000000E+00  0.00000000000E+00 -0.15545676501E+04  0.26934455863E+04  0.21995382578E+04 0.  0.
        4    1    3    3  502    0 -0.22823354299E+03 -0.76523948364E+02 -0.20913491804E+04  0.21051578259E+04  0.12699999809E+01 0.  1.
       -4    1    3    3    0  502  0.22823354299E+03  0.76523948364E+02  0.53678153030E+03  0.58828776036E+03  0.12699999809E+01 0. -1.
</event>
<event>
 5   0  0.2556869E-06  0.2197551E+04  0.7818609E-02  0.8519448E-01
       -2   -1    0    0    0  501  0.00000000000E+00  0.00000000000E+00  0.48102260245E+03  0.48102260246E+03  0.25500000920E-02 0. -1.
        2   -1    0    0  501    0  0.00000000000E+00  0.00000000000E+00 -0.25098773138E+04  0.25098773138E+04  0.25500000920E-02 0.  1.
    10030    2    1    2    0    0  0.00000000000E+00  0.00000000000E+00 -0.20288547113E+04  0.29908999163E+04  0.21975511073E+04 0.  0.
        5    1    3    3  502    0  0.67448947409E+03  0.26188771944E+03  0.11099655805E+03  0.73202701737E+03  0.46999998093E+01 0. -1.
       -5    1    3    3    0  502 -0.67448947409E+03 -0.26188771944E+03 -0.21398512694E+04  0.22588728989E+04  0.46999998093E+01 0.  1.
</event>
<event>
 5   0  0.1146827E-06  0.2200258E+04  0.7818609E-02  0.8518321E-01
       -1   -1    0    0    0  501  0.00000000000E+00  0.00000000000E+00  0.16994559834E+04  0.16994559834E+04  0.50400001928E-02 0. -1.
        1   -1    0    0  501    0  0.00000000000E+00  0.00000000000E+00 -0.71215975603E+03  0.71215975605E+03  0.50400001928E-02 0.  1.
    10030    2    1    2    0    0  0.00000000000E+00  0.00000000000E+00  0.98729622734E+03  0.24116157394E+04  0.22002583108E+04 0.  0.
        4    1    3    3  502    0 -0.52857119630E+03 -0.56899743133E+03  0.13476872548E+04  0.15554446747E+04  0.12699999809E+01 0. -1.
       -4    1    3    3    0  502  0.52857119630E+03  0.56899743133E+03 -0.36039102749E+03  0.85617106469E+03  0.12699999809E+01 0.  1.
</event>
<event>
 5   0  0.1137869E-06  0.2199483E+04  0.7818609E-02  0.8518643E-01
       -1   -1    0    0    0  501  0.00000000000E+00  0.00000000000E+00  0.13944505206E+04  0.13944505206E+04  0.50400001928E-02 0. -1.
        1   -1    0    0  501    0  0.00000000000E+00  0.00000000000E+00 -0.86731734014E+03  0.86731734015E+03  0.50400001928E-02 0.  1.
    10030    2    1    2    0    0  0.00000000000E+00  0.00000000000E+00  0.52713318045E+03  0.22617678607E+04  0.21994827724E+04 0.  0.
        5    1    3    3  502    0 -0.14981752963E+03 -0.11746957560E+03  0.13773659012E+04  0.13904687372E+04  0.46999998093E+01 0. -1.
       -5    1    3    3    0  502  0.14981752963E+03  0.11746957560E+03 -0.85023272071E+03  0.87129912357E+03  0.46999998093E+01 0.  1.
</event>
<event>
 5   0  0.1144271E-06  0.2199414E+04  0.7818609E-02  0.8518672E-01
       -1   -1    0    0    0  501  0.00000000000E+00  0.00000000000E+00  0.13844221429E+04  0.13844221429E+04  0.50400001928E-02 0. -1.
        1   -1    0    0  501    0  0.00000000000E+00  0.00000000000E+00 -0.87354525114E+03  0.87354525116E+03  0.50400001928E-02 0.  1.
    10030    2    1    2    0    0  0.00000000000E+00  0.00000000000E+00  0.51087689180E+03  0.22579673941E+04  0.21994139115E+04 0.  0.
        3    1    3    3  502    0  0.49130995271E+03  0.54998861818E+03 -0.58205032943E+03  0.93949749651E+03  0.10100000352E+00 0.  1.
       -3    1    3    3    0  502 -0.49130995271E+03 -0.54998861818E+03  0.10929272212E+04  0.13184698976E+04  0.10100000352E+00 0. -1.
</event>
<event>
 5   0  0.1107101E-06  0.2198620E+04  0.7818609E-02  0.8519003E-01
        1   -1    0    0  501    0  0.00000000000E+00  0.00000000000E+00  0.24004285131E+04  0.24004285131E+04  0.50400001928E-02 0. -1.
       -1   -1    0    0    0  501  0.00000000000E+00  0.00000000000E+00 -0.50344459502E+03  0.50344459504E+03  0.50400001928E-02 0.  1.
    10030    2    1    2    0    0  0.00000000000E+00  0.00000000000E+00  0.18969839181E+04  0.29038731082E+04  0.21986202589E+04 0.  0.
        1    1    3    3  502    0 -0.95105758998E+03  0.89606385521E+02  0.22998432885E+03  0.98256431612E+03  0.50400001928E-02 0.  1.
       -1    1    3    3    0  502  0.95105758998E+03 -0.89606385521E+02  0.16669995892E+04  0.19213087920E+04  0.50400001928E-02 0. -1.
</event>
<event>
 5   0  0.2524749E-06  0.2200793E+04  0.7818609E-02  0.8518098E-01
       -2   -1    0    0    0  501  0.00000000000E+00  0.00000000000E+00  0.76640475019E+03  0.76640475020E+03  0.25500000920E-02 0.  1.
        2   -1    0    0  501    0  0.00000000000E+00  0.00000000000E+00 -0.15799387502E+04  0.15799387502E+04  0.25500000920E-02 0. -1.
    10030    2    1    2    0    0  0.00000000000E+00  0.00000000000E+00 -0.81353399996E+03  0.23463435004E+04  0.22007930963E+04 0.  0.
        4    1    3    3  502    0 -0.32941943959E+02 -0.61005289839E+03 -0.13825117381E+04  0.15114860335E+04  0.12699999809E+01 0. -1.
       -4    1    3    3    0  502  0.32941943959E+02  0.61005289839E+03  0.56897773818E+03  0.83485746684E+03  0.12699999809E+01 0.  1.
</event>
<event>
 5   0  0.2606154E-06  0.2199109E+04  0.7818609E-02  0.8518799E-01
       -2   -1    0    0    0  501  0.00000000000E+00  0.00000000000E+00  0.95813484353E+03  0.95813484353E+03  0.25500000920E-02 0. -1.
        2   -1    0    0  501    0  0.00000000000E+00  0.00000000000E+00 -0.12618470865E+04  0.12618470865E+04  0.25500000920E-02 0.  1.
    10030    2    1    2    0    0  0.00000000000E+00  0.00000000000E+00 -0.30371224292E+03  0.22199819300E+04  0.21991086019E+04 0.  0.
        2    1    3    3  502    0 -0.10781408183E+04 -0.16095475113E+03 -0.29718648751E+03  0.11298733842E+04  0.25500000920E-02 0. -1.
       -2    1    3    3    0  502  0.10781408183E+04  0.16095475113E+03 -0.65257554111E+01  0.10901085458E+04  0.25500000920E-02 0.  1.
</event>
<event>
 5   0  0.1144271E-06  0.2199908E+04  0.7818609E-02  0.8518467E-01
       -1   -1    0    0    0  501  0.00000000000E+00  0.00000000000E+00  0.10036651114E+04  0.10036651114E+04  0.50400001928E-02 0.  1.
        1   -1    0    0  501    0  0.00000000000E+00  0.00000000000E+00 -0.12054801200E+04  0.12054801200E+04  0.50400001928E-02 0. -1.
    10030    2    1    2    0    0  0.00000000000E+00  0.00000000000E+00 -0.20181500860E+03  0.22091452314E+04  0.21999075789E+04 0.  0.
        3    1    3    3  502    0 -0.29797934819E+03  0.54132023176E+03 -0.10147171308E+04  0.11880530927E+04  0.10100000352E+00 0. -1.
       -3    1    3    3    0  502  0.29797934819E+03 -0.54132023176E+03  0.81290212220E+03  0.10210921387E+04  0.10100000352E+00 0.  1.
</event>
<event>
 5   0  0.2532239E-06  0.2200249E+04  0.7818609E-02  0.8518325E-01
       -2   -1    0    0    0  501  0.00000000000E+00  0.00000000000E+00  0.66986506729E+03  0.66986506729E+03  0.25500000920E-02 0.  1.
        2   -1    0    0  501    0  0.00000000000E+00  0.00000000000E+00 -0.18067424788E+04  0.18067424788E+04  0.25500000920E-02 0. -1.
    10030    2    1    2    0    0  0.00000000000E+00  0.00000000000E+00 -0.11368774115E+04  0.24766075461E+04  0.22002487788E+04 0.  0.
        3    1    3    3  502    0  0.20380902356E+03 -0.91411347611E+03 -0.12181099468E+04  0.15365329212E+04  0.10100000352E+00 0. -1.
       -3    1    3    3    0  502 -0.20380902356E+03  0.91411347611E+03  0.81232535317E+02  0.94007462485E+03  0.10100000352E+00 0.  1.
</event>
<event>
 5   0  0.1107101E-06  0.2200886E+04  0.7818609E-02  0.8518059E-01
        1   -1    0    0  501    0  0.00000000000E+00  0.00000000000E+00  0.27275191031E+04  0.27275191031E+04  0.50400001928E-02 0.  1.
       -1   -1    0    0    0  501  0.00000000000E+00  0.00000000000E+00 -0.44398409272E+03  0.44398409275E+03  0.50400001928E-02 0. -1.
    10030    2    1    2    0    0  0.00000000000E+00  0.00000000000E+00  0.22835350104E+04  0.31715031958E+04  0.22008862710E+04 0.  0.
        1    1    3    3  502    0  0.10241551431E+04  0.73476503825E+02  0.17121653222E+04  0.19964475060E+04  0.50400001928E-02 0.  1.
       -1    1    3    3    0  502 -0.10241551431E+04 -0.73476503825E+02  0.57136968819E+03  0.11750556899E+04  0.50400001928E-02 0. -1.
</event>
<event>
 5   0  0.1146827E-06  0.2201235E+04  0.7818609E-02  0.8517914E-01
       -1   -1    0    0    0  501  0.00000000000E+00  0.00000000000E+00  0.78361855808E+03  0.78361855810E+03  0.50400001928E-02 0.  1.
        1   -1    0    0  501    0  0.00000000000E+00  0.00000000000E+00 -0.15458525359E+04  0.15458525359E+04  0.50400001928E-02 0. -1.
    10030    2    1    2    0    0  0.00000000000E+00  0.00000000000E+00 -0.76223397785E+03  0.23294710940E+04  0.22012348673E+04 0.  0.
        4    1    3    3  502    0  0.54625524254E+03 -0.12602247538E+03 -0.13834376699E+04  0.14927082279E+04  0.12699999809E+01 0. -1.
       -4    1    3    3    0  502 -0.54625524254E+03  0.12602247538E+03  0.62120369201E+03  0.83676286615E+03  0.12699999809E+01 0.  1.
</event>
<event>
 5   0  0.1137869E-06  0.2186871E+04  0.7818609E-02  0.8523913E-01
        1   -1    0    0  501    0  0.00000000000E+00  0.00000000000E+00  0.14927107086E+04  0.14927107086E+04  0.50400001928E-02 0.  1.
       -1   -1    0    0    0  501  0.00000000000E+00  0.00000000000E+00 -0.80095978554E+03  0.80095978556E+03  0.50400001928E-02 0. -1.
    10030    2    1    2    0    0  0.00000000000E+00  0.00000000000E+00  0.69175092310E+03  0.22936704942E+04  0.21868710516E+04 0.  0.
        5    1    3    3  502    0 -0.35704944750E+03  0.46584966490E+03 -0.62171766442E+03  0.85501763870E+03  0.46999998093E+01 0. -1.
       -5    1    3    3    0  502  0.35704944750E+03 -0.46584966490E+03  0.13134685875E+04  0.14386528555E+04  0.46999998093E+01 0.  1.
</event>
<event>
 5   0  0.2532239E-06  0.2201539E+04  0.7818609E-02  0.8517788E-01
       -2   -1    0    0    0  501  0.00000000000E+00  0.00000000000E+00  0.69662867669E+03  0.69662867670E+03  0.25500000920E-02 0.  1.
        2   -1    0    0  501    0  0.00000000000E+00  0.00000000000E+00 -0.17393681189E+04  0.17393681189E+04  0.25500000920E-02 0. -1.
    10030    2    1    2    0    0  0.00000000000E+00  0.00000000000E+00 -0.10427394422E+04  0.24359967956E+04  0.22015391988E+04 0.  0.
        3    1    3    3  502    0  0.71075281321E+02 -0.10961725618E+04 -0.44275607991E+03  0.11843474733E+04  0.10100000352E+00 0. -1.
       -3    1    3    3    0  502 -0.71075281321E+02  0.10961725618E+04 -0.59998336232E+03  0.12516493224E+04  0.10100000352E+00 0.  1.
</event>
<event>
 5   0  0.1107101E-06  0.2200436E+04  0.7818609E-02  0.8518247E-01
        1   -1    0    0  501    0  0.00000000000E+00  0.00000000000E+00  0.11263716516E+04  0.11263716516E+04  0.50400001928E-02 0.  1.
       -1   -1    0    0    0  501  0.00000000000E+00  0.00000000000E+00 -0.10746713099E+04  0.10746713099E+04  0.50400001928E-02 0. -1.
    10030    2    1    2    0    0  0.00000000000E+00  0.00000000000E+00  0.51700341690E+02  0.22010429615E+04  0.22004356825E+04 0.  0.
        1    1    3    3  502    0  0.83762420351E+03 -0.47718735023E+03 -0.50453877544E+03  0.10880631643E+04  0.50400001928E-02 0. -1.
       -1    1    3    3    0  502 -0.83762420351E+03  0.47718735023E+03  0.55623911713E+03  0.11129797972E+04  0.50400001928E-02 0.  1.
</event>
<event>
 5   0  0.2581058E-06  0.2200545E+04  0.7818609E-02  0.8518201E-01
        2   -1    0    0  501    0  0.00000000000E+00  0.00000000000E+00  0.19093673631E+04  0.19093673631E+04  0.25500000920E-02 0. -1.
       -2   -1    0    0    0  501  0.00000000000E+00  0.00000000000E+00 -0.63403178025E+03  0.63403178026E+03  0.25500000920E-02 0.  1.
    10030    2    1    2    0    0  0.00000000000E+00  0.00000000000E+00  0.12753355829E+04  0.25433991434E+04  0.22005450129E+04 0.  0.
        1    1    3    3  502    0 -0.62595275972E+03 -0.71382528713E+03 -0.50634662402E+01  0.94941510240E+03  0.50400001928E-02 0.  1.
       -1    1    3    3    0  502  0.62595275972E+03  0.71382528713E+03  0.12803990491E+04  0.15939840410E+04  0.50400001928E-02 0. -1.
</event>
<event>
 5   0  0.1146827E-06  0.2200215E+04  0.7818609E-02  0.8518339E-01
        1   -1    0    0  501    0  0.00000000000E+00  0.00000000000E+00  0.17464990718E+04  0.17464990718E+04  0.50400001928E-02 0. -1.
       -1   -1    0    0    0  501  0.00000000000E+00  0.00000000000E+00 -0.69294990640E+03  0.69294990642E+03  0.50400001928E-02 0.  1.
    10030    2    1    2    0    0  0.00000000000E+00  0.00000000000E+00  0.10535491654E+04  0.24394489782E+04  0.22002148698E+04 0.  0.
        4    1    3    3  502    0  0.11157708664E+03 -0.10615782746E+04  0.23168332445E+03  0.10922804837E+04  0.12699999809E+01 0.  1.
       -4    1    3    3    0  502 -0.11157708664E+03  0.10615782746E+04  0.82186584097E+03  0.13471684946E+04  0.12699999809E+01 0. -1.
</event>
<event>
 5   0  0.1137869E-06  0.2200490E+04  0.7818609E-02  0.8518224E-01
        1   -1    0    0  501    0  0.00000000000E+00  0.00000000000E+00  0.12621199999E+04  0.12621199999E+04  0.50400001928E-02 0. -1.
       -1   -1    0    0    0  501  0.00000000000E+00  0.00000000000E+00 -0.95913133533E+03  0.95913133534E+03  0.50400001928E-02 0.  1.
    10030    2    1    2    0    0  0.00000000000E+00  0.00000000000E+00  0.30298866460E+03  0.22212513353E+04  0.22004898008E+04 0.  0.
        5    1    3    3  502    0  0.77741826063E+03 -0.72441204710E+03 -0.13644207562E+03  0.10713498476E+04  0.46999998093E+01 0. -1.
       -5    1    3    3    0  502 -0.77741826063E+03  0.72441204710E+03  0.43943074022E+03  0.11499014877E+04  0.46999998093E+01 0.  1.
</event>
<event>
 5   0  0.1082209E-06  0.2199663E+04  0.7818609E-02  0.8518568E-01
        1   -1    0    0  501    0  0.00000000000E+00  0.00000000000E+00  0.16722759311E+04  0.16722759311E+04  0.50400001928E-02 0. -1.
       -1   -1    0    0    0  501  0.00000000000E+00  0.00000000000E+00 -0.72334310324E+03  0.72334310326E+03  0.50400001928E-02 0.  1.
    10030    2    1    2    0    0  0.00000000000E+00  0.00000000000E+00  0.94893282782E+03  0.23956190343E+04  0.21996629392E+04 0.  0.
        2    1    3    3  502    0  0.58497304670E+02 -0.10657227342E+04  0.76352017832E+03  0.13123071072E+04  0.25500000920E-02 0. -1.
       -2    1    3    3    0  502 -0.58497304670E+02  0.10657227342E+04  0.18541264949E+03  0.10833119271E+04  0.25500000920E-02 0.  1.
</event>
<event>
 5   0  0.1146827E-06  0.2199802E+04  0.7818609E-02  0.8518511E-01
        1   -1    0    0  501    0  0.00000000000E+00  0.00000000000E+00  0.12766128038E+04  0.12766128038E+04  0.50400001928E-02 0. -1.
       -1   -1    0    0    0  501  0.00000000000E+00  0.00000000000E+00 -0.94764992575E+03  0.94764992576E+03  0.50400001928E-02 0.  1.
    10030    2    1    2    0    0  0.00000000000E+00  0.00000000000E+00  0.32896287806E+03  0.22242627296E+04  0.21998018354E+04 0.  0.
        4    1    3    3  502    0 -0.62467604561E+03 -0.88540884040E+03 -0.26326872169E+02  0.10839112942E+04  0.12699999809E+01 0.  1.
       -4    1    3    3    0  502  0.62467604561E+03  0.88540884040E+03  0.35528975023E+03  0.11403514354E+04  0.12699999809E+01 0. -1.
</event>
<event>
 5   0  0.1137869E-06  0.2199858E+04  0.7818609E-02  0.8518487E-01
       -1   -1    0    0    0  501  0.00000000000E+00  0.00000000000E+00  0.97074945874E+03  0.97074945875E+03  0.50400001928E-02 0. -1.
        1   -1    0    0  501    0  0.00000000000E+00  0.00000000000E+00 -0.12462987917E+04  0.12462987917E+04  0.50400001928E-02 0.  1.
    10030    2    1    2    0    0  0.00000000000E+00  0.00000000000E+00 -0.27554933293E+03  0.22170482504E+04  0.21998580658E+04 0.  0.
        5    1    3    3  502    0  0.35705950386E+03  0.65160097316E+03 -0.95512782781E+03  0.12101101499E+04  0.46999998093E+01 0.  1.
       -5    1    3    3    0  502 -0.35705950386E+03 -0.65160097316E+03  0.67957849489E+03  0.10069381005E+04  0.46999998093E+01 0. -1.
</event>
<event>
 5   0  0.2606154E-06  0.2210101E+04  0.7818609E-02  0.8514236E-01
       -2   -1    0    0    0  501  0.00000000000E+00  0.00000000000E+00  0.12074483589E+04  0.12074483589E+04  0.25500000920E-02 0.  1.
        2   -1    0    0  501    0  0.00000000000E+00  0.00000000000E+00 -0.10113363543E+04  0.10113363543E+04  0.25500000920E-02 0. -1.
    10030    2    1    2    0    0  0.00000000000E+00  0.00000000000E+00  0.19611200464E+03  0.22187847132E+04  0.22101008315E+04 0.  0.
        2    1    3    3  502    0  0.93805085541E+03 -0.36602488023E+03 -0.35894993986E+03  0.10689989147E+04  0.25500000920E-02 0. -1.
       -2    1    3    3    0  502 -0.93805085541E+03  0.36602488023E+03  0.55506194449E+03  0.11497857985E+04  0.25500000920E-02 0.  1.
</event>
<event>
 5   0  0.1107101E-06  0.2200646E+04  0.7818609E-02  0.8518159E-01
        1   -1    0    0  501    0  0.00000000000E+00  0.00000000000E+00  0.15581383533E+04  0.15581383533E+04  0.50400001928E-02 0.  1.
       -1   -1    0    0    0  501  0.00000000000E+00  0.00000000000E+00 -0.77702353672E+03  0.77702353673E+03  0.50400001928E-02 0. -1.
    10030    2    1    2    0    0  0.00000000000E+00  0.00000000000E+00  0.78111481659E+03  0.23351618900E+04  0.22006455180E+04 0.  0.
        1    1    3    3  502    0  0.83929263479E+03  0.70764437075E+03  0.46952037321E+03  0.11939941638E+04  0.50400001928E-02 0.  1.
       -1    1    3    3    0  502 -0.83929263479E+03 -0.70764437075E+03  0.31159444338E+03  0.11411677263E+04  0.50400001928E-02 0. -1.
</event>
<event>
 5   0  0.1107101E-06  0.2199749E+04  0.7818609E-02  0.8518533E-01
       -1   -1    0    0    0  501  0.00000000000E+00  0.00000000000E+00  0.74808868476E+03  0.74808868478E+03  0.50400001928E-02 0. -1.
        1   -1    0    0  501    0  0.00000000000E+00  0.00000000000E+00 -0.16170857308E+04  0.16170857308E+04  0.50400001928E-02 0.  1.
    10030    2    1    2    0    0  0.00000000000E+00  0.00000000000E+00 -0.86899704608E+03  0.23651744156E+04  0.21997486562E+04 0.  0.
        1    1    3    3  502    0 -0.90447345710E+03  0.39051375191E+03  0.91307537837E+02  0.98939895468E+03  0.50400001928E-02 0. -1.
       -1    1    3    3    0  502  0.90447345710E+03 -0.39051375191E+03 -0.96030458391E+03  0.13757754609E+04  0.50400001928E-02 0.  1.
</event>
<event>
 5   0  0.1107101E-06  0.2199941E+04  0.7818609E-02  0.8518453E-01
        1   -1    0    0  501    0  0.00000000000E+00  0.00000000000E+00  0.75307415289E+03  0.75307415290E+03  0.50400001928E-02 0. -1.
       -1   -1    0    0    0  501  0.00000000000E+00  0.00000000000E+00 -0.16066612571E+04  0.16066612571E+04  0.50400001928E-02 0.  1.
    10030    2    1    2    0    0  0.00000000000E+00  0.00000000000E+00 -0.85358710424E+03  0.23597354100E+04  0.21999409676E+04 0.  0.
        1    1    3    3  502    0  0.84814669773E+03  0.31393082355E+03 -0.10983952070E+04  0.14228061757E+04  0.50400001928E-02 0.  1.
       -1    1    3    3    0  502 -0.84814669773E+03 -0.31393082355E+03  0.24480810280E+03  0.93692923429E+03  0.50400001928E-02 0. -1.
</event>
<event>
 5   0  0.2524749E-06  0.2196094E+04  0.7818609E-02  0.8520055E-01
       -2   -1    0    0    0  501  0.00000000000E+00  0.00000000000E+00  0.46582144561E+03  0.46582144562E+03  0.25500000920E-02 0.  1.
        2   -1    0    0  501    0  0.00000000000E+00  0.00000000000E+00 -0.25883471180E+04  0.25883471180E+04  0.25500000920E-02 0. -1.
    10030    2    1    2    0    0  0.00000000000E+00  0.00000000000E+00 -0.21225256724E+04  0.30541685636E+04  0.21960943480E+04 0.  0.
        4    1    3    3  502    0  0.95773304821E+03  0.27510743007E+03 -0.17027625758E+04  0.19729010852E+04  0.12699999809E+01 0. -1.
       -4    1    3    3    0  502 -0.95773304821E+03 -0.27510743007E+03 -0.41976309665E+03  0.10812674784E+04  0.12699999809E+01 0.  1.
</event>
<event>
 5   0  0.1144271E-06  0.2200221E+04  0.7818609E-02  0.8518336E-01
       -1   -1    0    0    0  501  0.00000000000E+00  0.00000000000E+00  0.98342790194E+03  0.98342790196E+03  0.50400001928E-02 0. -1.
        1   -1    0    0  501    0  0.00000000000E+00  0.00000000000E+00 -0.12306375348E+04  0.12306375349E+04  0.50400001928E-02 0.  1.
    10030    2    1    2    0    0  0.00000000000E+00  0.00000000000E+00 -0.24720963291E+03  0.22140654368E+04  0.22002211607E+04 0.  0.
        3    1    3    3  502    0 -0.93596728078E+03  0.19294740930E+03 -0.67199236947E+03  0.11682624740E+04  0.10100000352E+00 0.  1.
       -3    1    3    3    0  502  0.93596728078E+03 -0.19294740930E+03  0.42478273656E+03  0.10458029628E+04  0.10100000352E+00 0. -1.
</event>
<event>
 5   0  0.2524749E-06  0.2195904E+04  0.7818609E-02  0.8520135E-01
       -2   -1    0    0    0  501  0.00000000000E+00  0.00000000000E+00  0.94642702781E+03  0.94642702781E+03  0.25500000920E-02 0. -1.
        2   -1    0    0  501    0  0.00000000000E+00  0.00000000000E+00 -0.12737364336E+04  0.12737364336E+04  0.25500000920E-02 0.  1.
    10030    2    1    2    0    0  0.00000000000E+00  0.00000000000E+00 -0.32730940577E+03  0.22201634614E+04  0.21959039934E+04 0.  0.
        4    1    3    3  502    0 -0.28054693981E+03 -0.72665619832E+03  0.61869047902E+03  0.99474385533E+03  0.12699999809E+01 0. -1.
       -4    1    3    3    0  502  0.28054693981E+03  0.72665619832E+03 -0.94599988479E+03  0.12254196061E+04  0.12699999809E+01 0.  1.
</event>
<event>
 5   0  0.2532239E-06  0.2200011E+04  0.7818609E-02  0.8518423E-01
        2   -1    0    0  501    0  0.00000000000E+00  0.00000000000E+00  0.22530650848E+04  0.22530650848E+04  0.25500000920E-02 0.  1.
       -2   -1    0    0    0  501  0.00000000000E+00  0.00000000000E+00 -0.53705174478E+03  0.53705174478E+03  0.25500000920E-02 0. -1.
    10030    2    1    2    0    0  0.00000000000E+00  0.00000000000E+00  0.17160133401E+04  0.27901168296E+04  0.22000113954E+04 0.  0.
        3    1    3    3  502    0  0.12119950075E+03 -0.10920424238E+04  0.79130038533E+03  0.13540318624E+04  0.10100000352E+00 0.  1.
       -3    1    3    3    0  502 -0.12119950075E+03  0.10920424238E+04  0.92471295472E+03  0.14360849672E+04  0.10100000352E+00 0. -1.
</event>
<event>
 5   0  0.2581058E-06  0.2200128E+04  0.7818609E-02  0.8518375E-01
        2   -1    0    0  501    0  0.00000000000E+00  0.00000000000E+00  0.26777021044E+04  0.26777021044E+04  0.25500000920E-02 0. -1.
       -2   -1    0    0    0  501  0.00000000000E+00  0.00000000000E+00 -0.45193273114E+03  0.45193273115E+03  0.25500000920E-02 0.  1.
    10030    2    1    2    0    0  0.00000000000E+00  0.00000000000E+00  0.22257693732E+04  0.31296348355E+04  0.22001283828E+04 0.  0.
        1    1    3    3  502    0 -0.95239900004E+03  0.42319110480E+03  0.16137640304E+04  0.19210384984E+04  0.50400001928E-02 0. -1.
       -1    1    3    3    0  502  0.95239900004E+03 -0.42319110480E+03  0.61200534283E+03  0.12085963371E+04  0.50400001928E-02 0.  1.
</event>
<event>
 5   0  0.2524749E-06  0.2201061E+04  0.7818609E-02  0.8517987E-01
        2   -1    0    0  501    0  0.00000000000E+00  0.00000000000E+00  0.13340244994E+04  0.13340244994E+04  0.25500000920E-02 0.  1.
       -2   -1    0    0    0  501  0.00000000000E+00  0.00000000000E+00 -0.90790461836E+03  0.90790461836E+03  0.25500000920E-02 0. -1.
    10030    2    1    2    0    0  0.00000000000E+00  0.00000000000E+00  0.42611988101E+03  0.22419291177E+04  0.22010606570E+04 0.  0.
        4    1    3    3  502    0 -0.84664050764E+03 -0.32375618145E+03  0.84878582856E+03  0.12417959614E+04  0.12699999809E+01 0.  1.
       -4    1    3    3    0  502  0.84664050764E+03  0.32375618145E+03 -0.42266594755E+03  0.10001331563E+04  0.12699999809E+01 0. -1.
</event>
<event>
 5   0  0.1144271E-06  0.2199903E+04  0.7818609E-02  0.8518469E-01
        1   -1    0    0  501    0  0.00000000000E+00  0.00000000000E+00  0.80074786478E+03  0.80074786479E+03  0.50400001928E-02 0. -1.
       -1   -1    0    0    0  501  0.00000000000E+00  0.00000000000E+00 -0.15109537192E+04  0.15109537193E+04  0.50400001928E-02 0.  1.
    10030    2    1    2    0    0  0.00000000000E+00  0.00000000000E+00 -0.71020585447E+03  0.23117015840E+04  0.21999026928E+04 0.  0.
        3    1    3    3  502    0 -0.54525460308E+03 -0.63167471594E+03 -0.11081658441E+04  0.13872083756E+04  0.10100000352E+00 0.  1.
       -3    1    3    3    0  502  0.54525460308E+03  0.63167471594E+03  0.39795998967E+03  0.92449320848E+03  0.10100000352E+00 0. -1.
</event>
<event>
 5   0  0.2532239E-06  0.2201443E+04  0.7818609E-02  0.8517828E-01
       -2   -1    0    0    0  501  0.00000000000E+00  0.00000000000E+00  0.81315481227E+03  0.81315481227E+03  0.25500000920E-02 0. -1.
        2   -1    0    0  501    0  0.00000000000E+00  0.00000000000E+00 -0.14899843325E+04  0.14899843325E+04  0.25500000920E-02 0.  1.
    10030    2    1    2    0    0  0.00000000000E+00  0.00000000000E+00 -0.67682952026E+03  0.23031391448E+04  0.22014430996E+04 0.  0.
        3    1    3    3  502    0 -0.88305368172E+03  0.63819702920E+03 -0.17463035087E+03  0.11034378200E+04  0.10100000352E+00 0. -1.
       -3    1    3    3    0  502  0.88305368172E+03 -0.63819702920E+03 -0.50219916939E+03  0.11997013248E+04  0.10100000352E+00 0.  1.
</event>
<event>
 5   0  0.1144271E-06  0.2199311E+04  0.7818609E-02  0.8518715E-01
        1   -1    0    0  501    0  0.00000000000E+00  0.00000000000E+00  0.23234714278E+04  0.23234714278E+04  0.50400001928E-02 0.  1.
       -1   -1    0    0    0  501  0.00000000000E+00  0.00000000000E+00 -0.52044618588E+03  0.52044618591E+03  0.50400001928E-02 0. -1.
    10030    2    1    2    0    0  0.00000000000E+00  0.00000000000E+00  0.18030252419E+04  0.28439176137E+04  0.21993106581E+04 0.  0.
        3    1    3    3  502    0 -0.17845404214E+03  0.48182395565E+03 -0.35568010625E+03  0.62490680712E+03  0.10100000352E+00 0. -1.
       -3    1    3    3    0  502  0.17845404214E+03 -0.48182395565E+03  0.21587053482E+04  0.22190108066E+04  0.10100000352E+00 0.  1.
</event>
<event>
 5   0  0.2524749E-06  0.2198929E+04  0.7818609E-02  0.8518874E-01
        2   -1    0    0  501    0  0.00000000000E+00  0.00000000000E+00  0.28572627678E+04  0.28572627678E+04  0.25500000920E-02 0. -1.
       -2   -1    0    0    0  501  0.00000000000E+00  0.00000000000E+00 -0.42306996922E+03  0.42306996923E+03  0.25500000920E-02 0.  1.
    10030    2    1    2    0    0  0.00000000000E+00  0.00000000000E+00  0.24341927986E+04  0.32803327370E+04  0.21989288949E+04 0.  0.
        4    1    3    3  502    0 -0.15667153955E+03  0.50144120439E+03 -0.22371867960E+03  0.57099992405E+03  0.12699999809E+01 0.  1.
       -4    1    3    3    0  502  0.15667153955E+03 -0.50144120439E+03  0.26579114782E+04  0.27093328130E+04  0.12699999809E+01 0. -1.
</event>
<event>
 5   0  0.2606154E-06  0.2199396E+04  0.7818609E-02  0.8518680E-01
       -2   -1    0    0    0  501  0.00000000000E+00  0.00000000000E+00  0.91418449242E+03  0.91418449242E+03  0.25500000920E-02 0.  1.
        2   -1    0    0  501    0  0.00000000000E+00  0.00000000000E+00 -0.13228569125E+04  0.13228569125E+04  0.25500000920E-02 0. -1.
    10030    2    1    2    0    0  0.00000000000E+00  0.00000000000E+00 -0.40867242007E+03  0.22370414049E+04  0.21993956216E+04 0.  0.
        2    1    3    3  502    0  0.94981755727E+03 -0.34919264181E+03  0.23343332329E+03  0.10385470666E+04  0.25500000920E-02 0.  1.
       -2    1    3    3    0  502 -0.94981755727E+03  0.34919264181E+03 -0.64210574336E+03  0.11984943383E+04  0.25500000920E-02 0. -1.
</event>
<event>
 5   0  0.2581058E-06  0.2201099E+04  0.7818609E-02  0.8517971E-01
       -2   -1    0    0    0  501  0.00000000000E+00  0.00000000000E+00  0.52653550463E+03  0.52653550464E+03  0.25500000920E-02 0. -1.
        2   -1    0    0  501    0  0.00000000000E+00  0.00000000000E+00 -0.23003374621E+04  0.23003374621E+04  0.25500000920E-02 0.  1.
    10030    2    1    2    0    0  0.00000000000E+00  0.00000000000E+00 -0.17738019575E+04  0.28268729667E+04  0.22010991313E+04 0.  0.
        1    1    3    3  502    0  0.40929482681E+03 -0.51985358829E+03 -0.20163842911E+04  0.21221629575E+04  0.50400001928E-02 0.  1.
       -1    1    3    3    0  502 -0.40929482681E+03  0.51985358829E+03  0.24258233368E+03  0.70471000926E+03  0.50400001928E-02 0. -1.
</event>
<event>
 5   0  0.2532239E-06  0.2198325E+04  0.7818609E-02  0.8519125E-01
        2   -1    0    0  501    0  0.00000000000E+00  0.00000000000E+00  0.23502622103E+04  0.23502622103E+04  0.25500000920E-02 0.  1.
       -2   -1    0    0    0  501  0.00000000000E+00  0.00000000000E+00 -0.51405272127E+03  0.51405272127E+03  0.25500000920E-02 0. -1.
    10030    2    1    2    0    0  0.00000000000E+00  0.00000000000E+00  0.18362094890E+04  0.28643149315E+04  0.21983254399E+04 0.  0.
        3    1    3    3  502    0  0.29546735802E+03 -0.76418018745E+03  0.18728114324E+04  0.20441856545E+04  0.10100000352E+00 0.  1.
       -3    1    3    3    0  502 -0.29546735802E+03  0.76418018745E+03 -0.36601943430E+02  0.82012927701E+03  0.10100000352E+00 0. -1.
</event>
<event>
 5   0  0.2606154E-06  0.2199566E+04  0.7818609E-02  0.8518609E-01
        2   -1    0    0  501    0  0.00000000000E+00  0.00000000000E+00  0.16968815930E+04  0.16968815931E+04  0.25500000920E-02 0. -1.
       -2   -1    0    0    0  501  0.00000000000E+00  0.00000000000E+00 -0.71279153786E+03  0.71279153786E+03  0.25500000920E-02 0.  1.
    10030    2    1    2    0    0  0.00000000000E+00  0.00000000000E+00  0.98409005519E+03  0.24096731309E+04  0.21995661757E+04 0.  0.
        2    1    3    3  502    0  0.98104454864E+02  0.62516650261E+03  0.14774457204E+04  0.16072658450E+04  0.25500000920E-02 0. -1.
       -2    1    3    3    0  502 -0.98104454864E+02 -0.62516650261E+03 -0.49335566516E+03  0.80240728586E+03  0.25500000920E-02 0.  1.
</event>
<event>
 5   0  0.1082209E-06  0.2200290E+04  0.7818609E-02  0.8518308E-01
       -1   -1    0    0    0  501  0.00000000000E+00  0.00000000000E+00  0.82138394666E+03  0.82138394667E+03  0.50400001928E-02 0.  1.
        1   -1    0    0  501    0  0.00000000000E+00  0.00000000000E+00 -0.14735115408E+04  0.14735115408E+04  0.50400001928E-02 0. -1.
    10030    2    1    2    0    0  0.00000000000E+00  0.00000000000E+00 -0.65212759414E+03  0.22948954875E+04  0.22002897308E+04 0.  0.
        2    1    3    3  502    0 -0.76794732032E+03  0.44844279292E+03 -0.10015802419E+04  0.13394054675E+04  0.25500000920E-02 0. -1.
       -2    1    3    3    0  502  0.76794732032E+03 -0.44844279292E+03  0.34945264777E+03  0.95549002001E+03  0.25500000920E-02 0.  1.
</event>
<event>
 5   0  0.1082209E-06  0.2191870E+04  0.7818609E-02  0.8521819E-01
       -1   -1    0    0    0  501  0.00000000000E+00  0.00000000000E+00  0.61851761657E+03  0.61851761659E+03  0.50400001928E-02 0.  1.
        1   -1    0    0  501    0  0.00000000000E+00  0.00000000000E+00 -0.19418589625E+04  0.19418589625E+04  0.50400001928E-02 0. -1.
    10030    2    1    2    0    0  0.00000000000E+00  0.00000000000E+00 -0.13233413459E+04  0.25603765791E+04  0.21918704133E+04 0.  0.
        2    1    3    3  502    0 -0.35036700749E+03 -0.72487010811E+03 -0.15302400529E+04  0.17291120071E+04  0.25500000920E-02 0. -1.
       -2    1    3    3    0  502  0.35036700749E+03  0.72487010811E+03  0.20689870705E+03  0.83126457193E+03  0.25500000920E-02 0.  1.
</event>
<event>
 5   0  0.1146827E-06  0.2198962E+04  0.7818609E-02  0.8518860E-01
       -1   -1    0    0    0  501  0.00000000000E+00  0.00000000000E+00  0.65919449214E+03  0.65919449216E+03  0.50400001928E-02 0.  1.
        1   -1    0    0  501    0  0.00000000000E+00  0.00000000000E+00 -0.18338411537E+04  0.18338411537E+04  0.50400001928E-02 0. -1.
    10030    2    1    2    0    0  0.00000000000E+00  0.00000000000E+00 -0.11746466616E+04  0.24930356459E+04  0.21989615622E+04 0.  0.
        4    1    3    3  502    0 -0.43436847679E+03 -0.80596493917E+03  0.10285941154E+03  0.92132357412E+03  0.12699999809E+01 0.  1.
       -4    1    3    3    0  502  0.43436847679E+03  0.80596493917E+03 -0.12775060731E+04  0.15717120718E+04  0.12699999809E+01 0. -1.
</event>
<event>
 5   0  0.1137869E-06  0.2197776E+04  0.7818609E-02  0.8519354E-01
       -1   -1    0    0    0  501  0.00000000000E+00  0.00000000000E+00  0.12673912700E+04  0.12673912700E+04  0.50400001928E-02 0. -1.
        1   -1    0    0  501    0  0.00000000000E+00  0.00000000000E+00 -0.95278774310E+03  0.95278774312E+03  0.50400001928E-02 0.  1.
    10030    2    1    2    0    0  0.00000000000E+00  0.00000000000E+00  0.31460352687E+03  0.22201790131E+04  0.21977760284E+04 0.  0.
        5    1    3    3  502    0  0.82067369575E+03  0.60759234222E+03  0.56746893958E+03  0.11682109641E+04  0.46999998093E+01 0. -1.
       -5    1    3    3    0  502 -0.82067369575E+03 -0.60759234222E+03 -0.25286541271E+03  0.10519680490E+04  0.46999998093E+01 0.  1.
</event>
<event>
 5   0  0.1137869E-06  0.2198644E+04  0.7818609E-02  0.8518993E-01
        1   -1    0    0  501    0  0.00000000000E+00  0.00000000000E+00  0.16392317470E+04  0.16392317470E+04  0.50400001928E-02 0. -1.
       -1   -1    0    0    0  501  0.00000000000E+00  0.00000000000E+00 -0.73724082559E+03  0.73724082561E+03  0.50400001928E-02 0.  1.
    10030    2    1    2    0    0  0.00000000000E+00  0.00000000000E+00  0.90199092138E+03  0.23764725726E+04  0.21986437333E+04 0.  0.
        5    1    3    3  502    0  0.14308326686E+03  0.59522109678E+03 -0.53594166648E+03  0.81364398553E+03  0.46999998093E+01 0.  1.
       -5    1    3    3    0  502 -0.14308326686E+03 -0.59522109678E+03  0.14379325879E+04  0.15628285871E+04  0.46999998093E+01 0. -1.
</event>
<event>
 5   0  0.2532239E-06  0.2199959E+04  0.7818609E-02  0.8518445E-01
        2   -1    0    0  501    0  0.00000000000E+00  0.00000000000E+00  0.15340017599E+04  0.15340017599E+04  0.25500000920E-02 0. -1.
       -2   -1    0    0    0  501  0.00000000000E+00  0.00000000000E+00 -0.78875730007E+03  0.78875730008E+03  0.25500000920E-02 0.  1.
    10030    2    1    2    0    0  0.00000000000E+00  0.00000000000E+00  0.74524445984E+03  0.23227590600E+04  0.21999591691E+04 0.  0.
        3    1    3    3  502    0 -0.10023351882E+04  0.16723135698E+03 -0.71967814236E+02  0.10187352614E+04  0.10100000352E+00 0.  1.
       -3    1    3    3    0  502  0.10023351882E+04 -0.16723135698E+03  0.81721227407E+03  0.13040237986E+04  0.10100000352E+00 0. -1.
</event>
<event>
 5   0  0.2532239E-06  0.2200488E+04  0.7818609E-02  0.8518225E-01
        2   -1    0    0  501    0  0.00000000000E+00  0.00000000000E+00  0.17798295998E+04  0.17798295998E+04  0.25500000920E-02 0.  1.
       -2   -1    0    0    0  501  0.00000000000E+00  0.00000000000E+00 -0.68014176957E+03  0.68014176957E+03  0.25500000920E-02 0. -1.
    10030    2    1    2    0    0  0.00000000000E+00  0.00000000000E+00  0.10996878302E+04  0.24599713693E+04  0.22004876310E+04 0.  0.
        3    1    3    3  502    0 -0.96969665886E+03 -0.44869648327E+03  0.84327699179E+03  0.13611598875E+04  0.10100000352E+00 0.  1.
       -3    1    3    3    0  502  0.96969665886E+03  0.44869648327E+03  0.25641083839E+03  0.10988114818E+04  0.10100000352E+00 0. -1.
</event>
<event>
 5   0  0.1137869E-06  0.2198676E+04  0.7818609E-02  0.8518980E-01
        1   -1    0    0  501    0  0.00000000000E+00  0.00000000000E+00  0.12234746011E+04  0.12234746011E+04  0.50400001928E-02 0.  1.
       -1   -1    0    0    0  501  0.00000000000E+00  0.00000000000E+00 -0.98779622636E+03  0.98779622638E+03  0.50400001928E-02 0. -1.
    10030    2    1    2    0    0  0.00000000000E+00  0.00000000000E+00  0.23567837469E+03  0.22112708274E+04  0.21986755959E+04 0.  0.
        5    1    3    3  502    0 -0.73769331864E+03 -0.65737837684E+03 -0.36677562346E+03  0.10539849196E+04  0.46999998093E+01 0. -1.
       -5    1    3    3    0  502  0.73769331864E+03  0.65737837684E+03  0.60245399815E+03  0.11572859079E+04  0.46999998093E+01 0.  1.
</event>
<event>
 5   0  0.2581058E-06  0.2197226E+04  0.7818609E-02  0.8519583E-01
        2   -1    0    0  501    0  0.00000000000E+00  0.00000000000E+00  0.18744181415E+04  0.18744181415E+04  0.25500000920E-02 0.  1.
       -2   -1    0    0    0  501  0.00000000000E+00  0.00000000000E+00 -0.64390703970E+03  0.64390703971E+03  0.25500000920E-02 0. -1.
    10030    2    1    2    0    0  0.00000000000E+00  0.00000000000E+00  0.12305111018E+04  0.25183251812E+04  0.21972264668E+04 0.  0.
        1    1    3    3  502    0  0.76455133433E+02 -0.43789181999E+03  0.17667431298E+04  0.18218056758E+04  0.50400001928E-02 0.  1.
       -1    1    3    3    0  502 -0.76455133433E+02  0.43789181999E+03 -0.53623202807E+03  0.69651950540E+03  0.50400001928E-02 0. -1.
</event>
<event>
 5   0  0.1082209E-06  0.2197278E+04  0.7818609E-02  0.8519562E-01
        1   -1    0    0  501    0  0.00000000000E+00  0.00000000000E+00  0.19996105361E+04  0.19996105362E+04  0.50400001928E-02 0. -1.
       -1   -1    0    0    0  501  0.00000000000E+00  0.00000000000E+00 -0.60362126996E+03  0.60362126999E+03  0.50400001928E-02 0.  1.
    10030    2    1    2    0    0  0.00000000000E+00  0.00000000000E+00  0.13959892662E+04  0.26032318061E+04  0.21972778170E+04 0.  0.
        2    1    3    3  502    0 -0.69585034709E+02  0.75220944527E+03  0.16430878379E+04  0.18084243887E+04  0.25500000920E-02 0. -1.
       -2    1    3    3    0  502  0.69585034709E+02 -0.75220944527E+03 -0.24709857174E+03  0.79480741741E+03  0.25500000920E-02 0.  1.
</event>
<event>
 5   0  0.2532239E-06  0.2200016E+04  0.7818609E-02  0.8518421E-01
        2   -1    0    0  501    0  0.00000000000E+00  0.00000000000E+00  0.15937250414E+04  0.15937250414E+04  0.25500000920E-02 0. -1.
       -2   -1    0    0    0  501  0.00000000000E+00  0.00000000000E+00 -0.75923884712E+03  0.75923884712E+03  0.25500000920E-02 0.  1.
    10030    2    1    2    0    0  0.00000000000E+00  0.00000000000E+00  0.83448619427E+03  0.23529638885E+04  0.22000163300E+04 0.  0.
        3    1    3    3  502    0  0.10922874307E+04 -0.11473518187E+03  0.48284197748E+03  0.11997467977E+04  0.10100000352E+00 0. -1.
       -3    1    3    3    0  502 -0.10922874307E+04  0.11473518187E+03  0.35164421679E+03  0.11532170908E+04  0.10100000352E+00 0.  1.
</event>
<event>
 5   0  0.2524749E-06  0.2200293E+04  0.7818609E-02  0.8518306E-01
       -2   -1    0    0    0  501  0.00000000000E+00  0.00000000000E+00  0.14293838621E+04  0.14293838621E+04  0.25500000920E-02 0.  1.
        2   -1    0    0  501    0  0.00000000000E+00  0.00000000000E+00 -0.84674415591E+03  0.84674415591E+03  0.25500000920E-02 0. -1.
    10030    2    1    2    0    0  0.00000000000E+00  0.00000000000E+00  0.58263970620E+03  0.22761280180E+04  0.22002931003E+04 0.  0.
        4    1    3    3  502    0  0.34834707701E+03 -0.33557815290E+02  0.13702677119E+04  0.14142514020E+04  0.12699999809E+01 0.  1.
       -4    1    3    3    0  502 -0.34834707701E+03  0.33557815290E+02 -0.78762800566E+03  0.86187661601E+03  0.12699999809E+01 0. -1.
</event>
<event>
 5   0  0.2556869E-06  0.2199492E+04  0.7818609E-02  0.8518640E-01
       -2   -1    0    0    0  501  0.00000000000E+00  0.00000000000E+00  0.58107829505E+03  0.58107829505E+03  0.25500000920E-02 0. -1.
        2   -1    0    0  501    0  0.00000000000E+00  0.00000000000E+00 -0.20813742547E+04  0.20813742547E+04  0.25500000920E-02 0.  1.
    10030    2    1    2    0    0  0.00000000000E+00  0.00000000000E+00 -0.15002959596E+04  0.26624525497E+04  0.21994921262E+04 0.  0.
        5    1    3    3  502    0  0.18137415740E+03  0.59567874220E+03 -0.18474175884E+04  0.19495393263E+04  0.46999998093E+01 0.  1.
       -5    1    3    3    0  502 -0.18137415740E+03 -0.59567874220E+03  0.34712162882E+03  0.71291322338E+03  0.46999998093E+01 0. -1.
</event>
<event>
 5   0  0.1107101E-06  0.2200646E+04  0.7818609E-02  0.8518159E-01
       -1   -1    0    0    0  501  0.00000000000E+00  0.00000000000E+00  0.69598236572E+03  0.69598236574E+03  0.50400001928E-02 0. -1.
        1   -1    0    0  501    0  0.00000000000E+00  0.00000000000E+00 -0.17395702437E+04  0.17395702437E+04  0.50400001928E-02 0.  1.
    10030    2    1    2    0    0  0.00000000000E+00  0.00000000000E+00 -0.10435878780E+04  0.24355526095E+04  0.22006455540E+04 0.  0.
        1    1    3    3  502    0 -0.20906907388E+03  0.77154918155E+03  0.31503394876E+03  0.85921150254E+03  0.50400001928E-02 0. -1.
       -1    1    3    3    0  502  0.20906907388E+03 -0.77154918155E+03 -0.13586218268E+04  0.15763411069E+04  0.50400001928E-02 0.  1.
</event>
<event>
 5   0  0.1144271E-06  0.2200793E+04  0.7818609E-02  0.8518098E-01
        1   -1    0    0  501    0  0.00000000000E+00  0.00000000000E+00  0.11545971420E+04  0.11545971420E+04  0.50400001928E-02 0.  1.
       -1   -1    0    0    0  501  0.00000000000E+00  0.00000000000E+00 -0.10487400116E+04  0.10487400116E+04  0.50400001928E-02 0. -1.
    10030    2    1    2    0    0  0.00000000000E+00  0.00000000000E+00  0.10585713042E+03  0.22033371536E+04  0.22007927845E+04 0.  0.
        3    1    3    3  502    0  0.46057620676E+03  0.23394332781E+03  0.10256547970E+04  0.11484022360E+04  0.10100000352E+00 0.  1.
       -3    1    3    3    0  502 -0.46057620676E+03 -0.23394332781E+03 -0.91979766655E+03  0.10549349176E+04  0.10100000352E+00 0. -1.
</event>
<event>
 5   0  0.1146827E-06  0.2198136E+04  0.7818609E-02  0.8519204E-01
        1   -1    0    0  501    0  0.00000000000E+00  0.00000000000E+00  0.12301828333E+04  0.12301828333E+04  0.50400001928E-02 0.  1.
       -1   -1    0    0    0  501  0.00000000000E+00  0.00000000000E+00 -0.98192733576E+03  0.98192733577E+03  0.50400001928E-02 0. -1.
    10030    2    1    2    0    0  0.00000000000E+00  0.00000000000E+00  0.24825549755E+03  0.22121101691E+04  0.21981357119E+04 0.  0.
        4    1    3    3  502    0  0.56141103893E+02 -0.95771390360E+03  0.66380261146E+03  0.11666204458E+04  0.12699999809E+01 0.  1.
       -4    1    3    3    0  502 -0.56141103893E+02  0.95771390360E+03 -0.41554711391E+03  0.10454897233E+04  0.12699999809E+01 0. -1.
</event>
<event>
 5   0  0.1137869E-06  0.2200464E+04  0.7818609E-02  0.8518235E-01
       -1   -1    0    0    0  501  0.00000000000E+00  0.00000000000E+00  0.56519008583E+03  0.56519008586E+03  0.50400001928E-02 0.  1.
        1   -1    0    0  501    0  0.00000000000E+00  0.00000000000E+00 -0.21417755141E+04  0.21417755141E+04  0.50400001928E-02 0. -1.
    10030    2    1    2    0    0  0.00000000000E+00  0.00000000000E+00 -0.15765854282E+04  0.27069655999E+04  0.22004638481E+04 0.  0.
        5    1    3    3  502    0  0.10770977068E+04  0.31496343342E+02 -0.10615939449E+04  0.15126583499E+04  0.46999998093E+01 0. -1.
       -5    1    3    3    0  502 -0.10770977068E+04 -0.31496343342E+02 -0.51499148338E+03  0.11943072501E+04  0.46999998093E+01 0.  1.
</event>
<event>
 5   0  0.2532239E-06  0.2198957E+04  0.7818609E-02  0.8518862E-01
       -2   -1    0    0    0  501  0.00000000000E+00  0.00000000000E+00  0.11176764801E+04  0.11176764801E+04  0.25500000920E-02 0. -1.
        2   -1    0    0  501    0  0.00000000000E+00  0.00000000000E+00 -0.10815770760E+04  0.10815770760E+04  0.25500000920E-02 0.  1.
    10030    2    1    2    0    0  0.00000000000E+00  0.00000000000E+00  0.36099404105E+02  0.21992535561E+04  0.21989572613E+04 0.  0.
        3    1    3    3  502    0 -0.20428656977E+03  0.79897463773E+03 -0.70920697753E+03  0.10876893038E+04  0.10100000352E+00 0.  1.
       -3    1    3    3    0  502  0.20428656977E+03 -0.79897463773E+03  0.74530638163E+03  0.11115642523E+04  0.10100000352E+00 0. -1.
</event>
<event>
 5   0  0.1082209E-06  0.2199916E+04  0.7818609E-02  0.8518463E-01
       -1   -1    0    0    0  501  0.00000000000E+00  0.00000000000E+00  0.80106073676E+03  0.80106073677E+03  0.50400001928E-02 0.  1.
        1   -1    0    0  501    0  0.00000000000E+00  0.00000000000E+00 -0.15103812896E+04  0.15103812896E+04  0.50400001928E-02 0. -1.
    10030    2    1    2    0    0  0.00000000000E+00  0.00000000000E+00 -0.70932055284E+03  0.23114420264E+04  0.21999155881E+04 0.  0.
        2    1    3    3  502    0  0.13516180957E+03  0.10810131777E+04 -0.19514491908E+03  0.11067699601E+04  0.25500000920E-02 0. -1.
       -2    1    3    3    0  502 -0.13516180957E+03 -0.10810131777E+04 -0.51417563376E+03  0.12046720663E+04  0.25500000920E-02 0.  1.
</event>
<event>
 5   0  0.1146827E-06  0.2199897E+04  0.7818609E-02  0.8518471E-01
        1   -1    0    0  501    0  0.00000000000E+00  0.00000000000E+00  0.19062958244E+04  0.19062958244E+04  0.50400001928E-02 0.  1.
       -1   -1    0    0    0  501  0.00000000000E+00  0.00000000000E+00 -0.63467950773E+03  0.63467950775E+03  0.50400001928E-02 0. -1.
    10030    2    1    2    0    0  0.00000000000E+00  0.00000000000E+00  0.12716163166E+04  0.25409753321E+04  0.21998971753E+04 0.  0.
        4    1    3    3  502    0 -0.52739192214E+03 -0.52421815130E+03 -0.30037404734E+03  0.80198072976E+03  0.12699999809E+01 0. -1.
       -4    1    3    3    0  502  0.52739192214E+03  0.52421815130E+03  0.15719903640E+04  0.17389946024E+04  0.12699999809E+01 0.  1.
</event>
<event>
 5   0  0.1144271E-06  0.2201522E+04  0.7818609E-02  0.8517795E-01
        1   -1    0    0  501    0  0.00000000000E+00  0.00000000000E+00  0.62586580434E+03  0.62586580437E+03  0.50400001928E-02 0.  1.
       -1   -1    0    0    0  501  0.00000000000E+00  0.00000000000E+00 -0.19359973288E+04  0.19359973289E+04  0.50400001928E-02 0. -1.
    10030    2    1    2    0    0  0.00000000000E+00  0.00000000000E+00 -0.13101315245E+04  0.25618631332E+04  0.22015217696E+04 0.  0.
        3    1    3    3  502    0 -0.81300483997E+03 -0.19971908176E+03  0.17662639644E+03  0.85560591136E+03  0.10100000352E+00 0.  1.
       -3    1    3    3    0  502  0.81300483997E+03  0.19971908176E+03 -0.14867579209E+04  0.17062572219E+04  0.10100000352E+00 0. -1.
</event>
<event>
 5   0  0.1146827E-06  0.2199261E+04  0.7818609E-02  0.8518736E-01
        1   -1    0    0  501    0  0.00000000000E+00  0.00000000000E+00  0.14102268620E+04  0.14102268620E+04  0.50400001928E-02 0.  1.
       -1   -1    0    0    0  501  0.00000000000E+00  0.00000000000E+00 -0.85744191033E+03  0.85744191035E+03  0.50400001928E-02 0. -1.
    10030    2    1    2    0    0  0.00000000000E+00  0.00000000000E+00  0.55278495170E+03  0.22676687724E+04  0.21992613438E+04 0.  0.
        4    1    3    3  502    0 -0.20724643666E+03  0.47518246720E+02 -0.83604334682E+03  0.86265819416E+03  0.12699999809E+01 0. -1.
       -4    1    3    3    0  502  0.20724643666E+03 -0.47518246720E+02  0.13888282985E+04  0.14050105782E+04  0.12699999809E+01 0.  1.
</event>
<event>
 5   0  0.2606154E-06  0.2199797E+04  0.7818609E-02  0.8518513E-01
        2   -1    0    0  501    0  0.00000000000E+00  0.00000000000E+00  0.65125682537E+03  0.65125682538E+03  0.25500000920E-02 0.  1.
       -2   -1    0    0    0  501  0.00000000000E+00  0.00000000000E+00 -0.18576034369E+04  0.18576034369E+04  0.25500000920E-02 0. -1.
    10030    2    1    2    0    0  0.00000000000E+00  0.00000000000E+00 -0.12063466115E+04  0.25088602623E+04  0.21997971880E+04 0.  0.
        2    1    3    3  502    0  0.11134936514E+03 -0.10934658138E+04 -0.55600100053E+03  0.12317480585E+04  0.25500000920E-02 0. -1.
       -2    1    3    3    0  502 -0.11134936514E+03  0.10934658138E+04 -0.65034561098E+03  0.12771122037E+04  0.25500000920E-02 0.  1.
</event>
<event>
 5   0  0.2556869E-06  0.2200071E+04  0.7818609E-02  0.8518399E-01
       -2   -1    0    0    0  501  0.00000000000E+00  0.00000000000E+00  0.10758253947E+04  0.10758253947E+04  0.25500000920E-02 0. -1.
        2   -1    0    0  501    0  0.00000000000E+00  0.00000000000E+00 -0.11247905414E+04  0.11247905414E+04  0.25500000920E-02 0.  1.
    10030    2    1    2    0    0  0.00000000000E+00  0.00000000000E+00 -0.48965146653E+02  0.22006159361E+04  0.22000711154E+04 0.  0.
        5    1    3    3  502    0  0.50058934905E+03 -0.36797844908E+03 -0.93248394407E+03  0.11205115936E+04  0.46999998093E+01 0.  1.
       -5    1    3    3    0  502 -0.50058934905E+03  0.36797844908E+03  0.88351879742E+03  0.10801043425E+04  0.46999998093E+01 0. -1.
</event>
<event>
 5   0  0.2532239E-06  0.2200708E+04  0.7818609E-02  0.8518134E-01
        2   -1    0    0  501    0  0.00000000000E+00  0.00000000000E+00  0.25582279748E+04  0.25582279748E+04  0.25500000920E-02 0. -1.
       -2   -1    0    0    0  501  0.00000000000E+00  0.00000000000E+00 -0.47328796211E+03  0.47328796211E+03  0.25500000920E-02 0.  1.
    10030    2    1    2    0    0  0.00000000000E+00  0.00000000000E+00  0.20849400126E+04  0.30315159369E+04  0.22007076178E+04 0.  0.
        3    1    3    3  502    0  0.93108604527E+02  0.32004365229E+03 -0.40207453464E+03  0.52226534751E+03  0.10100000352E+00 0.  1.
       -3    1    3    3    0  502 -0.93108604527E+02 -0.32004365229E+03  0.24870145473E+04  0.25092505894E+04  0.10100000352E+00 0. -1.
</event>
<event>
 5   0  0.2556869E-06  0.2199653E+04  0.7818609E-02  0.8518573E-01
       -2   -1    0    0    0  501  0.00000000000E+00  0.00000000000E+00  0.12121765273E+04  0.12121765273E+04  0.25500000920E-02 0.  1.
        2   -1    0    0  501    0  0.00000000000E+00  0.00000000000E+00 -0.99788926540E+03  0.99788926540E+03  0.25500000920E-02 0. -1.
    10030    2    1    2    0    0  0.00000000000E+00  0.00000000000E+00  0.21428726190E+03  0.22100657927E+04  0.21996526493E+04 0.  0.
        5    1    3    3  502    0 -0.85881053781E+03 -0.51969567687E+03  0.55866701674E+03  0.11488124573E+04  0.46999998093E+01 0.  1.
       -5    1    3    3    0  502  0.85881053781E+03  0.51969567687E+03 -0.34437975485E+03  0.10612533354E+04  0.46999998093E+01 0. -1.
</event>
<event>
 5   0  0.1146827E-06  0.2200497E+04  0.7818609E-02  0.8518221E-01
        1   -1    0    0  501    0  0.00000000000E+00  0.00000000000E+00  0.12989611180E+04  0.12989611180E+04  0.50400001928E-02 0.  1.
       -1   -1    0    0    0  501  0.00000000000E+00  0.00000000000E+00 -0.93193478528E+03  0.93193478529E+03  0.50400001928E-02 0. -1.
    10030    2    1    2    0    0  0.00000000000E+00  0.00000000000E+00  0.36702633271E+03  0.22308959033E+04  0.22004972625E+04 0.  0.
        4    1    3    3  502    0 -0.47760593840E+03  0.69384569284E+03 -0.53408999002E+03  0.99738809308E+03  0.12699999809E+01 0. -1.
       -4    1    3    3    0  502  0.47760593840E+03 -0.69384569284E+03  0.90111632273E+03  0.12335078102E+04  0.12699999809E+01 0.  1.
</event>
<event>
 5   0  0.1144271E-06  0.2200437E+04  0.7818609E-02  0.8518246E-01
        1   -1    0    0  501    0  0.00000000000E+00  0.00000000000E+00  0.22249358643E+04  0.22249358643E+04  0.50400001928E-02 0.  1.
       -1   -1    0    0    0  501  0.00000000000E+00  0.00000000000E+00 -0.54405187170E+03  0.54405187172E+03  0.50400001928E-02 0. -1.
    10030    2    1    2    0    0  0.00000000000E+00  0.00000000000E+00  0.16808839926E+04  0.27689877360E+04  0.22004367943E+04 0.  0.
        3    1    3    3  502    0  0.58414447862E+01  0.89199549885E+03  0.29991501126E+02  0.89251867924E+03  0.10100000352E+00 0. -1.
       -3    1    3    3    0  502 -0.58414447862E+01 -0.89199549885E+03  0.16508924915E+04  0.18764690568E+04  0.10100000352E+00 0.  1.
</event>
<event>
 5   0  0.1144271E-06  0.2200674E+04  0.7818609E-02  0.8518147E-01
       -1   -1    0    0    0  501  0.00000000000E+00  0.00000000000E+00  0.97318099820E+03  0.97318099822E+03  0.50400001928E-02 0.  1.
        1   -1    0    0  501    0  0.00000000000E+00  0.00000000000E+00 -0.12441077496E+04  0.12441077496E+04  0.50400001928E-02 0. -1.
    10030    2    1    2    0    0  0.00000000000E+00  0.00000000000E+00 -0.27092675135E+03  0.22172887478E+04  0.22006744617E+04 0.  0.
        3    1    3    3  502    0 -0.14373441376E+03 -0.70361869344E+03  0.70449901374E+03  0.10060107942E+04  0.10100000352E+00 0.  1.
       -3    1    3    3    0  502  0.14373441376E+03  0.70361869344E+03 -0.97542576509E+03  0.12112779536E+04  0.10100000352E+00 0. -1.
</event>
<event>
 5   0  0.1137869E-06  0.2200130E+04  0.7818609E-02  0.8518374E-01
        1   -1    0    0  501    0  0.00000000000E+00  0.00000000000E+00  0.21369744023E+04  0.21369744023E+04  0.50400001928E-02 0. -1.
       -1   -1    0    0    0  501  0.00000000000E+00  0.00000000000E+00 -0.56628800647E+03  0.56628800649E+03  0.50400001928E-02 0.  1.
    10030    2    1    2    0    0  0.00000000000E+00  0.00000000000E+00  0.15706863958E+04  0.27032624088E+04  0.22001299727E+04 0.  0.
        5    1    3    3  502    0 -0.40734866115E+03  0.58151631429E+03 -0.24706261010E+03  0.75176870035E+03  0.46999998093E+01 0.  1.
       -5    1    3    3    0  502  0.40734866115E+03 -0.58151631429E+03  0.18177490059E+04  0.19514937084E+04  0.46999998093E+01 0. -1.
</event>
<event>
 5   0  0.2606154E-06  0.2198401E+04  0.7818609E-02  0.8519094E-01
       -2   -1    0    0    0  501  0.00000000000E+00  0.00000000000E+00  0.62891370326E+03  0.62891370327E+03  0.25500000920E-02 0. -1.
        2   -1    0    0  501    0  0.00000000000E+00  0.00000000000E+00 -0.19211560494E+04  0.19211560494E+04  0.25500000920E-02 0.  1.
    10030    2    1    2    0    0  0.00000000000E+00  0.00000000000E+00 -0.12922423461E+04  0.25500697526E+04  0.21984006601E+04 0.  0.
        2    1    3    3  502    0 -0.10159790531E+04  0.41941365792E+03 -0.63340841820E+03  0.12685927152E+04  0.25500000920E-02 0.  1.
       -2    1    3    3    0  502  0.10159790531E+04 -0.41941365792E+03 -0.65883392789E+03  0.12814770374E+04  0.25500000920E-02 0. -1.
</event>
<event>
 5   0  0.2532239E-06  0.2197797E+04  0.7818609E-02  0.8519346E-01
       -2   -1    0    0    0  501  0.00000000000E+00  0.00000000000E+00  0.11754827405E+04  0.11754827405E+04  0.25500000920E-02 0. -1.
        2   -1    0    0  501    0  0.00000000000E+00  0.00000000000E+00 -0.10273038792E+04  0.10273038792E+04  0.25500000920E-02 0.  1.
    10030    2    1    2    0    0  0.00000000000E+00  0.00000000000E+00  0.14817886131E+03  0.22027866197E+04  0.21977970600E+04 0.  0.
        3    1    3    3  502    0 -0.16512674873E+03  0.47485325422E+03  0.10534595491E+04  0.11672743842E+04  0.10100000352E+00 0. -1.
       -3    1    3    3    0  502  0.16512674873E+03 -0.47485325422E+03 -0.90528068776E+03  0.10355122356E+04  0.10100000352E+00 0.  1.
</event>
<event>
 5   0  0.2532239E-06  0.2201742E+04  0.7818609E-02  0.8517703E-01
       -2   -1    0    0    0  501  0.00000000000E+00  0.00000000000E+00  0.99696062427E+03  0.99696062427E+03  0.25500000920E-02 0. -1.
        2   -1    0    0  501    0  0.00000000000E+00  0.00000000000E+00 -0.12156115388E+04  0.12156115388E+04  0.25500000920E-02 0.  1.
    10030    2    1    2    0    0  0.00000000000E+00  0.00000000000E+00 -0.21865091451E+03  0.22125721630E+04  0.22017418909E+04 0.  0.
        3    1    3    3  502    0  0.71302432209E+03 -0.83068335095E+03 -0.22599267429E+03  0.11178153750E+04  0.10100000352E+00 0.  1.
       -3    1    3    3    0  502 -0.71302432209E+03  0.83068335095E+03  0.73417597873E+01  0.10947567881E+04  0.10100000352E+00 0. -1.
</event>
<event>
 5   0  0.1082209E-06  0.2201618E+04  0.7818609E-02  0.8517755E-01
        1   -1    0    0  501    0  0.00000000000E+00  0.00000000000E+00  0.13421311889E+04  0.13421311889E+04  0.50400001928E-02 0. -1.
       -1   -1    0    0    0  501  0.00000000000E+00  0.00000000000E+00 -0.90287765489E+03  0.90287765490E+03  0.50400001928E-02 0.  1.
    10030    2    1    2    0    0  0.00000000000E+00  0.00000000000E+00  0.43925353401E+03  0.22450088438E+04  0.22016178237E+04 0.  0.
        2    1    3    3  502    0 -0.10762466244E+04  0.29902502421E+02 -0.14194247783E+02  0.10767555121E+04  0.25500000920E-02 0.  1.
       -2    1    3    3    0  502  0.10762466244E+04 -0.29902502421E+02  0.45344778179E+03  0.11682533317E+04  0.25500000920E-02 0. -1.
</event>
<event>
 5   0  0.2524749E-06  0.2201018E+04  0.7818609E-02  0.8518004E-01
        2   -1    0    0  501    0  0.00000000000E+00  0.00000000000E+00  0.92857255032E+03  0.92857255032E+03  0.25500000920E-02 0. -1.
       -2   -1    0    0    0  501  0.00000000000E+00  0.00000000000E+00 -0.13042819269E+04  0.13042819269E+04  0.25500000920E-02 0.  1.
    10030    2    1    2    0    0  0.00000000000E+00  0.00000000000E+00 -0.37570937663E+03  0.22328544773E+04  0.22010183055E+04 0.  0.
        4    1    3    3  502    0 -0.33741857508E+03 -0.93787858611E+03 -0.66113380651E+03  0.11960631505E+04  0.12699999809E+01 0.  1.
       -4    1    3    3    0  502  0.33741857508E+03  0.93787858611E+03  0.28542442988E+03  0.10367913267E+04  0.12699999809E+01 0. -1.
</event>
<event>
 5   0  0.2532239E-06  0.2200484E+04  0.7818609E-02  0.8518227E-01
       -2   -1    0    0    0  501  0.00000000000E+00  0.00000000000E+00  0.64282969585E+03  0.64282969586E+03  0.25500000920E-02 0.  1.
        2   -1    0    0  501    0  0.00000000000E+00  0.00000000000E+00 -0.18831313776E+04  0.18831313776E+04  0.25500000920E-02 0. -1.
    10030    2    1    2    0    0  0.00000000000E+00  0.00000000000E+00 -0.12403016818E+04  0.25259610735E+04  0.22004842837E+04 0.  0.
        3    1    3    3  502    0 -0.34167904972E+03 -0.15185512042E+02  0.58025807271E+03  0.67355372016E+03  0.10100000352E+00 0.  1.
       -3    1    3    3    0  502  0.34167904972E+03  0.15185512042E+02 -0.18205597545E+04  0.18524073533E+04  0.10100000352E+00 0. -1.
</event>
<event>
 5   0  0.2532239E-06  0.2199708E+04  0.7818609E-02  0.8518549E-01
        2   -1    0    0  501    0  0.00000000000E+00  0.00000000000E+00  0.14665262590E+04  0.14665262590E+04  0.25500000920E-02 0. -1.
       -2   -1    0    0    0  501  0.00000000000E+00  0.00000000000E+00 -0.82486026882E+03  0.82486026882E+03  0.25500000920E-02 0.  1.
    10030    2    1    2    0    0  0.00000000000E+00  0.00000000000E+00  0.64166599019E+03  0.22913865278E+04  0.21997083845E+04 0.  0.
        3    1    3    3  502    0 -0.53579997896E+03 -0.27839995860E+03 -0.63676891554E+03  0.87753223097E+03  0.10100000352E+00 0.  1.
       -3    1    3    3    0  502  0.53579997896E+03  0.27839995860E+03  0.12784349057E+04  0.14138542969E+04  0.10100000352E+00 0. -1.
</event>
<event>
 5   0  0.2532239E-06  0.2200294E+04  0.7818609E-02  0.8518306E-01
        2   -1    0    0  501    0  0.00000000000E+00  0.00000000000E+00  0.10872540617E+04  0.10872540617E+04  0.25500000920E-02 0.  1.
       -2   -1    0    0    0  501  0.00000000000E+00  0.00000000000E+00 -0.11131924347E+04  0.11131924348E+04  0.25500000920E-02 0. -1.
    10030    2    1    2    0    0  0.00000000000E+00  0.00000000000E+00 -0.25938373009E+02  0.22004464965E+04  0.22002936133E+04 0.  0.
        3    1    3    3  502    0 -0.93390673204E+03  0.46554343013E+03 -0.36143351615E+03  0.11043308681E+04  0.10100000352E+00 0.  1.
       -3    1    3    3    0  502  0.93390673204E+03 -0.46554343013E+03  0.33549514314E+03  0.10961156284E+04  0.10100000352E+00 0. -1.
</event>
<event>
 5   0  0.2556869E-06  0.2200099E+04  0.7818609E-02  0.8518387E-01
       -2   -1    0    0    0  501  0.00000000000E+00  0.00000000000E+00  0.10918983630E+04  0.10918983630E+04  0.25500000920E-02 0. -1.
        2   -1    0    0  501    0  0.00000000000E+00  0.00000000000E+00 -0.11082618979E+04  0.11082618979E+04  0.25500000920E-02 0.  1.
    10030    2    1    2    0    0  0.00000000000E+00  0.00000000000E+00 -0.16363534872E+02  0.22001602609E+04  0.22000994087E+04 0.  0.
        5    1    3    3  502    0  0.23143633464E+03 -0.10356272147E+04 -0.29801862500E+03  0.11022357714E+04  0.46999998093E+01 0.  1.
       -5    1    3    3    0  502 -0.23143633464E+03  0.10356272147E+04  0.28165509013E+03  0.10979244895E+04  0.46999998093E+01 0. -1.
</event>
<event>
 5   0  0.1144271E-06  0.2198853E+04  0.7818609E-02  0.8518906E-01
        1   -1    0    0  501    0  0.00000000000E+00  0.00000000000E+00  0.20882430467E+04  0.20882430467E+04  0.50400001928E-02 0. -1.
       -1   -1    0    0    0  501  0.00000000000E+00  0.00000000000E+00 -0.57883036023E+03  0.57883036025E+03  0.50400001928E-02 0.  1.
    10030    2    1    2    0    0  0.00000000000E+00  0.00000000000E+00  0.15094126864E+04  0.26670734069E+04  0.21988528600E+04 0.  0.
        3    1    3    3  502    0 -0.34341676603E+03 -0.96954437263E+03  0.28370635807E+03  0.10669773538E+04  0.10100000352E+00 0.  1.
       -3    1    3    3    0  502  0.34341676603E+03  0.96954437263E+03  0.12257063284E+04  0.16000960531E+04  0.10100000352E+00 0. -1.
</event>
<event>
 5   0  0.1082209E-06  0.2202290E+04  0.7818609E-02  0.8517475E-01
       -1   -1    0    0    0  501  0.00000000000E+00  0.00000000000E+00  0.12866372906E+04  0.12866372906E+04  0.50400001928E-02 0. -1.
        1   -1    0    0  501    0  0.00000000000E+00  0.00000000000E+00 -0.94239499090E+03  0.94239499091E+03  0.50400001928E-02 0.  1.
    10030    2    1    2    0    0  0.00000000000E+00  0.00000000000E+00  0.34424229967E+03  0.22290322815E+04  0.22022902059E+04 0.  0.
        2    1    3    3  502    0 -0.64455365909E+03  0.27608667701E+03  0.10314580051E+04  0.12472284831E+04  0.25500000920E-02 0. -1.
       -2    1    3    3    0  502  0.64455365909E+03 -0.27608667701E+03 -0.68721570547E+03  0.98180379839E+03  0.25500000920E-02 0.  1.
</event>
<event>
 5   0  0.1146827E-06  0.2200168E+04  0.7818609E-02  0.8518358E-01
        1   -1    0    0  501    0  0.00000000000E+00  0.00000000000E+00  0.13431203247E+04  0.13431203247E+04  0.50400001928E-02 0. -1.
       -1   -1    0    0    0  501  0.00000000000E+00  0.00000000000E+00 -0.90102481415E+03  0.90102481417E+03  0.50400001928E-02 0.  1.
    10030    2    1    2    0    0  0.00000000000E+00  0.00000000000E+00  0.44209551054E+03  0.22441451389E+04  0.22001679399E+04 0.  0.
        4    1    3    3  502    0  0.79305508501E+03  0.33579202421E+03 -0.47709702094E+03  0.98453838507E+03  0.12699999809E+01 0.  1.
       -4    1    3    3    0  502 -0.79305508501E+03 -0.33579202421E+03  0.91919253148E+03  0.12596067538E+04  0.12699999809E+01 0. -1.
</event>
<event>
 5   0  0.2532239E-06  0.2204047E+04  0.7818609E-02  0.8516746E-01
        2   -1    0    0  501    0  0.00000000000E+00  0.00000000000E+00  0.13913642556E+04  0.13913642557E+04  0.25500000920E-02 0.  1.
       -2   -1    0    0    0  501  0.00000000000E+00  0.00000000000E+00 -0.87285252371E+03  0.87285252371E+03  0.25500000920E-02 0. -1.
    10030    2    1    2    0    0  0.00000000000E+00  0.00000000000E+00  0.51851173194E+03  0.22642167794E+04  0.22040470067E+04 0.  0.
        3    1    3    3  502    0 -0.50769882241E+03 -0.52370033087E+03 -0.58939294738E+03  0.93776552904E+03  0.10100000352E+00 0. -1.
       -3    1    3    3    0  502  0.50769882241E+03  0.52370033087E+03  0.11079046793E+04  0.13264512503E+04  0.10100000352E+00 0.  1.
</event>
<event>
 5   0  0.2532239E-06  0.2209416E+04  0.7818609E-02  0.8514519E-01
       -2   -1    0    0    0  501  0.00000000000E+00  0.00000000000E+00  0.69107736360E+03  0.69107736360E+03  0.25500000920E-02 0. -1.
        2   -1    0    0  501    0  0.00000000000E+00  0.00000000000E+00 -0.17659087314E+04  0.17659087314E+04  0.25500000920E-02 0.  1.
    10030    2    1    2    0    0  0.00000000000E+00  0.00000000000E+00 -0.10748313678E+04  0.24569860950E+04  0.22094158055E+04 0.  0.
        3    1    3    3  502    0 -0.36049130739E+02  0.27025451229E+03  0.65307391017E+03  0.70770232697E+03  0.10100000352E+00 0. -1.
       -3    1    3    3    0  502  0.36049130739E+02 -0.27025451229E+03 -0.17279052780E+04  0.17492837680E+04  0.10100000352E+00 0.  1.
</event>
<event>
 5   0  0.2581058E-06  0.2200674E+04  0.7818609E-02  0.8518148E-01
        2   -1    0    0  501    0  0.00000000000E+00  0.00000000000E+00  0.75999607374E+03  0.75999607375E+03  0.25500000920E-02 0. -1.
       -2   -1    0    0    0  501  0.00000000000E+00  0.00000000000E+00 -0.15930889688E+04  0.15930889688E+04  0.25500000920E-02 0.  1.
    10030    2    1    2    0    0  0.00000000000E+00  0.00000000000E+00 -0.83309289503E+03  0.23530850425E+04  0.22006738617E+04 0.  0.
        1    1    3    3  502    0 -0.35341561353E+03 -0.92386344146E+03  0.98825367742E+02  0.99407882368E+03  0.50400001928E-02 0. -1.
       -1    1    3    3    0  502  0.35341561353E+03  0.92386344146E+03 -0.93191826277E+03  0.13590062188E+04  0.50400001928E-02 0.  1.
</event>
<event>
 5   0  0.1107101E-06  0.2199848E+04  0.7818609E-02  0.8518492E-01
       -1   -1    0    0    0  501  0.00000000000E+00  0.00000000000E+00  0.11519991769E+04  0.11519991770E+04  0.50400001928E-02 0.  1.
        1   -1    0    0  501    0  0.00000000000E+00  0.00000000000E+00 -0.10502023829E+04  0.10502023829E+04  0.50400001928E-02 0. -1.
    10030    2    1    2    0    0  0.00000000000E+00  0.00000000000E+00  0.10179679401E+03  0.22022015599E+04  0.21998475227E+04 0.  0.
        1    1    3    3  502    0  0.64033617451E+03 -0.87981617023E+03 -0.10966454212E+03  0.10936787561E+04  0.50400001928E-02 0. -1.
       -1    1    3    3    0  502 -0.64033617451E+03  0.87981617023E+03  0.21146133613E+03  0.11085228038E+04  0.50400001928E-02 0.  1.
</event>
<event>
 5   0  0.2606154E-06  0.2193662E+04  0.7818609E-02  0.8521071E-01
       -2   -1    0    0    0  501  0.00000000000E+00  0.00000000000E+00  0.10614214761E+04  0.10614214761E+04  0.25500000920E-02 0. -1.
        2   -1    0    0  501    0  0.00000000000E+00  0.00000000000E+00 -0.11334221605E+04  0.11334221605E+04  0.25500000920E-02 0.  1.
    10030    2    1    2    0    0  0.00000000000E+00  0.00000000000E+00 -0.72000684425E+02  0.21948436366E+04  0.21936623465E+04 0.  0.
        2    1    3    3  502    0 -0.16648108900E+03 -0.10797984953E+04 -0.13278856654E+03  0.11005969048E+04  0.25500000920E-02 0.  1.
       -2    1    3    3    0  502  0.16648108900E+03  0.10797984953E+04  0.60787882117E+02  0.10942467318E+04  0.25500000920E-02 0. -1.
</event>
<event>
 5   0  0.2532239E-06  0.2199567E+04  0.7818609E-02  0.8518608E-01
        2   -1    0    0  501    0  0.00000000000E+00  0.00000000000E+00  0.20622587790E+04  0.20622587790E+04  0.25500000920E-02 0.  1.
       -2   -1    0    0    0  501  0.00000000000E+00  0.00000000000E+00 -0.58650456693E+03  0.58650456693E+03  0.25500000920E-02 0. -1.
    10030    2    1    2    0    0  0.00000000000E+00  0.00000000000E+00  0.14757542121E+04  0.26487633460E+04  0.21995674048E+04 0.  0.
        3    1    3    3  502    0  0.10051161768E+04  0.39704112190E+03  0.98356162493E+03  0.14612644051E+04  0.10100000352E+00 0.  1.
       -3    1    3    3    0  502 -0.10051161768E+04 -0.39704112190E+03  0.49219258716E+03  0.11874989408E+04  0.10100000352E+00 0. -1.
</event>
<event>
 5   0  0.1107101E-06  0.2198353E+04  0.7818609E-02  0.8519114E-01
       -1   -1    0    0    0  501  0.00000000000E+00  0.00000000000E+00  0.65625484276E+03  0.65625484278E+03  0.50400001928E-02 0.  1.
        1   -1    0    0  501    0  0.00000000000E+00  0.00000000000E+00 -0.18410354786E+04  0.18410354786E+04  0.50400001928E-02 0. -1.
    10030    2    1    2    0    0  0.00000000000E+00  0.00000000000E+00 -0.11847806358E+04  0.24972903214E+04  0.21983525182E+04 0.  0.
        1    1    3    3  502    0  0.76914265396E+03  0.59297607306E+03 -0.76213559216E+01  0.97121528532E+03  0.50400001928E-02 0.  1.
       -1    1    3    3    0  502 -0.76914265396E+03 -0.59297607306E+03 -0.11771592799E+04  0.15260750361E+04  0.50400001928E-02 0. -1.
</event>
<event>
 5   0  0.2524749E-06  0.2199852E+04  0.7818609E-02  0.8518490E-01
        2   -1    0    0  501    0  0.00000000000E+00  0.00000000000E+00  0.17707949342E+04  0.17707949342E+04  0.25500000920E-02 0.  1.
       -2   -1    0    0    0  501  0.00000000000E+00  0.00000000000E+00 -0.68321693562E+03  0.68321693563E+03  0.25500000920E-02 0. -1.
    10030    2    1    2    0    0  0.00000000000E+00  0.00000000000E+00  0.10875779986E+04  0.24540118698E+04  0.21998518937E+04 0.  0.
        4    1    3    3  502    0  0.70668442766E+03 -0.80370297448E+03  0.26049114111E+03  0.11014529491E+04  0.12699999809E+01 0. -1.
       -4    1    3    3    0  502 -0.70668442766E+03  0.80370297448E+03  0.82708685747E+03  0.13525589208E+04  0.12699999809E+01 0.  1.
</event>
<event>
 5   0  0.1137869E-06  0.2199793E+04  0.7818609E-02  0.8518514E-01
        1   -1    0    0  501    0  0.00000000000E+00  0.00000000000E+00  0.80026593847E+03  0.80026593848E+03  0.50400001928E-02 0.  1.
       -1   -1    0    0    0  501  0.00000000000E+00  0.00000000000E+00 -0.15117132754E+04  0.15117132754E+04  0.50400001928E-02 0. -1.
    10030    2    1    2    0    0  0.00000000000E+00  0.00000000000E+00 -0.71144733694E+03  0.23119792139E+04  0.21997933022E+04 0.  0.
        5    1    3    3  502    0  0.98730006463E+03 -0.38377681486E+03 -0.66697625425E+03  0.12517689383E+04  0.46999998093E+01 0. -1.
       -5    1    3    3    0  502 -0.98730006463E+03  0.38377681486E+03 -0.44471082692E+02  0.10602102756E+04  0.46999998093E+01 0.  1.
</event>
<event>
 5   0  0.2556869E-06  0.2198716E+04  0.7818609E-02  0.8518963E-01
        2   -1    0    0  501    0  0.00000000000E+00  0.00000000000E+00  0.17605959926E+04  0.17605959926E+04  0.25500000920E-02 0.  1.
       -2   -1    0    0    0  501  0.00000000000E+00  0.00000000000E+00 -0.68646536684E+03  0.68646536685E+03  0.25500000920E-02 0. -1.
    10030    2    1    2    0    0  0.00000000000E+00  0.00000000000E+00  0.10741306258E+04  0.24470613594E+04  0.21987161471E+04 0.  0.
        5    1    3    3  502    0 -0.10176718618E+04  0.36213567732E+03  0.76452088522E+03  0.13233716565E+04  0.46999998093E+01 0.  1.
       -5    1    3    3    0  502  0.10176718618E+04 -0.36213567732E+03  0.30960974053E+03  0.11236897030E+04  0.46999998093E+01 0. -1.
</event>
<event>
 5   0  0.2524749E-06  0.2200370E+04  0.7818609E-02  0.8518274E-01
       -2   -1    0    0    0  501  0.00000000000E+00  0.00000000000E+00  0.12920043788E+04  0.12920043788E+04  0.25500000920E-02 0. -1.
        2   -1    0    0  501    0  0.00000000000E+00  0.00000000000E+00 -0.93684463607E+03  0.93684463607E+03  0.25500000920E-02 0.  1.
    10030    2    1    2    0    0  0.00000000000E+00  0.00000000000E+00  0.35515974277E+03  0.22288490149E+04  0.22003703071E+04 0.  0.
        4    1    3    3  502    0 -0.39144694749E+02 -0.88815513320E+02  0.12876584245E+04  0.12913118653E+04  0.12699999809E+01 0. -1.
       -4    1    3    3    0  502  0.39144694749E+02  0.88815513320E+02 -0.93249868171E+03  0.93753714957E+03  0.12699999809E+01 0.  1.
</event>
<event>
 5   0  0.2532239E-06  0.2202442E+04  0.7818609E-02  0.8517412E-01
       -2   -1    0    0    0  501  0.00000000000E+00  0.00000000000E+00  0.57469244103E+03  0.57469244104E+03  0.25500000920E-02 0. -1.
        2   -1    0    0  501    0  0.00000000000E+00  0.00000000000E+00 -0.21101503433E+04  0.21101503433E+04  0.25500000920E-02 0.  1.
    10030    2    1    2    0    0  0.00000000000E+00  0.00000000000E+00 -0.15354579023E+04  0.26848427844E+04  0.22024417829E+04 0.  0.
        3    1    3    3  502    0 -0.46897931062E+02 -0.54204131456E+03 -0.19348693993E+04  0.20099074121E+04  0.10100000352E+00 0.  1.
       -3    1    3    3    0  502  0.46897931062E+02  0.54204131456E+03  0.39941149700E+03  0.67493537229E+03  0.10100000352E+00 0. -1.
</event>
<event>
 5   0  0.2532239E-06  0.2200794E+04  0.7818609E-02  0.8518098E-01
        2   -1    0    0  501    0  0.00000000000E+00  0.00000000000E+00  0.75101915474E+03  0.75101915474E+03  0.25500000920E-02 0.  1.
       -2   -1    0    0    0  501  0.00000000000E+00  0.00000000000E+00 -0.16123074077E+04  0.16123074077E+04  0.25500000920E-02 0. -1.
    10030    2    1    2    0    0  0.00000000000E+00  0.00000000000E+00 -0.86128825300E+03  0.23633265625E+04  0.22007941717E+04 0.  0.
        3    1    3    3  502    0  0.14173153114E+03 -0.37626380483E+03 -0.15306014142E+04  0.15825305612E+04  0.10100000352E+00 0. -1.
       -3    1    3    3    0  502 -0.14173153114E+03  0.37626380483E+03  0.66931316118E+03  0.78079600131E+03  0.10100000352E+00 0.  1.
</event>
<event>
 5   0  0.2524749E-06  0.2200783E+04  0.7818609E-02  0.8518102E-01
        2   -1    0    0  501    0  0.00000000000E+00  0.00000000000E+00  0.11751804412E+04  0.11751804412E+04  0.25500000920E-02 0. -1.
       -2   -1    0    0    0  501  0.00000000000E+00  0.00000000000E+00 -0.10303624340E+04  0.10303624340E+04  0.25500000920E-02 0.  1.
    10030    2    1    2    0    0  0.00000000000E+00  0.00000000000E+00  0.14481800723E+03  0.22055428752E+04  0.22007832967E+04 0.  0.
        4    1    3    3  502    0  0.28315235941E+03  0.70541457506E+03 -0.72497197054E+03  0.10504146573E+04  0.12699999809E+01 0.  1.
       -4    1    3    3    0  502 -0.28315235941E+03 -0.70541457506E+03  0.86978997777E+03  0.11551282179E+04  0.12699999809E+01 0. -1.
</event>
<event>
 5   0  0.2532239E-06  0.2199481E+04  0.7818609E-02  0.8518644E-01
       -2   -1    0    0    0  501  0.00000000000E+00  0.00000000000E+00  0.81367939156E+03  0.81367939157E+03  0.25500000920E-02 0. -1.
        2   -1    0    0  501    0  0.00000000000E+00  0.00000000000E+00 -0.14863705834E+04  0.14863705834E+04  0.25500000920E-02 0.  1.
    10030    2    1    2    0    0  0.00000000000E+00  0.00000000000E+00 -0.67269119183E+03  0.23000499750E+04  0.21994809496E+04 0.  0.
        3    1    3    3  502    0 -0.10306896384E+03  0.68935682097E+03  0.55319191215E+03  0.88986366360E+03  0.10100000352E+00 0. -1.
       -3    1    3    3    0  502  0.10306896384E+03 -0.68935682097E+03 -0.12258831040E+04  0.14101863114E+04  0.10100000352E+00 0.  1.
</event>
<event>
 5   0  0.1137869E-06  0.2201118E+04  0.7818609E-02  0.8517963E-01
       -1   -1    0    0    0  501  0.00000000000E+00  0.00000000000E+00  0.59692290987E+03  0.59692290989E+03  0.50400001928E-02 0.  1.
        1   -1    0    0  501    0  0.00000000000E+00  0.00000000000E+00 -0.20291236899E+04  0.20291236899E+04  0.50400001928E-02 0. -1.
    10030    2    1    2    0    0  0.00000000000E+00  0.00000000000E+00 -0.14322007800E+04  0.26260465998E+04  0.22011182772E+04 0.  0.
        5    1    3    3  502    0 -0.68046212359E+02 -0.54119354606E+03  0.42430145345E+03  0.69106769184E+03  0.46999998093E+01 0.  1.
       -5    1    3    3    0  502  0.68046212359E+02  0.54119354606E+03 -0.18565022335E+04  0.19349789080E+04  0.46999998093E+01 0. -1.
</event>
<event>
 5   0  0.2581058E-06  0.2200043E+04  0.7818609E-02  0.8518410E-01
       -2   -1    0    0    0  501  0.00000000000E+00  0.00000000000E+00  0.97828215424E+03  0.97828215424E+03  0.25500000920E-02 0.  1.
        2   -1    0    0  501    0  0.00000000000E+00  0.00000000000E+00 -0.12369106710E+04  0.12369106710E+04  0.25500000920E-02 0. -1.
    10030    2    1    2    0    0  0.00000000000E+00  0.00000000000E+00 -0.25862851677E+03  0.22151928253E+04  0.22000433049E+04 0.  0.
        1    1    3    3  502    0  0.33378262864E+03  0.51094420915E+03  0.79217778860E+03  0.10000102384E+04  0.50400001928E-02 0.  1.
       -1    1    3    3    0  502 -0.33378262864E+03 -0.51094420915E+03 -0.10508063054E+04  0.12151825869E+04  0.50400001928E-02 0. -1.
</event>
<event>
 5   0  0.1144271E-06  0.2200561E+04  0.7818609E-02  0.8518195E-01
        1   -1    0    0  501    0  0.00000000000E+00  0.00000000000E+00  0.12329389465E+04  0.12329389465E+04  0.50400001928E-02 0. -1.
       -1   -1    0    0    0  501  0.00000000000E+00  0.00000000000E+00 -0.98189507042E+03  0.98189507043E+03  0.50400001928E-02 0.  1.
    10030    2    1    2    0    0  0.00000000000E+00  0.00000000000E+00  0.25104387604E+03  0.22148340169E+04  0.22005605410E+04 0.  0.
        3    1    3    3  502    0  0.28104238130E+03  0.16028599252E+02 -0.94503837342E+03  0.98607265124E+03  0.10100000352E+00 0.  1.
       -3    1    3    3    0  502 -0.28104238130E+03 -0.16028599252E+02  0.11960822495E+04  0.12287613657E+04  0.10100000352E+00 0. -1.
</event>
<event>
 5   0  0.2524749E-06  0.2209113E+04  0.7818609E-02  0.8514644E-01
        2   -1    0    0  501    0  0.00000000000E+00  0.00000000000E+00  0.76466184527E+03  0.76466184527E+03  0.25500000920E-02 0.  1.
       -2   -1    0    0    0  501  0.00000000000E+00  0.00000000000E+00 -0.15955361070E+04  0.15955361070E+04  0.25500000920E-02 0. -1.
    10030    2    1    2    0    0  0.00000000000E+00  0.00000000000E+00 -0.83087426171E+03  0.23601979523E+04  0.22091134727E+04 0.  0.
        4    1    3    3  502    0  0.10997939386E+04 -0.10070689626E+03 -0.43557806535E+03  0.11871893069E+04  0.12699999809E+01 0. -1.
       -4    1    3    3    0  502 -0.10997939386E+04  0.10070689626E+03 -0.39529619635E+03  0.11730086454E+04  0.12699999809E+01 0.  1.
</event>
<event>
 5   0  0.2524749E-06  0.2200647E+04  0.7818609E-02  0.8518159E-01
       -2   -1    0    0    0  501  0.00000000000E+00  0.00000000000E+00  0.10293525107E+04  0.10293525107E+04  0.25500000920E-02 0.  1.
        2   -1    0    0  501    0  0.00000000000E+00  0.00000000000E+00 -0.11761877229E+04  0.11761877229E+04  0.25500000920E-02 0. -1.
    10030    2    1    2    0    0  0.00000000000E+00  0.00000000000E+00 -0.14683521217E+03  0.22055402337E+04  0.22006469828E+04 0.  0.
        4    1    3    3  502    0 -0.17362176781E+03 -0.39383132019E+03 -0.10883205337E+04  0.11703379102E+04  0.12699999809E+01 0. -1.
       -4    1    3    3    0  502  0.17362176781E+03  0.39383132019E+03  0.94148532153E+03  0.10352023235E+04  0.12699999809E+01 0.  1.
</event>
<event>
 5   0  0.8905000E-07  0.2199221E+04  0.7818609E-02  0.8518752E-01
        3   -1    0    0  501    0  0.00000000000E+00  0.00000000000E+00  0.22783158639E+04  0.22783158661E+04  0.10100000352E+00 0.  1.
       -3   -1    0    0    0  501  0.00000000000E+00  0.00000000000E+00 -0.53071819799E+03  0.53071820760E+03  0.10100000352E+00 0. -1.
    10030    2    1    2    0    0  0.00000000000E+00  0.00000000000E+00  0.17475976659E+04  0.28090340737E+04  0.21992214135E+04 0.  0.
        3    1    3    3  502    0 -0.10677663145E+04 -0.25026757355E+03  0.97586135712E+03  0.14680136782E+04  0.10100000352E+00 0. -1.
       -3    1    3    3    0  502  0.10677663145E+04  0.25026757355E+03  0.77173630875E+03  0.13410203955E+04  0.10100000352E+00 0.  1.
</event>
<event>
 5   0  0.2524749E-06  0.2198783E+04  0.7818609E-02  0.8518935E-01
       -2   -1    0    0    0  501  0.00000000000E+00  0.00000000000E+00  0.17442101037E+04  0.17442101037E+04  0.25500000920E-02 0. -1.
        2   -1    0    0  501    0  0.00000000000E+00  0.00000000000E+00 -0.69295650649E+03  0.69295650650E+03  0.25500000920E-02 0.  1.
    10030    2    1    2    0    0  0.00000000000E+00  0.00000000000E+00  0.10512535972E+04  0.24371666102E+04  0.21987830635E+04 0.  0.
        4    1    3    3  502    0  0.58085298402E+03 -0.74794193975E+03  0.11446082791E+04  0.14855763392E+04  0.12699999809E+01 0. -1.
       -4    1    3    3    0  502 -0.58085298402E+03  0.74794193975E+03 -0.93354681857E+02  0.95159027097E+03  0.12699999809E+01 0.  1.
</event>
<event>
 5   0  0.2581058E-06  0.2199829E+04  0.7818609E-02  0.8518499E-01
        2   -1    0    0  501    0  0.00000000000E+00  0.00000000000E+00  0.16159868695E+04  0.16159868695E+04  0.25500000920E-02 0. -1.
       -2   -1    0    0    0  501  0.00000000000E+00  0.00000000000E+00 -0.74865221694E+03  0.74865221694E+03  0.25500000920E-02 0.  1.
    10030    2    1    2    0    0  0.00000000000E+00  0.00000000000E+00  0.86733465261E+03  0.23646390865E+04  0.21998292229E+04 0.  0.
        1    1    3    3  502    0  0.43522517997E+03  0.39850014014E+03  0.14314269557E+04  0.15482914611E+04  0.50400001928E-02 0. -1.
       -1    1    3    3    0  502 -0.43522517997E+03 -0.39850014014E+03 -0.56409230313E+03  0.81634762537E+03  0.50400001928E-02 0.  1.
</event>
<event>
 5   0  0.1146827E-06  0.2202387E+04  0.7818609E-02  0.8517435E-01
        1   -1    0    0  501    0  0.00000000000E+00  0.00000000000E+00  0.15508948909E+04  0.15508948909E+04  0.50400001928E-02 0.  1.
       -1   -1    0    0    0  501  0.00000000000E+00  0.00000000000E+00 -0.78188839736E+03  0.78188839737E+03  0.50400001928E-02 0. -1.
    10030    2    1    2    0    0  0.00000000000E+00  0.00000000000E+00  0.76900649352E+03  0.23327832883E+04  0.22023866334E+04 0.  0.
        4    1    3    3  502    0  0.69295106437E+03  0.33492790580E+01 -0.52199026355E+03  0.86756431659E+03  0.12699999809E+01 0.  1.
       -4    1    3    3    0  502 -0.69295106437E+03 -0.33492790580E+01  0.12909967571E+04  0.14652189717E+04  0.12699999809E+01 0. -1.
</event>
<event>
 5   0  0.8905000E-07  0.2202339E+04  0.7818609E-02  0.8517455E-01
       -3   -1    0    0    0  501  0.00000000000E+00  0.00000000000E+00  0.14170125817E+04  0.14170125853E+04  0.10100000352E+00 0.  1.
        3   -1    0    0  501    0  0.00000000000E+00  0.00000000000E+00 -0.85572607271E+03  0.85572607867E+03  0.10100000352E+00 0. -1.
    10030    2    1    2    0    0  0.00000000000E+00  0.00000000000E+00  0.56128650897E+03  0.22727386639E+04  0.22023393220E+04 0.  0.
        5    1    3    3  502    0  0.62939833753E+03 -0.73547769273E+03  0.82228550508E+03  0.12701359162E+04  0.46999998093E+01 0.  1.
       -5    1    3    3    0  502 -0.62939833753E+03  0.73547769273E+03 -0.26099899612E+03  0.10026027477E+04  0.46999998093E+01 0. -1.
</event>
<event>
 5   0  0.1137869E-06  0.2197656E+04  0.7818609E-02  0.8519404E-01
        1   -1    0    0  501    0  0.00000000000E+00  0.00000000000E+00  0.17148939435E+04  0.17148939435E+04  0.50400001928E-02 0. -1.
       -1   -1    0    0    0  501  0.00000000000E+00  0.00000000000E+00 -0.70408040170E+03  0.70408040172E+03  0.50400001928E-02 0.  1.
    10030    2    1    2    0    0  0.00000000000E+00  0.00000000000E+00  0.10108135418E+04  0.24189743452E+04  0.21976562212E+04 0.  0.
        5    1    3    3  502    0 -0.88510643090E+03  0.63080120831E+03  0.32765863661E+03  0.11352117999E+04  0.46999998093E+01 0.  1.
       -5    1    3    3    0  502  0.88510643090E+03 -0.63080120831E+03  0.68315490520E+03  0.12837625454E+04  0.46999998093E+01 0. -1.
</event>
<event>
 5   0  0.2524749E-06  0.2199047E+04  0.7818609E-02  0.8518825E-01
        2   -1    0    0  501    0  0.00000000000E+00  0.00000000000E+00  0.12545712918E+04  0.12545712918E+04  0.25500000920E-02 0. -1.
       -2   -1    0    0    0  501  0.00000000000E+00  0.00000000000E+00 -0.96363707319E+03  0.96363707319E+03  0.25500000920E-02 0.  1.
    10030    2    1    2    0    0  0.00000000000E+00  0.00000000000E+00  0.29093421863E+03  0.22182083650E+04  0.21990465277E+04 0.  0.
        4    1    3    3  502    0  0.96693422174E+03 -0.50576253776E+03  0.94131262706E+01  0.10912597095E+04  0.12699999809E+01 0.  1.
       -4    1    3    3    0  502 -0.96693422174E+03  0.50576253776E+03  0.28152109236E+03  0.11269486555E+04  0.12699999809E+01 0. -1.
</event>
<event>
 5   0  0.2581058E-06  0.2200479E+04  0.7818609E-02  0.8518229E-01
       -2   -1    0    0    0  501  0.00000000000E+00  0.00000000000E+00  0.16625701348E+04  0.16625701348E+04  0.25500000920E-02 0. -1.
        2   -1    0    0  501    0  0.00000000000E+00  0.00000000000E+00 -0.72810556592E+03  0.72810556593E+03  0.25500000920E-02 0.  1.
    10030    2    1    2    0    0  0.00000000000E+00  0.00000000000E+00  0.93446456891E+03  0.23906757008E+04  0.22004786469E+04 0.  0.
        1    1    3    3  502    0 -0.73052362374E+03 -0.23177880293E+03 -0.39039079503E+03  0.86011112724E+03  0.50400001928E-02 0.  1.
       -1    1    3    3    0  502  0.73052362374E+03  0.23177880293E+03  0.13248553639E+04  0.15305645735E+04  0.50400001928E-02 0. -1.
</event>
<event>
 5   0  0.2606154E-06  0.2199475E+04  0.7818609E-02  0.8518647E-01
        2   -1    0    0  501    0  0.00000000000E+00  0.00000000000E+00  0.94663286622E+03  0.94663286622E+03  0.25500000920E-02 0.  1.
       -2   -1    0    0    0  501  0.00000000000E+00  0.00000000000E+00 -0.12776043886E+04  0.12776043886E+04  0.25500000920E-02 0. -1.
    10030    2    1    2    0    0  0.00000000000E+00  0.00000000000E+00 -0.33097152237E+03  0.22242372548E+04  0.21994747594E+04 0.  0.
        2    1    3    3  502    0  0.24821712386E+03 -0.32850403674E+03 -0.11967192578E+04  0.12655684986E+04  0.25500000920E-02 0. -1.
       -2    1    3    3    0  502 -0.24821712386E+03  0.32850403674E+03  0.86574773541E+03  0.95866875619E+03  0.25500000920E-02 0.  1.
</event>
<event>
 5   0  0.2556869E-06  0.2200225E+04  0.7818609E-02  0.8518334E-01
        2   -1    0    0  501    0  0.00000000000E+00  0.00000000000E+00  0.14074136475E+04  0.14074136475E+04  0.25500000920E-02 0.  1.
       -2   -1    0    0    0  501  0.00000000000E+00  0.00000000000E+00 -0.85990924797E+03  0.85990924798E+03  0.25500000920E-02 0. -1.
    10030    2    1    2    0    0  0.00000000000E+00  0.00000000000E+00  0.54750439953E+03  0.22673228955E+04  0.22002254532E+04 0.  0.
        5    1    3    3  502    0  0.58604537474E+03  0.83766591034E+03  0.69245893171E+03  0.12347691366E+04  0.46999998093E+01 0.  1.
       -5    1    3    3    0  502 -0.58604537474E+03 -0.83766591034E+03 -0.14495453218E+03  0.10325537589E+04  0.46999998093E+01 0. -1.
</event>
<event>
 5   0  0.2606154E-06  0.2200316E+04  0.7818609E-02  0.8518297E-01
       -2   -1    0    0    0  501  0.00000000000E+00  0.00000000000E+00  0.10239818009E+04  0.10239818009E+04  0.25500000920E-02 0.  1.
        2   -1    0    0  501    0  0.00000000000E+00  0.00000000000E+00 -0.11820009817E+04  0.11820009817E+04  0.25500000920E-02 0. -1.
    10030    2    1    2    0    0  0.00000000000E+00  0.00000000000E+00 -0.15801918074E+03  0.22059827826E+04  0.22003158809E+04 0.  0.
        2    1    3    3  502    0  0.61850268856E+03  0.13033051506E+03  0.82376267169E+03  0.10383239178E+04  0.25500000920E-02 0.  1.
       -2    1    3    3    0  502 -0.61850268856E+03 -0.13033051506E+03 -0.98178185243E+03  0.11676588649E+04  0.25500000920E-02 0. -1.
</event>
<event>
 5   0  0.1144271E-06  0.2199976E+04  0.7818609E-02  0.8518438E-01
       -1   -1    0    0    0  501  0.00000000000E+00  0.00000000000E+00  0.10323766191E+04  0.10323766191E+04  0.50400001928E-02 0.  1.
        1   -1    0    0  501    0  0.00000000000E+00  0.00000000000E+00 -0.11720268594E+04  0.11720268594E+04  0.50400001928E-02 0. -1.
    10030    2    1    2    0    0  0.00000000000E+00  0.00000000000E+00 -0.13965024029E+03  0.22044034785E+04  0.21999755695E+04 0.  0.
        3    1    3    3  502    0 -0.30234915933E+03  0.20074850110E+03 -0.11103071948E+04  0.11681168828E+04  0.10100000352E+00 0. -1.
       -3    1    3    3    0  502  0.30234915933E+03 -0.20074850110E+03  0.97065695452E+03  0.10362865957E+04  0.10100000352E+00 0.  1.
</event>
<event>
 5   0  0.2581058E-06  0.2195338E+04  0.7818609E-02  0.8520371E-01
        2   -1    0    0  501    0  0.00000000000E+00  0.00000000000E+00  0.19805105996E+04  0.19805105996E+04  0.25500000920E-02 0.  1.
       -2   -1    0    0    0  501  0.00000000000E+00  0.00000000000E+00 -0.60836698307E+03  0.60836698308E+03  0.25500000920E-02 0. -1.
    10030    2    1    2    0    0  0.00000000000E+00  0.00000000000E+00  0.13721436165E+04  0.25888775827E+04  0.21953380226E+04 0.  0.
        1    1    3    3  502    0  0.20195826553E+03 -0.29474016689E+03  0.19100170472E+04  0.19431479686E+04  0.50400001928E-02 0.  1.
       -1    1    3    3    0  502 -0.20195826553E+03  0.29474016689E+03 -0.53787343073E+03  0.64572961409E+03  0.50400001928E-02 0. -1.
</event>
<event>
 5   0  0.1082209E-06  0.2201589E+04  0.7818609E-02  0.8517767E-01
        1   -1    0    0  501    0  0.00000000000E+00  0.00000000000E+00  0.13095840717E+04  0.13095840718E+04  0.50400001928E-02 0.  1.
       -1   -1    0    0    0  501  0.00000000000E+00  0.00000000000E+00 -0.92529235554E+03  0.92529235555E+03  0.50400001928E-02 0. -1.
    10030    2    1    2    0    0  0.00000000000E+00  0.00000000000E+00  0.38429171620E+03  0.22348764273E+04  0.22015886360E+04 0.  0.
        2    1    3    3  502    0  0.54596467802E+01 -0.40541389074E+03  0.12310246879E+04  0.12960756200E+04  0.25500000920E-02 0.  1.
       -2    1    3    3    0  502 -0.54596467802E+01  0.40541389074E+03 -0.84673297166E+03  0.93880080734E+03  0.25500000920E-02 0. -1.
</event>
<event>
 5   0  0.1146827E-06  0.2199304E+04  0.7818609E-02  0.8518718E-01
        1   -1    0    0  501    0  0.00000000000E+00  0.00000000000E+00  0.13975554287E+04  0.13975554287E+04  0.50400001928E-02 0. -1.
       -1   -1    0    0    0  501  0.00000000000E+00  0.00000000000E+00 -0.86524964631E+03  0.86524964632E+03  0.50400001928E-02 0.  1.
    10030    2    1    2    0    0  0.00000000000E+00  0.00000000000E+00  0.53230578238E+03  0.22628050750E+04  0.21993038357E+04 0.  0.
        4    1    3    3  502    0 -0.44955926263E+03  0.94198387081E+03  0.62226137229E+03  0.12151740500E+04  0.12699999809E+01 0. -1.
       -4    1    3    3    0  502  0.44955926263E+03 -0.94198387081E+03 -0.89955589911E+02  0.10476310250E+04  0.12699999809E+01 0.  1.
</event>
<event>
 5   0  0.2532239E-06  0.2199932E+04  0.7818609E-02  0.8518457E-01
       -2   -1    0    0    0  501  0.00000000000E+00  0.00000000000E+00  0.78563961206E+03  0.78563961206E+03  0.25500000920E-02 0.  1.
        2   -1    0    0  501    0  0.00000000000E+00  0.00000000000E+00 -0.15400504977E+04  0.15400504977E+04  0.25500000920E-02 0. -1.
    10030    2    1    2    0    0  0.00000000000E+00  0.00000000000E+00 -0.75441088562E+03  0.23256901097E+04  0.21999315222E+04 0.  0.
        3    1    3    3  502    0  0.41660369447E+03  0.40572855848E+02  0.69815505221E+03  0.81401798629E+03  0.10100000352E+00 0.  1.
       -3    1    3    3    0  502 -0.41660369447E+03 -0.40572855848E+02 -0.14525659378E+04  0.15116721235E+04  0.10100000352E+00 0. -1.
</event>
<event>
 5   0  0.2556869E-06  0.2200242E+04  0.7818609E-02  0.8518328E-01
       -2   -1    0    0    0  501  0.00000000000E+00  0.00000000000E+00  0.89493370114E+03  0.89493370114E+03  0.25500000920E-02 0. -1.
        2   -1    0    0  501    0  0.00000000000E+00  0.00000000000E+00 -0.13523525692E+04  0.13523525692E+04  0.25500000920E-02 0.  1.
    10030    2    1    2    0    0  0.00000000000E+00  0.00000000000E+00 -0.45741886801E+03  0.22472862703E+04  0.22002417049E+04 0.  0.
        5    1    3    3  502    0  0.56156556770E+03  0.59936289659E+03  0.51882187025E+03  0.97148854429E+03  0.46999998093E+01 0. -1.
       -5    1    3    3    0  502 -0.56156556770E+03 -0.59936289659E+03 -0.97624073827E+03  0.12757977260E+04  0.46999998093E+01 0.  1.
</event>
<event>
 5   0  0.8905000E-07  0.2201058E+04  0.7818609E-02  0.8517988E-01
       -3   -1    0    0    0  501  0.00000000000E+00  0.00000000000E+00  0.21602778350E+04  0.21602778373E+04  0.10100000352E+00 0.  1.
        3   -1    0    0  501    0  0.00000000000E+00  0.00000000000E+00 -0.56065211496E+03  0.56065212406E+03  0.10100000352E+00 0. -1.
    10030    2    1    2    0    0  0.00000000000E+00  0.00000000000E+00  0.15996257200E+04  0.27209299614E+04  0.22010582479E+04 0.  0.
        3    1    3    3  502    0 -0.33888136924E+03  0.10430648392E+03 -0.48810902155E+03  0.60329996861E+03  0.10100000352E+00 0. -1.
       -3    1    3    3    0  502  0.33888136924E+03 -0.10430648392E+03  0.20877347416E+04  0.21176299928E+04  0.10100000352E+00 0.  1.
</event>
<event>
 5   0  0.2556869E-06  0.2199251E+04  0.7818609E-02  0.8518740E-01
       -2   -1    0    0    0  501  0.00000000000E+00  0.00000000000E+00  0.24598068474E+04  0.24598068474E+04  0.25500000920E-02 0. -1.
        2   -1    0    0  501    0  0.00000000000E+00  0.00000000000E+00 -0.49157385137E+03  0.49157385138E+03  0.25500000920E-02 0.  1.
    10030    2    1    2    0    0  0.00000000000E+00  0.00000000000E+00  0.19682329960E+04  0.29513806987E+04  0.21992514414E+04 0.  0.
        5    1    3    3  502    0  0.16101318987E+03  0.90909900314E+03  0.18254266347E+03  0.94113238113E+03  0.46999998093E+01 0.  1.
       -5    1    3    3    0  502 -0.16101318987E+03 -0.90909900314E+03  0.17856903325E+04  0.20102483176E+04  0.46999998093E+01 0. -1.
</event>
<event>
 5   0  0.2581058E-06  0.2199793E+04  0.7818609E-02  0.8518514E-01
       -2   -1    0    0    0  501  0.00000000000E+00  0.00000000000E+00  0.86770042769E+03  0.86770042770E+03  0.25500000920E-02 0. -1.
        2   -1    0    0  501    0  0.00000000000E+00  0.00000000000E+00 -0.13942286398E+04  0.13942286398E+04  0.25500000920E-02 0.  1.
    10030    2    1    2    0    0  0.00000000000E+00  0.00000000000E+00 -0.52652821206E+03  0.22619290675E+04  0.21997934330E+04 0.  0.
        1    1    3    3  502    0  0.36254239954E+03 -0.22776137828E+03  0.77849717441E+03  0.88846501759E+03  0.50400001928E-02 0. -1.
       -1    1    3    3    0  502 -0.36254239954E+03  0.22776137828E+03 -0.13050253865E+04  0.13734640499E+04  0.50400001928E-02 0.  1.
</event>
<event>
 5   0  0.1146827E-06  0.2199298E+04  0.7818609E-02  0.8518720E-01
        1   -1    0    0  501    0  0.00000000000E+00  0.00000000000E+00  0.12849618738E+04  0.12849618738E+04  0.50400001928E-02 0. -1.
       -1   -1    0    0    0  501  0.00000000000E+00  0.00000000000E+00 -0.94106151257E+03  0.94106151259E+03  0.50400001928E-02 0.  1.
    10030    2    1    2    0    0  0.00000000000E+00  0.00000000000E+00  0.34390036125E+03  0.22260233864E+04  0.21992982195E+04 0.  0.
        4    1    3    3  502    0 -0.18280367050E+03 -0.19584443764E+03 -0.90752480607E+03  0.94624262863E+03  0.12699999809E+01 0.  1.
       -4    1    3    3    0  502  0.18280367050E+03  0.19584443764E+03  0.12514251673E+04  0.12797807578E+04  0.12699999809E+01 0. -1.
</event>
<event>
 5   0  0.1137869E-06  0.2199729E+04  0.7818609E-02  0.8518541E-01
       -1   -1    0    0    0  501  0.00000000000E+00  0.00000000000E+00  0.96334536937E+03  0.96334536938E+03  0.50400001928E-02 0.  1.
        1   -1    0    0  501    0  0.00000000000E+00  0.00000000000E+00 -0.12557306590E+04  0.12557306590E+04  0.50400001928E-02 0. -1.
    10030    2    1    2    0    0  0.00000000000E+00  0.00000000000E+00 -0.29238528960E+03  0.22190760284E+04  0.21997293611E+04 0.  0.
        5    1    3    3  502    0 -0.74766638996E+03  0.30272756659E+03 -0.90045244150E+03  0.12089192279E+04  0.46999998093E+01 0. -1.
       -5    1    3    3    0  502  0.74766638996E+03 -0.30272756659E+03  0.60806715190E+03  0.10101568004E+04  0.46999998093E+01 0.  1.
</event>
<event>
 5   0  0.2556869E-06  0.2199730E+04  0.7818609E-02  0.8518541E-01
        2   -1    0    0  501    0  0.00000000000E+00  0.00000000000E+00  0.11953237273E+04  0.11953237273E+04  0.25500000920E-02 0. -1.
       -2   -1    0    0    0  501  0.00000000000E+00  0.00000000000E+00 -0.10120293449E+04  0.10120293449E+04  0.25500000920E-02 0.  1.
    10030    2    1    2    0    0  0.00000000000E+00  0.00000000000E+00  0.18329438237E+03  0.22073530722E+04  0.21997297004E+04 0.  0.
        5    1    3    3  502    0  0.52082111111E+03  0.32444207149E+03  0.10075883086E+04  0.11797345368E+04  0.46999998093E+01 0. -1.
       -5    1    3    3    0  502 -0.52082111111E+03 -0.32444207149E+03 -0.82429392628E+03  0.10276185355E+04  0.46999998093E+01 0.  1.
</event>
<event>
 5   0  0.2606154E-06  0.2199721E+04  0.7818609E-02  0.8518544E-01
        2   -1    0    0  501    0  0.00000000000E+00  0.00000000000E+00  0.14116346595E+04  0.14116346595E+04  0.25500000920E-02 0. -1.
       -2   -1    0    0    0  501  0.00000000000E+00  0.00000000000E+00 -0.85694496254E+03  0.85694496254E+03  0.25500000920E-02 0.  1.
    10030    2    1    2    0    0  0.00000000000E+00  0.00000000000E+00  0.55468969696E+03  0.22685796220E+04  0.21997210827E+04 0.  0.
        2    1    3    3  502    0 -0.36441567139E+03  0.54865626517E+03 -0.63106345219E+03  0.91217518030E+03  0.25500000920E-02 0.  1.
       -2    1    3    3    0  502  0.36441567139E+03 -0.54865626517E+03  0.11857531491E+04  0.13564044417E+04  0.25500000920E-02 0. -1.
</event>
<event>
 5   0  0.2532239E-06  0.2201357E+04  0.7818609E-02  0.8517863E-01
       -2   -1    0    0    0  501  0.00000000000E+00  0.00000000000E+00  0.10924606010E+04  0.10924606010E+04  0.25500000920E-02 0.  1.
        2   -1    0    0  501    0  0.00000000000E+00  0.00000000000E+00 -0.11089585514E+04  0.11089585514E+04  0.25500000920E-02 0. -1.
    10030    2    1    2    0    0  0.00000000000E+00  0.00000000000E+00 -0.16497950436E+02  0.22014191524E+04  0.22013573318E+04 0.  0.
        3    1    3    3  502    0  0.26354137423E+03 -0.19390561947E+03  0.10427039747E+04  0.10928334888E+04  0.10100000352E+00 0.  1.
       -3    1    3    3    0  502 -0.26354137423E+03  0.19390561947E+03 -0.10592019251E+04  0.11085856636E+04  0.10100000352E+00 0. -1.
</event>
<event>
 5   0  0.1107101E-06  0.2200247E+04  0.7818609E-02  0.8518325E-01
        1   -1    0    0  501    0  0.00000000000E+00  0.00000000000E+00  0.88802972108E+03  0.88802972109E+03  0.50400001928E-02 0. -1.
       -1   -1    0    0    0  501  0.00000000000E+00  0.00000000000E+00 -0.13628734546E+04  0.13628734546E+04  0.50400001928E-02 0.  1.
    10030    2    1    2    0    0  0.00000000000E+00  0.00000000000E+00 -0.47484373352E+03  0.22509031757E+04  0.22002473804E+04 0.  0.
        1    1    3    3  502    0 -0.22503876809E+03  0.57822954691E+01  0.86421561227E+03  0.89305347354E+03  0.50400001928E-02 0. -1.
       -1    1    3    3    0  502  0.22503876809E+03 -0.57822954691E+01 -0.13390593458E+04  0.13578497022E+04  0.50400001928E-02 0.  1.
</event>
<event>
 5   0  0.2532239E-06  0.2199937E+04  0.7818609E-02  0.8518455E-01
        2   -1    0    0  501    0  0.00000000000E+00  0.00000000000E+00  0.11061573764E+04  0.11061573764E+04  0.25500000920E-02 0. -1.
       -2   -1    0    0    0  501  0.00000000000E+00  0.00000000000E+00 -0.10938137676E+04  0.10938137676E+04  0.25500000920E-02 0.  1.
    10030    2    1    2    0    0  0.00000000000E+00  0.00000000000E+00  0.12343608812E+02  0.21999711440E+04  0.21999365149E+04 0.  0.
        3    1    3    3  502    0 -0.76342427212E+03  0.65074803309E+03  0.45744438987E+03  0.11025175744E+04  0.10100000352E+00 0. -1.
       -3    1    3    3    0  502  0.76342427212E+03 -0.65074803309E+03 -0.44510078105E+03  0.10974535696E+04  0.10100000352E+00 0.  1.
</event>
<event>
 5   0  0.2556869E-06  0.2199181E+04  0.7818609E-02  0.8518769E-01
        2   -1    0    0  501    0  0.00000000000E+00  0.00000000000E+00  0.14916174152E+04  0.14916174152E+04  0.25500000920E-02 0. -1.
       -2   -1    0    0    0  501  0.00000000000E+00  0.00000000000E+00 -0.81059646501E+03  0.81059646501E+03  0.25500000920E-02 0.  1.
    10030    2    1    2    0    0  0.00000000000E+00  0.00000000000E+00  0.68102095017E+03  0.23022138802E+04  0.21991814876E+04 0.  0.
        5    1    3    3  502    0 -0.32309630235E+03 -0.56686963263E+02 -0.75817033986E+03  0.82610470682E+03  0.46999998093E+01 0.  1.
       -5    1    3    3    0  502  0.32309630235E+03  0.56686963263E+02  0.14391912900E+04  0.14761091734E+04  0.46999998093E+01 0. -1.
</event>
<event>
 5   0  0.1107101E-06  0.2199731E+04  0.7818609E-02  0.8518540E-01
        1   -1    0    0  501    0  0.00000000000E+00  0.00000000000E+00  0.15685743423E+04  0.15685743423E+04  0.50400001928E-02 0. -1.
       -1   -1    0    0    0  501  0.00000000000E+00  0.00000000000E+00 -0.77121237424E+03  0.77121237425E+03  0.50400001928E-02 0.  1.
    10030    2    1    2    0    0  0.00000000000E+00  0.00000000000E+00  0.79736196808E+03  0.23397867166E+04  0.21997308406E+04 0.  0.
        1    1    3    3  502    0  0.34545880919E+03  0.91465892436E+03  0.93450150479E+03  0.13524924396E+04  0.50400001928E-02 0. -1.
       -1    1    3    3    0  502 -0.34545880919E+03 -0.91465892436E+03 -0.13713953671E+03  0.98729427696E+03  0.50400001928E-02 0.  1.
</event>
<event>
 5   0  0.1082209E-06  0.2199418E+04  0.7818609E-02  0.8518670E-01
        1   -1    0    0  501    0  0.00000000000E+00  0.00000000000E+00  0.14655774629E+04  0.14655774629E+04  0.50400001928E-02 0. -1.
       -1   -1    0    0    0  501  0.00000000000E+00  0.00000000000E+00 -0.82517641493E+03  0.82517641495E+03  0.50400001928E-02 0.  1.
    10030    2    1    2    0    0  0.00000000000E+00  0.00000000000E+00  0.64040104798E+03  0.22907538779E+04  0.21994180655E+04 0.  0.
        2    1    3    3  502    0  0.77870328982E+03 -0.76341332430E+02  0.11250478474E+04  0.13703793167E+04  0.25500000920E-02 0. -1.
       -2    1    3    3    0  502 -0.77870328982E+03  0.76341332430E+02 -0.48464679946E+03  0.92037456117E+03  0.25500000920E-02 0.  1.
</event>
<event>
 5   0  0.2524749E-06  0.2200119E+04  0.7818609E-02  0.8518379E-01
       -2   -1    0    0    0  501  0.00000000000E+00  0.00000000000E+00  0.61933836208E+03  0.61933836209E+03  0.25500000920E-02 0.  1.
        2   -1    0    0  501    0  0.00000000000E+00  0.00000000000E+00 -0.19539093983E+04  0.19539093983E+04  0.25500000920E-02 0. -1.
    10030    2    1    2    0    0  0.00000000000E+00  0.00000000000E+00 -0.13345710362E+04  0.25732477604E+04  0.22001191299E+04 0.  0.
        4    1    3    3  502    0  0.67234292023E+03 -0.84875750585E+03 -0.44020597383E+03  0.11688529499E+04  0.12699999809E+01 0.  1.
       -4    1    3    3    0  502 -0.67234292023E+03  0.84875750585E+03 -0.89436506240E+03  0.14043948105E+04  0.12699999809E+01 0. -1.
</event>
<event>
 5   0  0.2524749E-06  0.2191311E+04  0.7818609E-02  0.8522054E-01
       -2   -1    0    0    0  501  0.00000000000E+00  0.00000000000E+00  0.66111389845E+03  0.66111389846E+03  0.25500000920E-02 0.  1.
        2   -1    0    0  501    0  0.00000000000E+00  0.00000000000E+00 -0.18158150925E+04  0.18158150925E+04  0.25500000920E-02 0. -1.
    10030    2    1    2    0    0  0.00000000000E+00  0.00000000000E+00 -0.11547011940E+04  0.24769289909E+04  0.21913106531E+04 0.  0.
        4    1    3    3  502    0  0.13954854732E+03  0.10367429023E+04 -0.20907897587E+03  0.10667826741E+04  0.12699999809E+01 0.  1.
       -4    1    3    3    0  502 -0.13954854732E+03 -0.10367429023E+04 -0.94562221813E+03  0.14101463169E+04  0.12699999809E+01 0. -1.
</event>
<event>
 5   0  0.2606154E-06  0.2199410E+04  0.7818609E-02  0.8518674E-01
        2   -1    0    0  501    0  0.00000000000E+00  0.00000000000E+00  0.89899477530E+03  0.89899477530E+03  0.25500000920E-02 0.  1.
       -2   -1    0    0    0  501  0.00000000000E+00  0.00000000000E+00 -0.13452259381E+04  0.13452259381E+04  0.25500000920E-02 0. -1.
    10030    2    1    2    0    0  0.00000000000E+00  0.00000000000E+00 -0.44623116280E+03  0.22442207134E+04  0.21994100027E+04 0.  0.
        2    1    3    3  502    0 -0.14013329527E+03 -0.74953565811E+03 -0.10316678250E+04  0.12828793959E+04  0.25500000920E-02 0. -1.
       -2    1    3    3    0  502  0.14013329527E+03  0.74953565811E+03  0.58543666223E+03  0.96134131749E+03  0.25500000920E-02 0.  1.
</event>
<event>
 5   0  0.2581058E-06  0.2199521E+04  0.7818609E-02  0.8518627E-01
       -2   -1    0    0    0  501  0.00000000000E+00  0.00000000000E+00  0.12778836927E+04  0.12778836927E+04  0.25500000920E-02 0.  1.
        2   -1    0    0  501    0  0.00000000000E+00  0.00000000000E+00 -0.94646605344E+03  0.94646605344E+03  0.25500000920E-02 0. -1.
    10030    2    1    2    0    0  0.00000000000E+00  0.00000000000E+00  0.33141763928E+03  0.22243497462E+04  0.21995213438E+04 0.  0.
        1    1    3    3  502    0 -0.79737314413E+03  0.64812135952E+03  0.56206190783E+03  0.11712296171E+04  0.50400001928E-02 0. -1.
       -1    1    3    3    0  502  0.79737314413E+03 -0.64812135952E+03 -0.23064426855E+03  0.10531201291E+04  0.50400001928E-02 0.  1.
</event>
<event>
 5   0  0.2524749E-06  0.2200729E+04  0.7818609E-02  0.8518125E-01
        2   -1    0    0  501    0  0.00000000000E+00  0.00000000000E+00  0.12503855910E+04  0.12503855910E+04  0.25500000920E-02 0. -1.
       -2   -1    0    0    0  501  0.00000000000E+00  0.00000000000E+00 -0.96834316619E+03  0.96834316620E+03  0.25500000920E-02 0.  1.
    10030    2    1    2    0    0  0.00000000000E+00  0.00000000000E+00  0.28204242477E+03  0.22187287572E+04  0.22007292811E+04 0.  0.
        4    1    3    3  502    0 -0.96823303812E+02  0.71730702616E+03  0.97659205377E+03  0.12155812496E+04  0.12699999809E+01 0. -1.
       -4    1    3    3    0  502  0.96823303812E+02 -0.71730702616E+03 -0.69454962899E+03  0.10031475076E+04  0.12699999809E+01 0.  1.
</event>
<event>
 5   0  0.2532239E-06  0.2200498E+04  0.7818609E-02  0.8518221E-01
        2   -1    0    0  501    0  0.00000000000E+00  0.00000000000E+00  0.10855863783E+04  0.10855863783E+04  0.25500000920E-02 0. -1.
       -2   -1    0    0    0  501  0.00000000000E+00  0.00000000000E+00 -0.11151094607E+04  0.11151094607E+04  0.25500000920E-02 0.  1.
    10030    2    1    2    0    0  0.00000000000E+00  0.00000000000E+00 -0.29523082413E+02  0.22006958391E+04  0.22004977991E+04 0.  0.
        3    1    3    3  502    0  0.18028319913E+03 -0.73779590732E+03  0.78136462145E+03  0.10896676166E+04  0.10100000352E+00 0. -1.
       -3    1    3    3    0  502 -0.18028319913E+03  0.73779590732E+03 -0.81088770386E+03  0.11110282225E+04  0.10100000352E+00 0.  1.
</event>
<event>
 5   0  0.1144271E-06  0.2201671E+04  0.7818609E-02  0.8517733E-01
       -1   -1    0    0    0  501  0.00000000000E+00  0.00000000000E+00  0.92855249723E+03  0.92855249724E+03  0.50400001928E-02 0. -1.
        1   -1    0    0  501    0  0.00000000000E+00  0.00000000000E+00 -0.13050837878E+04  0.13050837879E+04  0.50400001928E-02 0.  1.
    10030    2    1    2    0    0  0.00000000000E+00  0.00000000000E+00 -0.37653129062E+03  0.22336362851E+04  0.22016710111E+04 0.  0.
        3    1    3    3  502    0 -0.86623526203E+03  0.39353036060E+02  0.49975948342E+03  0.10008355220E+04  0.10100000352E+00 0. -1.
       -3    1    3    3    0  502  0.86623526203E+03 -0.39353036060E+02 -0.87629077403E+03  0.12328007631E+04  0.10100000352E+00 0.  1.
</event>
<event>
 5   0  0.1144271E-06  0.2200744E+04  0.7818609E-02  0.8518119E-01
       -1   -1    0    0    0  501  0.00000000000E+00  0.00000000000E+00  0.74248213180E+03  0.74248213182E+03  0.50400001928E-02 0. -1.
        1   -1    0    0  501    0  0.00000000000E+00  0.00000000000E+00 -0.16307710273E+04  0.16307710273E+04  0.50400001928E-02 0.  1.
    10030    2    1    2    0    0  0.00000000000E+00  0.00000000000E+00 -0.88828889552E+03  0.23732531592E+04  0.22007438278E+04 0.  0.
        3    1    3    3  502    0 -0.86688434967E+03 -0.67068646013E+03 -0.54930532964E+03  0.12259874220E+04  0.10100000352E+00 0. -1.
       -3    1    3    3    0  502  0.86688434967E+03  0.67068646013E+03 -0.33898356587E+03  0.11472657372E+04  0.10100000352E+00 0.  1.
</event>
<event>
 5   0  0.1146827E-06  0.2200900E+04  0.7818609E-02  0.8518054E-01
        1   -1    0    0  501    0  0.00000000000E+00  0.00000000000E+00  0.82770402452E+03  0.82770402453E+03  0.50400001928E-02 0.  1.
       -1   -1    0    0    0  501  0.00000000000E+00  0.00000000000E+00 -0.14630718546E+04  0.14630718546E+04  0.50400001928E-02 0. -1.
    10030    2    1    2    0    0  0.00000000000E+00  0.00000000000E+00 -0.63536783007E+03  0.22907758791E+04  0.22009002360E+04 0.  0.
        4    1    3    3  502    0  0.68664644412E+03 -0.32906246844E+03  0.50925568618E+03  0.91602860991E+03  0.12699999809E+01 0.  1.
       -4    1    3    3    0  502 -0.68664644412E+03  0.32906246844E+03 -0.11446235163E+04  0.13747472692E+04  0.12699999809E+01 0. -1.
</event>
<event>
 5   0  0.1107101E-06  0.2199531E+04  0.7818609E-02  0.8518623E-01
        1   -1    0    0  501    0  0.00000000000E+00  0.00000000000E+00  0.13081243314E+04  0.13081243314E+04  0.50400001928E-02 0. -1.
       -1   -1    0    0    0  501  0.00000000000E+00  0.00000000000E+00 -0.92459391080E+03  0.92459391081E+03  0.50400001928E-02 0.  1.
    10030    2    1    2    0    0  0.00000000000E+00  0.00000000000E+00  0.38353042058E+03  0.22327182422E+04  0.21995306694E+04 0.  0.
        1    1    3    3  502    0 -0.27938229248E+03  0.77016802280E+03  0.93650439574E+03  0.12442884440E+04  0.50400001928E-02 0. -1.
       -1    1    3    3    0  502  0.27938229248E+03 -0.77016802280E+03 -0.55297397516E+03  0.98842979817E+03  0.50400001928E-02 0.  1.
</event>
<event>
 5   0  0.2581058E-06  0.2199119E+04  0.7818609E-02  0.8518795E-01
       -2   -1    0    0    0  501  0.00000000000E+00  0.00000000000E+00  0.89502198289E+03  0.89502198289E+03  0.25500000920E-02 0.  1.
        2   -1    0    0  501    0  0.00000000000E+00  0.00000000000E+00 -0.13508391594E+04  0.13508391594E+04  0.25500000920E-02 0. -1.
    10030    2    1    2    0    0  0.00000000000E+00  0.00000000000E+00 -0.45581717648E+03  0.22458611423E+04  0.21991186807E+04 0.  0.
        1    1    3    3  502    0 -0.48368295209E+03  0.96848286393E+03 -0.42467581550E+03  0.11628662022E+04  0.50400001928E-02 0.  1.
       -1    1    3    3    0  502  0.48368295209E+03 -0.96848286393E+03 -0.31141360980E+02  0.10829949401E+04  0.50400001928E-02 0. -1.
</event>
<event>
 5   0  0.2524749E-06  0.2199225E+04  0.7818609E-02  0.8518751E-01
       -2   -1    0    0    0  501  0.00000000000E+00  0.00000000000E+00  0.91105513668E+03  0.91105513669E+03  0.25500000920E-02 0.  1.
        2   -1    0    0  501    0  0.00000000000E+00  0.00000000000E+00 -0.13271953064E+04  0.13271953064E+04  0.25500000920E-02 0. -1.
    10030    2    1    2    0    0  0.00000000000E+00  0.00000000000E+00 -0.41614016970E+03  0.22382504431E+04  0.21992254102E+04 0.  0.
        4    1    3    3  502    0 -0.29543969232E+03 -0.55441471473E+03  0.71043338167E+03  0.94835514993E+03  0.12699999809E+01 0.  1.
       -4    1    3    3    0  502  0.29543969232E+03  0.55441471473E+03 -0.11265735514E+04  0.12898952931E+04  0.12699999809E+01 0. -1.
</event>
<event>
 5   0  0.2606154E-06  0.2200918E+04  0.7818609E-02  0.8518046E-01
       -2   -1    0    0    0  501  0.00000000000E+00  0.00000000000E+00  0.15023200767E+04  0.15023200767E+04  0.25500000920E-02 0. -1.
        2   -1    0    0  501    0  0.00000000000E+00  0.00000000000E+00 -0.80609289239E+03  0.80609289239E+03  0.25500000920E-02 0.  1.
    10030    2    1    2    0    0  0.00000000000E+00  0.00000000000E+00  0.69622718433E+03  0.23084129691E+04  0.22009175686E+04 0.  0.
        2    1    3    3  502    0  0.10258569539E+04  0.52203070466E+02  0.76224237155E+03  0.12791094884E+04  0.25500000920E-02 0. -1.
       -2    1    3    3    0  502 -0.10258569539E+04 -0.52203070466E+02 -0.66015187223E+02  0.10293034807E+04  0.25500000920E-02 0.  1.
</event>
<event>
 5   0  0.1137869E-06  0.2199316E+04  0.7818609E-02  0.8518713E-01
       -1   -1    0    0    0  501  0.00000000000E+00  0.00000000000E+00  0.97863751122E+03  0.97863751123E+03  0.50400001928E-02 0. -1.
        1   -1    0    0  501    0  0.00000000000E+00  0.00000000000E+00 -0.12356444126E+04  0.12356444126E+04  0.50400001928E-02 0.  1.
    10030    2    1    2    0    0  0.00000000000E+00  0.00000000000E+00 -0.25700690139E+03  0.22142819239E+04  0.21993162326E+04 0.  0.
        5    1    3    3  502    0  0.35895913183E+03  0.77717483384E+03 -0.82339820485E+03  0.11877958892E+04  0.46999998093E+01 0.  1.
       -5    1    3    3    0  502 -0.35895913183E+03 -0.77717483384E+03  0.56639130346E+03  0.10264860346E+04  0.46999998093E+01 0. -1.
</event>
<event>
 5   0  0.1144271E-06  0.2199617E+04  0.7818609E-02  0.8518587E-01
        1   -1    0    0  501    0  0.00000000000E+00  0.00000000000E+00  0.15569250439E+04  0.15569250439E+04  0.50400001928E-02 0. -1.
       -1   -1    0    0    0  501  0.00000000000E+00  0.00000000000E+00 -0.77690267440E+03  0.77690267442E+03  0.50400001928E-02 0.  1.
    10030    2    1    2    0    0  0.00000000000E+00  0.00000000000E+00  0.78002236946E+03  0.23338277183E+04  0.21996174490E+04 0.  0.
        3    1    3    3  502    0 -0.38095111323E+03  0.60793018439E+03 -0.49444313226E+03  0.87130756969E+03  0.10100000352E+00 0.  1.
       -3    1    3    3    0  502  0.38095111323E+03 -0.60793018439E+03  0.12744655017E+04  0.14625201486E+04  0.10100000352E+00 0. -1.
</event>
<event>
 5   0  0.2581058E-06  0.2199749E+04  0.7818609E-02  0.8518532E-01
        2   -1    0    0  501    0  0.00000000000E+00  0.00000000000E+00  0.22304019996E+04  0.22304019996E+04  0.25500000920E-02 0.  1.
       -2   -1    0    0    0  501  0.00000000000E+00  0.00000000000E+00 -0.54237953089E+03  0.54237953090E+03  0.25500000920E-02 0. -1.
    10030    2    1    2    0    0  0.00000000000E+00  0.00000000000E+00  0.16880224687E+04  0.27727815305E+04  0.21997494314E+04 0.  0.
        1    1    3    3  502    0  0.57819680065E+03  0.93375713744E+03  0.76932778951E+03  0.13409247480E+04  0.50400001928E-02 0. -1.
       -1    1    3    3    0  502 -0.57819680065E+03 -0.93375713744E+03  0.91869467918E+03  0.14318567825E+04  0.50400001928E-02 0.  1.
</event>
<event>
 5   0  0.1146827E-06  0.2200300E+04  0.7818609E-02  0.8518303E-01
       -1   -1    0    0    0  501  0.00000000000E+00  0.00000000000E+00  0.10009786587E+04  0.10009786587E+04  0.50400001928E-02 0. -1.
        1   -1    0    0  501    0  0.00000000000E+00  0.00000000000E+00 -0.12091469896E+04  0.12091469896E+04  0.50400001928E-02 0.  1.
    10030    2    1    2    0    0  0.00000000000E+00  0.00000000000E+00 -0.20816833087E+03  0.22101256483E+04  0.22003002811E+04 0.  0.
        4    1    3    3  502    0  0.37246616579E+02  0.37916622908E+03 -0.11407657077E+04  0.12027062620E+04  0.12699999809E+01 0.  1.
       -4    1    3    3    0  502 -0.37246616579E+02 -0.37916622908E+03  0.93259737686E+03  0.10074193863E+04  0.12699999809E+01 0. -1.
</event>
<event>
 5   0  0.1144271E-06  0.2201039E+04  0.7818609E-02  0.8517996E-01
        1   -1    0    0  501    0  0.00000000000E+00  0.00000000000E+00  0.71286298950E+03  0.71286298952E+03  0.50400001928E-02 0. -1.
       -1   -1    0    0    0  501  0.00000000000E+00  0.00000000000E+00 -0.16989843375E+04  0.16989843375E+04  0.50400001928E-02 0.  1.
    10030    2    1    2    0    0  0.00000000000E+00  0.00000000000E+00 -0.98612134801E+03  0.24118473270E+04  0.22010388947E+04 0.  0.
        3    1    3    3  502    0 -0.16158496514E+03  0.21916354454E+03  0.67536867927E+03  0.72819312229E+03  0.10100000352E+00 0. -1.
       -3    1    3    3    0  502  0.16158496514E+03 -0.21916354454E+03 -0.16614900273E+04  0.16836542047E+04  0.10100000352E+00 0.  1.
</event>
<event>
 5   0  0.1107101E-06  0.2199323E+04  0.7818609E-02  0.8518710E-01
       -1   -1    0    0    0  501  0.00000000000E+00  0.00000000000E+00  0.23293779778E+04  0.23293779778E+04  0.50400001928E-02 0. -1.
        1   -1    0    0  501    0  0.00000000000E+00  0.00000000000E+00 -0.51913232305E+03  0.51913232307E+03  0.50400001928E-02 0.  1.
    10030    2    1    2    0    0  0.00000000000E+00  0.00000000000E+00  0.18102456547E+04  0.28485103008E+04  0.21993229876E+04 0.  0.
        1    1    3    3  502    0 -0.72455866344E+02  0.51150904874E+02  0.23247379937E+04  0.23264292396E+04  0.50400001928E-02 0. -1.
       -1    1    3    3    0  502  0.72455866344E+02 -0.51150904874E+02 -0.51449233896E+03  0.52208106124E+03  0.50400001928E-02 0.  1.
</event>
<event>
 5   0  0.1137869E-06  0.2199950E+04  0.7818609E-02  0.8518449E-01
       -1   -1    0    0    0  501  0.00000000000E+00  0.00000000000E+00  0.85649607091E+03  0.85649607093E+03  0.50400001928E-02 0. -1.
        1   -1    0    0  501    0  0.00000000000E+00  0.00000000000E+00 -0.14126679813E+04  0.14126679813E+04  0.50400001928E-02 0.  1.
    10030    2    1    2    0    0  0.00000000000E+00  0.00000000000E+00 -0.55617191036E+03  0.22691640522E+04  0.21999496135E+04 0.  0.
        5    1    3    3  502    0 -0.84928719495E+03  0.45922449645E+03 -0.82168357015E+03  0.12678177539E+04  0.46999998093E+01 0.  1.
       -5    1    3    3    0  502  0.84928719495E+03 -0.45922449645E+03  0.26551165979E+03  0.10013462983E+04  0.46999998093E+01 0. -1.
</event>
<event>
 5   0  0.1144271E-06  0.2201119E+04  0.7818609E-02  0.8517962E-01
        1   -1    0    0  501    0  0.00000000000E+00  0.00000000000E+00  0.26938029958E+04  0.26938029958E+04  0.50400001928E-02 0.  1.
       -1   -1    0    0    0  501  0.00000000000E+00  0.00000000000E+00 -0.44963618588E+03  0.44963618590E+03  0.50400001928E-02 0. -1.
    10030    2    1    2    0    0  0.00000000000E+00  0.00000000000E+00  0.22441668099E+04  0.31434391817E+04  0.22011190832E+04 0.  0.
        3    1    3    3  502    0 -0.14358537799E+03  0.98347676226E+03  0.17970642292E+04  0.20536024826E+04  0.10100000352E+00 0.  1.
       -3    1    3    3    0  502  0.14358537799E+03 -0.98347676226E+03  0.44710258069E+03  0.10898366990E+04  0.10100000352E+00 0. -1.
</event>
<event>
 5   0  0.2524749E-06  0.2195873E+04  0.7818609E-02  0.8520148E-01
       -2   -1    0    0    0  501  0.00000000000E+00  0.00000000000E+00  0.77683177119E+03  0.77683177119E+03  0.25500000920E-02 0.  1.
        2   -1    0    0  501    0  0.00000000000E+00  0.00000000000E+00 -0.15517706283E+04  0.15517706283E+04  0.25500000920E-02 0. -1.
    10030    2    1    2    0    0  0.00000000000E+00  0.00000000000E+00 -0.77493885709E+03  0.23286023995E+04  0.21958731527E+04 0.  0.
        4    1    3    3  502    0 -0.12305765743E+03  0.37313567528E+03  0.69972690848E+03  0.80249160654E+03  0.12699999809E+01 0.  1.
       -4    1    3    3    0  502  0.12305765743E+03 -0.37313567528E+03 -0.14746657656E+04  0.15261107929E+04  0.12699999809E+01 0. -1.
</event>
<event>
 5   0  0.2581058E-06  0.2200002E+04  0.7818609E-02  0.8518427E-01
        2   -1    0    0  501    0  0.00000000000E+00  0.00000000000E+00  0.12125934246E+04  0.12125934246E+04  0.25500000920E-02 0. -1.
       -2   -1    0    0    0  501  0.00000000000E+00  0.00000000000E+00 -0.99786310949E+03  0.99786310949E+03  0.25500000920E-02 0.  1.
    10030    2    1    2    0    0  0.00000000000E+00  0.00000000000E+00  0.21473031511E+03  0.22104565341E+04  0.22000020411E+04 0.  0.
        1    1    3    3  502    0  0.67845321575E+02  0.13059524908E+03 -0.98792708022E+03  0.99882832489E+03  0.50400001928E-02 0.  1.
       -1    1    3    3    0  502 -0.67845321575E+02 -0.13059524908E+03  0.12026573953E+04  0.12116282092E+04  0.50400001928E-02 0. -1.
</event>
<event>
 5   0  0.1146827E-06  0.2199080E+04  0.7818609E-02  0.8518811E-01
       -1   -1    0    0    0  501  0.00000000000E+00  0.00000000000E+00  0.11048936730E+04  0.11048936730E+04  0.50400001928E-02 0. -1.
        1   -1    0    0  501    0  0.00000000000E+00  0.00000000000E+00 -0.10942121646E+04  0.10942121646E+04  0.50400001928E-02 0.  1.
    10030    2    1    2    0    0  0.00000000000E+00  0.00000000000E+00  0.10681508360E+02  0.21991058376E+04  0.21990798963E+04 0.  0.
        4    1    3    3  502    0  0.88905091887E+02 -0.93246815852E+03  0.58118216098E+03  0.11023498987E+04  0.12699999809E+01 0. -1.
       -4    1    3    3    0  502 -0.88905091887E+02  0.93246815852E+03 -0.57050065262E+03  0.10967559389E+04  0.12699999809E+01 0.  1.
</event>
<event>
 5   0  0.2556869E-06  0.2203262E+04  0.7818609E-02  0.8517072E-01
       -2   -1    0    0    0  501  0.00000000000E+00  0.00000000000E+00  0.90922786706E+03  0.90922786706E+03  0.25500000920E-02 0.  1.
        2   -1    0    0  501    0  0.00000000000E+00  0.00000000000E+00 -0.13347483024E+04  0.13347483024E+04  0.25500000920E-02 0. -1.
    10030    2    1    2    0    0  0.00000000000E+00  0.00000000000E+00 -0.42552043531E+03  0.22439761694E+04  0.22032615387E+04 0.  0.
        5    1    3    3  502    0  0.15182779452E+02 -0.51647136646E+03  0.77815000096E+03  0.93408388443E+03  0.46999998093E+01 0.  1.
       -5    1    3    3    0  502 -0.15182779452E+02  0.51647136646E+03 -0.12036704363E+04  0.13098922850E+04  0.46999998093E+01 0. -1.
</event>
<event>
 5   0  0.1146827E-06  0.2198713E+04  0.7818609E-02  0.8518964E-01
       -1   -1    0    0    0  501  0.00000000000E+00  0.00000000000E+00  0.11683114487E+04  0.11683114487E+04  0.50400001928E-02 0. -1.
        1   -1    0    0  501    0  0.00000000000E+00  0.00000000000E+00 -0.10344717790E+04  0.10344717790E+04  0.50400001928E-02 0.  1.
    10030    2    1    2    0    0  0.00000000000E+00  0.00000000000E+00  0.13383966974E+03  0.22027832277E+04  0.21987134627E+04 0.  0.
        4    1    3    3  502    0 -0.80554404488E+03  0.29266533891E+03  0.75669215876E+03  0.11433017296E+04  0.12699999809E+01 0. -1.
       -4    1    3    3    0  502  0.80554404488E+03 -0.29266533891E+03 -0.62285248901E+03  0.10594814981E+04  0.12699999809E+01 0.  1.
</event>
<event>
 5   0  0.1107101E-06  0.2200501E+04  0.7818609E-02  0.8518220E-01
       -1   -1    0    0    0  501  0.00000000000E+00  0.00000000000E+00  0.72328230692E+03  0.72328230694E+03  0.50400001928E-02 0. -1.
        1   -1    0    0  501    0  0.00000000000E+00  0.00000000000E+00 -0.16736904099E+04  0.16736904099E+04  0.50400001928E-02 0.  1.
    10030    2    1    2    0    0  0.00000000000E+00  0.00000000000E+00 -0.95040810301E+03  0.23969727169E+04  0.22005005438E+04 0.  0.
        1    1    3    3  502    0 -0.22370763828E+03 -0.50621425857E+03  0.56062124343E+03  0.78777799005E+03  0.50400001928E-02 0. -1.
       -1    1    3    3    0  502  0.22370763828E+03  0.50621425857E+03 -0.15110293464E+04  0.16091947268E+04  0.50400001928E-02 0.  1.
</event>
<event>
 5   0  0.1107101E-06  0.2199870E+04  0.7818609E-02  0.8518482E-01
       -1   -1    0    0    0  501  0.00000000000E+00  0.00000000000E+00  0.58665186095E+03  0.58665186097E+03  0.50400001928E-02 0. -1.
        1   -1    0    0  501    0  0.00000000000E+00  0.00000000000E+00 -0.20623073779E+04  0.20623073779E+04  0.50400001928E-02 0.  1.
    10030    2    1    2    0    0  0.00000000000E+00  0.00000000000E+00 -0.14756555169E+04  0.26489592389E+04  0.21998695062E+04 0.  0.
        1    1    3    3  502    0  0.15759005399E+03 -0.59191343932E+03 -0.18379304789E+04  0.19373137563E+04  0.50400001928E-02 0.  1.
       -1    1    3    3    0  502 -0.15759005399E+03  0.59191343932E+03  0.36227496201E+03  0.71164548259E+03  0.50400001928E-02 0. -1.
</event>
<event>
 5   0  0.1144271E-06  0.2198403E+04  0.7818609E-02  0.8519093E-01
       -1   -1    0    0    0  501  0.00000000000E+00  0.00000000000E+00  0.49235527025E+03  0.49235527028E+03  0.50400001928E-02 0.  1.
        1   -1    0    0  501    0  0.00000000000E+00  0.00000000000E+00 -0.24540093015E+04  0.24540093015E+04  0.50400001928E-02 0. -1.
    10030    2    1    2    0    0  0.00000000000E+00  0.00000000000E+00 -0.19616540312E+04  0.29463645718E+04  0.21984034324E+04 0.  0.
        3    1    3    3  502    0  0.75889803805E+03 -0.79190667953E+03 -0.10774907323E+04  0.15375398238E+04  0.10100000352E+00 0.  1.
       -3    1    3    3    0  502 -0.75889803805E+03  0.79190667953E+03 -0.88416329890E+03  0.14088247480E+04  0.10100000352E+00 0. -1.
</event>
<event>
 5   0  0.2556869E-06  0.2199528E+04  0.7818609E-02  0.8518625E-01
        2   -1    0    0  501    0  0.00000000000E+00  0.00000000000E+00  0.19388863623E+04  0.19388863623E+04  0.25500000920E-02 0. -1.
       -2   -1    0    0    0  501  0.00000000000E+00  0.00000000000E+00 -0.62380169959E+03  0.62380169959E+03  0.25500000920E-02 0.  1.
    10030    2    1    2    0    0  0.00000000000E+00  0.00000000000E+00  0.13150846627E+04  0.25626880618E+04  0.21995277749E+04 0.  0.
        5    1    3    3  502    0 -0.71598350664E+03  0.80723047094E+02 -0.31048663830E+03  0.78458437065E+03  0.46999998093E+01 0.  1.
       -5    1    3    3    0  502  0.71598350664E+03 -0.80723047094E+02  0.16255713010E+04  0.17781036912E+04  0.46999998093E+01 0. -1.
</event>
<event>
 5   0  0.2581058E-06  0.2199688E+04  0.7818609E-02  0.8518558E-01
       -2   -1    0    0    0  501  0.00000000000E+00  0.00000000000E+00  0.56341536555E+03  0.56341536556E+03  0.25500000920E-02 0. -1.
        2   -1    0    0  501    0  0.00000000000E+00  0.00000000000E+00 -0.21470079191E+04  0.21470079191E+04  0.25500000920E-02 0.  1.
    10030    2    1    2    0    0  0.00000000000E+00  0.00000000000E+00 -0.15835925535E+04  0.27104232846E+04  0.21996883885E+04 0.  0.
        1    1    3    3  502    0  0.59740323706E+03  0.56019963045E+02 -0.19275664636E+04  0.20187970020E+04  0.50400001928E-02 0.  1.
       -1    1    3    3    0  502 -0.59740323706E+03 -0.56019963045E+02  0.34397391007E+03  0.69162628257E+03  0.50400001928E-02 0. -1.
</event>
<event>
 5   0  0.1146827E-06  0.2199942E+04  0.7818609E-02  0.8518452E-01
       -1   -1    0    0    0  501  0.00000000000E+00  0.00000000000E+00  0.49534107534E+03  0.49534107537E+03  0.50400001928E-02 0. -1.
        1   -1    0    0  501    0  0.00000000000E+00  0.00000000000E+00 -0.24426321072E+04  0.24426321072E+04  0.50400001928E-02 0.  1.
    10030    2    1    2    0    0  0.00000000000E+00  0.00000000000E+00 -0.19472910318E+04  0.29379731826E+04  0.21999418308E+04 0.  0.
        4    1    3    3  502    0  0.75692328172E+03 -0.82226624482E+02 -0.20338502153E+04  0.21716911344E+04  0.12699999809E+01 0.  1.
       -4    1    3    3    0  502 -0.75692328172E+03  0.82226624482E+02  0.86559183436E+02  0.76628204815E+03  0.12699999809E+01 0. -1.
</event>
<event>
 5   0  0.1144271E-06  0.2200073E+04  0.7818609E-02  0.8518398E-01
       -1   -1    0    0    0  501  0.00000000000E+00  0.00000000000E+00  0.59176128161E+03  0.59176128163E+03  0.50400001928E-02 0.  1.
        1   -1    0    0  501    0  0.00000000000E+00  0.00000000000E+00 -0.20448783390E+04  0.20448783390E+04  0.50400001928E-02 0. -1.
    10030    2    1    2    0    0  0.00000000000E+00  0.00000000000E+00 -0.14531170574E+04  0.26366396207E+04  0.22000725685E+04 0.  0.
        3    1    3    3  502    0 -0.17211708565E+03  0.88867601832E+03  0.22544040877E+02  0.90547092758E+03  0.10100000352E+00 0.  1.
       -3    1    3    3    0  502  0.17211708565E+03 -0.88867601832E+03 -0.14756610983E+04  0.17311686931E+04  0.10100000352E+00 0. -1.
</event>
<event>
 5   0  0.2556869E-06  0.2201449E+04  0.7818609E-02  0.8517825E-01
        2   -1    0    0  501    0  0.00000000000E+00  0.00000000000E+00  0.11000864784E+04  0.11000864784E+04  0.25500000920E-02 0.  1.
       -2   -1    0    0    0  501  0.00000000000E+00  0.00000000000E+00 -0.11013631034E+04  0.11013631034E+04  0.25500000920E-02 0. -1.
    10030    2    1    2    0    0  0.00000000000E+00  0.00000000000E+00 -0.12766250510E+01  0.22014495818E+04  0.22014492117E+04 0.  0.
        5    1    3    3  502    0 -0.35786198191E+03 -0.48069035417E+03 -0.92391749016E+03  0.11012602024E+04  0.46999998093E+01 0. -1.
       -5    1    3    3    0  502  0.35786198191E+03  0.48069035417E+03  0.92264086511E+03  0.11001893795E+04  0.46999998093E+01 0.  1.
</event>
<event>
 5   0  0.1144271E-06  0.2200068E+04  0.7818609E-02  0.8518400E-01
       -1   -1    0    0    0  501  0.00000000000E+00  0.00000000000E+00  0.70493651146E+03  0.70493651148E+03  0.50400001928E-02 0.  1.
        1   -1    0    0  501    0  0.00000000000E+00  0.00000000000E+00 -0.17165733346E+04  0.17165733346E+04  0.50400001928E-02 0. -1.
    10030    2    1    2    0    0  0.00000000000E+00  0.00000000000E+00 -0.10116368232E+04  0.24215098461E+04  0.22000683791E+04 0.  0.
        3    1    3    3  502    0 -0.65021799175E+03 -0.25819314326E+03  0.42852310808E+03  0.82041404205E+03  0.10100000352E+00 0.  1.
       -3    1    3    3    0  502  0.65021799175E+03  0.25819314326E+03 -0.14401599313E+04  0.16010958041E+04  0.10100000352E+00 0. -1.
</event>
<event>
 5   0  0.1144271E-06  0.2197796E+04  0.7818609E-02  0.8519346E-01
       -1   -1    0    0    0  501  0.00000000000E+00  0.00000000000E+00  0.57781406318E+03  0.57781406320E+03  0.50400001928E-02 0.  1.
        1   -1    0    0  501    0  0.00000000000E+00  0.00000000000E+00 -0.20899055942E+04  0.20899055942E+04  0.50400001928E-02 0. -1.
    10030    2    1    2    0    0  0.00000000000E+00  0.00000000000E+00 -0.15120915311E+04  0.26677196574E+04  0.21977960261E+04 0.  0.
        3    1    3    3  502    0 -0.12130395836E+03 -0.51275236071E+03  0.41448262177E+03  0.67039204028E+03  0.10100000352E+00 0.  1.
       -3    1    3    3    0  502  0.12130395836E+03  0.51275236071E+03 -0.19265741528E+04  0.19973276172E+04  0.10100000352E+00 0. -1.
</event>
<event>
 5   0  0.2524749E-06  0.2199898E+04  0.7818609E-02  0.8518471E-01
        2   -1    0    0  501    0  0.00000000000E+00  0.00000000000E+00  0.60156905592E+03  0.60156905592E+03  0.25500000920E-02 0.  1.
       -2   -1    0    0    0  501  0.00000000000E+00  0.00000000000E+00 -0.20112203866E+04  0.20112203866E+04  0.25500000920E-02 0. -1.
    10030    2    1    2    0    0  0.00000000000E+00  0.00000000000E+00 -0.14096513307E+04  0.26127894426E+04  0.21998981333E+04 0.  0.
        4    1    3    3  502    0 -0.10435791601E+04 -0.17981250487E+03 -0.35150870439E+03  0.11157732666E+04  0.12699999809E+01 0.  1.
       -4    1    3    3    0  502  0.10435791601E+04  0.17981250487E+03 -0.10581426263E+04  0.14970161759E+04  0.12699999809E+01 0. -1.
</event>
<event>
 5   0  0.2606154E-06  0.2200152E+04  0.7818609E-02  0.8518365E-01
        2   -1    0    0  501    0  0.00000000000E+00  0.00000000000E+00  0.11803400990E+04  0.11803400990E+04  0.25500000920E-02 0. -1.
       -2   -1    0    0    0  501  0.00000000000E+00  0.00000000000E+00 -0.10252698245E+04  0.10252698245E+04  0.25500000920E-02 0.  1.
    10030    2    1    2    0    0  0.00000000000E+00  0.00000000000E+00  0.15507027454E+03  0.22056099235E+04  0.22001518913E+04 0.  0.
        2    1    3    3  502    0  0.87636237368E+03  0.63963738763E+03 -0.10462995555E+03  0.10899974428E+04  0.25500000920E-02 0.  1.
       -2    1    3    3    0  502 -0.87636237368E+03 -0.63963738763E+03  0.25970023009E+03  0.11156124807E+04  0.25500000920E-02 0. -1.
</event>
<event>
 5   0  0.1082209E-06  0.2197139E+04  0.7818609E-02  0.8519620E-01
        1   -1    0    0  501    0  0.00000000000E+00  0.00000000000E+00  0.10202556287E+04  0.10202556287E+04  0.50400001928E-02 0.  1.
       -1   -1    0    0    0  501  0.00000000000E+00  0.00000000000E+00 -0.11828950301E+04  0.11828950301E+04  0.50400001928E-02 0. -1.
    10030    2    1    2    0    0  0.00000000000E+00  0.00000000000E+00 -0.16263940142E+03  0.22031506588E+04  0.21971393334E+04 0.  0.
        2    1    3    3  502    0 -0.30983982761E+01 -0.33485710702E+03 -0.11304692923E+04  0.11790248950E+04  0.25500000920E-02 0. -1.
       -2    1    3    3    0  502  0.30983982761E+01  0.33485710702E+03  0.96782989093E+03  0.10241257637E+04  0.25500000920E-02 0.  1.
</event>
<event>
 5   0  0.2606154E-06  0.2211313E+04  0.7818609E-02  0.8513734E-01
        2   -1    0    0  501    0  0.00000000000E+00  0.00000000000E+00  0.15974432909E+04  0.15974432909E+04  0.25500000920E-02 0. -1.
       -2   -1    0    0    0  501  0.00000000000E+00  0.00000000000E+00 -0.76527068549E+03  0.76527068549E+03  0.25500000920E-02 0.  1.
    10030    2    1    2    0    0  0.00000000000E+00  0.00000000000E+00  0.83217260542E+03  0.23627139764E+04  0.22113132046E+04 0.  0.
        2    1    3    3  502    0 -0.64131990758E+03  0.84383306341E+03  0.75249387662E+03  0.12998432587E+04  0.25500000920E-02 0.  1.
       -2    1    3    3    0  502  0.64131990758E+03 -0.84383306341E+03  0.79678728797E+02  0.10628707177E+04  0.25500000920E-02 0. -1.
</event>
<event>
 5   0  0.1082209E-06  0.2199865E+04  0.7818609E-02  0.8518484E-01
        1   -1    0    0  501    0  0.00000000000E+00  0.00000000000E+00  0.12197149670E+04  0.12197149670E+04  0.50400001928E-02 0.  1.
       -1   -1    0    0    0  501  0.00000000000E+00  0.00000000000E+00 -0.99191306624E+03  0.99191306625E+03  0.50400001928E-02 0. -1.
    10030    2    1    2    0    0  0.00000000000E+00  0.00000000000E+00  0.22780190080E+03  0.22116280333E+04  0.21998647348E+04 0.  0.
        2    1    3    3  502    0 -0.93627247476E+03 -0.56066948487E+03  0.25209431684E+03  0.11200481967E+04  0.25500000920E-02 0.  1.
       -2    1    3    3    0  502  0.93627247476E+03  0.56066948487E+03 -0.24292416046E+02  0.10915798366E+04  0.25500000920E-02 0. -1.
</event>
<event>
 5   0  0.8905000E-07  0.2199764E+04  0.7818609E-02  0.8518526E-01
        3   -1    0    0  501    0  0.00000000000E+00  0.00000000000E+00  0.14869223011E+04  0.14869223045E+04  0.10100000352E+00 0.  1.
       -3   -1    0    0    0  501  0.00000000000E+00  0.00000000000E+00 -0.81358700729E+03  0.81358701356E+03  0.10100000352E+00 0. -1.
    10030    2    1    2    0    0  0.00000000000E+00  0.00000000000E+00  0.67333529383E+03  0.23005093181E+04  0.21997642384E+04 0.  0.
        3    1    3    3  502    0 -0.31292868618E+03 -0.74846111963E+03 -0.44005997398E+03  0.92291451453E+03  0.10100000352E+00 0. -1.
       -3    1    3    3    0  502  0.31292868618E+03  0.74846111963E+03  0.11133952678E+04  0.13775948036E+04  0.10100000352E+00 0.  1.
</event>
<event>
 5   0  0.1107101E-06  0.2199101E+04  0.7818609E-02  0.8518803E-01
        1   -1    0    0  501    0  0.00000000000E+00  0.00000000000E+00  0.17121718964E+04  0.17121718964E+04  0.50400001928E-02 0.  1.
       -1   -1    0    0    0  501  0.00000000000E+00  0.00000000000E+00 -0.70612710126E+03  0.70612710128E+03  0.50400001928E-02 0. -1.
    10030    2    1    2    0    0  0.00000000000E+00  0.00000000000E+00  0.10060447952E+04  0.24182989977E+04  0.21991007054E+04 0.  0.
        1    1    3    3  502    0 -0.12112031014E+03 -0.65738797307E+03  0.14630731536E+04  0.16085434808E+04  0.50400001928E-02 0.  1.
       -1    1    3    3    0  502  0.12112031014E+03  0.65738797307E+03 -0.45702835849E+03  0.80975551690E+03  0.50400001928E-02 0. -1.
</event>
<event>
 5   0  0.2606154E-06  0.2200225E+04  0.7818609E-02  0.8518335E-01
       -2   -1    0    0    0  501  0.00000000000E+00  0.00000000000E+00  0.11005492971E+04  0.11005492971E+04  0.25500000920E-02 0.  1.
        2   -1    0    0  501    0  0.00000000000E+00  0.00000000000E+00 -0.10996755983E+04  0.10996755983E+04  0.25500000920E-02 0. -1.
    10030    2    1    2    0    0  0.00000000000E+00  0.00000000000E+00  0.87369882119E+00  0.22002248953E+04  0.22002247219E+04 0.  0.
        2    1    3    3  502    0  0.45131328161E+03 -0.44888203641E+03 -0.89681928617E+03  0.10997561515E+04  0.25500000920E-02 0. -1.
       -2    1    3    3    0  502 -0.45131328161E+03  0.44888203641E+03  0.89769298499E+03  0.11004687438E+04  0.25500000920E-02 0.  1.
</event>
<event>
 5   0  0.2524749E-06  0.2200920E+04  0.7818609E-02  0.8518045E-01
        2   -1    0    0  501    0  0.00000000000E+00  0.00000000000E+00  0.88376330931E+03  0.88376330931E+03  0.25500000920E-02 0. -1.
       -2   -1    0    0    0  501  0.00000000000E+00  0.00000000000E+00 -0.13702897086E+04  0.13702897086E+04  0.25500000920E-02 0.  1.
    10030    2    1    2    0    0  0.00000000000E+00  0.00000000000E+00 -0.48652639927E+03  0.22540530179E+04  0.22009195965E+04 0.  0.
        4    1    3    3  502    0  0.71104749087E+02 -0.94691491606E+03 -0.81284277901E+03  0.12499674955E+04  0.12699999809E+01 0.  1.
       -4    1    3    3    0  502 -0.71104749087E+02  0.94691491606E+03  0.32631637975E+03  0.10040855223E+04  0.12699999809E+01 0. -1.
</event>
<event>
 5   0  0.2581058E-06  0.2199615E+04  0.7818609E-02  0.8518588E-01
       -2   -1    0    0    0  501  0.00000000000E+00  0.00000000000E+00  0.14457874747E+04  0.14457874747E+04  0.25500000920E-02 0. -1.
        2   -1    0    0  501    0  0.00000000000E+00  0.00000000000E+00 -0.83662156133E+03  0.83662156133E+03  0.25500000920E-02 0.  1.
    10030    2    1    2    0    0  0.00000000000E+00  0.00000000000E+00  0.60916591339E+03  0.22824090361E+04  0.21996153977E+04 0.  0.
        1    1    3    3  502    0  0.70062109801E+03  0.83480485923E+03  0.15134948716E+03  0.11003071132E+04  0.50400001928E-02 0.  1.
       -1    1    3    3    0  502 -0.70062109801E+03 -0.83480485923E+03  0.45781642623E+03  0.11821019229E+04  0.50400001928E-02 0. -1.
</event>
<event>
 5   0  0.2581058E-06  0.2200406E+04  0.7818609E-02  0.8518259E-01
       -2   -1    0    0    0  501  0.00000000000E+00  0.00000000000E+00  0.83335713494E+03  0.83335713495E+03  0.25500000920E-02 0. -1.
        2   -1    0    0  501    0  0.00000000000E+00  0.00000000000E+00 -0.14524941320E+04  0.14524941320E+04  0.25500000920E-02 0.  1.
    10030    2    1    2    0    0  0.00000000000E+00  0.00000000000E+00 -0.61913699710E+03  0.22858512670E+04  0.22004057339E+04 0.  0.
        1    1    3    3  502    0  0.33705914579E+03  0.76157220705E+03  0.43726788491E+03  0.94064036566E+03  0.50400001928E-02 0. -1.
       -1    1    3    3    0  502 -0.33705914579E+03 -0.76157220705E+03 -0.10564048820E+04  0.13452109013E+04  0.50400001928E-02 0.  1.
</event>
<event>
 5   0  0.1082209E-06  0.2199640E+04  0.7818609E-02  0.8518578E-01
        1   -1    0    0  501    0  0.00000000000E+00  0.00000000000E+00  0.11577574391E+04  0.11577574391E+04  0.50400001928E-02 0. -1.
       -1   -1    0    0    0  501  0.00000000000E+00  0.00000000000E+00 -0.10447823079E+04  0.10447823080E+04  0.50400001928E-02 0.  1.
    10030    2    1    2    0    0  0.00000000000E+00  0.00000000000E+00  0.11297513120E+03  0.22025397471E+04  0.21996404155E+04 0.  0.
        2    1    3    3  502    0 -0.32387241956E+03 -0.80399167576E+03 -0.62138964577E+03  0.10664994377E+04  0.25500000920E-02 0.  1.
       -2    1    3    3    0  502  0.32387241956E+03  0.80399167576E+03  0.73436477696E+03  0.11360403094E+04  0.25500000920E-02 0. -1.
</event>
<event>
 5   0  0.1082209E-06  0.2199293E+04  0.7818609E-02  0.8518722E-01
       -1   -1    0    0    0  501  0.00000000000E+00  0.00000000000E+00  0.83470963465E+03  0.83470963467E+03  0.50400001928E-02 0. -1.
        1   -1    0    0  501    0  0.00000000000E+00  0.00000000000E+00 -0.14486744048E+04  0.14486744048E+04  0.50400001928E-02 0.  1.
    10030    2    1    2    0    0  0.00000000000E+00  0.00000000000E+00 -0.61396477014E+03  0.22833840395E+04  0.21992930529E+04 0.  0.
        2    1    3    3  502    0 -0.36450127515E+03  0.65784266394E+03  0.52594154254E+03  0.91773234457E+03  0.25500000920E-02 0. -1.
       -2    1    3    3    0  502  0.36450127515E+03 -0.65784266394E+03 -0.11399063127E+04  0.13656516949E+04  0.25500000920E-02 0.  1.
</event>
<event>
 5   0  0.2581058E-06  0.2199828E+04  0.7818609E-02  0.8518500E-01
        2   -1    0    0  501    0  0.00000000000E+00  0.00000000000E+00  0.12950744973E+04  0.12950744973E+04  0.25500000920E-02 0.  1.
       -2   -1    0    0    0  501  0.00000000000E+00  0.00000000000E+00 -0.93416333365E+03  0.93416333365E+03  0.25500000920E-02 0. -1.
    10030    2    1    2    0    0  0.00000000000E+00  0.00000000000E+00  0.36091116367E+03  0.22292378310E+04  0.21998282749E+04 0.  0.
        1    1    3    3  502    0  0.17361546725E+03 -0.10746635333E+04  0.33993510758E+03  0.11404384761E+04  0.50400001928E-02 0.  1.
       -1    1    3    3    0  502 -0.17361546725E+03  0.10746635333E+04  0.20976056088E+02  0.10887993549E+04  0.50400001928E-02 0. -1.
</event>
<event>
 5   0  0.2556869E-06  0.2199796E+04  0.7818609E-02  0.8518513E-01
        2   -1    0    0  501    0  0.00000000000E+00  0.00000000000E+00  0.18667768701E+04  0.18667768701E+04  0.25500000920E-02 0.  1.
       -2   -1    0    0    0  501  0.00000000000E+00  0.00000000000E+00 -0.64805577392E+03  0.64805577392E+03  0.25500000920E-02 0. -1.
    10030    2    1    2    0    0  0.00000000000E+00  0.00000000000E+00  0.12187210962E+04  0.25148326440E+04  0.21997959263E+04 0.  0.
        5    1    3    3  502    0 -0.37348912770E+03 -0.11267205343E+03 -0.56629498077E+03  0.68767813356E+03  0.46999998093E+01 0.  1.
       -5    1    3    3    0  502  0.37348912770E+03  0.11267205343E+03  0.17850160770E+04  0.18271545105E+04  0.46999998093E+01 0. -1.
</event>
<event>
 5   0  0.2524749E-06  0.2198664E+04  0.7818609E-02  0.8518984E-01
        2   -1    0    0  501    0  0.00000000000E+00  0.00000000000E+00  0.27838924626E+04  0.27838924626E+04  0.25500000920E-02 0.  1.
       -2   -1    0    0    0  501  0.00000000000E+00  0.00000000000E+00 -0.43411549473E+03  0.43411549474E+03  0.25500000920E-02 0. -1.
    10030    2    1    2    0    0  0.00000000000E+00  0.00000000000E+00  0.23497769678E+04  0.32180079573E+04  0.21986640068E+04 0.  0.
        4    1    3    3  502    0  0.55924413104E+02  0.10551533966E+04  0.16189541999E+04  0.19332590475E+04  0.12699999809E+01 0. -1.
       -4    1    3    3    0  502 -0.55924413104E+02 -0.10551533966E+04  0.73082276795E+03  0.12847489099E+04  0.12699999809E+01 0.  1.
</event>
<event>
 5   0  0.1107101E-06  0.2196669E+04  0.7818609E-02  0.8519816E-01
        1   -1    0    0  501    0  0.00000000000E+00  0.00000000000E+00  0.94940298123E+03  0.94940298124E+03  0.50400001928E-02 0. -1.
       -1   -1    0    0    0  501  0.00000000000E+00  0.00000000000E+00 -0.12706290182E+04  0.12706290182E+04  0.50400001928E-02 0.  1.
    10030    2    1    2    0    0  0.00000000000E+00  0.00000000000E+00 -0.32122603694E+03  0.22200319994E+04  0.21966692768E+04 0.  0.
        1    1    3    3  502    0 -0.60221894862E+03 -0.67787744820E+03  0.46578005241E+03  0.10193804756E+04  0.50400001928E-02 0. -1.
       -1    1    3    3    0  502  0.60221894862E+03  0.67787744820E+03 -0.78700608935E+03  0.12006515238E+04  0.50400001928E-02 0.  1.
</event>
<event>
 5   0  0.2532239E-06  0.2187764E+04  0.7818609E-02  0.8523538E-01
       -2   -1    0    0    0  501  0.00000000000E+00  0.00000000000E+00  0.11417021067E+04  0.11417021067E+04  0.25500000920E-02 0.  1.
        2   -1    0    0  501    0  0.00000000000E+00  0.00000000000E+00 -0.10480645066E+04  0.10480645066E+04  0.25500000920E-02 0. -1.
    10030    2    1    2    0    0  0.00000000000E+00  0.00000000000E+00  0.93637600105E+02  0.21897666133E+04  0.21877636574E+04 0.  0.
        3    1    3    3  502    0 -0.10798033633E+04  0.34796934432E+02 -0.12477711079E+03  0.10875456164E+04  0.10100000352E+00 0. -1.
       -3    1    3    3    0  502  0.10798033633E+04 -0.34796934432E+02  0.21841471089E+03  0.11022209970E+04  0.10100000352E+00 0.  1.
</event>
<event>
 5   0  0.2581058E-06  0.2199551E+04  0.7818609E-02  0.8518615E-01
        2   -1    0    0  501    0  0.00000000000E+00  0.00000000000E+00  0.19334477656E+04  0.19334477656E+04  0.25500000920E-02 0.  1.
       -2   -1    0    0    0  501  0.00000000000E+00  0.00000000000E+00 -0.62556983703E+03  0.62556983704E+03  0.25500000920E-02 0. -1.
    10030    2    1    2    0    0  0.00000000000E+00  0.00000000000E+00  0.13078779286E+04  0.25590176027E+04  0.21995514121E+04 0.  0.
        1    1    3    3  502    0  0.33709056926E+03  0.85713385588E+03 -0.45277888293E+02  0.92214889578E+03  0.50400001928E-02 0. -1.
       -1    1    3    3    0  502 -0.33709056926E+03 -0.85713385588E+03  0.13531558169E+04  0.16368687069E+04  0.50400001928E-02 0.  1.
</event>
<event>
 5   0  0.1146827E-06  0.2199632E+04  0.7818609E-02  0.8518581E-01
       -1   -1    0    0    0  501  0.00000000000E+00  0.00000000000E+00  0.14043769533E+04  0.14043769533E+04  0.50400001928E-02 0. -1.
        1   -1    0    0  501    0  0.00000000000E+00  0.00000000000E+00 -0.86130402969E+03  0.86130402970E+03  0.50400001928E-02 0.  1.
    10030    2    1    2    0    0  0.00000000000E+00  0.00000000000E+00  0.54307292361E+03  0.22656809830E+04  0.21996322685E+04 0.  0.
        4    1    3    3  502    0  0.60061709896E+03  0.77164343801E+03 -0.24698725408E+03  0.10085528303E+04  0.12699999809E+01 0. -1.
       -4    1    3    3    0  502 -0.60061709896E+03 -0.77164343801E+03  0.79006017770E+03  0.12571281527E+04  0.12699999809E+01 0.  1.
</event>
<event>
 5   0  0.2532239E-06  0.2202067E+04  0.7818609E-02  0.8517568E-01
       -2   -1    0    0    0  501  0.00000000000E+00  0.00000000000E+00  0.70461268998E+03  0.70461268998E+03  0.25500000920E-02 0.  1.
        2   -1    0    0  501    0  0.00000000000E+00  0.00000000000E+00 -0.17204831654E+04  0.17204831654E+04  0.25500000920E-02 0. -1.
    10030    2    1    2    0    0  0.00000000000E+00  0.00000000000E+00 -0.10158704754E+04  0.24250958554E+04  0.22020665487E+04 0.  0.
        3    1    3    3  502    0 -0.33930566331E+03 -0.23087556847E+03  0.61722904246E+03  0.74121762144E+03  0.10100000352E+00 0.  1.
       -3    1    3    3    0  502  0.33930566331E+03  0.23087556847E+03 -0.16330995179E+04  0.16838782340E+04  0.10100000352E+00 0. -1.
</event>
<event>
 5   0  0.2581058E-06  0.2200313E+04  0.7818609E-02  0.8518298E-01
        2   -1    0    0  501    0  0.00000000000E+00  0.00000000000E+00  0.18382810584E+04  0.18382810584E+04  0.25500000920E-02 0. -1.
       -2   -1    0    0    0  501  0.00000000000E+00  0.00000000000E+00 -0.65841084325E+03  0.65841084326E+03  0.25500000920E-02 0.  1.
    10030    2    1    2    0    0  0.00000000000E+00  0.00000000000E+00  0.11798702152E+04  0.24966919017E+04  0.22003128703E+04 0.  0.
        1    1    3    3  502    0 -0.72771845087E+03  0.59688278905E+03  0.12363160091E+04  0.15538083801E+04  0.50400001928E-02 0. -1.
       -1    1    3    3    0  502  0.72771845087E+03 -0.59688278905E+03 -0.56445793948E+02  0.94288352159E+03  0.50400001928E-02 0.  1.
</event>
<event>
 5   0  0.1082209E-06  0.2199151E+04  0.7818609E-02  0.8518781E-01
       -1   -1    0    0    0  501  0.00000000000E+00  0.00000000000E+00  0.16003639755E+04  0.16003639755E+04  0.50400001928E-02 0.  1.
        1   -1    0    0  501    0  0.00000000000E+00  0.00000000000E+00 -0.75549468720E+03  0.75549468722E+03  0.50400001928E-02 0. -1.
    10030    2    1    2    0    0  0.00000000000E+00  0.00000000000E+00  0.84486928829E+03  0.23558586627E+04  0.21991511827E+04 0.  0.
        2    1    3    3  502    0 -0.60395131338E+03 -0.15454840412E+03 -0.54788169746E+03  0.82994984943E+03  0.25500000920E-02 0. -1.
       -2    1    3    3    0  502  0.60395131338E+03  0.15454840412E+03  0.13927509857E+04  0.15259088133E+04  0.25500000920E-02 0.  1.
</event>
<event>
 5   0  0.2556869E-06  0.2200749E+04  0.7818609E-02  0.8518116E-01
        2   -1    0    0  501    0  0.00000000000E+00  0.00000000000E+00  0.14239941794E+04  0.14239941794E+04  0.25500000920E-02 0.  1.
       -2   -1    0    0    0  501  0.00000000000E+00  0.00000000000E+00 -0.85030157590E+03  0.85030157590E+03  0.25500000920E-02 0. -1.
    10030    2    1    2    0    0  0.00000000000E+00  0.00000000000E+00  0.57369260354E+03  0.22742957553E+04  0.22007494131E+04 0.  0.
        5    1    3    3  502    0 -0.85768281909E+01  0.41198548645E+03 -0.76754312859E+03  0.87117744879E+03  0.46999998093E+01 0. -1.
       -5    1    3    3    0  502  0.85768281909E+01 -0.41198548645E+03  0.13412357321E+04  0.14031183066E+04  0.46999998093E+01 0.  1.
</event>
<event>
 5   0  0.1107101E-06  0.2200518E+04  0.7818609E-02  0.8518213E-01
       -1   -1    0    0    0  501  0.00000000000E+00  0.00000000000E+00  0.94541647947E+03  0.94541647949E+03  0.50400001928E-02 0.  1.
        1   -1    0    0  501    0  0.00000000000E+00  0.00000000000E+00 -0.12804617076E+04  0.12804617076E+04  0.50400001928E-02 0. -1.
    10030    2    1    2    0    0  0.00000000000E+00  0.00000000000E+00 -0.33504522816E+03  0.22258781871E+04  0.22005177570E+04 0.  0.
        1    1    3    3  502    0  0.39699927362E+03  0.78663270570E+03 -0.83403235865E+03  0.12132639499E+04  0.50400001928E-02 0. -1.
       -1    1    3    3    0  502 -0.39699927362E+03 -0.78663270570E+03  0.49898713050E+03  0.10126142372E+04  0.50400001928E-02 0.  1.
</event>
<event>
 5   0  0.2581058E-06  0.2199600E+04  0.7818609E-02  0.8518594E-01
        2   -1    0    0  501    0  0.00000000000E+00  0.00000000000E+00  0.18147479475E+04  0.18147479475E+04  0.25500000920E-02 0. -1.
       -2   -1    0    0    0  501  0.00000000000E+00  0.00000000000E+00 -0.66651707909E+03  0.66651707910E+03  0.25500000920E-02 0.  1.
    10030    2    1    2    0    0  0.00000000000E+00  0.00000000000E+00  0.11482308684E+04  0.24812650266E+04  0.21996004194E+04 0.  0.
        1    1    3    3  502    0  0.98566583316E+03 -0.15857264591E+03  0.53646472599E+02  0.99978015721E+03  0.50400001928E-02 0.  1.
       -1    1    3    3    0  502 -0.98566583316E+03  0.15857264591E+03  0.10945843958E+04  0.14814848694E+04  0.50400001928E-02 0. -1.
</event>
<event>
 5   0  0.2606154E-06  0.2199920E+04  0.7818609E-02  0.8518461E-01
       -2   -1    0    0    0  501  0.00000000000E+00  0.00000000000E+00  0.81724795520E+03  0.81724795520E+03  0.25500000920E-02 0. -1.
        2   -1    0    0  501    0  0.00000000000E+00  0.00000000000E+00 -0.14804710199E+04  0.14804710199E+04  0.25500000920E-02 0.  1.
    10030    2    1    2    0    0  0.00000000000E+00  0.00000000000E+00 -0.66322306467E+03  0.22977189751E+04  0.21999199201E+04 0.  0.
        2    1    3    3  502    0 -0.47687697046E+03 -0.91912035157E+03  0.55989984444E+02  0.10369805900E+04  0.25500000920E-02 0.  1.
       -2    1    3    3    0  502  0.47687697046E+03  0.91912035157E+03 -0.71921304911E+03  0.12607383851E+04  0.25500000920E-02 0. -1.
</event>
<event>
 5   0  0.1137869E-06  0.2200043E+04  0.7818609E-02  0.8518410E-01
       -1   -1    0    0    0  501  0.00000000000E+00  0.00000000000E+00  0.14885834860E+04  0.14885834860E+04  0.50400001928E-02 0. -1.
        1   -1    0    0  501    0  0.00000000000E+00  0.00000000000E+00 -0.81288537115E+03  0.81288537117E+03  0.50400001928E-02 0.  1.
    10030    2    1    2    0    0  0.00000000000E+00  0.00000000000E+00  0.67569811485E+03  0.23014688572E+04  0.22000433991E+04 0.  0.
        5    1    3    3  502    0 -0.94970889183E+03  0.17603240357E+01  0.91848308801E+03  0.13212052645E+04  0.46999998093E+01 0. -1.
       -5    1    3    3    0  502  0.94970889183E+03 -0.17603240357E+01 -0.24278497316E+03  0.98026359269E+03  0.46999998093E+01 0.  1.
</event>
<event>
 5   0  0.1144271E-06  0.2200419E+04  0.7818609E-02  0.8518254E-01
       -1   -1    0    0    0  501  0.00000000000E+00  0.00000000000E+00  0.34506442002E+03  0.34506442006E+03  0.50400001928E-02 0.  1.
        1   -1    0    0  501    0  0.00000000000E+00  0.00000000000E+00 -0.35079282187E+04  0.35079282188E+04  0.50400001928E-02 0. -1.
    10030    2    1    2    0    0  0.00000000000E+00  0.00000000000E+00 -0.31628637987E+04  0.38529926388E+04  0.22004192476E+04 0.  0.
        3    1    3    3  502    0 -0.56588899134E+03 -0.36365477534E+03 -0.31059175941E+04  0.31779237338E+04  0.10100000352E+00 0. -1.
       -3    1    3    3    0  502  0.56588899134E+03  0.36365477534E+03 -0.56946204649E+02  0.67506890505E+03  0.10100000352E+00 0.  1.
</event>
<event>
 5   0  0.2532239E-06  0.2215387E+04  0.7818609E-02  0.8512051E-01
       -2   -1    0    0    0  501  0.00000000000E+00  0.00000000000E+00  0.72191122722E+03  0.72191122722E+03  0.25500000920E-02 0.  1.
        2   -1    0    0  501    0  0.00000000000E+00  0.00000000000E+00 -0.16996335035E+04  0.16996335035E+04  0.25500000920E-02 0. -1.
    10030    2    1    2    0    0  0.00000000000E+00  0.00000000000E+00 -0.97772227630E+03  0.24215447307E+04  0.22153866555E+04 0.  0.
        3    1    3    3  502    0  0.26859049509E+03 -0.65707133494E+03 -0.14183461966E+04  0.15860610130E+04  0.10100000352E+00 0. -1.
       -3    1    3    3    0  502 -0.26859049509E+03  0.65707133494E+03  0.44062392032E+03  0.83548371775E+03  0.10100000352E+00 0.  1.
</event>
<event>
 5   0  0.2556869E-06  0.2200265E+04  0.7818609E-02  0.8518318E-01
        2   -1    0    0  501    0  0.00000000000E+00  0.00000000000E+00  0.18234455601E+04  0.18234455601E+04  0.25500000920E-02 0.  1.
       -2   -1    0    0    0  501  0.00000000000E+00  0.00000000000E+00 -0.66373897664E+03  0.66373897665E+03  0.25500000920E-02 0. -1.
    10030    2    1    2    0    0  0.00000000000E+00  0.00000000000E+00  0.11597065834E+04  0.24871845367E+04  0.22002653386E+04 0.  0.
        5    1    3    3  502    0 -0.87845027047E+03 -0.30081503871E+03  0.12467955394E+04  0.15545693205E+04  0.46999998093E+01 0.  1.
       -5    1    3    3    0  502  0.87845027047E+03  0.30081503871E+03 -0.87088956007E+02  0.93261521618E+03  0.46999998093E+01 0. -1.
</event>
<event>
 5   0  0.1137869E-06  0.2199026E+04  0.7818609E-02  0.8518834E-01
        1   -1    0    0  501    0  0.00000000000E+00  0.00000000000E+00  0.28146203166E+04  0.28146203166E+04  0.50400001928E-02 0. -1.
       -1   -1    0    0    0  501  0.00000000000E+00  0.00000000000E+00 -0.42951749814E+03  0.42951749817E+03  0.50400001928E-02 0.  1.
    10030    2    1    2    0    0  0.00000000000E+00  0.00000000000E+00  0.23851028184E+04  0.32441378147E+04  0.21990258540E+04 0.  0.
        5    1    3    3  502    0 -0.19755823004E+03 -0.64581597957E+03  0.24725470538E+04  0.25631267150E+04  0.46999998093E+01 0. -1.
       -5    1    3    3    0  502  0.19755823004E+03  0.64581597957E+03 -0.87444235376E+02  0.68101109978E+03  0.46999998093E+01 0.  1.
</event>
<event>
 5   0  0.2581058E-06  0.2199625E+04  0.7818609E-02  0.8518584E-01
       -2   -1    0    0    0  501  0.00000000000E+00  0.00000000000E+00  0.73174414634E+03  0.73174414634E+03  0.25500000920E-02 0. -1.
        2   -1    0    0  501    0  0.00000000000E+00  0.00000000000E+00 -0.16530201491E+04  0.16530201491E+04  0.25500000920E-02 0.  1.
    10030    2    1    2    0    0  0.00000000000E+00  0.00000000000E+00 -0.92127600273E+03  0.23847642954E+04  0.21996252570E+04 0.  0.
        1    1    3    3  502    0  0.10461768957E+04 -0.33801682395E+03 -0.49217868510E+03  0.12045668634E+04  0.50400001928E-02 0.  1.
       -1    1    3    3    0  502 -0.10461768957E+04  0.33801682395E+03 -0.42909731762E+03  0.11801974320E+04  0.50400001928E-02 0. -1.
</event>
<event>
 5   0  0.1107101E-06  0.2200225E+04  0.7818609E-02  0.8518335E-01
        1   -1    0    0  501    0  0.00000000000E+00  0.00000000000E+00  0.16438060988E+04  0.16438060989E+04  0.50400001928E-02 0. -1.
       -1   -1    0    0    0  501  0.00000000000E+00  0.00000000000E+00 -0.73624686306E+03  0.73624686308E+03  0.50400001928E-02 0.  1.
    10030    2    1    2    0    0  0.00000000000E+00  0.00000000000E+00  0.90755923579E+03  0.23800529619E+04  0.22002246102E+04 0.  0.
        1    1    3    3  502    0 -0.91704542240E+03 -0.13343257195E+03 -0.18752454448E+03  0.94548506747E+03  0.50400001928E-02 0.  1.
       -1    1    3    3    0  502  0.91704542240E+03  0.13343257195E+03  0.10950837803E+04  0.14345678945E+04  0.50400001928E-02 0. -1.
</event>
<event>
 5   0  0.2532239E-06  0.2199721E+04  0.7818609E-02  0.8518544E-01
       -2   -1    0    0    0  501  0.00000000000E+00  0.00000000000E+00  0.48245078348E+03  0.48245078349E+03  0.25500000920E-02 0. -1.
        2   -1    0    0  501    0  0.00000000000E+00  0.00000000000E+00 -0.25073919893E+04  0.25073919893E+04  0.25500000920E-02 0.  1.
    10030    2    1    2    0    0  0.00000000000E+00  0.00000000000E+00 -0.20249412058E+04  0.29898427728E+04  0.21997211003E+04 0.  0.
        3    1    3    3  502    0 -0.34045975174E+03 -0.32247618797E+03  0.33976432003E+03  0.57908854050E+03  0.10100000352E+00 0. -1.
       -3    1    3    3    0  502  0.34045975174E+03  0.32247618797E+03 -0.23647055258E+04  0.24107542323E+04  0.10100000352E+00 0.  1.
</event>
<event>
 5   0  0.2524749E-06  0.2200620E+04  0.7818609E-02  0.8518170E-01
       -2   -1    0    0    0  501  0.00000000000E+00  0.00000000000E+00  0.48759952843E+03  0.48759952843E+03  0.25500000920E-02 0. -1.
        2   -1    0    0  501    0  0.00000000000E+00  0.00000000000E+00 -0.24829426015E+04  0.24829426015E+04  0.25500000920E-02 0.  1.
    10030    2    1    2    0    0  0.00000000000E+00  0.00000000000E+00 -0.19953430731E+04  0.29705421299E+04  0.22006195869E+04 0.  0.
        4    1    3    3  502    0  0.29638056419E+03  0.33049204256E+03 -0.23566950049E+04  0.23981408191E+04  0.12699999809E+01 0.  1.
       -4    1    3    3    0  502 -0.29638056419E+03 -0.33049204256E+03  0.36135193190E+03  0.57240131081E+03  0.12699999809E+01 0. -1.
</event>
<event>
 5   0  0.2606154E-06  0.2200778E+04  0.7818609E-02  0.8518104E-01
       -2   -1    0    0    0  501  0.00000000000E+00  0.00000000000E+00  0.15055433751E+04  0.15055433751E+04  0.25500000920E-02 0.  1.
        2   -1    0    0  501    0  0.00000000000E+00  0.00000000000E+00 -0.80426526016E+03  0.80426526017E+03  0.25500000920E-02 0. -1.
    10030    2    1    2    0    0  0.00000000000E+00  0.00000000000E+00  0.70127811493E+03  0.23098086353E+04  0.22007782571E+04 0.  0.
        2    1    3    3  502    0  0.84172276601E+03 -0.69610197527E+03  0.21060855749E+03  0.11123898324E+04  0.25500000920E-02 0.  1.
       -2    1    3    3    0  502 -0.84172276601E+03  0.69610197527E+03  0.49066955744E+03  0.11974188028E+04  0.25500000920E-02 0. -1.
</event>
<event>
 5   0  0.2524749E-06  0.2199990E+04  0.7818609E-02  0.8518432E-01
        2   -1    0    0  501    0  0.00000000000E+00  0.00000000000E+00  0.20909840247E+04  0.20909840247E+04  0.25500000920E-02 0.  1.
       -2   -1    0    0    0  501  0.00000000000E+00  0.00000000000E+00 -0.57866960872E+03  0.57866960872E+03  0.25500000920E-02 0. -1.
    10030    2    1    2    0    0  0.00000000000E+00  0.00000000000E+00  0.15123144159E+04  0.26696536334E+04  0.21999899158E+04 0.  0.
        4    1    3    3  502    0  0.44461711860E+03  0.60655762444E+03  0.17302691801E+04  0.18866450600E+04  0.12699999809E+01 0.  1.
       -4    1    3    3    0  502 -0.44461711860E+03 -0.60655762444E+03 -0.21795476413E+03  0.78300857341E+03  0.12699999809E+01 0. -1.
</event>
<event>
 5   0  0.2581058E-06  0.2196086E+04  0.7818609E-02  0.8520059E-01
        2   -1    0    0  501    0  0.00000000000E+00  0.00000000000E+00  0.11344718457E+04  0.11344718457E+04  0.25500000920E-02 0. -1.
       -2   -1    0    0    0  501  0.00000000000E+00  0.00000000000E+00 -0.10627838552E+04  0.10627838552E+04  0.25500000920E-02 0.  1.
    10030    2    1    2    0    0  0.00000000000E+00  0.00000000000E+00  0.71687990556E+02  0.21972557009E+04  0.21960859380E+04 0.  0.
        1    1    3    3  502    0 -0.20207038603E+03 -0.10057271989E+04  0.42768855945E+03  0.11114122293E+04  0.50400001928E-02 0. -1.
       -1    1    3    3    0  502  0.20207038603E+03  0.10057271989E+04 -0.35600056890E+03  0.10858434715E+04  0.50400001928E-02 0.  1.
</event>
<event>
 5   0  0.1137869E-06  0.2199988E+04  0.7818609E-02  0.8518433E-01
       -1   -1    0    0    0  501  0.00000000000E+00  0.00000000000E+00  0.12348468027E+04  0.12348468027E+04  0.50400001928E-02 0.  1.
        1   -1    0    0  501    0  0.00000000000E+00  0.00000000000E+00 -0.97986762218E+03  0.97986762220E+03  0.50400001928E-02 0. -1.
    10030    2    1    2    0    0  0.00000000000E+00  0.00000000000E+00  0.25497918051E+03  0.22147144249E+04  0.21999876366E+04 0.  0.
        5    1    3    3  502    0  0.11134071922E+03 -0.71903988424E+03 -0.70298673785E+03  0.10117448070E+04  0.46999998093E+01 0. -1.
       -5    1    3    3    0  502 -0.11134071922E+03  0.71903988424E+03  0.95796591836E+03  0.12029696179E+04  0.46999998093E+01 0.  1.
</event>
<event>
 5   0  0.1107101E-06  0.2200117E+04  0.7818609E-02  0.8518379E-01
        1   -1    0    0  501    0  0.00000000000E+00  0.00000000000E+00  0.15062406865E+04  0.15062406865E+04  0.50400001928E-02 0. -1.
       -1   -1    0    0    0  501  0.00000000000E+00  0.00000000000E+00 -0.80340986293E+03  0.80340986294E+03  0.50400001928E-02 0.  1.
    10030    2    1    2    0    0  0.00000000000E+00  0.00000000000E+00  0.70283082356E+03  0.23096505494E+04  0.22001169273E+04 0.  0.
        1    1    3    3  502    0 -0.79144120411E+03 -0.21860251368E+02  0.11531597820E+04  0.13987975311E+04  0.50400001928E-02 0. -1.
       -1    1    3    3    0  502  0.79144120411E+03  0.21860251368E+02 -0.45032895846E+03  0.91085301833E+03  0.50400001928E-02 0.  1.
</event>
<event>
 5   0  0.2581058E-06  0.2199929E+04  0.7818609E-02  0.8518458E-01
       -2   -1    0    0    0  501  0.00000000000E+00  0.00000000000E+00  0.90934647032E+03  0.90934647032E+03  0.25500000920E-02 0. -1.
        2   -1    0    0  501    0  0.00000000000E+00  0.00000000000E+00 -0.13305399364E+04  0.13305399364E+04  0.25500000920E-02 0.  1.
    10030    2    1    2    0    0  0.00000000000E+00  0.00000000000E+00 -0.42119346608E+03  0.22398864067E+04  0.21999289032E+04 0.  0.
        1    1    3    3  502    0  0.29640536241E+03 -0.70551562557E+03  0.59388958456E+03  0.96866571915E+03  0.50400001928E-02 0. -1.
       -1    1    3    3    0  502 -0.29640536241E+03  0.70551562557E+03 -0.10150830506E+04  0.12712206876E+04  0.50400001928E-02 0.  1.
</event>
<event>
 5   0  0.1082209E-06  0.2200137E+04  0.7818609E-02  0.8518371E-01
       -1   -1    0    0    0  501  0.00000000000E+00  0.00000000000E+00  0.11161129465E+04  0.11161129465E+04  0.50400001928E-02 0. -1.
        1   -1    0    0  501    0  0.00000000000E+00  0.00000000000E+00 -0.10842545563E+04  0.10842545563E+04  0.50400001928E-02 0.  1.
    10030    2    1    2    0    0  0.00000000000E+00  0.00000000000E+00  0.31858390230E+02  0.22003675028E+04  0.22001368572E+04 0.  0.
        2    1    3    3  502    0  0.41179179525E+03 -0.46268775532E+03  0.92514391269E+03  0.11133479693E+04  0.25500000920E-02 0. -1.
       -2    1    3    3    0  502 -0.41179179525E+03  0.46268775532E+03 -0.89328552246E+03  0.10870195335E+04  0.25500000920E-02 0.  1.
</event>
<event>
 5   0  0.1144271E-06  0.2203224E+04  0.7818609E-02  0.8517087E-01
       -1   -1    0    0    0  501  0.00000000000E+00  0.00000000000E+00  0.76206922574E+03  0.76206922576E+03  0.50400001928E-02 0. -1.
        1   -1    0    0  501    0  0.00000000000E+00  0.00000000000E+00 -0.15924390524E+04  0.15924390524E+04  0.50400001928E-02 0.  1.
    10030    2    1    2    0    0  0.00000000000E+00  0.00000000000E+00 -0.83036982667E+03  0.23545082782E+04  0.22032238159E+04 0.  0.
        3    1    3    3  502    0  0.38355247545E+03  0.41996391745E+02 -0.15178652758E+04  0.15661389478E+04  0.10100000352E+00 0.  1.
       -3    1    3    3    0  502 -0.38355247545E+03 -0.41996391745E+02  0.68749544908E+03  0.78836933036E+03  0.10100000352E+00 0. -1.
</event>
<event>
 5   0  0.1146827E-06  0.2200242E+04  0.7818609E-02  0.8518327E-01
        1   -1    0    0  501    0  0.00000000000E+00  0.00000000000E+00  0.12797493046E+04  0.12797493046E+04  0.50400001928E-02 0.  1.
       -1   -1    0    0    0  501  0.00000000000E+00  0.00000000000E+00 -0.94570558179E+03  0.94570558180E+03  0.50400001928E-02 0. -1.
    10030    2    1    2    0    0  0.00000000000E+00  0.00000000000E+00  0.33404372284E+03  0.22254548864E+04  0.22002418601E+04 0.  0.
        4    1    3    3  502    0 -0.95918965940E+03  0.50766298471E+03  0.34935948150E+03  0.11400965612E+04  0.12699999809E+01 0.  1.
       -4    1    3    3    0  502  0.95918965940E+03 -0.50766298471E+03 -0.15315758660E+02  0.10853583252E+04  0.12699999809E+01 0. -1.
</event>
<event>
 5   0  0.2581058E-06  0.2200130E+04  0.7818609E-02  0.8518374E-01
       -2   -1    0    0    0  501  0.00000000000E+00  0.00000000000E+00  0.10259844821E+04  0.10259844821E+04  0.25500000920E-02 0. -1.
        2   -1    0    0  501    0  0.00000000000E+00  0.00000000000E+00 -0.11794946779E+04  0.11794946779E+04  0.25500000920E-02 0.  1.
    10030    2    1    2    0    0  0.00000000000E+00  0.00000000000E+00 -0.15351019582E+03  0.22054791600E+04  0.22001302109E+04 0.  0.
        1    1    3    3  502    0 -0.32611864883E+03  0.82772099868E+03  0.57186344454E+03  0.10575931278E+04  0.50400001928E-02 0. -1.
       -1    1    3    3    0  502  0.32611864883E+03 -0.82772099868E+03 -0.72537364036E+03  0.11478860322E+04  0.50400001928E-02 0.  1.
</event>
<event>
 5   0  0.1082209E-06  0.2200480E+04  0.7818609E-02  0.8518228E-01
        1   -1    0    0  501    0  0.00000000000E+00  0.00000000000E+00  0.15954986888E+04  0.15954986888E+04  0.50400001928E-02 0.  1.
       -1   -1    0    0    0  501  0.00000000000E+00  0.00000000000E+00 -0.75871465266E+03  0.75871465267E+03  0.50400001928E-02 0. -1.
    10030    2    1    2    0    0  0.00000000000E+00  0.00000000000E+00  0.83678403616E+03  0.23542133415E+04  0.22004801599E+04 0.  0.
        2    1    3    3  502    0  0.17796983519E+03 -0.17010555288E+03  0.15656524038E+04  0.15848900943E+04  0.25500000920E-02 0.  1.
       -2    1    3    3    0  502 -0.17796983519E+03  0.17010555288E+03 -0.72886836765E+03  0.76932324723E+03  0.25500000920E-02 0. -1.
</event>
<event>
 5   0  0.1144271E-06  0.2199674E+04  0.7818609E-02  0.8518564E-01
        1   -1    0    0  501    0  0.00000000000E+00  0.00000000000E+00  0.14169710578E+04  0.14169710578E+04  0.50400001928E-02 0.  1.
       -1   -1    0    0    0  501  0.00000000000E+00  0.00000000000E+00 -0.85368092553E+03  0.85368092555E+03  0.50400001928E-02 0. -1.
    10030    2    1    2    0    0  0.00000000000E+00  0.00000000000E+00  0.56329013229E+03  0.22706519834E+04  0.21996737614E+04 0.  0.
        3    1    3    3  502    0 -0.10055530610E+04 -0.28120393340E+03 -0.75090466577E+02  0.10468291164E+04  0.10100000352E+00 0. -1.
       -3    1    3    3    0  502  0.10055530610E+04  0.28120393340E+03  0.63838059887E+03  0.12238228670E+04  0.10100000352E+00 0.  1.
</event>
<event>
 5   0  0.1137869E-06  0.2199362E+04  0.7818609E-02  0.8518694E-01
       -1   -1    0    0    0  501  0.00000000000E+00  0.00000000000E+00  0.10394216702E+04  0.10394216703E+04  0.50400001928E-02 0.  1.
        1   -1    0    0  501    0  0.00000000000E+00  0.00000000000E+00 -0.11634332889E+04  0.11634332889E+04  0.50400001928E-02 0. -1.
    10030    2    1    2    0    0  0.00000000000E+00  0.00000000000E+00 -0.12401161861E+03  0.22028549591E+04  0.21993615186E+04 0.  0.
        5    1    3    3  502    0  0.96518306858E+01 -0.84210032604E+03 -0.77027085360E+03  0.11412998707E+04  0.46999998093E+01 0. -1.
       -5    1    3    3    0  502 -0.96518306858E+01  0.84210032604E+03  0.64625923499E+03  0.10615550884E+04  0.46999998093E+01 0.  1.
</event>
<event>
 5   0  0.2581058E-06  0.2200885E+04  0.7818609E-02  0.8518060E-01
        2   -1    0    0  501    0  0.00000000000E+00  0.00000000000E+00  0.17938900701E+04  0.17938900701E+04  0.25500000920E-02 0.  1.
       -2   -1    0    0    0  501  0.00000000000E+00  0.00000000000E+00 -0.67505468743E+03  0.67505468743E+03  0.25500000920E-02 0. -1.
    10030    2    1    2    0    0  0.00000000000E+00  0.00000000000E+00  0.11188353827E+04  0.24689447575E+04  0.22008851861E+04 0.  0.
        1    1    3    3  502    0 -0.22259323948E+03  0.82412455314E+03 -0.21960084974E+03  0.88144969373E+03  0.50400001928E-02 0. -1.
       -1    1    3    3    0  502  0.22259323948E+03 -0.82412455314E+03  0.13384362324E+04  0.15874950638E+04  0.50400001928E-02 0.  1.
</event>
<event>
 5   0  0.1137869E-06  0.2199528E+04  0.7818609E-02  0.8518625E-01
       -1   -1    0    0    0  501  0.00000000000E+00  0.00000000000E+00  0.10851747094E+04  0.10851747095E+04  0.50400001928E-02 0. -1.
        1   -1    0    0  501    0  0.00000000000E+00  0.00000000000E+00 -0.11145494692E+04  0.11145494692E+04  0.50400001928E-02 0.  1.
    10030    2    1    2    0    0  0.00000000000E+00  0.00000000000E+00 -0.29374759790E+02  0.21997241787E+04  0.21995280371E+04 0.  0.
        5    1    3    3  502    0 -0.52022077129E+03  0.59583509093E+03 -0.77882992316E+03  0.11100663249E+04  0.46999998093E+01 0.  1.
       -5    1    3    3    0  502  0.52022077129E+03 -0.59583509093E+03  0.74945516337E+03  0.10896578538E+04  0.46999998093E+01 0. -1.
</event>
<event>
 5   0  0.2606154E-06  0.2200103E+04  0.7818609E-02  0.8518385E-01
        2   -1    0    0  501    0  0.00000000000E+00  0.00000000000E+00  0.18085280064E+04  0.18085280064E+04  0.25500000920E-02 0. -1.
       -2   -1    0    0    0  501  0.00000000000E+00  0.00000000000E+00 -0.66911480252E+03  0.66911480253E+03  0.25500000920E-02 0.  1.
    10030    2    1    2    0    0  0.00000000000E+00  0.00000000000E+00  0.11394132039E+04  0.24776428089E+04  0.22001025975E+04 0.  0.
        2    1    3    3  502    0 -0.37293978130E+02 -0.88655932533E+02 -0.66437062950E+03  0.67129654291E+03  0.25500000920E-02 0.  1.
       -2    1    3    3    0  502  0.37293978130E+02  0.88655932533E+02  0.18037838334E+04  0.18063462660E+04  0.25500000920E-02 0. -1.
</event>
<event>
 5   0  0.1082209E-06  0.2200301E+04  0.7818609E-02  0.8518303E-01
        1   -1    0    0  501    0  0.00000000000E+00  0.00000000000E+00  0.83098650257E+03  0.83098650259E+03  0.50400001928E-02 0. -1.
       -1   -1    0    0    0  501  0.00000000000E+00  0.00000000000E+00 -0.14564986883E+04  0.14564986884E+04  0.50400001928E-02 0.  1.
    10030    2    1    2    0    0  0.00000000000E+00  0.00000000000E+00 -0.62551218578E+03  0.22874851909E+04  0.22003006622E+04 0.  0.
        2    1    3    3  502    0 -0.28578805450E+03  0.58415548448E+03  0.60977075912E+03  0.89147788577E+03  0.25500000920E-02 0. -1.
       -2    1    3    3    0  502  0.28578805450E+03 -0.58415548448E+03 -0.12352829449E+04  0.13960073052E+04  0.25500000920E-02 0.  1.
</event>
<event>
 5   0  0.2556869E-06  0.2199506E+04  0.7818609E-02  0.8518634E-01
        2   -1    0    0  501    0  0.00000000000E+00  0.00000000000E+00  0.13676141429E+04  0.13676141429E+04  0.25500000920E-02 0.  1.
       -2   -1    0    0    0  501  0.00000000000E+00  0.00000000000E+00 -0.88435531145E+03  0.88435531146E+03  0.25500000920E-02 0. -1.
    10030    2    1    2    0    0  0.00000000000E+00  0.00000000000E+00  0.48325883145E+03  0.22519694544E+04  0.21995061549E+04 0.  0.
        5    1    3    3  502    0 -0.32230737813E+03 -0.10472932216E+04  0.33729033913E+03  0.11465129746E+04  0.46999998093E+01 0.  1.
       -5    1    3    3    0  502  0.32230737813E+03  0.10472932216E+04  0.14596849232E+03  0.11054564798E+04  0.46999998093E+01 0. -1.
</event>
<event>
 5   0  0.2524749E-06  0.2194741E+04  0.7818609E-02  0.8520620E-01
       -2   -1    0    0    0  501  0.00000000000E+00  0.00000000000E+00  0.17553555697E+04  0.17553555697E+04  0.25500000920E-02 0.  1.
        2   -1    0    0  501    0  0.00000000000E+00  0.00000000000E+00 -0.68602710800E+03  0.68602710801E+03  0.25500000920E-02 0. -1.
    10030    2    1    2    0    0  0.00000000000E+00  0.00000000000E+00  0.10693284616E+04  0.24413826777E+04  0.21947405359E+04 0.  0.
        4    1    3    3  502    0 -0.69891724166E+03  0.66594971209E+03  0.11150718148E+04  0.14749105379E+04  0.12699999809E+01 0.  1.
       -4    1    3    3    0  502  0.69891724166E+03 -0.66594971209E+03 -0.45743353143E+02  0.96647213978E+03  0.12699999809E+01 0. -1.
</event>
<event>
 5   0  0.2524749E-06  0.2197607E+04  0.7818609E-02  0.8519425E-01
        2   -1    0    0  501    0  0.00000000000E+00  0.00000000000E+00  0.12898963474E+04  0.12898963474E+04  0.25500000920E-02 0.  1.
       -2   -1    0    0    0  501  0.00000000000E+00  0.00000000000E+00 -0.93602035345E+03  0.93602035345E+03  0.25500000920E-02 0. -1.
    10030    2    1    2    0    0  0.00000000000E+00  0.00000000000E+00  0.35387599393E+03  0.22259167008E+04  0.21976070941E+04 0.  0.
        4    1    3    3  502    0  0.63182018289E+03 -0.68804841347E+03  0.76297603726E+03  0.12061266140E+04  0.12699999809E+01 0.  1.
       -4    1    3    3    0  502 -0.63182018289E+03  0.68804841347E+03 -0.40910004332E+03  0.10197900868E+04  0.12699999809E+01 0. -1.
</event>
<event>
 5   0  0.1137869E-06  0.2199476E+04  0.7818609E-02  0.8518646E-01
        1   -1    0    0  501    0  0.00000000000E+00  0.00000000000E+00  0.94515600951E+03  0.94515600953E+03  0.50400001928E-02 0. -1.
       -1   -1    0    0    0  501  0.00000000000E+00  0.00000000000E+00 -0.12796020449E+04  0.12796020449E+04  0.50400001928E-02 0.  1.
    10030    2    1    2    0    0  0.00000000000E+00  0.00000000000E+00 -0.33444603541E+03  0.22247580545E+04  0.21994759035E+04 0.  0.
        5    1    3    3  502    0  0.70803041138E+03 -0.57420588647E+03 -0.78942131568E+03  0.12059135820E+04  0.46999998093E+01 0.  1.
       -5    1    3    3    0  502 -0.70803041138E+03  0.57420588647E+03  0.45497528028E+03  0.10188444725E+04  0.46999998093E+01 0. -1.
</event>
<event>
 5   0  0.8905000E-07  0.2199410E+04  0.7818609E-02  0.8518674E-01
       -3   -1    0    0    0  501  0.00000000000E+00  0.00000000000E+00  0.16305634073E+04  0.16305634104E+04  0.10100000352E+00 0. -1.
        3   -1    0    0  501    0  0.00000000000E+00  0.00000000000E+00 -0.74167689600E+03  0.74167690288E+03  0.10100000352E+00 0.  1.
    10030    2    1    2    0    0  0.00000000000E+00  0.00000000000E+00  0.88888651128E+03  0.23722403133E+04  0.21994101196E+04 0.  0.
        2    1    3    3  502    0 -0.10315934917E+04 -0.29834805414E+03  0.18885267663E+03  0.10903494976E+04  0.25500000920E-02 0.  1.
       -2    1    3    3    0  502  0.10315934917E+04  0.29834805414E+03  0.70003383465E+03  0.12818908156E+04  0.25500000920E-02 0. -1.
</event>
<event>
 5   0  0.1137869E-06  0.2200137E+04  0.7818609E-02  0.8518371E-01
        1   -1    0    0  501    0  0.00000000000E+00  0.00000000000E+00  0.12502419697E+04  0.12502419697E+04  0.50400001928E-02 0.  1.
       -1   -1    0    0    0  501  0.00000000000E+00  0.00000000000E+00 -0.96793284756E+03  0.96793284758E+03  0.50400001928E-02 0. -1.
    10030    2    1    2    0    0  0.00000000000E+00  0.00000000000E+00  0.28230912216E+03  0.22181748173E+04  0.22001366048E+04 0.  0.
        5    1    3    3  502    0  0.92160358344E+03  0.59742544382E+03  0.78533702576E+02  0.11011175952E+04  0.46999998093E+01 0.  1.
       -5    1    3    3    0  502 -0.92160358344E+03 -0.59742544382E+03  0.20377541958E+03  0.11170572221E+04  0.46999998093E+01 0. -1.
</event>
<event>
 5   0  0.2581058E-06  0.2199757E+04  0.7818609E-02  0.8518529E-01
       -2   -1    0    0    0  501  0.00000000000E+00  0.00000000000E+00  0.78937056365E+03  0.78937056366E+03  0.25500000920E-02 0. -1.
        2   -1    0    0  501    0  0.00000000000E+00  0.00000000000E+00 -0.15325288414E+04  0.15325288414E+04  0.25500000920E-02 0.  1.
    10030    2    1    2    0    0  0.00000000000E+00  0.00000000000E+00 -0.74315827770E+03  0.23218994050E+04  0.21997574006E+04 0.  0.
        1    1    3    3  502    0 -0.75470627718E+03  0.74385148512E+03 -0.60536509441E+02  0.10613959043E+04  0.50400001928E-02 0. -1.
       -1    1    3    3    0  502  0.75470627718E+03 -0.74385148512E+03 -0.68262176826E+03  0.12605035007E+04  0.50400001928E-02 0.  1.
</event>
<event>
 5   0  0.2556869E-06  0.2200274E+04  0.7818609E-02  0.8518314E-01
       -2   -1    0    0    0  501  0.00000000000E+00  0.00000000000E+00  0.51940240881E+03  0.51940240882E+03  0.25500000920E-02 0.  1.
        2   -1    0    0  501    0  0.00000000000E+00  0.00000000000E+00 -0.23301814988E+04  0.23301814988E+04  0.25500000920E-02 0. -1.
    10030    2    1    2    0    0  0.00000000000E+00  0.00000000000E+00 -0.18107790900E+04  0.28495839076E+04  0.22002744224E+04 0.  0.
        5    1    3    3  502    0  0.14932962814E+03 -0.98094753534E+03 -0.29008245704E+03  0.10337926904E+04  0.46999998093E+01 0.  1.
       -5    1    3    3    0  502 -0.14932962814E+03  0.98094753534E+03 -0.15206966329E+04  0.18157912172E+04  0.46999998093E+01 0. -1.
</event>
<event>
 5   0  0.1144271E-06  0.2200033E+04  0.7818609E-02  0.8518414E-01
        1   -1    0    0  501    0  0.00000000000E+00  0.00000000000E+00  0.20672950212E+04  0.20672950212E+04  0.50400001928E-02 0.  1.
       -1   -1    0    0    0  501  0.00000000000E+00  0.00000000000E+00 -0.58532352513E+03  0.58532352515E+03  0.50400001928E-02 0. -1.
    10030    2    1    2    0    0  0.00000000000E+00  0.00000000000E+00  0.14819714961E+04  0.26526185464E+04  0.22000330991E+04 0.  0.
        3    1    3    3  502    0 -0.19656182257E+03  0.10661565558E+04  0.96561855864E+03  0.14518076879E+04  0.10100000352E+00 0. -1.
       -3    1    3    3    0  502  0.19656182257E+03 -0.10661565558E+04  0.51635293744E+03  0.12008108585E+04  0.10100000352E+00 0.  1.
</event>
<event>
 5   0  0.2524749E-06  0.2200142E+04  0.7818609E-02  0.8518369E-01
        2   -1    0    0  501    0  0.00000000000E+00  0.00000000000E+00  0.18624333431E+04  0.18624333431E+04  0.25500000920E-02 0. -1.
       -2   -1    0    0    0  501  0.00000000000E+00  0.00000000000E+00 -0.64977156954E+03  0.64977156955E+03  0.25500000920E-02 0.  1.
    10030    2    1    2    0    0  0.00000000000E+00  0.00000000000E+00  0.12126617736E+04  0.25122049127E+04  0.22001420286E+04 0.  0.
        4    1    3    3  502    0 -0.18870355152E+03  0.41715268158E+03 -0.53580883128E+03  0.70478231155E+03  0.12699999809E+01 0.  1.
       -4    1    3    3    0  502  0.18870355152E+03 -0.41715268158E+03  0.17484706049E+04  0.18074226011E+04  0.12699999809E+01 0. -1.
</event>
<event>
 5   0  0.2581058E-06  0.2200033E+04  0.7818609E-02  0.8518414E-01
       -2   -1    0    0    0  501  0.00000000000E+00  0.00000000000E+00  0.52740919537E+03  0.52740919537E+03  0.25500000920E-02 0.  1.
        2   -1    0    0  501    0  0.00000000000E+00  0.00000000000E+00 -0.22943028618E+04  0.22943028618E+04  0.25500000920E-02 0. -1.
    10030    2    1    2    0    0  0.00000000000E+00  0.00000000000E+00 -0.17668936665E+04  0.28217120572E+04  0.22000331146E+04 0.  0.
        1    1    3    3  502    0  0.44544898603E+03 -0.77418268772E+03 -0.17069500113E+04  0.19265155006E+04  0.50400001928E-02 0. -1.
       -1    1    3    3    0  502 -0.44544898603E+03  0.77418268772E+03 -0.59943655203E+02  0.89519655660E+03  0.50400001928E-02 0.  1.
</event>
<event>
 5   0  0.1144271E-06  0.2199517E+04  0.7818609E-02  0.8518629E-01
       -1   -1    0    0    0  501  0.00000000000E+00  0.00000000000E+00  0.14728925742E+04  0.14728925742E+04  0.50400001928E-02 0. -1.
        1   -1    0    0  501    0  0.00000000000E+00  0.00000000000E+00 -0.82115186403E+03  0.82115186405E+03  0.50400001928E-02 0.  1.
    10030    2    1    2    0    0  0.00000000000E+00  0.00000000000E+00  0.65174071020E+03  0.22940444383E+04  0.21995167495E+04 0.  0.
        3    1    3    3  502    0 -0.83194021464E+03  0.47017361534E+03 -0.24183926169E+03  0.98573525248E+03  0.10100000352E+00 0.  1.
       -3    1    3    3    0  502  0.83194021464E+03 -0.47017361534E+03  0.89357997189E+03  0.13083091858E+04  0.10100000352E+00 0. -1.
</event>
<event>
 5   0  0.2532239E-06  0.2199627E+04  0.7818609E-02  0.8518583E-01
        2   -1    0    0  501    0  0.00000000000E+00  0.00000000000E+00  0.15241036568E+04  0.15241036568E+04  0.25500000920E-02 0. -1.
       -2   -1    0    0    0  501  0.00000000000E+00  0.00000000000E+00 -0.79364023054E+03  0.79364023054E+03  0.25500000920E-02 0.  1.
    10030    2    1    2    0    0  0.00000000000E+00  0.00000000000E+00  0.73046342625E+03  0.23177438873E+04  0.21996272207E+04 0.  0.
        3    1    3    3  502    0 -0.12044811751E+03 -0.10776566403E+04  0.17168825491E+03  0.10978745149E+04  0.10100000352E+00 0.  1.
       -3    1    3    3    0  502  0.12044811751E+03  0.10776566403E+04  0.55877517134E+03  0.12198693724E+04  0.10100000352E+00 0. -1.
</event>
<event>
 5   0  0.1144271E-06  0.2199464E+04  0.7818609E-02  0.8518651E-01
        1   -1    0    0  501    0  0.00000000000E+00  0.00000000000E+00  0.19186324009E+04  0.19186324009E+04  0.50400001928E-02 0.  1.
       -1   -1    0    0    0  501  0.00000000000E+00  0.00000000000E+00 -0.63035038540E+03  0.63035038542E+03  0.50400001928E-02 0. -1.
    10030    2    1    2    0    0  0.00000000000E+00  0.00000000000E+00  0.12882820155E+04  0.25489827863E+04  0.21994641833E+04 0.  0.
        3    1    3    3  502    0  0.30134954541E+03 -0.26379337526E+03  0.18311124541E+04  0.18743989231E+04  0.10100000352E+00 0.  1.
       -3    1    3    3    0  502 -0.30134954541E+03  0.26379337526E+03 -0.54283043853E+03  0.67458386324E+03  0.10100000352E+00 0. -1.
</event>
<event>
 5   0  0.1137869E-06  0.2201077E+04  0.7818609E-02  0.8517980E-01
        1   -1    0    0  501    0  0.00000000000E+00  0.00000000000E+00  0.24988591165E+04  0.24988591165E+04  0.50400001928E-02 0. -1.
       -1   -1    0    0    0  501  0.00000000000E+00  0.00000000000E+00 -0.48469526096E+03  0.48469526098E+03  0.50400001928E-02 0.  1.
    10030    2    1    2    0    0  0.00000000000E+00  0.00000000000E+00  0.20141638556E+04  0.29835543775E+04  0.22010771651E+04 0.  0.
        5    1    3    3  502    0 -0.14807732889E+03 -0.10701304616E+04  0.72256634418E+03  0.12997039324E+04  0.46999998093E+01 0.  1.
       -5    1    3    3    0  502  0.14807732889E+03  0.10701304616E+04  0.12915975114E+04  0.16838504451E+04  0.46999998093E+01 0. -1.
</event>
<event>
 5   0  0.1107101E-06  0.2200430E+04  0.7818609E-02  0.8518249E-01
        1   -1    0    0  501    0  0.00000000000E+00  0.00000000000E+00  0.21286670983E+04  0.21286670983E+04  0.50400001928E-02 0.  1.
       -1   -1    0    0    0  501  0.00000000000E+00  0.00000000000E+00 -0.56865325502E+03  0.56865325504E+03  0.50400001928E-02 0. -1.
    10030    2    1    2    0    0  0.00000000000E+00  0.00000000000E+00  0.15600138433E+04  0.26973203534E+04  0.22004303891E+04 0.  0.
        1    1    3    3  502    0 -0.13743425025E+03  0.50367800158E+03 -0.40713248451E+03  0.66206990748E+03  0.50400001928E-02 0. -1.
       -1    1    3    3    0  502  0.13743425025E+03 -0.50367800158E+03  0.19671463278E+04  0.20352504459E+04  0.50400001928E-02 0.  1.
</event>
<event>
 5   0  0.1107101E-06  0.2200710E+04  0.7818609E-02  0.8518133E-01
        1   -1    0    0  501    0  0.00000000000E+00  0.00000000000E+00  0.24970584849E+04  0.24970584849E+04  0.50400001928E-02 0. -1.
       -1   -1    0    0    0  501  0.00000000000E+00  0.00000000000E+00 -0.48488277929E+03  0.48488277932E+03  0.50400001928E-02 0.  1.
    10030    2    1    2    0    0  0.00000000000E+00  0.00000000000E+00  0.20121757056E+04  0.29819412642E+04  0.22007095749E+04 0.  0.
        1    1    3    3  502    0 -0.92231844847E+03  0.50484182709E+03  0.14456650586E+04  0.17875916906E+04  0.50400001928E-02 0.  1.
       -1    1    3    3    0  502  0.92231844847E+03 -0.50484182709E+03  0.56651064707E+03  0.11943495736E+04  0.50400001928E-02 0. -1.
</event>
<event>
 5   0  0.2532239E-06  0.2198909E+04  0.7818609E-02  0.8518882E-01
        2   -1    0    0  501    0  0.00000000000E+00  0.00000000000E+00  0.71927339591E+03  0.71927339592E+03  0.25500000920E-02 0. -1.
       -2   -1    0    0    0  501  0.00000000000E+00  0.00000000000E+00 -0.16805849774E+04  0.16805849774E+04  0.25500000920E-02 0.  1.
    10030    2    1    2    0    0  0.00000000000E+00  0.00000000000E+00 -0.96131158153E+03  0.23998583734E+04  0.21989088784E+04 0.  0.
        3    1    3    3  502    0  0.38275850008E+03 -0.27420354668E+03  0.60367253669E+03  0.76557964717E+03  0.10100000352E+00 0. -1.
       -3    1    3    3    0  502 -0.38275850008E+03  0.27420354668E+03 -0.15649841182E+04  0.16342787262E+04  0.10100000352E+00 0.  1.
</event>
<event>
 5   0  0.1107101E-06  0.2200354E+04  0.7818609E-02  0.8518281E-01
        1   -1    0    0  501    0  0.00000000000E+00  0.00000000000E+00  0.19313067158E+04  0.19313067158E+04  0.50400001928E-02 0.  1.
       -1   -1    0    0    0  501  0.00000000000E+00  0.00000000000E+00 -0.62672040006E+03  0.62672040008E+03  0.50400001928E-02 0. -1.
    10030    2    1    2    0    0  0.00000000000E+00  0.00000000000E+00  0.13045863157E+04  0.25580271159E+04  0.22003538966E+04 0.  0.
        1    1    3    3  502    0 -0.69106285020E+03  0.34414968708E+03 -0.25894522981E+03  0.81428465668E+03  0.50400001928E-02 0. -1.
       -1    1    3    3    0  502  0.69106285020E+03 -0.34414968708E+03  0.15635315456E+04  0.17437424592E+04  0.50400001928E-02 0.  1.
</event>
<event>
 5   0  0.1082209E-06  0.2198539E+04  0.7818609E-02  0.8519037E-01
        1   -1    0    0  501    0  0.00000000000E+00  0.00000000000E+00  0.12588503019E+04  0.12588503019E+04  0.50400001928E-02 0.  1.
       -1   -1    0    0    0  501  0.00000000000E+00  0.00000000000E+00 -0.95991800212E+03  0.95991800214E+03  0.50400001928E-02 0. -1.
    10030    2    1    2    0    0  0.00000000000E+00  0.00000000000E+00  0.29893229979E+03  0.22187683041E+04  0.21985386663E+04 0.  0.
        2    1    3    3  502    0 -0.73583921321E+03  0.28643622734E+03 -0.62235060683E+03  0.10053980992E+04  0.25500000920E-02 0. -1.
       -2    1    3    3    0  502  0.73583921321E+03 -0.28643622734E+03  0.92128290662E+03  0.12133702049E+04  0.25500000920E-02 0.  1.
</event>
<event>
 5   0  0.1137869E-06  0.2202163E+04  0.7818609E-02  0.8517528E-01
       -1   -1    0    0    0  501  0.00000000000E+00  0.00000000000E+00  0.50196743139E+03  0.50196743142E+03  0.50400001928E-02 0.  1.
        1   -1    0    0  501    0  0.00000000000E+00  0.00000000000E+00 -0.24152569725E+04  0.24152569725E+04  0.50400001928E-02 0. -1.
    10030    2    1    2    0    0  0.00000000000E+00  0.00000000000E+00 -0.19132895411E+04  0.29172244039E+04  0.22021628811E+04 0.  0.
        5    1    3    3  502    0 -0.82261561112E+03 -0.67562924176E+03 -0.58386944307E+03  0.12141239362E+04  0.46999998093E+01 0.  1.
       -5    1    3    3    0  502  0.82261561112E+03  0.67562924176E+03 -0.13294200980E+04  0.17031004677E+04  0.46999998093E+01 0. -1.
</event>
<event>
 5   0  0.2581058E-06  0.2201331E+04  0.7818609E-02  0.8517874E-01
        2   -1    0    0  501    0  0.00000000000E+00  0.00000000000E+00  0.19342783817E+04  0.19342783817E+04  0.25500000920E-02 0. -1.
       -2   -1    0    0    0  501  0.00000000000E+00  0.00000000000E+00 -0.62631362024E+03  0.62631362024E+03  0.25500000920E-02 0.  1.
    10030    2    1    2    0    0  0.00000000000E+00  0.00000000000E+00  0.13079647614E+04  0.25605920019E+04  0.22013313206E+04 0.  0.
        1    1    3    3  502    0  0.96672499559E+02  0.48089072296E+03 -0.49214805252E+03  0.69484614500E+03  0.50400001928E-02 0.  1.
       -1    1    3    3    0  502 -0.96672499559E+02 -0.48089072296E+03  0.18001128140E+04  0.18657458569E+04  0.50400001928E-02 0. -1.
</event>
<event>
 5   0  0.2532239E-06  0.2200844E+04  0.7818609E-02  0.8518077E-01
        2   -1    0    0  501    0  0.00000000000E+00  0.00000000000E+00  0.10791133260E+04  0.10791133260E+04  0.25500000920E-02 0.  1.
       -2   -1    0    0    0  501  0.00000000000E+00  0.00000000000E+00 -0.11221513557E+04  0.11221513557E+04  0.25500000920E-02 0. -1.
    10030    2    1    2    0    0  0.00000000000E+00  0.00000000000E+00 -0.43038029623E+02  0.22012646817E+04  0.22008439124E+04 0.  0.
        3    1    3    3  502    0  0.46498310447E+03 -0.29151576718E+03 -0.97550309853E+03  0.11192841620E+04  0.10100000352E+00 0. -1.
       -3    1    3    3    0  502 -0.46498310447E+03  0.29151576718E+03  0.93246506891E+03  0.10819805196E+04  0.10100000352E+00 0.  1.
</event>
<event>
 5   0  0.1146827E-06  0.2201397E+04  0.7818609E-02  0.8517847E-01
        1   -1    0    0  501    0  0.00000000000E+00  0.00000000000E+00  0.14477639120E+04  0.14477639120E+04  0.50400001928E-02 0. -1.
       -1   -1    0    0    0  501  0.00000000000E+00  0.00000000000E+00 -0.83683371581E+03  0.83683371582E+03  0.50400001928E-02 0.  1.
    10030    2    1    2    0    0  0.00000000000E+00  0.00000000000E+00  0.61093019617E+03  0.22845976278E+04  0.22013974236E+04 0.  0.
        4    1    3    3  502    0  0.10810280191E+04  0.13254044220E+03  0.47069124848E+03  0.11864823687E+04  0.12699999809E+01 0. -1.
       -4    1    3    3    0  502 -0.10810280191E+04 -0.13254044220E+03  0.14023894769E+03  0.10981152591E+04  0.12699999809E+01 0.  1.
</event>
<event>
 5   0  0.1082209E-06  0.2198908E+04  0.7818609E-02  0.8518883E-01
       -1   -1    0    0    0  501  0.00000000000E+00  0.00000000000E+00  0.11145949631E+04  0.11145949631E+04  0.50400001928E-02 0. -1.
        1   -1    0    0  501    0  0.00000000000E+00  0.00000000000E+00 -0.10845183325E+04  0.10845183326E+04  0.50400001928E-02 0.  1.
    10030    2    1    2    0    0  0.00000000000E+00  0.00000000000E+00  0.30076630592E+02  0.21991132957E+04  0.21989076114E+04 0.  0.
        2    1    3    3  502    0 -0.15697925785E+03  0.51796668653E+03 -0.94206044774E+03  0.10864666875E+04  0.25500000920E-02 0.  1.
       -2    1    3    3    0  502  0.15697925785E+03 -0.51796668653E+03  0.97213707833E+03  0.11126466082E+04  0.25500000920E-02 0. -1.
</event>
<event>
 5   0  0.1146827E-06  0.2199467E+04  0.7818609E-02  0.8518650E-01
       -1   -1    0    0    0  501  0.00000000000E+00  0.00000000000E+00  0.11005820575E+04  0.11005820575E+04  0.50400001928E-02 0. -1.
        1   -1    0    0  501    0  0.00000000000E+00  0.00000000000E+00 -0.10988855508E+04  0.10988855508E+04  0.50400001928E-02 0.  1.
    10030    2    1    2    0    0  0.00000000000E+00  0.00000000000E+00  0.16965067215E+01  0.21994676083E+04  0.21994669540E+04 0.  0.
        4    1    3    3  502    0  0.60502206938E+03  0.30692501736E+03 -0.86469081711E+03  0.10990661913E+04  0.12699999809E+01 0.  1.
       -4    1    3    3    0  502 -0.60502206938E+03 -0.30692501736E+03  0.86638732383E+03  0.11004014170E+04  0.12699999809E+01 0. -1.
</event>
<event>
 5   0  0.1107101E-06  0.2199975E+04  0.7818609E-02  0.8518439E-01
        1   -1    0    0  501    0  0.00000000000E+00  0.00000000000E+00  0.13986625421E+04  0.13986625421E+04  0.50400001928E-02 0. -1.
       -1   -1    0    0    0  501  0.00000000000E+00  0.00000000000E+00 -0.86509247871E+03  0.86509247872E+03  0.50400001928E-02 0.  1.
    10030    2    1    2    0    0  0.00000000000E+00  0.00000000000E+00  0.53357006340E+03  0.22637550208E+04  0.21999749503E+04 0.  0.
        1    1    3    3  502    0 -0.52359592451E+03  0.76681583606E+03 -0.34006969303E+03  0.98884104624E+03  0.50400001928E-02 0.  1.
       -1    1    3    3    0  502  0.52359592451E+03 -0.76681583606E+03  0.87363975643E+03  0.12749139746E+04  0.50400001928E-02 0. -1.
</event>
<event>
 5   0  0.8905000E-07  0.2199189E+04  0.7818609E-02  0.8518766E-01
       -3   -1    0    0    0  501  0.00000000000E+00  0.00000000000E+00  0.10512741537E+04  0.10512741586E+04  0.10100000352E+00 0. -1.
        3   -1    0    0  501    0  0.00000000000E+00  0.00000000000E+00 -0.11501356532E+04  0.11501356577E+04  0.10100000352E+00 0.  1.
    10030    2    1    2    0    0  0.00000000000E+00  0.00000000000E+00 -0.98861499471E+02  0.22014098163E+04  0.21991888466E+04 0.  0.
        3    1    3    3  502    0  0.44376914713E+03 -0.51818444754E+03 -0.91265987360E+03  0.11394710320E+04  0.10100000352E+00 0.  1.
       -3    1    3    3    0  502 -0.44376914713E+03  0.51818444754E+03  0.81379837413E+03  0.10619387843E+04  0.10100000352E+00 0. -1.
</event>
<event>
 5   0  0.1107101E-06  0.2199932E+04  0.7818609E-02  0.8518456E-01
       -1   -1    0    0    0  501  0.00000000000E+00  0.00000000000E+00  0.10270641938E+04  0.10270641938E+04  0.50400001928E-02 0.  1.
        1   -1    0    0  501    0  0.00000000000E+00  0.00000000000E+00 -0.11780425191E+04  0.11780425191E+04  0.50400001928E-02 0. -1.
    10030    2    1    2    0    0  0.00000000000E+00  0.00000000000E+00 -0.15097832522E+03  0.22051067129E+04  0.21999320809E+04 0.  0.
        1    1    3    3  502    0 -0.87686520587E+03 -0.63299122965E+03 -0.27684673188E+03  0.11163398224E+04  0.50400001928E-02 0. -1.
       -1    1    3    3    0  502  0.87686520587E+03  0.63299122965E+03  0.12586840666E+03  0.10887668905E+04  0.50400001928E-02 0.  1.
</event>
<event>
 5   0  0.2524749E-06  0.2200341E+04  0.7818609E-02  0.8518286E-01
        2   -1    0    0  501    0  0.00000000000E+00  0.00000000000E+00  0.75752674299E+03  0.75752674299E+03  0.25500000920E-02 0. -1.
       -2   -1    0    0    0  501  0.00000000000E+00  0.00000000000E+00 -0.15977985642E+04  0.15977985642E+04  0.25500000920E-02 0.  1.
    10030    2    1    2    0    0  0.00000000000E+00  0.00000000000E+00 -0.84027182122E+03  0.23553253072E+04  0.22003410120E+04 0.  0.
        4    1    3    3  502    0  0.16760595370E+03  0.52515923463E+01 -0.15840377019E+04  0.15928893210E+04  0.12699999809E+01 0.  1.
       -4    1    3    3    0  502 -0.16760595370E+03 -0.52515923463E+01  0.74376588068E+03  0.76243598623E+03  0.12699999809E+01 0. -1.
</event>
<event>
 5   0  0.2524749E-06  0.2198201E+04  0.7818609E-02  0.8519177E-01
        2   -1    0    0  501    0  0.00000000000E+00  0.00000000000E+00  0.11605743997E+04  0.11605743997E+04  0.25500000920E-02 0.  1.
       -2   -1    0    0    0  501  0.00000000000E+00  0.00000000000E+00 -0.10408829599E+04  0.10408829599E+04  0.25500000920E-02 0. -1.
    10030    2    1    2    0    0  0.00000000000E+00  0.00000000000E+00  0.11969143985E+03  0.22014573596E+04  0.21982011886E+04 0.  0.
        4    1    3    3  502    0 -0.69546058662E+03  0.36091108212E+03 -0.71207372706E+03  0.10587600495E+04  0.12699999809E+01 0. -1.
       -4    1    3    3    0  502  0.69546058662E+03 -0.36091108212E+03  0.83176516691E+03  0.11426973101E+04  0.12699999809E+01 0.  1.
</event>
<event>
 5   0  0.1107101E-06  0.2200248E+04  0.7818609E-02  0.8518325E-01
        1   -1    0    0  501    0  0.00000000000E+00  0.00000000000E+00  0.11720914564E+04  0.11720914564E+04  0.50400001928E-02 0. -1.
       -1   -1    0    0    0  501  0.00000000000E+00  0.00000000000E+00 -0.10325749631E+04  0.10325749631E+04  0.50400001928E-02 0.  1.
    10030    2    1    2    0    0  0.00000000000E+00  0.00000000000E+00  0.13951649333E+03  0.22046664196E+04  0.22002475246E+04 0.  0.
        1    1    3    3  502    0  0.25659269010E+03  0.77124069851E+03 -0.67309447040E+03  0.10553237369E+04  0.50400001928E-02 0.  1.
       -1    1    3    3    0  502 -0.25659269010E+03 -0.77124069851E+03  0.81261096373E+03  0.11493426826E+04  0.50400001928E-02 0. -1.
</event>
<event>
 5   0  0.1146827E-06  0.2199999E+04  0.7818609E-02  0.8518428E-01
       -1   -1    0    0    0  501  0.00000000000E+00  0.00000000000E+00  0.68090898626E+03  0.68090898628E+03  0.50400001928E-02 0. -1.
        1   -1    0    0  501    0  0.00000000000E+00  0.00000000000E+00 -0.17770352105E+04  0.17770352105E+04  0.50400001928E-02 0.  1.
    10030    2    1    2    0    0  0.00000000000E+00  0.00000000000E+00 -0.10961262243E+04  0.24579441968E+04  0.21999993125E+04 0.  0.
        4    1    3    3  502    0 -0.10689638108E+04 -0.18361481402E+03 -0.75285678826E+03  0.13203003390E+04  0.12699999809E+01 0. -1.
       -4    1    3    3    0  502  0.10689638108E+04  0.18361481402E+03 -0.34326943602E+03  0.11376438578E+04  0.12699999809E+01 0.  1.
</event>
<event>
 5   0  0.2524749E-06  0.2200371E+04  0.7818609E-02  0.8518274E-01
        2   -1    0    0  501    0  0.00000000000E+00  0.00000000000E+00  0.13505861026E+04  0.13505861026E+04  0.25500000920E-02 0.  1.
       -2   -1    0    0    0  501  0.00000000000E+00  0.00000000000E+00 -0.89620964727E+03  0.89620964728E+03  0.25500000920E-02 0. -1.
    10030    2    1    2    0    0  0.00000000000E+00  0.00000000000E+00  0.45437645529E+03  0.22467957498E+04  0.22003711456E+04 0.  0.
        4    1    3    3  502    0 -0.79162279610E+03  0.71272343121E+03  0.50825075264E+03  0.11802380189E+04  0.12699999809E+01 0. -1.
       -4    1    3    3    0  502  0.79162279610E+03 -0.71272343121E+03 -0.53874297353E+02  0.10665577310E+04  0.12699999809E+01 0.  1.
</event>
<event>
 5   0  0.2524749E-06  0.2200794E+04  0.7818609E-02  0.8518098E-01
       -2   -1    0    0    0  501  0.00000000000E+00  0.00000000000E+00  0.51960437834E+03  0.51960437835E+03  0.25500000920E-02 0. -1.
        2   -1    0    0  501    0  0.00000000000E+00  0.00000000000E+00 -0.23303749166E+04  0.23303749166E+04  0.25500000920E-02 0.  1.
    10030    2    1    2    0    0  0.00000000000E+00  0.00000000000E+00 -0.18107705382E+04  0.28499792949E+04  0.22007935022E+04 0.  0.
        4    1    3    3  502    0 -0.95649113374E+03 -0.86403227273E+02 -0.16009832967E+04  0.18669466880E+04  0.12699999809E+01 0.  1.
       -4    1    3    3    0  502  0.95649113374E+03  0.86403227273E+02 -0.20978724147E+03  0.98303260688E+03  0.12699999809E+01 0. -1.
</event>
<event>
 5   0  0.2556869E-06  0.2200052E+04  0.7818609E-02  0.8518406E-01
       -2   -1    0    0    0  501  0.00000000000E+00  0.00000000000E+00  0.58238474769E+03  0.58238474770E+03  0.25500000920E-02 0.  1.
        2   -1    0    0  501    0  0.00000000000E+00  0.00000000000E+00 -0.20777624944E+04  0.20777624944E+04  0.25500000920E-02 0. -1.
    10030    2    1    2    0    0  0.00000000000E+00  0.00000000000E+00 -0.14953777467E+04  0.26601472421E+04  0.22000519867E+04 0.  0.
        5    1    3    3  502    0  0.10855065515E+04 -0.72051809497E+02 -0.55078574800E+03  0.12193863075E+04  0.46999998093E+01 0.  1.
       -5    1    3    3    0  502 -0.10855065515E+04  0.72051809497E+02 -0.94459199866E+03  0.14407609346E+04  0.46999998093E+01 0. -1.
</event>
<event>
 5   0  0.2581058E-06  0.2199261E+04  0.7818609E-02  0.8518736E-01
       -2   -1    0    0    0  501  0.00000000000E+00  0.00000000000E+00  0.72036979771E+03  0.72036979772E+03  0.25500000920E-02 0. -1.
        2   -1    0    0  501    0  0.00000000000E+00  0.00000000000E+00 -0.16785647883E+04  0.16785647883E+04  0.25500000920E-02 0.  1.
    10030    2    1    2    0    0  0.00000000000E+00  0.00000000000E+00 -0.95819499062E+03  0.23989345861E+04  0.21992611278E+04 0.  0.
        1    1    3    3  502    0  0.82667806260E+03  0.37917028528E+03 -0.11532917214E+04  0.14687574745E+04  0.50400001928E-02 0.  1.
       -1    1    3    3    0  502 -0.82667806260E+03 -0.37917028528E+03  0.19509673074E+03  0.93017711152E+03  0.50400001928E-02 0. -1.
</event>
<event>
 5   0  0.1137869E-06  0.2199824E+04  0.7818609E-02  0.8518501E-01
       -1   -1    0    0    0  501  0.00000000000E+00  0.00000000000E+00  0.12129033018E+04  0.12129033018E+04  0.50400001928E-02 0.  1.
        1   -1    0    0  501    0  0.00000000000E+00  0.00000000000E+00 -0.99744659093E+03  0.99744659094E+03  0.50400001928E-02 0. -1.
    10030    2    1    2    0    0  0.00000000000E+00  0.00000000000E+00  0.21545671087E+03  0.22103498927E+04  0.21998238689E+04 0.  0.
        5    1    3    3  502    0  0.10258392110E+04  0.33357573668E+03  0.32361760496E+03  0.11262190298E+04  0.46999998093E+01 0. -1.
       -5    1    3    3    0  502 -0.10258392110E+04 -0.33357573668E+03 -0.10816089409E+03  0.10841308629E+04  0.46999998093E+01 0.  1.
</event>
<event>
 5   0  0.2556869E-06  0.2199986E+04  0.7818609E-02  0.8518434E-01
       -2   -1    0    0    0  501  0.00000000000E+00  0.00000000000E+00  0.69992042334E+03  0.69992042335E+03  0.25500000920E-02 0. -1.
        2   -1    0    0  501    0  0.00000000000E+00  0.00000000000E+00 -0.17287466227E+04  0.17287466227E+04  0.25500000920E-02 0.  1.
    10030    2    1    2    0    0  0.00000000000E+00  0.00000000000E+00 -0.10288261994E+04  0.24286670461E+04  0.21999864254E+04 0.  0.
        5    1    3    3  502    0 -0.19839200695E+03 -0.10651359051E+04 -0.72413122370E+03  0.13031738195E+04  0.46999998093E+01 0. -1.
       -5    1    3    3    0  502  0.19839200695E+03  0.10651359051E+04 -0.30469497569E+03  0.11254932265E+04  0.46999998093E+01 0.  1.
</event>
<event>
 5   0  0.1082209E-06  0.2198748E+04  0.7818609E-02  0.8518950E-01
        1   -1    0    0  501    0  0.00000000000E+00  0.00000000000E+00  0.10471045349E+04  0.10471045349E+04  0.50400001928E-02 0. -1.
       -1   -1    0    0    0  501  0.00000000000E+00  0.00000000000E+00 -0.11542522802E+04  0.11542522802E+04  0.50400001928E-02 0.  1.
    10030    2    1    2    0    0  0.00000000000E+00  0.00000000000E+00 -0.10714774527E+03  0.22013568151E+04  0.21987476408E+04 0.  0.
        2    1    3    3  502    0 -0.10633679088E+04 -0.15886500976E+03 -0.28326581114E+03  0.11118583186E+04  0.25500000920E-02 0. -1.
       -2    1    3    3    0  502  0.10633679088E+04  0.15886500976E+03  0.17611806587E+03  0.10894984965E+04  0.25500000920E-02 0.  1.
</event>
<event>
 5   0  0.2556869E-06  0.2198815E+04  0.7818609E-02  0.8518921E-01
       -2   -1    0    0    0  501  0.00000000000E+00  0.00000000000E+00  0.16675337803E+04  0.16675337803E+04  0.25500000920E-02 0.  1.
        2   -1    0    0  501    0  0.00000000000E+00  0.00000000000E+00 -0.72484120530E+03  0.72484120530E+03  0.25500000920E-02 0. -1.
    10030    2    1    2    0    0  0.00000000000E+00  0.00000000000E+00  0.94269257497E+03  0.23923749856E+04  0.21988153130E+04 0.  0.
        5    1    3    3  502    0  0.96860154674E+03  0.19258505558E+03  0.99698612191E+03  0.14033108627E+04  0.46999998093E+01 0.  1.
       -5    1    3    3    0  502 -0.96860154674E+03 -0.19258505558E+03 -0.54293546944E+02  0.98906412291E+03  0.46999998093E+01 0. -1.
</event>
<event>
 5   0  0.1144271E-06  0.2197461E+04  0.7818609E-02  0.8519486E-01
        1   -1    0    0  501    0  0.00000000000E+00  0.00000000000E+00  0.13523134033E+04  0.13523134033E+04  0.50400001928E-02 0. -1.
       -1   -1    0    0    0  501  0.00000000000E+00  0.00000000000E+00 -0.89269867892E+03  0.89269867894E+03  0.50400001928E-02 0.  1.
    10030    2    1    2    0    0  0.00000000000E+00  0.00000000000E+00  0.45961472438E+03  0.22450120823E+04  0.21974607060E+04 0.  0.
        3    1    3    3  502    0  0.40067679085E+02  0.99587512159E+02  0.13469432593E+04  0.13512139895E+04  0.10100000352E+00 0. -1.
       -3    1    3    3    0  502 -0.40067679085E+02 -0.99587512159E+02 -0.88732853492E+03  0.89379809273E+03  0.10100000352E+00 0.  1.
</event>
<event>
 5   0  0.1146827E-06  0.2200328E+04  0.7818609E-02  0.8518292E-01
        1   -1    0    0  501    0  0.00000000000E+00  0.00000000000E+00  0.14037918686E+04  0.14037918686E+04  0.50400001928E-02 0. -1.
       -1   -1    0    0    0  501  0.00000000000E+00  0.00000000000E+00 -0.86220795077E+03  0.86220795078E+03  0.50400001928E-02 0.  1.
    10030    2    1    2    0    0  0.00000000000E+00  0.00000000000E+00  0.54158391780E+03  0.22659998194E+04  0.22003277123E+04 0.  0.
        4    1    3    3  502    0 -0.13547891740E+03  0.42918321297E+02 -0.85271459769E+03  0.86447690390E+03  0.12699999809E+01 0.  1.
       -4    1    3    3    0  502  0.13547891740E+03 -0.42918321297E+02  0.13942985155E+04  0.14015229155E+04  0.12699999809E+01 0. -1.
</event>
<event>
 5   0  0.1144271E-06  0.2199517E+04  0.7818609E-02  0.8518629E-01
       -1   -1    0    0    0  501  0.00000000000E+00  0.00000000000E+00  0.92707831359E+03  0.92707831361E+03  0.50400001928E-02 0. -1.
        1   -1    0    0  501    0  0.00000000000E+00  0.00000000000E+00 -0.13046020651E+04  0.13046020651E+04  0.50400001928E-02 0.  1.
    10030    2    1    2    0    0  0.00000000000E+00  0.00000000000E+00 -0.37752375146E+03  0.22316803787E+04  0.21995165673E+04 0.  0.
        3    1    3    3  502    0  0.47330511653E+03  0.50549761349E+03 -0.10556103578E+04  0.12624812111E+04  0.10100000352E+00 0.  1.
       -3    1    3    3    0  502 -0.47330511653E+03 -0.50549761349E+03  0.67808660635E+03  0.96919916760E+03  0.10100000352E+00 0. -1.
</event>
<event>
 5   0  0.1144271E-06  0.2200114E+04  0.7818609E-02  0.8518380E-01
        1   -1    0    0  501    0  0.00000000000E+00  0.00000000000E+00  0.11410844126E+04  0.11410844126E+04  0.50400001928E-02 0.  1.
       -1   -1    0    0    0  501  0.00000000000E+00  0.00000000000E+00 -0.10605051397E+04  0.10605051397E+04  0.50400001928E-02 0. -1.
    10030    2    1    2    0    0  0.00000000000E+00  0.00000000000E+00  0.80579272901E+02  0.22015895523E+04  0.22001144374E+04 0.  0.
        3    1    3    3  502    0  0.67244954108E+03  0.23794361560E+03 -0.79772054909E+03  0.10701231864E+04  0.10100000352E+00 0. -1.
       -3    1    3    3    0  502 -0.67244954108E+03 -0.23794361560E+03  0.87829982199E+03  0.11314663658E+04  0.10100000352E+00 0.  1.
</event>
<event>
 5   0  0.2606154E-06  0.2200772E+04  0.7818609E-02  0.8518107E-01
        2   -1    0    0  501    0  0.00000000000E+00  0.00000000000E+00  0.15658027549E+04  0.15658027549E+04  0.25500000920E-02 0.  1.
       -2   -1    0    0    0  501  0.00000000000E+00  0.00000000000E+00 -0.77330915281E+03  0.77330915282E+03  0.25500000920E-02 0. -1.
    10030    2    1    2    0    0  0.00000000000E+00  0.00000000000E+00  0.79249360212E+03  0.23391119078E+04  0.22007722298E+04 0.  0.
        2    1    3    3  502    0 -0.10330753443E+03 -0.70353270679E+03 -0.49631412274E+03  0.86715536361E+03  0.25500000920E-02 0. -1.
       -2    1    3    3    0  502  0.10330753443E+03  0.70353270679E+03  0.12888077249E+04  0.14719565441E+04  0.25500000920E-02 0.  1.
</event>
<event>
 5   0  0.1137869E-06  0.2199677E+04  0.7818609E-02  0.8518563E-01
        1   -1    0    0  501    0  0.00000000000E+00  0.00000000000E+00  0.10419489851E+04  0.10419489851E+04  0.50400001928E-02 0. -1.
       -1   -1    0    0    0  501  0.00000000000E+00  0.00000000000E+00 -0.11609440821E+04  0.11609440821E+04  0.50400001928E-02 0.  1.
    10030    2    1    2    0    0  0.00000000000E+00  0.00000000000E+00 -0.11899509705E+03  0.22028930672E+04  0.21996768018E+04 0.  0.
        5    1    3    3  502    0 -0.48031908116E+02  0.32330873834E+03 -0.11111695786E+04  0.11582553806E+04  0.46999998093E+01 0.  1.
       -5    1    3    3    0  502  0.48031908116E+02 -0.32330873834E+03  0.99217448151E+03  0.10446376866E+04  0.46999998093E+01 0. -1.
</event>
<event>
 5   0  0.1082209E-06  0.2199370E+04  0.7818609E-02  0.8518690E-01
       -1   -1    0    0    0  501  0.00000000000E+00  0.00000000000E+00  0.75759328263E+03  0.75759328264E+03  0.50400001928E-02 0. -1.
        1   -1    0    0  501    0  0.00000000000E+00  0.00000000000E+00 -0.15962486183E+04  0.15962486183E+04  0.50400001928E-02 0.  1.
    10030    2    1    2    0    0  0.00000000000E+00  0.00000000000E+00 -0.83865533565E+03  0.23538419009E+04  0.21993701195E+04 0.  0.
        2    1    3    3  502    0 -0.94013122564E+03 -0.48610681533E+03 -0.99757935642E+02  0.10630607711E+04  0.25500000920E-02 0. -1.
       -2    1    3    3    0  502  0.94013122564E+03  0.48610681533E+03 -0.73889740001E+03  0.12907811298E+04  0.25500000920E-02 0.  1.
</event>
<event>
 5   0  0.1144271E-06  0.2208915E+04  0.7818609E-02  0.8514727E-01
        1   -1    0    0  501    0  0.00000000000E+00  0.00000000000E+00  0.13244282606E+04  0.13244282606E+04  0.50400001928E-02 0. -1.
       -1   -1    0    0    0  501  0.00000000000E+00  0.00000000000E+00 -0.92102072553E+03  0.92102072554E+03  0.50400001928E-02 0.  1.
    10030    2    1    2    0    0  0.00000000000E+00  0.00000000000E+00  0.40340753508E+03  0.22454489862E+04  0.22089145547E+04 0.  0.
        3    1    3    3  502    0  0.34492934435E+03  0.66597068746E+03  0.10258739173E+04  0.12707912943E+04  0.10100000352E+00 0. -1.
       -3    1    3    3    0  502 -0.34492934435E+03 -0.66597068746E+03 -0.62246638224E+03  0.97465769189E+03  0.10100000352E+00 0.  1.
</event>
<event>
 5   0  0.2581058E-06  0.2198771E+04  0.7818609E-02  0.8518940E-01
       -2   -1    0    0    0  501  0.00000000000E+00  0.00000000000E+00  0.12070974883E+04  0.12070974883E+04  0.25500000920E-02 0.  1.
        2   -1    0    0  501    0  0.00000000000E+00  0.00000000000E+00 -0.10012845818E+04  0.10012845818E+04  0.25500000920E-02 0. -1.
    10030    2    1    2    0    0  0.00000000000E+00  0.00000000000E+00  0.20581290651E+03  0.22083820701E+04  0.21987706599E+04 0.  0.
        1    1    3    3  502    0 -0.70133918783E+03 -0.15516738171E+03 -0.73301439841E+03  0.10262863543E+04  0.50400001928E-02 0. -1.
       -1    1    3    3    0  502  0.70133918783E+03  0.15516738171E+03  0.93882730492E+03  0.11820957158E+04  0.50400001928E-02 0.  1.
</event>
<event>
 5   0  0.2606154E-06  0.2199828E+04  0.7818609E-02  0.8518500E-01
       -2   -1    0    0    0  501  0.00000000000E+00  0.00000000000E+00  0.84136979661E+03  0.84136979662E+03  0.25500000920E-02 0.  1.
        2   -1    0    0  501    0  0.00000000000E+00  0.00000000000E+00 -0.14379066896E+04  0.14379066896E+04  0.25500000920E-02 0. -1.
    10030    2    1    2    0    0  0.00000000000E+00  0.00000000000E+00 -0.59653689297E+03  0.22792764862E+04  0.21998284106E+04 0.  0.
        2    1    3    3  502    0 -0.64774507079E+03  0.62135232922E+01  0.62276719057E+03  0.89858291674E+03  0.25500000920E-02 0.  1.
       -2    1    3    3    0  502  0.64774507079E+03 -0.62135232922E+01 -0.12193040835E+04  0.13806935695E+04  0.25500000920E-02 0. -1.
</event>
<event>
 5   0  0.1144271E-06  0.2199528E+04  0.7818609E-02  0.8518625E-01
        1   -1    0    0  501    0  0.00000000000E+00  0.00000000000E+00  0.10521931883E+04  0.10521931883E+04  0.50400001928E-02 0.  1.
       -1   -1    0    0    0  501  0.00000000000E+00  0.00000000000E+00 -0.11494856618E+04  0.11494856619E+04  0.50400001928E-02 0. -1.
    10030    2    1    2    0    0  0.00000000000E+00  0.00000000000E+00 -0.97292473525E+02  0.22016788502E+04  0.21995281162E+04 0.  0.
        3    1    3    3  502    0 -0.26640991832E+03  0.78846361755E+03 -0.76825938260E+03  0.11326392232E+04  0.10100000352E+00 0. -1.
       -3    1    3    3    0  502  0.26640991832E+03 -0.78846361755E+03  0.67096690908E+03  0.10690396270E+04  0.10100000352E+00 0.  1.
</event>
<event>
 5   0  0.2581058E-06  0.2200411E+04  0.7818609E-02  0.8518257E-01
       -2   -1    0    0    0  501  0.00000000000E+00  0.00000000000E+00  0.67716286291E+03  0.67716286292E+03  0.25500000920E-02 0.  1.
        2   -1    0    0  501    0  0.00000000000E+00  0.00000000000E+00 -0.17875352158E+04  0.17875352158E+04  0.25500000920E-02 0. -1.
    10030    2    1    2    0    0  0.00000000000E+00  0.00000000000E+00 -0.11103723529E+04  0.24646980787E+04  0.22004112927E+04 0.  0.
        1    1    3    3  502    0  0.56171509045E+03  0.17464722691E+03 -0.15966016230E+04  0.17015176283E+04  0.50400001928E-02 0. -1.
       -1    1    3    3    0  502 -0.56171509045E+03 -0.17464722691E+03  0.48622927015E+03  0.76318045041E+03  0.50400001928E-02 0.  1.
</event>
<event>
 5   0  0.1107101E-06  0.2200081E+04  0.7818609E-02  0.8518394E-01
       -1   -1    0    0    0  501  0.00000000000E+00  0.00000000000E+00  0.57804946310E+03  0.57804946312E+03  0.50400001928E-02 0.  1.
        1   -1    0    0  501    0  0.00000000000E+00  0.00000000000E+00 -0.20934014773E+04  0.20934014773E+04  0.50400001928E-02 0. -1.
    10030    2    1    2    0    0  0.00000000000E+00  0.00000000000E+00 -0.15153520142E+04  0.26714509404E+04  0.22000814531E+04 0.  0.
        1    1    3    3  502    0 -0.13867230465E+03  0.95105478378E+03 -0.14074470694E+04  0.17043011656E+04  0.50400001928E-02 0. -1.
       -1    1    3    3    0  502  0.13867230465E+03 -0.95105478378E+03 -0.10790494481E+03  0.96714977484E+03  0.50400001928E-02 0.  1.
</event>
<event>
 5   0  0.1144271E-06  0.2199816E+04  0.7818609E-02  0.8518505E-01
        1   -1    0    0  501    0  0.00000000000E+00  0.00000000000E+00  0.20147224764E+04  0.20147224764E+04  0.50400001928E-02 0.  1.
       -1   -1    0    0    0  501  0.00000000000E+00  0.00000000000E+00 -0.60047879311E+03  0.60047879313E+03  0.50400001928E-02 0. -1.
    10030    2    1    2    0    0  0.00000000000E+00  0.00000000000E+00  0.14142436832E+04  0.26152012695E+04  0.21998164661E+04 0.  0.
        3    1    3    3  502    0  0.75150003242E+02 -0.90583813970E+03 -0.29191066827E+02  0.90941870825E+03  0.10100000352E+00 0. -1.
       -3    1    3    3    0  502 -0.75150003242E+02  0.90583813970E+03  0.14434347501E+04  0.17057825612E+04  0.10100000352E+00 0.  1.
</event>
<event>
 5   0  0.2524749E-06  0.2201407E+04  0.7818609E-02  0.8517843E-01
        2   -1    0    0  501    0  0.00000000000E+00  0.00000000000E+00  0.23889754099E+04  0.23889754099E+04  0.25500000920E-02 0. -1.
       -2   -1    0    0    0  501  0.00000000000E+00  0.00000000000E+00 -0.50714140084E+03  0.50714140085E+03  0.25500000920E-02 0.  1.
    10030    2    1    2    0    0  0.00000000000E+00  0.00000000000E+00  0.18818340091E+04  0.28961168108E+04  0.22014071282E+04 0.  0.
        4    1    3    3  502    0  0.10448446769E+04 -0.16122957446E+03  0.13439456962E+04  0.17099377246E+04  0.12699999809E+01 0. -1.
       -4    1    3    3    0  502 -0.10448446769E+04  0.16122957446E+03  0.53788831287E+03  0.11861790862E+04  0.12699999809E+01 0.  1.
</event>
<event>
 5   0  0.8905000E-07  0.2201624E+04  0.7818609E-02  0.8517752E-01
       -4   -1    0    0    0  501  0.00000000000E+00  0.00000000000E+00  0.20376295203E+04  0.20376299160E+04  0.12699999809E+01 0. -1.
        4   -1    0    0  501    0  0.00000000000E+00  0.00000000000E+00 -0.59470344541E+03  0.59470480147E+03  0.12699999809E+01 0.  1.
    10030    2    1    2    0    0  0.00000000000E+00  0.00000000000E+00  0.14429260749E+04  0.26323347175E+04  0.22016244929E+04 0.  0.
        1    1    3    3  502    0  0.10101346248E+03  0.17524489200E+03 -0.57229416251E+03  0.60698855034E+03  0.50400001928E-02 0.  1.
       -1    1    3    3    0  502 -0.10101346248E+03 -0.17524489200E+03  0.20152202374E+04  0.20253461672E+04  0.50400001928E-02 0. -1.
</event>
<event>
 5   0  0.2581058E-06  0.2199453E+04  0.7818609E-02  0.8518656E-01
        2   -1    0    0  501    0  0.00000000000E+00  0.00000000000E+00  0.22188499293E+04  0.22188499293E+04  0.25500000920E-02 0.  1.
       -2   -1    0    0    0  501  0.00000000000E+00  0.00000000000E+00 -0.54505618887E+03  0.54505618887E+03  0.25500000920E-02 0. -1.
    10030    2    1    2    0    0  0.00000000000E+00  0.00000000000E+00  0.16737937404E+04  0.27639061182E+04  0.21994525557E+04 0.  0.
        1    1    3    3  502    0 -0.10626134849E+04  0.25965787851E+03  0.97922556414E+03  0.14681458843E+04  0.50400001928E-02 0.  1.
       -1    1    3    3    0  502  0.10626134849E+04 -0.25965787851E+03  0.69456817629E+03  0.12957602339E+04  0.50400001928E-02 0. -1.
</event>
<event>
 5   0  0.2556869E-06  0.2207396E+04  0.7818609E-02  0.8515356E-01
        2   -1    0    0  501    0  0.00000000000E+00  0.00000000000E+00  0.10002511926E+04  0.10002511926E+04  0.25500000920E-02 0.  1.
       -2   -1    0    0    0  501  0.00000000000E+00  0.00000000000E+00 -0.12178436032E+04  0.12178436032E+04  0.25500000920E-02 0. -1.
    10030    2    1    2    0    0  0.00000000000E+00  0.00000000000E+00 -0.21759241062E+03  0.22180947957E+04  0.22073962186E+04 0.  0.
        5    1    3    3  502    0  0.72104721824E+01 -0.40620885793E+03 -0.11399617369E+04  0.12102034865E+04  0.46999998093E+01 0. -1.
       -5    1    3    3    0  502 -0.72104721824E+01  0.40620885793E+03  0.92236932627E+03  0.10078913092E+04  0.46999998093E+01 0.  1.
</event>
<event>
 5   0  0.2524749E-06  0.2201145E+04  0.7818609E-02  0.8517952E-01
        2   -1    0    0  501    0  0.00000000000E+00  0.00000000000E+00  0.94767027486E+03  0.94767027486E+03  0.25500000920E-02 0.  1.
       -2   -1    0    0    0  501  0.00000000000E+00  0.00000000000E+00 -0.12781450483E+04  0.12781450483E+04  0.25500000920E-02 0. -1.
    10030    2    1    2    0    0  0.00000000000E+00  0.00000000000E+00 -0.33047477347E+03  0.22258153232E+04  0.22011452194E+04 0.  0.
        4    1    3    3  502    0 -0.11413817389E+02 -0.27298833199E+02 -0.12777420283E+04  0.12780852105E+04  0.12699999809E+01 0. -1.
       -4    1    3    3    0  502  0.11413817389E+02  0.27298833199E+02  0.94726725483E+03  0.94773011269E+03  0.12699999809E+01 0.  1.
</event>
<event>
 5   0  0.1144271E-06  0.2200278E+04  0.7818609E-02  0.8518313E-01
       -1   -1    0    0    0  501  0.00000000000E+00  0.00000000000E+00  0.97724880199E+03  0.97724880201E+03  0.50400001928E-02 0.  1.
        1   -1    0    0  501    0  0.00000000000E+00  0.00000000000E+00 -0.12384824653E+04  0.12384824653E+04  0.50400001928E-02 0. -1.
    10030    2    1    2    0    0  0.00000000000E+00  0.00000000000E+00 -0.26123366334E+03  0.22157312674E+04  0.22002777148E+04 0.  0.
        3    1    3    3  502    0  0.15380251211E+03  0.66894412374E+03  0.73516805823E+03  0.10057900066E+04  0.10100000352E+00 0.  1.
       -3    1    3    3    0  502 -0.15380251211E+03 -0.66894412374E+03 -0.99640172157E+03  0.12099412607E+04  0.10100000352E+00 0. -1.
</event>
<event>
 5   0  0.1144271E-06  0.2200718E+04  0.7818609E-02  0.8518129E-01
        1   -1    0    0  501    0  0.00000000000E+00  0.00000000000E+00  0.14195034236E+04  0.14195034236E+04  0.50400001928E-02 0. -1.
       -1   -1    0    0    0  501  0.00000000000E+00  0.00000000000E+00 -0.85296711282E+03  0.85296711284E+03  0.50400001928E-02 0.  1.
    10030    2    1    2    0    0  0.00000000000E+00  0.00000000000E+00  0.56653631080E+03  0.22724705365E+04  0.22007178255E+04 0.  0.
        3    1    3    3  502    0  0.49216105991E+03  0.54585480094E+02 -0.73141336180E+03  0.88327096609E+03  0.10100000352E+00 0.  1.
       -3    1    3    3    0  502 -0.49216105991E+03 -0.54585480094E+02  0.12979496726E+04  0.13891995704E+04  0.10100000352E+00 0. -1.
</event>
<event>
 5   0  0.2532239E-06  0.2202260E+04  0.7818609E-02  0.8517488E-01
        2   -1    0    0  501    0  0.00000000000E+00  0.00000000000E+00  0.18654451534E+04  0.18654451534E+04  0.25500000920E-02 0.  1.
       -2   -1    0    0    0  501  0.00000000000E+00  0.00000000000E+00 -0.64997201159E+03  0.64997201160E+03  0.25500000920E-02 0. -1.
    10030    2    1    2    0    0  0.00000000000E+00  0.00000000000E+00  0.12154731418E+04  0.25154171650E+04  0.22022598747E+04 0.  0.
        3    1    3    3  502    0 -0.88598306687E+03 -0.28593498253E+03 -0.63893736934E+02  0.93317052505E+03  0.10100000352E+00 0. -1.
       -3    1    3    3    0  502  0.88598306687E+03  0.28593498253E+03  0.12793668787E+04  0.15822466399E+04  0.10100000352E+00 0.  1.
</event>
<event>
 5   0  0.2524749E-06  0.2184392E+04  0.7818609E-02  0.8524953E-01
       -2   -1    0    0    0  501  0.00000000000E+00  0.00000000000E+00  0.12724230512E+04  0.12724230512E+04  0.25500000920E-02 0.  1.
        2   -1    0    0  501    0  0.00000000000E+00  0.00000000000E+00 -0.93749679858E+03  0.93749679859E+03  0.25500000920E-02 0. -1.
    10030    2    1    2    0    0  0.00000000000E+00  0.00000000000E+00  0.33492625259E+03  0.22099198498E+04  0.21843923978E+04 0.  0.
        4    1    3    3  502    0  0.77759305691E+03 -0.36893275207E+03 -0.51279987322E+03  0.10018620966E+04  0.12699999809E+01 0. -1.
       -4    1    3    3    0  502 -0.77759305691E+03  0.36893275207E+03  0.84772612581E+03  0.12080577532E+04  0.12699999809E+01 0.  1.
</event>
<event>
 5   0  0.1082209E-06  0.2198697E+04  0.7818609E-02  0.8518971E-01
       -1   -1    0    0    0  501  0.00000000000E+00  0.00000000000E+00  0.60430626480E+03  0.60430626482E+03  0.50400001928E-02 0.  1.
        1   -1    0    0  501    0  0.00000000000E+00  0.00000000000E+00 -0.19999253477E+04  0.19999253477E+04  0.50400001928E-02 0. -1.
    10030    2    1    2    0    0  0.00000000000E+00  0.00000000000E+00 -0.13956190829E+04  0.26042316125E+04  0.21986972659E+04 0.  0.
        2    1    3    3  502    0 -0.90183072102E+02 -0.25524247085E+03 -0.19598310483E+04  0.19784386377E+04  0.25500000920E-02 0. -1.
       -2    1    3    3    0  502  0.90183072102E+02  0.25524247085E+03  0.56421196539E+03  0.62579297480E+03  0.25500000920E-02 0.  1.
</event>
<event>
 5   0  0.1107101E-06  0.2198674E+04  0.7818609E-02  0.8518980E-01
       -1   -1    0    0    0  501  0.00000000000E+00  0.00000000000E+00  0.13380271185E+04  0.13380271185E+04  0.50400001928E-02 0. -1.
        1   -1    0    0  501    0  0.00000000000E+00  0.00000000000E+00 -0.90322674875E+03  0.90322674876E+03  0.50400001928E-02 0.  1.
    10030    2    1    2    0    0  0.00000000000E+00  0.00000000000E+00  0.43480036979E+03  0.22412538673E+04  0.21986740404E+04 0.  0.
        1    1    3    3  502    0  0.66313643171E+03  0.62667036710E+03  0.84252700600E+03  0.12419007335E+04  0.50400001928E-02 0. -1.
       -1    1    3    3    0  502 -0.66313643171E+03 -0.62667036710E+03 -0.40772663622E+03  0.99935313377E+03  0.50400001928E-02 0.  1.
</event>
<event>
 5   0  0.1082209E-06  0.2198526E+04  0.7818609E-02  0.8519042E-01
        1   -1    0    0  501    0  0.00000000000E+00  0.00000000000E+00  0.11769232430E+04  0.11769232430E+04  0.50400001928E-02 0. -1.
       -1   -1    0    0    0  501  0.00000000000E+00  0.00000000000E+00 -0.10267270873E+04  0.10267270873E+04  0.50400001928E-02 0.  1.
    10030    2    1    2    0    0  0.00000000000E+00  0.00000000000E+00  0.15019615567E+03  0.22036503304E+04  0.21985258455E+04 0.  0.
        2    1    3    3  502    0  0.66203135609E+03  0.34508457446E+03  0.88383071238E+03  0.11569466747E+04  0.25500000920E-02 0. -1.
       -2    1    3    3    0  502 -0.66203135609E+03 -0.34508457446E+03 -0.73363455671E+03  0.10467036557E+04  0.25500000920E-02 0.  1.
</event>
<event>
 5   0  0.2524749E-06  0.2199837E+04  0.7818609E-02  0.8518496E-01
        2   -1    0    0  501    0  0.00000000000E+00  0.00000000000E+00  0.78525191301E+03  0.78525191301E+03  0.25500000920E-02 0. -1.
       -2   -1    0    0    0  501  0.00000000000E+00  0.00000000000E+00 -0.15406786848E+04  0.15406786849E+04  0.25500000920E-02 0.  1.
    10030    2    1    2    0    0  0.00000000000E+00  0.00000000000E+00 -0.75542677184E+03  0.23259305979E+04  0.21998371618E+04 0.  0.
        4    1    3    3  502    0  0.40383555441E+03  0.95037360674E+03 -0.77827718410E+03  0.12930623092E+04  0.12699999809E+01 0.  1.
       -4    1    3    3    0  502 -0.40383555441E+03 -0.95037360674E+03  0.22850412260E+02  0.10328682886E+04  0.12699999809E+01 0. -1.
</event>
<event>
 5   0  0.2524749E-06  0.2200176E+04  0.7818609E-02  0.8518355E-01
       -2   -1    0    0    0  501  0.00000000000E+00  0.00000000000E+00  0.81938423223E+03  0.81938423224E+03  0.25500000920E-02 0. -1.
        2   -1    0    0  501    0  0.00000000000E+00  0.00000000000E+00 -0.14769547864E+04  0.14769547864E+04  0.25500000920E-02 0.  1.
    10030    2    1    2    0    0  0.00000000000E+00  0.00000000000E+00 -0.65757055416E+03  0.22963390186E+04  0.22001758691E+04 0.  0.
        4    1    3    3  502    0  0.76813484361E+03  0.42316643794E+03 -0.10219598869E+04  0.13466642475E+04  0.12699999809E+01 0.  1.
       -4    1    3    3    0  502 -0.76813484361E+03 -0.42316643794E+03  0.36438933276E+03  0.94967477112E+03  0.12699999809E+01 0. -1.
</event>
<event>
 5   0  0.2556869E-06  0.2199866E+04  0.7818609E-02  0.8518484E-01
       -2   -1    0    0    0  501  0.00000000000E+00  0.00000000000E+00  0.61035889647E+03  0.61035889647E+03  0.25500000920E-02 0.  1.
        2   -1    0    0  501    0  0.00000000000E+00  0.00000000000E+00 -0.19821991809E+04  0.19821991809E+04  0.25500000920E-02 0. -1.
    10030    2    1    2    0    0  0.00000000000E+00  0.00000000000E+00 -0.13718402845E+04  0.25925580774E+04  0.21998662729E+04 0.  0.
        5    1    3    3  502    0  0.10390947734E+04  0.14148810069E+02 -0.11106941948E+04  0.15210462916E+04  0.46999998093E+01 0. -1.
       -5    1    3    3    0  502 -0.10390947734E+04 -0.14148810069E+02 -0.26114608965E+03  0.10715117858E+04  0.46999998093E+01 0.  1.
</event>
<event>
 5   0  0.1144271E-06  0.2200784E+04  0.7818609E-02  0.8518102E-01
        1   -1    0    0  501    0  0.00000000000E+00  0.00000000000E+00  0.15605742999E+04  0.15605743000E+04  0.50400001928E-02 0.  1.
       -1   -1    0    0    0  501  0.00000000000E+00  0.00000000000E+00 -0.77590825802E+03  0.77590825804E+03  0.50400001928E-02 0. -1.
    10030    2    1    2    0    0  0.00000000000E+00  0.00000000000E+00  0.78466604193E+03  0.23364825580E+04  0.22007839391E+04 0.  0.
        3    1    3    3  502    0  0.10511617741E+04 -0.24747212541E+03  0.61674012751E+03  0.12436044078E+04  0.10100000352E+00 0.  1.
       -3    1    3    3    0  502 -0.10511617741E+04  0.24747212541E+03  0.16792591442E+03  0.10928781501E+04  0.10100000352E+00 0. -1.
</event>
<event>
 5   0  0.1082209E-06  0.2199861E+04  0.7818609E-02  0.8518486E-01
       -1   -1    0    0    0  501  0.00000000000E+00  0.00000000000E+00  0.93780680770E+03  0.93780680771E+03  0.50400001928E-02 0.  1.
        1   -1    0    0  501    0  0.00000000000E+00  0.00000000000E+00 -0.12900812537E+04  0.12900812537E+04  0.50400001928E-02 0. -1.
    10030    2    1    2    0    0  0.00000000000E+00  0.00000000000E+00 -0.35227444602E+03  0.22278880614E+04  0.21998608886E+04 0.  0.
        2    1    3    3  502    0 -0.93830726515E+03 -0.56506442623E+03 -0.27806064253E+03  0.11300601978E+04  0.25500000920E-02 0. -1.
       -2    1    3    3    0  502  0.93830726515E+03  0.56506442623E+03 -0.74213803496E+02  0.10978278637E+04  0.25500000920E-02 0.  1.
</event>
<event>
 5   0  0.2581058E-06  0.2200864E+04  0.7818609E-02  0.8518069E-01
        2   -1    0    0  501    0  0.00000000000E+00  0.00000000000E+00  0.12329940162E+04  0.12329940162E+04  0.25500000920E-02 0. -1.
       -2   -1    0    0    0  501  0.00000000000E+00  0.00000000000E+00 -0.98212207426E+03  0.98212207426E+03  0.25500000920E-02 0.  1.
    10030    2    1    2    0    0  0.00000000000E+00  0.00000000000E+00  0.25087194189E+03  0.22151160904E+04  0.22008640491E+04 0.  0.
        1    1    3    3  502    0  0.68828610075E+03  0.75895964366E+03  0.52952453311E+03  0.11533229073E+04  0.50400001928E-02 0.  1.
       -1    1    3    3    0  502 -0.68828610075E+03 -0.75895964366E+03 -0.27865259122E+03  0.10617931832E+04  0.50400001928E-02 0. -1.
</event>
<event>
 5   0  0.1146827E-06  0.2199913E+04  0.7818609E-02  0.8518465E-01
        1   -1    0    0  501    0  0.00000000000E+00  0.00000000000E+00  0.15457975043E+04  0.15457975043E+04  0.50400001928E-02 0. -1.
       -1   -1    0    0    0  501  0.00000000000E+00  0.00000000000E+00 -0.78270523736E+03  0.78270523737E+03  0.50400001928E-02 0.  1.
    10030    2    1    2    0    0  0.00000000000E+00  0.00000000000E+00  0.76309226693E+03  0.23285027417E+04  0.21999125460E+04 0.  0.
        4    1    3    3  502    0  0.20762220771E+03  0.42949034199E+03 -0.66751491087E+03  0.82045518106E+03  0.12699999809E+01 0.  1.
       -4    1    3    3    0  502 -0.20762220771E+03 -0.42949034199E+03  0.14306071778E+04  0.15080475606E+04  0.12699999809E+01 0. -1.
</event>
<event>
 5   0  0.2581058E-06  0.2198559E+04  0.7818609E-02  0.8519028E-01
       -2   -1    0    0    0  501  0.00000000000E+00  0.00000000000E+00  0.88604870322E+03  0.88604870323E+03  0.25500000920E-02 0.  1.
        2   -1    0    0  501    0  0.00000000000E+00  0.00000000000E+00 -0.13638246733E+04  0.13638246733E+04  0.25500000920E-02 0. -1.
    10030    2    1    2    0    0  0.00000000000E+00  0.00000000000E+00 -0.47777597011E+03  0.22498733766E+04  0.21985586944E+04 0.  0.
        1    1    3    3  502    0 -0.26577546558E+03  0.34657045520E+03  0.79345246479E+03  0.90571214656E+03  0.50400001928E-02 0.  1.
       -1    1    3    3    0  502  0.26577546558E+03 -0.34657045520E+03 -0.12712284349E+04  0.13441612300E+04  0.50400001928E-02 0. -1.
</event>
<event>
 5   0  0.8905000E-07  0.2201578E+04  0.7818609E-02  0.8517772E-01
       -3   -1    0    0    0  501  0.00000000000E+00  0.00000000000E+00  0.78732517696E+03  0.78732518343E+03  0.10100000352E+00 0.  1.
        3   -1    0    0  501    0  0.00000000000E+00  0.00000000000E+00 -0.15390543319E+04  0.15390543352E+04  0.10100000352E+00 0. -1.
    10030    2    1    2    0    0  0.00000000000E+00  0.00000000000E+00 -0.75172915490E+03  0.23263795186E+04  0.22015778302E+04 0.  0.
        5    1    3    3  502    0 -0.36608021771E+03 -0.79428395078E+02 -0.14696205263E+04  0.15166180063E+04  0.46999998093E+01 0. -1.
       -5    1    3    3    0  502  0.36608021771E+03  0.79428395078E+02  0.71789137137E+03  0.80976151232E+03  0.46999998093E+01 0.  1.
</event>
<event>
 5   0  0.2606154E-06  0.2200821E+04  0.7818609E-02  0.8518086E-01
       -2   -1    0    0    0  501  0.00000000000E+00  0.00000000000E+00  0.11259740230E+04  0.11259740230E+04  0.25500000920E-02 0. -1.
        2   -1    0    0  501    0  0.00000000000E+00  0.00000000000E+00 -0.10754278372E+04  0.10754278372E+04  0.25500000920E-02 0.  1.
    10030    2    1    2    0    0  0.00000000000E+00  0.00000000000E+00  0.50546185749E+02  0.22014018602E+04  0.22008214906E+04 0.  0.
        2    1    3    3  502    0 -0.16394710513E+03  0.41673336015E+03  0.10307040487E+04  0.11237865379E+04  0.25500000920E-02 0. -1.
       -2    1    3    3    0  502  0.16394710513E+03 -0.41673336015E+03 -0.98015786291E+03  0.10776153224E+04  0.25500000920E-02 0.  1.
</event>
<event>
 5   0  0.1146827E-06  0.2198605E+04  0.7818609E-02  0.8519009E-01
        1   -1    0    0  501    0  0.00000000000E+00  0.00000000000E+00  0.16955960627E+04  0.16955960627E+04  0.50400001928E-02 0.  1.
       -1   -1    0    0    0  501  0.00000000000E+00  0.00000000000E+00 -0.71270875509E+03  0.71270875511E+03  0.50400001928E-02 0. -1.
    10030    2    1    2    0    0  0.00000000000E+00  0.00000000000E+00  0.98288730764E+03  0.24083048178E+04  0.21986051569E+04 0.  0.
        4    1    3    3  502    0  0.61923897267E+03  0.11978360779E+03  0.14776855734E+04  0.16066615339E+04  0.12699999809E+01 0.  1.
       -4    1    3    3    0  502 -0.61923897267E+03 -0.11978360779E+03 -0.49479826573E+03  0.80164328391E+03  0.12699999809E+01 0. -1.
</event>
<event>
 5   0  0.2524749E-06  0.2200448E+04  0.7818609E-02  0.8518242E-01
        2   -1    0    0  501    0  0.00000000000E+00  0.00000000000E+00  0.21638802737E+04  0.21638802737E+04  0.25500000920E-02 0.  1.
       -2   -1    0    0    0  501  0.00000000000E+00  0.00000000000E+00 -0.55940839434E+03  0.55940839434E+03  0.25500000920E-02 0. -1.
    10030    2    1    2    0    0  0.00000000000E+00  0.00000000000E+00  0.16044718793E+04  0.27232886680E+04  0.22004479448E+04 0.  0.
        4    1    3    3  502    0 -0.93889623567E+03 -0.11027630159E+03  0.10564467146E+03  0.95123572975E+03  0.12699999809E+01 0. -1.
       -4    1    3    3    0  502  0.93889623567E+03  0.11027630159E+03  0.14988272079E+04  0.17720529382E+04  0.12699999809E+01 0.  1.
</event>
<event>
 5   0  0.1144271E-06  0.2200213E+04  0.7818609E-02  0.8518340E-01
        1   -1    0    0  501    0  0.00000000000E+00  0.00000000000E+00  0.86792733403E+03  0.86792733404E+03  0.50400001928E-02 0.  1.
       -1   -1    0    0    0  501  0.00000000000E+00  0.00000000000E+00 -0.13943956695E+04  0.13943956695E+04  0.50400001928E-02 0. -1.
    10030    2    1    2    0    0  0.00000000000E+00  0.00000000000E+00 -0.52646833548E+03  0.22623230036E+04  0.22002128225E+04 0.  0.
        3    1    3    3  502    0 -0.94297539728E+03 -0.55119558154E+03 -0.12832463524E+03  0.10997665167E+04  0.10100000352E+00 0. -1.
       -3    1    3    3    0  502  0.94297539728E+03  0.55119558154E+03 -0.39814370023E+03  0.11625564869E+04  0.10100000352E+00 0.  1.
</event>
<event>
 5   0  0.2556869E-06  0.2196793E+04  0.7818609E-02  0.8519764E-01
       -2   -1    0    0    0  501  0.00000000000E+00  0.00000000000E+00  0.14379754339E+04  0.14379754339E+04  0.25500000920E-02 0.  1.
        2   -1    0    0  501    0  0.00000000000E+00  0.00000000000E+00 -0.83900909116E+03  0.83900909116E+03  0.25500000920E-02 0. -1.
    10030    2    1    2    0    0  0.00000000000E+00  0.00000000000E+00  0.59896634278E+03  0.22769845251E+04  0.21967926274E+04 0.  0.
        5    1    3    3  502    0  0.88471695150E+03 -0.20341378038E+03 -0.34143443334E+03  0.96989732064E+03  0.46999998093E+01 0. -1.
       -5    1    3    3    0  502 -0.88471695150E+03  0.20341378038E+03  0.94040077611E+03  0.13070872045E+04  0.46999998093E+01 0.  1.
</event>
<event>
 5   0  0.2556869E-06  0.2199387E+04  0.7818609E-02  0.8518683E-01
        2   -1    0    0  501    0  0.00000000000E+00  0.00000000000E+00  0.25943503651E+04  0.25943503651E+04  0.25500000920E-02 0. -1.
       -2   -1    0    0    0  501  0.00000000000E+00  0.00000000000E+00 -0.46613802008E+03  0.46613802008E+03  0.25500000920E-02 0.  1.
    10030    2    1    2    0    0  0.00000000000E+00  0.00000000000E+00  0.21282123450E+04  0.30604883852E+04  0.21993865896E+04 0.  0.
        5    1    3    3  502    0  0.54684317181E+03  0.93951334946E+03  0.83301149191E+03  0.13695448237E+04  0.46999998093E+01 0.  1.
       -5    1    3    3    0  502 -0.54684317181E+03 -0.93951334946E+03  0.12952008531E+04  0.16909435615E+04  0.46999998093E+01 0. -1.
</event>
<event>
 5   0  0.2581058E-06  0.2197737E+04  0.7818609E-02  0.8519371E-01
        2   -1    0    0  501    0  0.00000000000E+00  0.00000000000E+00  0.12433507169E+04  0.12433507169E+04  0.25500000920E-02 0. -1.
       -2   -1    0    0    0  501  0.00000000000E+00  0.00000000000E+00 -0.97117554525E+03  0.97117554526E+03  0.25500000920E-02 0.  1.
    10030    2    1    2    0    0  0.00000000000E+00  0.00000000000E+00  0.27217517167E+03  0.22145262622E+04  0.21977368454E+04 0.  0.
        1    1    3    3  502    0 -0.10282448707E+04  0.92819866739E+01 -0.25434914057E+03  0.10592767130E+04  0.50400001928E-02 0.  1.
       -1    1    3    3    0  502  0.10282448707E+04 -0.92819866739E+01  0.52652431224E+03  0.11552495492E+04  0.50400001928E-02 0. -1.
</event>
<event>
 5   0  0.1146827E-06  0.2198858E+04  0.7818609E-02  0.8518904E-01
        1   -1    0    0  501    0  0.00000000000E+00  0.00000000000E+00  0.93209170064E+03  0.93209170066E+03  0.50400001928E-02 0.  1.
       -1   -1    0    0    0  501  0.00000000000E+00  0.00000000000E+00 -0.12968076356E+04  0.12968076356E+04  0.50400001928E-02 0. -1.
    10030    2    1    2    0    0  0.00000000000E+00  0.00000000000E+00 -0.36471593492E+03  0.22288993362E+04  0.21988575529E+04 0.  0.
        4    1    3    3  502    0 -0.25371445747E+03  0.44429467107E+03 -0.11687787479E+04  0.12758582034E+04  0.12699999809E+01 0. -1.
       -4    1    3    3    0  502  0.25371445747E+03 -0.44429467107E+03  0.80406281302E+03  0.95304113282E+03  0.12699999809E+01 0.  1.
</event>
<event>
 5   0  0.1144271E-06  0.2200989E+04  0.7818609E-02  0.8518017E-01
       -1   -1    0    0    0  501  0.00000000000E+00  0.00000000000E+00  0.12192803767E+04  0.12192803768E+04  0.50400001928E-02 0.  1.
        1   -1    0    0  501    0  0.00000000000E+00  0.00000000000E+00 -0.99328105186E+03  0.99328105187E+03  0.50400001928E-02 0. -1.
    10030    2    1    2    0    0  0.00000000000E+00  0.00000000000E+00  0.22599932489E+03  0.22125614286E+04  0.22009889551E+04 0.  0.
        3    1    3    3  502    0 -0.77783466959E+03 -0.78692364644E+02  0.89158392216E+03  0.11858082315E+04  0.10100000352E+00 0.  1.
       -3    1    3    3    0  502  0.77783466959E+03  0.78692364644E+02 -0.66558459727E+03  0.10267531971E+04  0.10100000352E+00 0. -1.
</event>
<event>
 5   0  0.1144271E-06  0.2198943E+04  0.7818609E-02  0.8518868E-01
       -1   -1    0    0    0  501  0.00000000000E+00  0.00000000000E+00  0.10367160384E+04  0.10367160384E+04  0.50400001928E-02 0. -1.
        1   -1    0    0  501    0  0.00000000000E+00  0.00000000000E+00 -0.11660258342E+04  0.11660258342E+04  0.50400001928E-02 0.  1.
    10030    2    1    2    0    0  0.00000000000E+00  0.00000000000E+00 -0.12930979573E+03  0.22027418726E+04  0.21989430948E+04 0.  0.
        3    1    3    3  502    0 -0.82838337851E+03  0.85213564142E+02  0.65446918468E+03  0.10591554641E+04  0.10100000352E+00 0. -1.
       -3    1    3    3    0  502  0.82838337851E+03 -0.85213564142E+02 -0.78377898041E+03  0.11435864085E+04  0.10100000352E+00 0.  1.
</event>
<event>
 5   0  0.2524749E-06  0.2201732E+04  0.7818609E-02  0.8517708E-01
        2   -1    0    0  501    0  0.00000000000E+00  0.00000000000E+00  0.10137893523E+04  0.10137893523E+04  0.25500000920E-02 0. -1.
       -2   -1    0    0    0  501  0.00000000000E+00  0.00000000000E+00 -0.11954216482E+04  0.11954216482E+04  0.25500000920E-02 0.  1.
    10030    2    1    2    0    0  0.00000000000E+00  0.00000000000E+00 -0.18163229591E+03  0.22092110004E+04  0.22017318078E+04 0.  0.
        4    1    3    3  502    0 -0.79250289595E+03  0.25742948539E+03 -0.81268571284E+03  0.11639546644E+04  0.12699999809E+01 0.  1.
       -4    1    3    3    0  502  0.79250289595E+03 -0.25742948539E+03  0.63105341693E+03  0.10452563360E+04  0.12699999809E+01 0. -1.
</event>
<event>
 5   0  0.1137869E-06  0.2199532E+04  0.7818609E-02  0.8518623E-01
        1   -1    0    0  501    0  0.00000000000E+00  0.00000000000E+00  0.11989431647E+04  0.11989431647E+04  0.50400001928E-02 0.  1.
       -1   -1    0    0    0  501  0.00000000000E+00  0.00000000000E+00 -0.10087924867E+04  0.10087924867E+04  0.50400001928E-02 0. -1.
    10030    2    1    2    0    0  0.00000000000E+00  0.00000000000E+00  0.19015067802E+03  0.22077356515E+04  0.21995316380E+04 0.  0.
        5    1    3    3  502    0  0.10190276131E+04 -0.68515054273E+02 -0.31430765461E+03  0.10686079640E+04  0.46999998093E+01 0. -1.
       -5    1    3    3    0  502 -0.10190276131E+04  0.68515054273E+02  0.50445833263E+03  0.11391276875E+04  0.46999998093E+01 0.  1.
</event>
<event>
 5   0  0.1146827E-06  0.2200233E+04  0.7818609E-02  0.8518331E-01
       -1   -1    0    0    0  501  0.00000000000E+00  0.00000000000E+00  0.49543218850E+03  0.49543218852E+03  0.50400001928E-02 0. -1.
        1   -1    0    0  501    0  0.00000000000E+00  0.00000000000E+00 -0.24428290644E+04  0.24428290644E+04  0.50400001928E-02 0.  1.
    10030    2    1    2    0    0  0.00000000000E+00  0.00000000000E+00 -0.19473968759E+04  0.29382612530E+04  0.22002328509E+04 0.  0.
        4    1    3    3  502    0  0.29306729252E+03 -0.97717612583E+03 -0.15234893307E+04  0.18335165591E+04  0.12699999809E+01 0.  1.
       -4    1    3    3    0  502 -0.29306729252E+03  0.97717612583E+03 -0.42390754525E+03  0.11047446939E+04  0.12699999809E+01 0. -1.
</event>
<event>
 5   0  0.1082209E-06  0.2205464E+04  0.7818609E-02  0.8516157E-01
        1   -1    0    0  501    0  0.00000000000E+00  0.00000000000E+00  0.15763865254E+04  0.15763865254E+04  0.50400001928E-02 0.  1.
       -1   -1    0    0    0  501  0.00000000000E+00  0.00000000000E+00 -0.77139559947E+03  0.77139559949E+03  0.50400001928E-02 0. -1.
    10030    2    1    2    0    0  0.00000000000E+00  0.00000000000E+00  0.80499092594E+03  0.23477821249E+04  0.22054637869E+04 0.  0.
        2    1    3    3  502    0  0.11765414793E+03 -0.10822387280E+04  0.21526385302E+03  0.11096944126E+04  0.25500000920E-02 0. -1.
       -2    1    3    3    0  502 -0.11765414793E+03  0.10822387280E+04  0.58972707292E+03  0.12380877123E+04  0.25500000920E-02 0.  1.
</event>
<event>
 5   0  0.2532239E-06  0.2199812E+04  0.7818609E-02  0.8518506E-01
       -2   -1    0    0    0  501  0.00000000000E+00  0.00000000000E+00  0.40842972345E+03  0.40842972346E+03  0.25500000920E-02 0. -1.
        2   -1    0    0  501    0  0.00000000000E+00  0.00000000000E+00 -0.29620607876E+04  0.29620607876E+04  0.25500000920E-02 0.  1.
    10030    2    1    2    0    0  0.00000000000E+00  0.00000000000E+00 -0.25536310642E+04  0.33704905111E+04  0.21998124178E+04 0.  0.
        3    1    3    3  502    0  0.85017295339E+03 -0.27144710201E+03 -0.22618436087E+04  0.24315456196E+04  0.10100000352E+00 0.  1.
       -3    1    3    3    0  502 -0.85017295339E+03  0.27144710201E+03 -0.29178745551E+03  0.93894489149E+03  0.10100000352E+00 0. -1.
</event>
<event>
 5   0  0.2524749E-06  0.2203919E+04  0.7818609E-02  0.8516799E-01
       -2   -1    0    0    0  501  0.00000000000E+00  0.00000000000E+00  0.61446542268E+03  0.61446542269E+03  0.25500000920E-02 0. -1.
        2   -1    0    0  501    0  0.00000000000E+00  0.00000000000E+00 -0.19762137980E+04  0.19762137980E+04  0.25500000920E-02 0.  1.
    10030    2    1    2    0    0  0.00000000000E+00  0.00000000000E+00 -0.13617483753E+04  0.25906792206E+04  0.22039192786E+04 0.  0.
        4    1    3    3  502    0  0.71638787306E+03  0.44769698393E+02 -0.16637232770E+04  0.18119582406E+04  0.12699999809E+01 0.  1.
       -4    1    3    3    0  502 -0.71638787306E+03 -0.44769698393E+02  0.30197490169E+03  0.77872098002E+03  0.12699999809E+01 0. -1.
</event>
<event>
 5   0  0.2581058E-06  0.2199795E+04  0.7818609E-02  0.8518513E-01
       -2   -1    0    0    0  501  0.00000000000E+00  0.00000000000E+00  0.12713855600E+04  0.12713855600E+04  0.25500000920E-02 0. -1.
        2   -1    0    0  501    0  0.00000000000E+00  0.00000000000E+00 -0.95154048914E+03  0.95154048914E+03  0.25500000920E-02 0.  1.
    10030    2    1    2    0    0  0.00000000000E+00  0.00000000000E+00  0.31984507085E+03  0.22229260491E+04  0.21997952974E+04 0.  0.
        1    1    3    3  502    0 -0.45864320992E+03 -0.29584966907E+03 -0.80505005268E+03  0.97261822317E+03  0.50400001928E-02 0.  1.
       -1    1    3    3    0  502  0.45864320992E+03  0.29584966907E+03  0.11248951235E+04  0.12503078260E+04  0.50400001928E-02 0. -1.
</event>
<event>
 5   0  0.2532239E-06  0.2199411E+04  0.7818609E-02  0.8518673E-01
        2   -1    0    0  501    0  0.00000000000E+00  0.00000000000E+00  0.16779272915E+04  0.16779272915E+04  0.25500000920E-02 0. -1.
       -2   -1    0    0    0  501  0.00000000000E+00  0.00000000000E+00 -0.72074152500E+03  0.72074152500E+03  0.25500000920E-02 0.  1.
    10030    2    1    2    0    0  0.00000000000E+00  0.00000000000E+00  0.95718576652E+03  0.23986688165E+04  0.21994107165E+04 0.  0.
        3    1    3    3  502    0  0.49458417658E+03 -0.96544612697E+03  0.67566252649E+03  0.12779748009E+04  0.10100000352E+00 0. -1.
       -3    1    3    3    0  502 -0.49458417658E+03  0.96544612697E+03  0.28152324003E+03  0.11206940156E+04  0.10100000352E+00 0.  1.
</event>
<event>
 5   0  0.1137869E-06  0.2200111E+04  0.7818609E-02  0.8518382E-01
        1   -1    0    0  501    0  0.00000000000E+00  0.00000000000E+00  0.17644509676E+04  0.17644509676E+04  0.50400001928E-02 0.  1.
       -1   -1    0    0    0  501  0.00000000000E+00  0.00000000000E+00 -0.68583479528E+03  0.68583479530E+03  0.50400001928E-02 0. -1.
    10030    2    1    2    0    0  0.00000000000E+00  0.00000000000E+00  0.10786161723E+04  0.24502857629E+04  0.22001107865E+04 0.  0.
        5    1    3    3  502    0 -0.50131543624E+03 -0.32193893447E+03  0.15691967373E+04  0.16785000252E+04  0.46999998093E+01 0.  1.
       -5    1    3    3    0  502  0.50131543624E+03  0.32193893447E+03 -0.49058056502E+03  0.77178573770E+03  0.46999998093E+01 0. -1.
</event>
<event>
 5   0  0.1146827E-06  0.2200597E+04  0.7818609E-02  0.8518180E-01
       -1   -1    0    0    0  501  0.00000000000E+00  0.00000000000E+00  0.58024476618E+03  0.58024476620E+03  0.50400001928E-02 0.  1.
        1   -1    0    0  501    0  0.00000000000E+00  0.00000000000E+00 -0.20864582741E+04  0.20864582741E+04  0.50400001928E-02 0. -1.
    10030    2    1    2    0    0  0.00000000000E+00  0.00000000000E+00 -0.15062135079E+04  0.26667030403E+04  0.22005967313E+04 0.  0.
        4    1    3    3  502    0 -0.77257113930E+03 -0.31733271313E+03 -0.16211280944E+04  0.18236293832E+04  0.12699999809E+01 0. -1.
       -4    1    3    3    0  502  0.77257113930E+03  0.31733271313E+03  0.11491458648E+03  0.84307365704E+03  0.12699999809E+01 0.  1.
</event>
<event>
 5   0  0.1137869E-06  0.2199946E+04  0.7818609E-02  0.8518451E-01
       -1   -1    0    0    0  501  0.00000000000E+00  0.00000000000E+00  0.64576723402E+03  0.64576723404E+03  0.50400001928E-02 0. -1.
        1   -1    0    0  501    0  0.00000000000E+00  0.00000000000E+00 -0.18736482712E+04  0.18736482713E+04  0.50400001928E-02 0.  1.
    10030    2    1    2    0    0  0.00000000000E+00  0.00000000000E+00 -0.12278810372E+04  0.25194155053E+04  0.21999460554E+04 0.  0.
        5    1    3    3  502    0 -0.35298547412E+01  0.98426932433E+03 -0.11762875304E+04  0.15337773655E+04  0.46999998093E+01 0.  1.
       -5    1    3    3    0  502  0.35298547412E+01 -0.98426932433E+03 -0.51593506815E+02  0.98563813981E+03  0.46999998093E+01 0. -1.
</event>
<event>
 5   0  0.1107101E-06  0.2203370E+04  0.7818609E-02  0.8517027E-01
       -1   -1    0    0    0  501  0.00000000000E+00  0.00000000000E+00  0.96990734583E+03  0.96990734584E+03  0.50400001928E-02 0.  1.
        1   -1    0    0  501    0  0.00000000000E+00  0.00000000000E+00 -0.12513670303E+04  0.12513670303E+04  0.50400001928E-02 0. -1.
    10030    2    1    2    0    0  0.00000000000E+00  0.00000000000E+00 -0.28145968445E+03  0.22212743761E+04  0.22033702140E+04 0.  0.
        1    1    3    3  502    0  0.23866450638E+03  0.97072941355E+03  0.32610287655E+03  0.10514843922E+04  0.50400001928E-02 0.  1.
       -1    1    3    3    0  502 -0.23866450638E+03 -0.97072941355E+03 -0.60756256100E+03  0.11697899839E+04  0.50400001928E-02 0. -1.
</event>
<event>
 5   0  0.2524749E-06  0.2199882E+04  0.7818609E-02  0.8518477E-01
       -2   -1    0    0    0  501  0.00000000000E+00  0.00000000000E+00  0.69624993311E+03  0.69624993312E+03  0.25500000920E-02 0. -1.
        2   -1    0    0  501    0  0.00000000000E+00  0.00000000000E+00 -0.17376952955E+04  0.17376952955E+04  0.25500000920E-02 0.  1.
    10030    2    1    2    0    0  0.00000000000E+00  0.00000000000E+00 -0.10414453624E+04  0.24339452286E+04  0.21998820271E+04 0.  0.
        4    1    3    3  502    0  0.13384435001E+03  0.46911162845E+03 -0.16114586911E+04  0.16836807167E+04  0.12699999809E+01 0.  1.
       -4    1    3    3    0  502 -0.13384435001E+03 -0.46911162845E+03  0.57001332870E+03  0.75026451187E+03  0.12699999809E+01 0. -1.
</event>
<event>
 5   0  0.2581058E-06  0.2199871E+04  0.7818609E-02  0.8518482E-01
       -2   -1    0    0    0  501  0.00000000000E+00  0.00000000000E+00  0.15974922753E+04  0.15974922753E+04  0.25500000920E-02 0. -1.
        2   -1    0    0  501    0  0.00000000000E+00  0.00000000000E+00 -0.75734808790E+03  0.75734808791E+03  0.25500000920E-02 0.  1.
    10030    2    1    2    0    0  0.00000000000E+00  0.00000000000E+00  0.84014418736E+03  0.23548403632E+04  0.21998706508E+04 0.  0.
        1    1    3    3  502    0  0.86646890197E+02 -0.39796256319E+03  0.15138006430E+04  0.15676333347E+04  0.50400001928E-02 0. -1.
       -1    1    3    3    0  502 -0.86646890197E+02  0.39796256319E+03 -0.67365645569E+03  0.78720702842E+03  0.50400001928E-02 0.  1.
</event>
<event>
 5   0  0.2606154E-06  0.2198738E+04  0.7818609E-02  0.8518954E-01
       -2   -1    0    0    0  501  0.00000000000E+00  0.00000000000E+00  0.63691898202E+03  0.63691898203E+03  0.25500000920E-02 0.  1.
        2   -1    0    0  501    0  0.00000000000E+00  0.00000000000E+00 -0.18975917117E+04  0.18975917117E+04  0.25500000920E-02 0. -1.
    10030    2    1    2    0    0  0.00000000000E+00  0.00000000000E+00 -0.12606727296E+04  0.25345106937E+04  0.21987379847E+04 0.  0.
        2    1    3    3  502    0  0.55595729187E+03 -0.11082311786E+03 -0.17161159509E+04  0.18073251592E+04  0.25500000920E-02 0. -1.
       -2    1    3    3    0  502 -0.55595729187E+03  0.11082311786E+03  0.45544322129E+03  0.72718553455E+03  0.25500000920E-02 0.  1.
</event>
<event>
 5   0  0.1144271E-06  0.2200467E+04  0.7818609E-02  0.8518234E-01
        1   -1    0    0  501    0  0.00000000000E+00  0.00000000000E+00  0.79283498616E+03  0.79283498618E+03  0.50400001928E-02 0. -1.
       -1   -1    0    0    0  501  0.00000000000E+00  0.00000000000E+00 -0.15268168690E+04  0.15268168690E+04  0.50400001928E-02 0.  1.
    10030    2    1    2    0    0  0.00000000000E+00  0.00000000000E+00 -0.73398188281E+03  0.23196518552E+04  0.22004670697E+04 0.  0.
        3    1    3    3  502    0 -0.22752169722E+03 -0.34905441054E+03 -0.14404319875E+04  0.14994830526E+04  0.10100000352E+00 0.  1.
       -3    1    3    3    0  502  0.22752169722E+03  0.34905441054E+03  0.70645010464E+03  0.82016880261E+03  0.10100000352E+00 0. -1.
</event>
<event>
 5   0  0.2532239E-06  0.2199296E+04  0.7818609E-02  0.8518721E-01
        2   -1    0    0  501    0  0.00000000000E+00  0.00000000000E+00  0.13171247944E+04  0.13171247944E+04  0.25500000920E-02 0. -1.
       -2   -1    0    0    0  501  0.00000000000E+00  0.00000000000E+00 -0.91807944861E+03  0.91807944862E+03  0.25500000920E-02 0.  1.
    10030    2    1    2    0    0  0.00000000000E+00  0.00000000000E+00  0.39904534578E+03  0.22352042430E+04  0.21992955281E+04 0.  0.
        3    1    3    3  502    0 -0.23102613896E+03 -0.99706850178E+03 -0.20917050508E+03  0.10446391648E+04  0.10100000352E+00 0.  1.
       -3    1    3    3    0  502  0.23102613896E+03  0.99706850178E+03  0.60821585086E+03  0.11905650783E+04  0.10100000352E+00 0. -1.
</event>
<event>
 5   0  0.2556869E-06  0.2199930E+04  0.7818609E-02  0.8518457E-01
        2   -1    0    0  501    0  0.00000000000E+00  0.00000000000E+00  0.19577096980E+04  0.19577096980E+04  0.25500000920E-02 0.  1.
       -2   -1    0    0    0  501  0.00000000000E+00  0.00000000000E+00 -0.61802978348E+03  0.61802978349E+03  0.25500000920E-02 0. -1.
    10030    2    1    2    0    0  0.00000000000E+00  0.00000000000E+00  0.13396799145E+04  0.25757394815E+04  0.21999299087E+04 0.  0.
        5    1    3    3  502    0 -0.88695964496E+03 -0.64994954230E+03  0.63737208359E+03  0.12709827230E+04  0.46999998093E+01 0. -1.
       -5    1    3    3    0  502  0.88695964496E+03  0.64994954230E+03  0.70230783092E+03  0.13047567584E+04  0.46999998093E+01 0.  1.
</event>
<event>
 5   0  0.2581058E-06  0.2200213E+04  0.7818609E-02  0.8518339E-01
        2   -1    0    0  501    0  0.00000000000E+00  0.00000000000E+00  0.17821107824E+04  0.17821107824E+04  0.25500000920E-02 0. -1.
       -2   -1    0    0    0  501  0.00000000000E+00  0.00000000000E+00 -0.67910165816E+03  0.67910165817E+03  0.25500000920E-02 0.  1.
    10030    2    1    2    0    0  0.00000000000E+00  0.00000000000E+00  0.11030091242E+04  0.24612124405E+04  0.22002130691E+04 0.  0.
        1    1    3    3  502    0  0.56418631176E+03  0.14530785957E+02  0.16078303851E+04  0.17040058349E+04  0.50400001928E-02 0. -1.
       -1    1    3    3    0  502 -0.56418631176E+03 -0.14530785957E+02 -0.50482126090E+03  0.75720660562E+03  0.50400001928E-02 0.  1.
</event>
<event>
 5   0  0.1144271E-06  0.2199786E+04  0.7818609E-02  0.8518517E-01
        1   -1    0    0  501    0  0.00000000000E+00  0.00000000000E+00  0.14595971305E+04  0.14595971305E+04  0.50400001928E-02 0. -1.
       -1   -1    0    0    0  501  0.00000000000E+00  0.00000000000E+00 -0.82883480436E+03  0.82883480437E+03  0.50400001928E-02 0.  1.
    10030    2    1    2    0    0  0.00000000000E+00  0.00000000000E+00  0.63076232615E+03  0.22884319349E+04  0.21997862643E+04 0.  0.
        3    1    3    3  502    0 -0.71494414277E+03  0.34933641902E+03  0.11053114098E+04  0.13619450737E+04  0.10100000352E+00 0. -1.
       -3    1    3    3    0  502  0.71494414277E+03 -0.34933641902E+03 -0.47454908367E+03  0.92648686118E+03  0.10100000352E+00 0.  1.
</event>
<event>
 5   0  0.1146827E-06  0.2199328E+04  0.7818609E-02  0.8518708E-01
        1   -1    0    0  501    0  0.00000000000E+00  0.00000000000E+00  0.25073458849E+04  0.25073458849E+04  0.50400001928E-02 0.  1.
       -1   -1    0    0    0  501  0.00000000000E+00  0.00000000000E+00 -0.48228703459E+03  0.48228703462E+03  0.50400001928E-02 0. -1.
    10030    2    1    2    0    0  0.00000000000E+00  0.00000000000E+00  0.20250588503E+04  0.29896329195E+04  0.21993275441E+04 0.  0.
        4    1    3    3  502    0  0.86057804796E+03  0.11868919499E+03  0.96030987199E+02  0.87401674186E+03  0.12699999809E+01 0. -1.
       -4    1    3    3    0  502 -0.86057804796E+03 -0.11868919499E+03  0.19290278631E+04  0.21156161777E+04  0.12699999809E+01 0.  1.
</event>
<event>
 5   0  0.1144271E-06  0.2194017E+04  0.7818609E-02  0.8520922E-01
       -1   -1    0    0    0  501  0.00000000000E+00  0.00000000000E+00  0.92849523855E+03  0.92849523856E+03  0.50400001928E-02 0. -1.
        1   -1    0    0  501    0  0.00000000000E+00  0.00000000000E+00 -0.12961057143E+04  0.12961057143E+04  0.50400001928E-02 0.  1.
    10030    2    1    2    0    0  0.00000000000E+00  0.00000000000E+00 -0.36761047576E+03  0.22246009529E+04  0.21940173057E+04 0.  0.
        3    1    3    3  502    0 -0.72437754518E+02  0.51817252186E+03  0.79383336829E+03  0.95074782014E+03  0.10100000352E+00 0. -1.
       -3    1    3    3    0  502  0.72437754518E+02 -0.51817252186E+03 -0.11614438441E+04  0.12738531327E+04  0.10100000352E+00 0.  1.
</event>
<event>
 5   0  0.2524749E-06  0.2199478E+04  0.7818609E-02  0.8518646E-01
       -2   -1    0    0    0  501  0.00000000000E+00  0.00000000000E+00  0.12324698863E+04  0.12324698863E+04  0.25500000920E-02 0.  1.
        2   -1    0    0  501    0  0.00000000000E+00  0.00000000000E+00 -0.98130219071E+03  0.98130219071E+03  0.25500000920E-02 0. -1.
    10030    2    1    2    0    0  0.00000000000E+00  0.00000000000E+00  0.25116769561E+03  0.22137720770E+04  0.21994775738E+04 0.  0.
        4    1    3    3  502    0  0.45795560600E+03  0.17933015564E+03  0.11156132402E+04  0.12192116946E+04  0.12699999809E+01 0.  1.
       -4    1    3    3    0  502 -0.45795560600E+03 -0.17933015564E+03 -0.86444554457E+03  0.99456038239E+03  0.12699999809E+01 0. -1.
</event>
<event>
 5   0  0.2556869E-06  0.2199846E+04  0.7818609E-02  0.8518492E-01
        2   -1    0    0  501    0  0.00000000000E+00  0.00000000000E+00  0.77869721893E+03  0.77869721894E+03  0.25500000920E-02 0. -1.
       -2   -1    0    0    0  501  0.00000000000E+00  0.00000000000E+00 -0.15536597346E+04  0.15536597346E+04  0.25500000920E-02 0.  1.
    10030    2    1    2    0    0  0.00000000000E+00  0.00000000000E+00 -0.77496251570E+03  0.23323569536E+04  0.21998459169E+04 0.  0.
        5    1    3    3  502    0 -0.19805028447E+03 -0.59192030882E+03  0.57272950716E+03  0.84713325135E+03  0.46999998093E+01 0. -1.
       -5    1    3    3    0  502  0.19805028447E+03  0.59192030882E+03 -0.13476920229E+04  0.14852237022E+04  0.46999998093E+01 0.  1.
</event>
<event>
 5   0  0.2606154E-06  0.2201284E+04  0.7818609E-02  0.8517894E-01
        2   -1    0    0  501    0  0.00000000000E+00  0.00000000000E+00  0.13337905360E+04  0.13337905360E+04  0.25500000920E-02 0. -1.
       -2   -1    0    0    0  501  0.00000000000E+00  0.00000000000E+00 -0.90824828193E+03  0.90824828193E+03  0.25500000920E-02 0.  1.
    10030    2    1    2    0    0  0.00000000000E+00  0.00000000000E+00  0.42554225410E+03  0.22420388180E+04  0.22012841369E+04 0.  0.
        2    1    3    3  502    0 -0.88332146401E+03  0.65045253785E+03  0.30425415879E+03  0.11383830225E+04  0.25500000920E-02 0.  1.
       -2    1    3    3    0  502  0.88332146401E+03 -0.65045253785E+03  0.12128809531E+03  0.11036557955E+04  0.25500000920E-02 0. -1.
</event>
<event>
 5   0  0.2532239E-06  0.2200154E+04  0.7818609E-02  0.8518364E-01
       -2   -1    0    0    0  501  0.00000000000E+00  0.00000000000E+00  0.11786451050E+04  0.11786451050E+04  0.25500000920E-02 0. -1.
        2   -1    0    0  501    0  0.00000000000E+00  0.00000000000E+00 -0.10267462829E+04  0.10267462829E+04  0.25500000920E-02 0.  1.
    10030    2    1    2    0    0  0.00000000000E+00  0.00000000000E+00  0.15189882207E+03  0.22053913879E+04  0.22001540677E+04 0.  0.
        3    1    3    3  502    0 -0.16522423888E+03  0.39245343430E+03 -0.94078790713E+03  0.10326667631E+04  0.10100000352E+00 0.  1.
       -3    1    3    3    0  502  0.16522423888E+03 -0.39245343430E+03  0.10926867292E+04  0.11727246248E+04  0.10100000352E+00 0. -1.
</event>
<event>
 5   0  0.2606154E-06  0.2199699E+04  0.7818609E-02  0.8518553E-01
        2   -1    0    0  501    0  0.00000000000E+00  0.00000000000E+00  0.18873959320E+04  0.18873959320E+04  0.25500000920E-02 0. -1.
       -2   -1    0    0    0  501  0.00000000000E+00  0.00000000000E+00 -0.64091976689E+03  0.64091976690E+03  0.25500000920E-02 0.  1.
    10030    2    1    2    0    0  0.00000000000E+00  0.00000000000E+00  0.12464761651E+04  0.25283156989E+04  0.21996993983E+04 0.  0.
        2    1    3    3  502    0  0.58191261543E+03 -0.84492169245E+03  0.16758822272E+03  0.10395194903E+04  0.25500000920E-02 0.  1.
       -2    1    3    3    0  502 -0.58191261543E+03  0.84492169245E+03  0.10788879424E+04  0.14887962085E+04  0.25500000920E-02 0. -1.
</event>
<event>
 5   0  0.2532239E-06  0.2183834E+04  0.7818609E-02  0.8525187E-01
       -2   -1    0    0    0  501  0.00000000000E+00  0.00000000000E+00  0.79281075953E+03  0.79281075953E+03  0.25500000920E-02 0.  1.
        2   -1    0    0  501    0  0.00000000000E+00  0.00000000000E+00 -0.15038676846E+04  0.15038676846E+04  0.25500000920E-02 0. -1.
    10030    2    1    2    0    0  0.00000000000E+00  0.00000000000E+00 -0.71105692505E+03  0.22966784441E+04  0.21838337677E+04 0.  0.
        3    1    3    3  502    0 -0.55025173887E+03  0.72971651045E+03  0.27285749301E+03  0.95378948592E+03  0.10100000352E+00 0.  1.
       -3    1    3    3    0  502  0.55025173887E+03 -0.72971651045E+03 -0.98391441806E+03  0.13428889582E+04  0.10100000352E+00 0. -1.
</event>
<event>
 5   0  0.2532239E-06  0.2199302E+04  0.7818609E-02  0.8518719E-01
       -2   -1    0    0    0  501  0.00000000000E+00  0.00000000000E+00  0.84452642144E+03  0.84452642144E+03  0.25500000920E-02 0.  1.
        2   -1    0    0  501    0  0.00000000000E+00  0.00000000000E+00 -0.14318469656E+04  0.14318469656E+04  0.25500000920E-02 0. -1.
    10030    2    1    2    0    0  0.00000000000E+00  0.00000000000E+00 -0.58732054414E+03  0.22763733870E+04  0.21993022474E+04 0.  0.
        3    1    3    3  502    0  0.48490903324E+03  0.74141239058E+03  0.38063179442E+03  0.96421453865E+03  0.10100000352E+00 0.  1.
       -3    1    3    3    0  502 -0.48490903324E+03 -0.74141239058E+03 -0.96795233856E+03  0.13121588484E+04  0.10100000352E+00 0. -1.
</event>
<event>
 5   0  0.2524749E-06  0.2189787E+04  0.7818609E-02  0.8522691E-01
        2   -1    0    0  501    0  0.00000000000E+00  0.00000000000E+00  0.14365277907E+04  0.14365277907E+04  0.25500000920E-02 0.  1.
       -2   -1    0    0    0  501  0.00000000000E+00  0.00000000000E+00 -0.83450646588E+03  0.83450646589E+03  0.25500000920E-02 0. -1.
    10030    2    1    2    0    0  0.00000000000E+00  0.00000000000E+00  0.60202132481E+03  0.22710342566E+04  0.21897869575E+04 0.  0.
        4    1    3    3  502    0 -0.37412058227E+03  0.69828163097E+03  0.10848482017E+04  0.13433021551E+04  0.12699999809E+01 0.  1.
       -4    1    3    3    0  502  0.37412058227E+03 -0.69828163097E+03 -0.48282687688E+03  0.92773210151E+03  0.12699999809E+01 0. -1.
</event>
<event>
 5   0  0.1137869E-06  0.2200493E+04  0.7818609E-02  0.8518223E-01
       -1   -1    0    0    0  501  0.00000000000E+00  0.00000000000E+00  0.11126648672E+04  0.11126648672E+04  0.50400001928E-02 0. -1.
        1   -1    0    0  501    0  0.00000000000E+00  0.00000000000E+00 -0.10879666470E+04  0.10879666470E+04  0.50400001928E-02 0.  1.
    10030    2    1    2    0    0  0.00000000000E+00  0.00000000000E+00  0.24698220201E+02  0.22006315141E+04  0.22004929127E+04 0.  0.
        5    1    3    3  502    0 -0.97199500143E+03 -0.82885137556E+02 -0.49648146912E+03  0.10946050283E+04  0.46999998093E+01 0.  1.
       -5    1    3    3    0  502  0.97199500143E+03  0.82885137556E+02  0.52117968932E+03  0.11060264858E+04  0.46999998093E+01 0. -1.
</event>
<event>
 5   0  0.1082209E-06  0.2201288E+04  0.7818609E-02  0.8517892E-01
        1   -1    0    0  501    0  0.00000000000E+00  0.00000000000E+00  0.11863952626E+04  0.11863952627E+04  0.50400001928E-02 0.  1.
       -1   -1    0    0    0  501  0.00000000000E+00  0.00000000000E+00 -0.10210905726E+04  0.10210905726E+04  0.50400001928E-02 0. -1.
    10030    2    1    2    0    0  0.00000000000E+00  0.00000000000E+00  0.16530469002E+03  0.22074858353E+04  0.22012878214E+04 0.  0.
        2    1    3    3  502    0  0.12385515838E+03 -0.10026906281E+04  0.52056072616E+03  0.11365351141E+04  0.25500000920E-02 0.  1.
       -2    1    3    3    0  502 -0.12385515838E+03  0.10026906281E+04 -0.35525603614E+03  0.10709507212E+04  0.25500000920E-02 0. -1.
</event>
<event>
 5   0  0.1082209E-06  0.2200158E+04  0.7818609E-02  0.8518363E-01
       -1   -1    0    0    0  501  0.00000000000E+00  0.00000000000E+00  0.15986157590E+04  0.15986157590E+04  0.50400001928E-02 0. -1.
        1   -1    0    0  501    0  0.00000000000E+00  0.00000000000E+00 -0.75701326471E+03  0.75701326473E+03  0.50400001928E-02 0.  1.
    10030    2    1    2    0    0  0.00000000000E+00  0.00000000000E+00  0.84160249432E+03  0.23556290238E+04  0.22001575714E+04 0.  0.
        2    1    3    3  502    0 -0.53378947144E+03 -0.94091700181E+03  0.63471261120E+03  0.12542392527E+04  0.25500000920E-02 0. -1.
       -2    1    3    3    0  502  0.53378947144E+03  0.94091700181E+03  0.20688988312E+03  0.11013897711E+04  0.25500000920E-02 0.  1.
</event>
<event>
 5   0  0.1144271E-06  0.2199746E+04  0.7818609E-02  0.8518534E-01
        1   -1    0    0  501    0  0.00000000000E+00  0.00000000000E+00  0.16758276638E+04  0.16758276638E+04  0.50400001928E-02 0. -1.
       -1   -1    0    0    0  501  0.00000000000E+00  0.00000000000E+00 -0.72186443516E+03  0.72186443518E+03  0.50400001928E-02 0.  1.
    10030    2    1    2    0    0  0.00000000000E+00  0.00000000000E+00  0.95396322865E+03  0.23976920990E+04  0.21997457944E+04 0.  0.
        3    1    3    3  502    0 -0.38697690362E+03 -0.75413453053E+03  0.12409446741E+04  0.15028019525E+04  0.10100000352E+00 0. -1.
       -3    1    3    3    0  502  0.38697690362E+03  0.75413453053E+03 -0.28698144544E+03  0.89489014650E+03  0.10100000352E+00 0.  1.
</event>
<event>
 5   0  0.2581058E-06  0.2198288E+04  0.7818609E-02  0.8519141E-01
        2   -1    0    0  501    0  0.00000000000E+00  0.00000000000E+00  0.16349467604E+04  0.16349467604E+04  0.25500000920E-02 0. -1.
       -2   -1    0    0    0  501  0.00000000000E+00  0.00000000000E+00 -0.73893400490E+03  0.73893400490E+03  0.25500000920E-02 0.  1.
    10030    2    1    2    0    0  0.00000000000E+00  0.00000000000E+00  0.89601275547E+03  0.23738807653E+04  0.21982882044E+04 0.  0.
        1    1    3    3  502    0  0.74644634835E+03 -0.23177432902E+03 -0.38652003410E+03  0.87195139047E+03  0.50400001928E-02 0.  1.
       -1    1    3    3    0  502 -0.74644634835E+03  0.23177432902E+03  0.12825327896E+04  0.15019293748E+04  0.50400001928E-02 0. -1.
</event>
<event>
 5   0  0.1144271E-06  0.2199511E+04  0.7818609E-02  0.8518632E-01
        1   -1    0    0  501    0  0.00000000000E+00  0.00000000000E+00  0.11427005393E+04  0.11427005394E+04  0.50400001928E-02 0. -1.
       -1   -1    0    0    0  501  0.00000000000E+00  0.00000000000E+00 -0.10584244549E+04  0.10584244549E+04  0.50400001928E-02 0.  1.
    10030    2    1    2    0    0  0.00000000000E+00  0.00000000000E+00  0.84276084496E+02  0.22011249942E+04  0.21995110324E+04 0.  0.
        3    1    3    3  502    0 -0.74090898393E+03 -0.41126802822E+03 -0.65935754588E+03  0.10737038218E+04  0.10100000352E+00 0.  1.
       -3    1    3    3    0  502  0.74090898393E+03  0.41126802822E+03  0.74363363038E+03  0.11274211724E+04  0.10100000352E+00 0. -1.
</event>
<event>
 5   0  0.2532239E-06  0.2200127E+04  0.7818609E-02  0.8518375E-01
       -2   -1    0    0    0  501  0.00000000000E+00  0.00000000000E+00  0.10808894126E+04  0.10808894126E+04  0.25500000920E-02 0.  1.
        2   -1    0    0  501    0  0.00000000000E+00  0.00000000000E+00 -0.11195775108E+04  0.11195775108E+04  0.25500000920E-02 0. -1.
    10030    2    1    2    0    0  0.00000000000E+00  0.00000000000E+00 -0.38688098226E+02  0.22004669234E+04  0.22001267945E+04 0.  0.
        3    1    3    3  502    0 -0.56044359169E+03  0.59570211228E+03  0.71642003174E+03  0.10872974285E+04  0.10100000352E+00 0.  1.
       -3    1    3    3    0  502  0.56044359169E+03 -0.59570211228E+03 -0.75510812996E+03  0.11131694948E+04  0.10100000352E+00 0. -1.
</event>
<event>
 5   0  0.1107101E-06  0.2200419E+04  0.7818609E-02  0.8518254E-01
       -1   -1    0    0    0  501  0.00000000000E+00  0.00000000000E+00  0.12838110407E+04  0.12838110407E+04  0.50400001928E-02 0. -1.
        1   -1    0    0  501    0  0.00000000000E+00  0.00000000000E+00 -0.94286535159E+03  0.94286535160E+03  0.50400001928E-02 0.  1.
    10030    2    1    2    0    0  0.00000000000E+00  0.00000000000E+00  0.34094568912E+03  0.22266763923E+04  0.22004190040E+04 0.  0.
        1    1    3    3  502    0  0.10144398121E+04 -0.41866051328E+03  0.24948264785E+03  0.11254360708E+04  0.50400001928E-02 0.  1.
       -1    1    3    3    0  502 -0.10144398121E+04  0.41866051328E+03  0.91463041271E+02  0.11012403215E+04  0.50400001928E-02 0. -1.
</event>
<event>
 5   0  0.2524749E-06  0.2199117E+04  0.7818609E-02  0.8518796E-01
       -2   -1    0    0    0  501  0.00000000000E+00  0.00000000000E+00  0.95670151637E+03  0.95670151637E+03  0.25500000920E-02 0.  1.
        2   -1    0    0  501    0  0.00000000000E+00  0.00000000000E+00 -0.12637471373E+04  0.12637471373E+04  0.25500000920E-02 0. -1.
    10030    2    1    2    0    0  0.00000000000E+00  0.00000000000E+00 -0.30704562089E+03  0.22204486536E+04  0.21991169160E+04 0.  0.
        4    1    3    3  502    0  0.73848848668E+03 -0.73270695843E+03 -0.51307029215E+03  0.11599428734E+04  0.12699999809E+01 0. -1.
       -4    1    3    3    0  502 -0.73848848668E+03  0.73270695843E+03  0.20602467126E+03  0.10605057803E+04  0.12699999809E+01 0.  1.
</event>
<event>
 5   0  0.2524749E-06  0.2200157E+04  0.7818609E-02  0.8518363E-01
        2   -1    0    0  501    0  0.00000000000E+00  0.00000000000E+00  0.11170172372E+04  0.11170172373E+04  0.25500000920E-02 0. -1.
       -2   -1    0    0    0  501  0.00000000000E+00  0.00000000000E+00 -0.10833962356E+04  0.10833962356E+04  0.25500000920E-02 0.  1.
    10030    2    1    2    0    0  0.00000000000E+00  0.00000000000E+00  0.33621001691E+02  0.22004134728E+04  0.22001566034E+04 0.  0.
        4    1    3    3  502    0  0.82747159129E+03  0.72457239447E+03  0.38173419877E+02  0.11005331490E+04  0.12699999809E+01 0.  1.
       -4    1    3    3    0  502 -0.82747159129E+03 -0.72457239447E+03 -0.45524181866E+01  0.10998803238E+04  0.12699999809E+01 0. -1.
</event>
<event>
 5   0  0.1137869E-06  0.2197604E+04  0.7818609E-02  0.8519426E-01
        1   -1    0    0  501    0  0.00000000000E+00  0.00000000000E+00  0.81816903820E+03  0.81816903821E+03  0.50400001928E-02 0.  1.
       -1   -1    0    0    0  501  0.00000000000E+00  0.00000000000E+00 -0.14756924644E+04  0.14756924644E+04  0.50400001928E-02 0. -1.
    10030    2    1    2    0    0  0.00000000000E+00  0.00000000000E+00 -0.65752342617E+03  0.22938615026E+04  0.21976040447E+04 0.  0.
        5    1    3    3  502    0  0.23916171285E+02  0.10735573364E+04 -0.57187205498E+03  0.12166170618E+04  0.46999998093E+01 0. -1.
       -5    1    3    3    0  502 -0.23916171285E+02 -0.10735573364E+04 -0.85651371198E+02  0.10772444408E+04  0.46999998093E+01 0.  1.
</event>
<event>
 5   0  0.1144271E-06  0.2199346E+04  0.7818609E-02  0.8518700E-01
       -1   -1    0    0    0  501  0.00000000000E+00  0.00000000000E+00  0.10234643085E+04  0.10234643085E+04  0.50400001928E-02 0.  1.
        1   -1    0    0  501    0  0.00000000000E+00  0.00000000000E+00 -0.11815565574E+04  0.11815565574E+04  0.50400001928E-02 0. -1.
    10030    2    1    2    0    0  0.00000000000E+00  0.00000000000E+00 -0.15809224896E+03  0.22050208659E+04  0.21993462347E+04 0.  0.
        3    1    3    3  502    0 -0.81852513489E+03 -0.21436727569E+03  0.62515080293E+03  0.10520219874E+04  0.10100000352E+00 0.  1.
       -3    1    3    3    0  502  0.81852513489E+03  0.21436727569E+03 -0.78324305189E+03  0.11529988785E+04  0.10100000352E+00 0. -1.
</event>
<event>
 5   0  0.1082209E-06  0.2199679E+04  0.7818609E-02  0.8518562E-01
       -1   -1    0    0    0  501  0.00000000000E+00  0.00000000000E+00  0.80043744330E+03  0.80043744332E+03  0.50400001928E-02 0.  1.
        1   -1    0    0  501    0  0.00000000000E+00  0.00000000000E+00 -0.15112327967E+04  0.15112327967E+04  0.50400001928E-02 0. -1.
    10030    2    1    2    0    0  0.00000000000E+00  0.00000000000E+00 -0.71079535335E+03  0.23116702400E+04  0.21996793548E+04 0.  0.
        2    1    3    3  502    0  0.17832873429E+03  0.99247696083E+03 -0.81688542782E+03  0.12977339702E+04  0.25500000920E-02 0. -1.
       -2    1    3    3    0  502 -0.17832873429E+03 -0.99247696083E+03  0.10609007447E+03  0.10139362698E+04  0.25500000920E-02 0.  1.
</event>
<event>
 5   0  0.2524749E-06  0.2198288E+04  0.7818609E-02  0.8519141E-01
        2   -1    0    0  501    0  0.00000000000E+00  0.00000000000E+00  0.12513523061E+04  0.12513523061E+04  0.25500000920E-02 0.  1.
       -2   -1    0    0    0  501  0.00000000000E+00  0.00000000000E+00 -0.96544922118E+03  0.96544922118E+03  0.25500000920E-02 0. -1.
    10030    2    1    2    0    0  0.00000000000E+00  0.00000000000E+00  0.28590308488E+03  0.22168015273E+04  0.21982876148E+04 0.  0.
        4    1    3    3  502    0  0.15981143512E+03 -0.92085282560E+03 -0.44037142985E+03  0.10331690231E+04  0.12699999809E+01 0. -1.
       -4    1    3    3    0  502 -0.15981143512E+03  0.92085282560E+03  0.72627451473E+03  0.11836325041E+04  0.12699999809E+01 0.  1.
</event>
<event>
 5   0  0.1144271E-06  0.2201969E+04  0.7818609E-02  0.8517609E-01
        1   -1    0    0  501    0  0.00000000000E+00  0.00000000000E+00  0.15955401068E+04  0.15955401068E+04  0.50400001928E-02 0.  1.
       -1   -1    0    0    0  501  0.00000000000E+00  0.00000000000E+00 -0.75972173259E+03  0.75972173260E+03  0.50400001928E-02 0. -1.
    10030    2    1    2    0    0  0.00000000000E+00  0.00000000000E+00  0.83581837416E+03  0.23552618394E+04  0.22019686595E+04 0.  0.
        3    1    3    3  502    0  0.60214183798E+03  0.91140106842E+03  0.56511181669E+03  0.12298691297E+04  0.10100000352E+00 0. -1.
       -3    1    3    3    0  502 -0.60214183798E+03 -0.91140106842E+03  0.27070655747E+03  0.11253927097E+04  0.10100000352E+00 0.  1.
</event>
<event>
 5   0  0.2606154E-06  0.2200199E+04  0.7818609E-02  0.8518345E-01
        2   -1    0    0  501    0  0.00000000000E+00  0.00000000000E+00  0.20038215366E+04  0.20038215366E+04  0.25500000920E-02 0. -1.
       -2   -1    0    0    0  501  0.00000000000E+00  0.00000000000E+00 -0.60395549754E+03  0.60395549754E+03  0.25500000920E-02 0.  1.
    10030    2    1    2    0    0  0.00000000000E+00  0.00000000000E+00  0.13998660390E+04  0.26077770341E+04  0.22001991120E+04 0.  0.
        2    1    3    3  502    0 -0.12711403895E+03 -0.57959335068E+03  0.17978908799E+04  0.18932770656E+04  0.25500000920E-02 0. -1.
       -2    1    3    3    0  502  0.12711403895E+03  0.57959335068E+03 -0.39802484088E+03  0.71449996852E+03  0.25500000920E-02 0.  1.
</event>
<event>
 5   0  0.2524749E-06  0.2199563E+04  0.7818609E-02  0.8518610E-01
        2   -1    0    0  501    0  0.00000000000E+00  0.00000000000E+00  0.13294110163E+04  0.13294110163E+04  0.25500000920E-02 0. -1.
       -2   -1    0    0    0  501  0.00000000000E+00  0.00000000000E+00 -0.90981607129E+03  0.90981607130E+03  0.25500000920E-02 0.  1.
    10030    2    1    2    0    0  0.00000000000E+00  0.00000000000E+00  0.41959494498E+03  0.22392270876E+04  0.21995631457E+04 0.  0.
        4    1    3    3  502    0 -0.83339095800E+03 -0.71546103665E+03  0.15318065774E+03  0.11090044683E+04  0.12699999809E+01 0.  1.
       -4    1    3    3    0  502  0.83339095800E+03  0.71546103665E+03  0.26641428724E+03  0.11302226193E+04  0.12699999809E+01 0. -1.
</event>
<event>
 5   0  0.1137869E-06  0.2200136E+04  0.7818609E-02  0.8518372E-01
        1   -1    0    0  501    0  0.00000000000E+00  0.00000000000E+00  0.94433795017E+03  0.94433795018E+03  0.50400001928E-02 0.  1.
       -1   -1    0    0    0  501  0.00000000000E+00  0.00000000000E+00 -0.12814788369E+04  0.12814788369E+04  0.50400001928E-02 0. -1.
    10030    2    1    2    0    0  0.00000000000E+00  0.00000000000E+00 -0.33714088668E+03  0.22258167870E+04  0.22001355395E+04 0.  0.
        5    1    3    3  502    0 -0.45881291447E+03  0.71501000285E+03 -0.87556847866E+03  0.12199962481E+04  0.46999998093E+01 0. -1.
       -5    1    3    3    0  502  0.45881291447E+03 -0.71501000285E+03  0.53842759198E+03  0.10058205389E+04  0.46999998093E+01 0.  1.
</event>
<event>
 5   0  0.1082209E-06  0.2198431E+04  0.7818609E-02  0.8519081E-01
        1   -1    0    0  501    0  0.00000000000E+00  0.00000000000E+00  0.72849264704E+03  0.72849264706E+03  0.50400001928E-02 0.  1.
       -1   -1    0    0    0  501  0.00000000000E+00  0.00000000000E+00 -0.16585963461E+04  0.16585963461E+04  0.50400001928E-02 0. -1.
    10030    2    1    2    0    0  0.00000000000E+00  0.00000000000E+00 -0.93010369904E+03  0.23870889932E+04  0.21984314795E+04 0.  0.
        2    1    3    3  502    0 -0.13103919224E+03  0.94290745106E+03 -0.10617852764E+04  0.14260552950E+04  0.25500000920E-02 0. -1.
       -2    1    3    3    0  502  0.13103919224E+03 -0.94290745106E+03  0.13168157738E+03  0.96103369816E+03  0.25500000920E-02 0.  1.
</event>
<event>
 5   0  0.2606154E-06  0.2200098E+04  0.7818609E-02  0.8518387E-01
        2   -1    0    0  501    0  0.00000000000E+00  0.00000000000E+00  0.13123632118E+04  0.13123632118E+04  0.25500000920E-02 0.  1.
       -2   -1    0    0    0  501  0.00000000000E+00  0.00000000000E+00 -0.92208327497E+03  0.92208327497E+03  0.25500000920E-02 0. -1.
    10030    2    1    2    0    0  0.00000000000E+00  0.00000000000E+00  0.39027993682E+03  0.22344464868E+04  0.22000983326E+04 0.  0.
        2    1    3    3  502    0  0.98633963491E+03  0.11022923308E+03  0.67698536254E+03  0.12013848427E+04  0.25500000920E-02 0. -1.
       -2    1    3    3    0  502 -0.98633963491E+03 -0.11022923308E+03 -0.28670542572E+03  0.10330616440E+04  0.25500000920E-02 0.  1.
</event>
<event>
 5   0  0.2532239E-06  0.2200523E+04  0.7818609E-02  0.8518210E-01
       -2   -1    0    0    0  501  0.00000000000E+00  0.00000000000E+00  0.65435761340E+03  0.65435761341E+03  0.25500000920E-02 0.  1.
        2   -1    0    0  501    0  0.00000000000E+00  0.00000000000E+00 -0.18500217338E+04  0.18500217338E+04  0.25500000920E-02 0. -1.
    10030    2    1    2    0    0  0.00000000000E+00  0.00000000000E+00 -0.11956641204E+04  0.25043793472E+04  0.22005233982E+04 0.  0.
        3    1    3    3  502    0  0.38386174380E+03  0.10311263998E+04 -0.60019355503E+03  0.12533171205E+04  0.10100000352E+00 0.  1.
       -3    1    3    3    0  502 -0.38386174380E+03 -0.10311263998E+04 -0.59547056540E+03  0.12510622268E+04  0.10100000352E+00 0. -1.
</event>
<event>
 5   0  0.2556869E-06  0.2200736E+04  0.7818609E-02  0.8518122E-01
       -2   -1    0    0    0  501  0.00000000000E+00  0.00000000000E+00  0.50274814300E+03  0.50274814301E+03  0.25500000920E-02 0.  1.
        2   -1    0    0  501    0  0.00000000000E+00  0.00000000000E+00 -0.24083832267E+04  0.24083832267E+04  0.25500000920E-02 0. -1.
    10030    2    1    2    0    0  0.00000000000E+00  0.00000000000E+00 -0.19056350837E+04  0.29111313697E+04  0.22007364175E+04 0.  0.
        5    1    3    3  502    0  0.15658410422E+03 -0.91520532402E+03 -0.17339061052E+04  0.19668685361E+04  0.46999998093E+01 0. -1.
       -5    1    3    3    0  502 -0.15658410422E+03  0.91520532402E+03 -0.17172897852E+03  0.94426283358E+03  0.46999998093E+01 0.  1.
</event>
<event>
 5   0  0.1082209E-06  0.2199700E+04  0.7818609E-02  0.8518553E-01
       -1   -1    0    0    0  501  0.00000000000E+00  0.00000000000E+00  0.10598928878E+04  0.10598928878E+04  0.50400001928E-02 0. -1.
        1   -1    0    0  501    0  0.00000000000E+00  0.00000000000E+00 -0.11413129456E+04  0.11413129456E+04  0.50400001928E-02 0.  1.
    10030    2    1    2    0    0  0.00000000000E+00  0.00000000000E+00 -0.81420057717E+02  0.22012058334E+04  0.21996995011E+04 0.  0.
        2    1    3    3  502    0 -0.68759479456E+03  0.40180866151E+03  0.71838222034E+03  0.10725249724E+04  0.25500000920E-02 0. -1.
       -2    1    3    3    0  502  0.68759479456E+03 -0.40180866151E+03 -0.79980227806E+03  0.11286808610E+04  0.25500000920E-02 0.  1.
</event>
<event>
 5   0  0.2606154E-06  0.2200318E+04  0.7818609E-02  0.8518296E-01
       -2   -1    0    0    0  501  0.00000000000E+00  0.00000000000E+00  0.16639050050E+04  0.16639050050E+04  0.25500000920E-02 0. -1.
        2   -1    0    0  501    0  0.00000000000E+00  0.00000000000E+00 -0.72741540372E+03  0.72741540373E+03  0.25500000920E-02 0.  1.
    10030    2    1    2    0    0  0.00000000000E+00  0.00000000000E+00  0.93648960124E+03  0.23913204087E+04  0.22003182778E+04 0.  0.
        2    1    3    3  502    0 -0.34862276218E+02 -0.10513406665E+04  0.81842183753E+03  0.13327966385E+04  0.25500000920E-02 0. -1.
       -2    1    3    3    0  502  0.34862276218E+02  0.10513406665E+04  0.11806776371E+03  0.10585237702E+04  0.25500000920E-02 0.  1.
</event>
<event>
 5   0  0.1082209E-06  0.2199581E+04  0.7818609E-02  0.8518603E-01
       -1   -1    0    0    0  501  0.00000000000E+00  0.00000000000E+00  0.16515381637E+04  0.16515381637E+04  0.50400001928E-02 0. -1.
        1   -1    0    0  501    0  0.00000000000E+00  0.00000000000E+00 -0.73237115963E+03  0.73237115965E+03  0.50400001928E-02 0.  1.
    10030    2    1    2    0    0  0.00000000000E+00  0.00000000000E+00  0.91916700410E+03  0.23839093234E+04  0.21995807966E+04 0.  0.
        2    1    3    3  502    0  0.10297180104E+03  0.59616068725E+02  0.16445419066E+04  0.16488406078E+04  0.25500000920E-02 0. -1.
       -2    1    3    3    0  502 -0.10297180104E+03 -0.59616068725E+02 -0.72537490248E+03  0.73506871558E+03  0.25500000920E-02 0.  1.
</event>
<event>
 5   0  0.2556869E-06  0.2199501E+04  0.7818609E-02  0.8518636E-01
       -2   -1    0    0    0  501  0.00000000000E+00  0.00000000000E+00  0.15908960633E+04  0.15908960633E+04  0.25500000920E-02 0.  1.
        2   -1    0    0  501    0  0.00000000000E+00  0.00000000000E+00 -0.76023276755E+03  0.76023276756E+03  0.25500000920E-02 0. -1.
    10030    2    1    2    0    0  0.00000000000E+00  0.00000000000E+00  0.83066329570E+03  0.23511288308E+04  0.21995011408E+04 0.  0.
        5    1    3    3  502    0 -0.10695907704E+04  0.13163778499E+03  0.64971014988E+03  0.12583712852E+04  0.46999998093E+01 0. -1.
       -5    1    3    3    0  502  0.10695907704E+04 -0.13163778499E+03  0.18095314583E+03  0.10927575456E+04  0.46999998093E+01 0.  1.
</event>
<event>
 5   0  0.1107101E-06  0.2200363E+04  0.7818609E-02  0.8518277E-01
        1   -1    0    0  501    0  0.00000000000E+00  0.00000000000E+00  0.12360929156E+04  0.12360929156E+04  0.50400001928E-02 0. -1.
       -1   -1    0    0    0  501  0.00000000000E+00  0.00000000000E+00 -0.97921363153E+03  0.97921363155E+03  0.50400001928E-02 0.  1.
    10030    2    1    2    0    0  0.00000000000E+00  0.00000000000E+00  0.25687928402E+03  0.22153065471E+04  0.22003627272E+04 0.  0.
        1    1    3    3  502    0  0.48588861736E+03  0.29408649298E+03 -0.82020398672E+03  0.99765183991E+03  0.50400001928E-02 0.  1.
       -1    1    3    3    0  502 -0.48588861736E+03 -0.29408649298E+03  0.10770832707E+04  0.12176547072E+04  0.50400001928E-02 0. -1.
</event>
<event>
 5   0  0.1082209E-06  0.2199216E+04  0.7818609E-02  0.8518755E-01
        1   -1    0    0  501    0  0.00000000000E+00  0.00000000000E+00  0.58300859291E+03  0.58300859293E+03  0.50400001928E-02 0. -1.
       -1   -1    0    0    0  501  0.00000000000E+00  0.00000000000E+00 -0.20739615304E+04  0.20739615304E+04  0.50400001928E-02 0.  1.
    10030    2    1    2    0    0  0.00000000000E+00  0.00000000000E+00 -0.14909529374E+04  0.26569701233E+04  0.21992156725E+04 0.  0.
        2    1    3    3  502    0  0.49459543794E+03  0.65777090119E+03 -0.16265527450E+04  0.18228990751E+04  0.25500000920E-02 0.  1.
       -2    1    3    3    0  502 -0.49459543794E+03 -0.65777090119E+03  0.13559980752E+03  0.83407104823E+03  0.25500000920E-02 0. -1.
</event>
<event>
 5   0  0.1107101E-06  0.2199974E+04  0.7818609E-02  0.8518439E-01
       -1   -1    0    0    0  501  0.00000000000E+00  0.00000000000E+00  0.18771295561E+04  0.18771295561E+04  0.50400001928E-02 0. -1.
        1   -1    0    0  501    0  0.00000000000E+00  0.00000000000E+00 -0.64458581687E+03  0.64458581689E+03  0.50400001928E-02 0.  1.
    10030    2    1    2    0    0  0.00000000000E+00  0.00000000000E+00  0.12325437392E+04  0.25217153730E+04  0.21999737165E+04 0.  0.
        1    1    3    3  502    0 -0.44251857511E+03 -0.81063154871E+03 -0.68629163804E+02  0.92609727310E+03  0.50400001928E-02 0.  1.
       -1    1    3    3    0  502  0.44251857511E+03  0.81063154871E+03  0.13011729031E+04  0.15956180999E+04  0.50400001928E-02 0. -1.
</event>
<event>
 5   0  0.2556869E-06  0.2200309E+04  0.7818609E-02  0.8518300E-01
        2   -1    0    0  501    0  0.00000000000E+00  0.00000000000E+00  0.98209154087E+03  0.98209154087E+03  0.25500000920E-02 0.  1.
       -2   -1    0    0    0  501  0.00000000000E+00  0.00000000000E+00 -0.12324101237E+04  0.12324101237E+04  0.25500000920E-02 0. -1.
    10030    2    1    2    0    0  0.00000000000E+00  0.00000000000E+00 -0.25031858282E+03  0.22145016646E+04  0.22003086669E+04 0.  0.
        5    1    3    3  502    0 -0.51795664342E+03 -0.93981256576E+02  0.84709784831E+03  0.99735069843E+03  0.46999998093E+01 0.  1.
       -5    1    3    3    0  502  0.51795664342E+03  0.93981256576E+02 -0.10974164311E+04  0.12171509661E+04  0.46999998093E+01 0. -1.
</event>
<event>
 5   0  0.1137869E-06  0.2199938E+04  0.7818609E-02  0.8518454E-01
        1   -1    0    0  501    0  0.00000000000E+00  0.00000000000E+00  0.10388140695E+04  0.10388140695E+04  0.50400001928E-02 0. -1.
       -1   -1    0    0    0  501  0.00000000000E+00  0.00000000000E+00 -0.11647246276E+04  0.11647246276E+04  0.50400001928E-02 0.  1.
    10030    2    1    2    0    0  0.00000000000E+00  0.00000000000E+00 -0.12591055811E+03  0.22035386971E+04  0.21999384811E+04 0.  0.
        5    1    3    3  502    0  0.31650557215E+03 -0.28223735190E+03  0.95363252087E+03  0.10436813570E+04  0.46999998093E+01 0. -1.
       -5    1    3    3    0  502 -0.31650557215E+03  0.28223735190E+03 -0.10795430790E+04  0.11598573401E+04  0.46999998093E+01 0.  1.
</event>
<event>
 5   0  0.1144271E-06  0.2201709E+04  0.7818609E-02  0.8517717E-01
       -1   -1    0    0    0  501  0.00000000000E+00  0.00000000000E+00  0.12674908284E+04  0.12674908284E+04  0.50400001928E-02 0.  1.
        1   -1    0    0  501    0  0.00000000000E+00  0.00000000000E+00 -0.95612581385E+03  0.95612581386E+03  0.50400001928E-02 0. -1.
    10030    2    1    2    0    0  0.00000000000E+00  0.00000000000E+00  0.31136501452E+03  0.22236166422E+04  0.22017090633E+04 0.  0.
        3    1    3    3  502    0 -0.59311669647E+03 -0.83866914009E+03 -0.24414473116E+03  0.10558219557E+04  0.10100000352E+00 0. -1.
       -3    1    3    3    0  502  0.59311669647E+03  0.83866914009E+03  0.55550974568E+03  0.11677946865E+04  0.10100000352E+00 0.  1.
</event>
<event>
 5   0  0.2581058E-06  0.2211681E+04  0.7818609E-02  0.8513582E-01
        2   -1    0    0  501    0  0.00000000000E+00  0.00000000000E+00  0.13519683237E+04  0.13519683237E+04  0.25500000920E-02 0.  1.
       -2   -1    0    0    0  501  0.00000000000E+00  0.00000000000E+00 -0.90452057866E+03  0.90452057866E+03  0.25500000920E-02 0. -1.
    10030    2    1    2    0    0  0.00000000000E+00  0.00000000000E+00  0.44744774504E+03  0.22564889024E+04  0.22116809630E+04 0.  0.
        1    1    3    3  502    0 -0.10755957498E+04  0.14286935809E+03  0.59389352231E+01  0.10850590497E+04  0.50400001928E-02 0. -1.
       -1    1    3    3    0  502  0.10755957498E+04 -0.14286935809E+03  0.44150880981E+03  0.11714298526E+04  0.50400001928E-02 0.  1.
</event>
<event>
 5   0  0.1107101E-06  0.2199842E+04  0.7818609E-02  0.8518494E-01
        1   -1    0    0  501    0  0.00000000000E+00  0.00000000000E+00  0.22939120566E+04  0.22939120566E+04  0.50400001928E-02 0. -1.
       -1   -1    0    0    0  501  0.00000000000E+00  0.00000000000E+00 -0.52740754814E+03  0.52740754816E+03  0.50400001928E-02 0.  1.
    10030    2    1    2    0    0  0.00000000000E+00  0.00000000000E+00  0.17665045085E+04  0.28213196048E+04  0.21998422975E+04 0.  0.
        1    1    3    3  502    0  0.23845648351E+03  0.70001483903E+02  0.22574332722E+04  0.22710717031E+04  0.50400001928E-02 0. -1.
       -1    1    3    3    0  502 -0.23845648351E+03 -0.70001483903E+02 -0.49092876369E+03  0.55024790169E+03  0.50400001928E-02 0.  1.
</event>
<event>
 5   0  0.2532239E-06  0.2200447E+04  0.7818609E-02  0.8518242E-01
       -2   -1    0    0    0  501  0.00000000000E+00  0.00000000000E+00  0.64095507623E+03  0.64095507624E+03  0.25500000920E-02 0. -1.
        2   -1    0    0  501    0  0.00000000000E+00  0.00000000000E+00 -0.18885743643E+04  0.18885743643E+04  0.25500000920E-02 0.  1.
    10030    2    1    2    0    0  0.00000000000E+00  0.00000000000E+00 -0.12476192880E+04  0.25295294405E+04  0.22004466143E+04 0.  0.
        3    1    3    3  502    0 -0.75978122328E+03 -0.72411519840E+03 -0.24449035515E+03  0.10776761442E+04  0.10100000352E+00 0. -1.
       -3    1    3    3    0  502  0.75978122328E+03  0.72411519840E+03 -0.10031289329E+04  0.14518532963E+04  0.10100000352E+00 0.  1.
</event>
<event>
 5   0  0.1107101E-06  0.2200238E+04  0.7818609E-02  0.8518329E-01
        1   -1    0    0  501    0  0.00000000000E+00  0.00000000000E+00  0.14364250282E+04  0.14364250282E+04  0.50400001928E-02 0.  1.
       -1   -1    0    0    0  501  0.00000000000E+00  0.00000000000E+00 -0.84255130688E+03  0.84255130689E+03  0.50400001928E-02 0. -1.
    10030    2    1    2    0    0  0.00000000000E+00  0.00000000000E+00  0.59387372132E+03  0.22789763351E+04  0.22002379733E+04 0.  0.
        1    1    3    3  502    0 -0.61534717078E+02 -0.44619493029E+02  0.14337019901E+04  0.14357154374E+04  0.50400001928E-02 0.  1.
       -1    1    3    3    0  502  0.61534717078E+02  0.44619493029E+02 -0.83982826880E+03  0.84326089774E+03  0.50400001928E-02 0. -1.
</event>
<event>
 5   0  0.1107101E-06  0.2199682E+04  0.7818609E-02  0.8518560E-01
        1   -1    0    0  501    0  0.00000000000E+00  0.00000000000E+00  0.10530974923E+04  0.10530974923E+04  0.50400001928E-02 0.  1.
       -1   -1    0    0    0  501  0.00000000000E+00  0.00000000000E+00 -0.11486597672E+04  0.11486597672E+04  0.50400001928E-02 0. -1.
    10030    2    1    2    0    0  0.00000000000E+00  0.00000000000E+00 -0.95562274863E+02  0.22017572596E+04  0.21996824502E+04 0.  0.
        1    1    3    3  502    0  0.73112281247E+02 -0.58159238794E+03  0.88371774130E+03  0.10604490359E+04  0.50400001928E-02 0.  1.
       -1    1    3    3    0  502 -0.73112281247E+02  0.58159238794E+03 -0.97928001616E+03  0.11413082237E+04  0.50400001928E-02 0. -1.
</event>
<event>
 5   0  0.2581058E-06  0.2200133E+04  0.7818609E-02  0.8518373E-01
        2   -1    0    0  501    0  0.00000000000E+00  0.00000000000E+00  0.10219252301E+04  0.10219252301E+04  0.25500000920E-02 0. -1.
       -2   -1    0    0    0  501  0.00000000000E+00  0.00000000000E+00 -0.11841833396E+04  0.11841833396E+04  0.25500000920E-02 0.  1.
    10030    2    1    2    0    0  0.00000000000E+00  0.00000000000E+00 -0.16225810956E+03  0.22061085697E+04  0.22001334794E+04 0.  0.
        1    1    3    3  502    0 -0.74586262597E+03  0.75131590601E+03  0.21861451823E+03  0.10810083048E+04  0.50400001928E-02 0.  1.
       -1    1    3    3    0  502  0.74586262597E+03 -0.75131590601E+03 -0.38087262779E+03  0.11251002649E+04  0.50400001928E-02 0. -1.
</event>
<event>
 5   0  0.1107101E-06  0.2199993E+04  0.7818609E-02  0.8518431E-01
       -1   -1    0    0    0  501  0.00000000000E+00  0.00000000000E+00  0.54296942393E+03  0.54296942396E+03  0.50400001928E-02 0. -1.
        1   -1    0    0  501    0  0.00000000000E+00  0.00000000000E+00 -0.22284729375E+04  0.22284729375E+04  0.50400001928E-02 0.  1.
    10030    2    1    2    0    0  0.00000000000E+00  0.00000000000E+00 -0.16855035136E+04  0.27714423615E+04  0.21999933338E+04 0.  0.
        1    1    3    3  502    0  0.98579515499E+03  0.35132396042E+03 -0.12695302873E+04  0.16452743732E+04  0.50400001928E-02 0.  1.
       -1    1    3    3    0  502 -0.98579515499E+03 -0.35132396042E+03 -0.41597322629E+03  0.11261679883E+04  0.50400001928E-02 0. -1.
</event>
<event>
 5   0  0.1107101E-06  0.2205251E+04  0.7818609E-02  0.8516246E-01
       -1   -1    0    0    0  501  0.00000000000E+00  0.00000000000E+00  0.57917191873E+03  0.57917191875E+03  0.50400001928E-02 0. -1.
        1   -1    0    0  501    0  0.00000000000E+00  0.00000000000E+00 -0.20991754517E+04  0.20991754517E+04  0.50400001928E-02 0.  1.
    10030    2    1    2    0    0  0.00000000000E+00  0.00000000000E+00 -0.15200035330E+04  0.26783473705E+04  0.22052514362E+04 0.  0.
        1    1    3    3  502    0 -0.37164791707E+03 -0.72939927829E+03 -0.16571435629E+04  0.18483155221E+04  0.50400001928E-02 0.  1.
       -1    1    3    3    0  502  0.37164791707E+03  0.72939927829E+03  0.13714002987E+03  0.83003184834E+03  0.50400001928E-02 0. -1.
</event>
<event>
 5   0  0.2532239E-06  0.2199995E+04  0.7818609E-02  0.8518430E-01
       -2   -1    0    0    0  501  0.00000000000E+00  0.00000000000E+00  0.51729460391E+03  0.51729460392E+03  0.25500000920E-02 0. -1.
        2   -1    0    0  501    0  0.00000000000E+00  0.00000000000E+00 -0.23390828132E+04  0.23390828132E+04  0.25500000920E-02 0.  1.
    10030    2    1    2    0    0  0.00000000000E+00  0.00000000000E+00 -0.18217882093E+04  0.28563774171E+04  0.21999953794E+04 0.  0.
        3    1    3    3  502    0  0.80813214331E+03 -0.38833210720E+03 -0.83488200019E+02  0.90047191865E+03  0.10100000352E+00 0. -1.
       -3    1    3    3    0  502 -0.80813214331E+03  0.38833210720E+03 -0.17383000093E+04  0.19559054985E+04  0.10100000352E+00 0.  1.
</event>
<event>
 5   0  0.2556869E-06  0.2199316E+04  0.7818609E-02  0.8518713E-01
        2   -1    0    0  501    0  0.00000000000E+00  0.00000000000E+00  0.11511024882E+04  0.11511024882E+04  0.25500000920E-02 0.  1.
       -2   -1    0    0    0  501  0.00000000000E+00  0.00000000000E+00 -0.10505123503E+04  0.10505123503E+04  0.25500000920E-02 0. -1.
    10030    2    1    2    0    0  0.00000000000E+00  0.00000000000E+00  0.10059013788E+03  0.22016148386E+04  0.21993156939E+04 0.  0.
        5    1    3    3  502    0 -0.48913309406E+03  0.30735945686E+03 -0.88636693849E+03  0.10580120316E+04  0.46999998093E+01 0. -1.
       -5    1    3    3    0  502  0.48913309406E+03 -0.30735945686E+03  0.98695707637E+03  0.11436028069E+04  0.46999998093E+01 0.  1.
</event>
<event>
 5   0  0.2606154E-06  0.2200608E+04  0.7818609E-02  0.8518175E-01
       -2   -1    0    0    0  501  0.00000000000E+00  0.00000000000E+00  0.77855688833E+03  0.77855688833E+03  0.25500000920E-02 0. -1.
        2   -1    0    0  501    0  0.00000000000E+00  0.00000000000E+00 -0.15550166002E+04  0.15550166003E+04  0.25500000920E-02 0.  1.
    10030    2    1    2    0    0  0.00000000000E+00  0.00000000000E+00 -0.77645971192E+03  0.23335734886E+04  0.22006079938E+04 0.  0.
        2    1    3    3  502    0 -0.25846086518E+03  0.23795380184E+03 -0.14939430109E+04  0.15346953283E+04  0.25500000920E-02 0.  1.
       -2    1    3    3    0  502  0.25846086518E+03 -0.23795380184E+03  0.71748329902E+03  0.79887816031E+03  0.25500000920E-02 0. -1.
</event>
<event>
 5   0  0.2606154E-06  0.2199158E+04  0.7818609E-02  0.8518779E-01
        2   -1    0    0  501    0  0.00000000000E+00  0.00000000000E+00  0.81269126041E+03  0.81269126042E+03  0.25500000920E-02 0. -1.
       -2   -1    0    0    0  501  0.00000000000E+00  0.00000000000E+00 -0.14877403365E+04  0.14877403365E+04  0.25500000920E-02 0.  1.
    10030    2    1    2    0    0  0.00000000000E+00  0.00000000000E+00 -0.67504907612E+03  0.23004315970E+04  0.21991576290E+04 0.  0.
        2    1    3    3  502    0 -0.97777352407E+02 -0.10771351419E+04 -0.54487776851E+03  0.12110624704E+04  0.25500000920E-02 0.  1.
       -2    1    3    3    0  502  0.97777352407E+02  0.10771351419E+04 -0.13017130761E+03  0.10893691266E+04  0.25500000920E-02 0. -1.
</event>
<event>
 5   0  0.2532239E-06  0.2199928E+04  0.7818609E-02  0.8518458E-01
       -2   -1    0    0    0  501  0.00000000000E+00  0.00000000000E+00  0.88375353797E+03  0.88375353797E+03  0.25500000920E-02 0. -1.
        2   -1    0    0  501    0  0.00000000000E+00  0.00000000000E+00 -0.13690699387E+04  0.13690699387E+04  0.25500000920E-02 0.  1.
    10030    2    1    2    0    0  0.00000000000E+00  0.00000000000E+00 -0.48531640073E+03  0.22528234767E+04  0.21999276370E+04 0.  0.
        3    1    3    3  502    0  0.40750133970E+03 -0.72400111452E+03  0.49556729633E+03  0.96737888703E+03  0.10100000352E+00 0. -1.
       -3    1    3    3    0  502 -0.40750133970E+03  0.72400111452E+03 -0.98088369706E+03  0.12854445896E+04  0.10100000352E+00 0.  1.
</event>
<event>
 5   0  0.1082209E-06  0.2205189E+04  0.7818609E-02  0.8516271E-01
        1   -1    0    0  501    0  0.00000000000E+00  0.00000000000E+00  0.96566814999E+03  0.96566815000E+03  0.50400001928E-02 0. -1.
       -1   -1    0    0    0  501  0.00000000000E+00  0.00000000000E+00 -0.12589361883E+04  0.12589361883E+04  0.50400001928E-02 0.  1.
    10030    2    1    2    0    0  0.00000000000E+00  0.00000000000E+00 -0.29326803835E+03  0.22246043383E+04  0.22051889533E+04 0.  0.
        2    1    3    3  502    0 -0.78676344892E+03  0.30734620698E+03 -0.86157404137E+03  0.12065522137E+04  0.25500000920E-02 0.  1.
       -2    1    3    3    0  502  0.78676344892E+03 -0.30734620698E+03  0.56830600303E+03  0.10180521247E+04  0.25500000920E-02 0. -1.
</event>
<event>
 5   0  0.2581058E-06  0.2199227E+04  0.7818609E-02  0.8518750E-01
       -2   -1    0    0    0  501  0.00000000000E+00  0.00000000000E+00  0.11222093843E+04  0.11222093843E+04  0.25500000920E-02 0. -1.
        2   -1    0    0  501    0  0.00000000000E+00  0.00000000000E+00 -0.10774723293E+04  0.10774723293E+04  0.25500000920E-02 0.  1.
    10030    2    1    2    0    0  0.00000000000E+00  0.00000000000E+00  0.44737054998E+02  0.21996817136E+04  0.21992267362E+04 0.  0.
        1    1    3    3  502    0 -0.91728352598E+03  0.20574332736E+03  0.59293388880E+03  0.11114449965E+04  0.50400001928E-02 0. -1.
       -1    1    3    3    0  502  0.91728352598E+03 -0.20574332736E+03 -0.54819683380E+03  0.10882367171E+04  0.50400001928E-02 0.  1.
</event>
<event>
 5   0  0.1144271E-06  0.2200610E+04  0.7818609E-02  0.8518174E-01
       -1   -1    0    0    0  501  0.00000000000E+00  0.00000000000E+00  0.69725055234E+03  0.69725055236E+03  0.50400001928E-02 0.  1.
        1   -1    0    0  501    0  0.00000000000E+00  0.00000000000E+00 -0.17363500890E+04  0.17363500890E+04  0.50400001928E-02 0. -1.
    10030    2    1    2    0    0  0.00000000000E+00  0.00000000000E+00 -0.10390995367E+04  0.24336006414E+04  0.22006099688E+04 0.  0.
        3    1    3    3  502    0 -0.10390669473E+04  0.35508485066E+03 -0.59716360867E+03  0.12499399017E+04  0.10100000352E+00 0. -1.
       -3    1    3    3    0  502  0.10390669473E+04 -0.35508485066E+03 -0.44193592800E+03  0.11836607397E+04  0.10100000352E+00 0.  1.
</event>
<event>
 5   0  0.1144271E-06  0.2197968E+04  0.7818609E-02  0.8519274E-01
       -1   -1    0    0    0  501  0.00000000000E+00  0.00000000000E+00  0.12729580970E+04  0.12729580970E+04  0.50400001928E-02 0. -1.
        1   -1    0    0  501    0  0.00000000000E+00  0.00000000000E+00 -0.94878653456E+03  0.94878653458E+03  0.50400001928E-02 0.  1.
    10030    2    1    2    0    0  0.00000000000E+00  0.00000000000E+00  0.32417156241E+03  0.22217446316E+04  0.21979676990E+04 0.  0.
        3    1    3    3  502    0 -0.31086020414E+03  0.60024218492E+03  0.10379700965E+04  0.12386713360E+04  0.10100000352E+00 0. -1.
       -3    1    3    3    0  502  0.31086020414E+03 -0.60024218492E+03 -0.71379853409E+03  0.98307329561E+03  0.10100000352E+00 0.  1.
</event>
<event>
 5   0  0.1146827E-06  0.2199300E+04  0.7818609E-02  0.8518720E-01
       -1   -1    0    0    0  501  0.00000000000E+00  0.00000000000E+00  0.38262540603E+03  0.38262540607E+03  0.50400001928E-02 0. -1.
        1   -1    0    0  501    0  0.00000000000E+00  0.00000000000E+00 -0.31603489949E+04  0.31603489949E+04  0.50400001928E-02 0.  1.
    10030    2    1    2    0    0  0.00000000000E+00  0.00000000000E+00 -0.27777235889E+04  0.35429744010E+04  0.21992997226E+04 0.  0.
        4    1    3    3  502    0 -0.52491515091E+03  0.76618752007E+02  0.16286726843E+03  0.55491774962E+03  0.12699999809E+01 0. -1.
       -4    1    3    3    0  502  0.52491515091E+03 -0.76618752007E+02 -0.29405908573E+04  0.29880566514E+04  0.12699999809E+01 0.  1.
</event>
<event>
 5   0  0.2524749E-06  0.2200742E+04  0.7818609E-02  0.8518119E-01
        2   -1    0    0  501    0  0.00000000000E+00  0.00000000000E+00  0.99113574562E+03  0.99113574562E+03  0.25500000920E-02 0. -1.
       -2   -1    0    0    0  501  0.00000000000E+00  0.00000000000E+00 -0.12216455061E+04  0.12216455061E+04  0.25500000920E-02 0.  1.
    10030    2    1    2    0    0  0.00000000000E+00  0.00000000000E+00 -0.23050976044E+03  0.22127812517E+04  0.22007421744E+04 0.  0.
        4    1    3    3  502    0  0.53941491286E+03 -0.63345993738E+03  0.60880601833E+03  0.10309637827E+04  0.12699999809E+01 0. -1.
       -4    1    3    3    0  502 -0.53941491286E+03  0.63345993738E+03 -0.83931577877E+03  0.11818174689E+04  0.12699999809E+01 0.  1.
</event>
<event>
 5   0  0.1144271E-06  0.2200091E+04  0.7818609E-02  0.8518390E-01
        1   -1    0    0  501    0  0.00000000000E+00  0.00000000000E+00  0.96145147863E+03  0.96145147865E+03  0.50400001928E-02 0. -1.
       -1   -1    0    0    0  501  0.00000000000E+00  0.00000000000E+00 -0.12586178048E+04  0.12586178048E+04  0.50400001928E-02 0.  1.
    10030    2    1    2    0    0  0.00000000000E+00  0.00000000000E+00 -0.29716632619E+03  0.22200692835E+04  0.22000908613E+04 0.  0.
        3    1    3    3  502    0 -0.50074922011E+03  0.97830038421E+03 -0.19675042550E+03  0.11164820479E+04  0.10100000352E+00 0. -1.
       -3    1    3    3    0  502  0.50074922011E+03 -0.97830038421E+03 -0.10041590069E+03  0.11035872356E+04  0.10100000352E+00 0.  1.
</event>
<event>
 5   0  0.2556869E-06  0.2199889E+04  0.7818609E-02  0.8518474E-01
       -2   -1    0    0    0  501  0.00000000000E+00  0.00000000000E+00  0.11629781727E+04  0.11629781727E+04  0.25500000920E-02 0. -1.
        2   -1    0    0  501    0  0.00000000000E+00  0.00000000000E+00 -0.10403271569E+04  0.10403271569E+04  0.25500000920E-02 0.  1.
    10030    2    1    2    0    0  0.00000000000E+00  0.00000000000E+00  0.12265101580E+03  0.22033053297E+04  0.21998888845E+04 0.  0.
        5    1    3    3  502    0 -0.56271522162E+03 -0.60597585134E+03  0.78771078290E+03  0.11420882280E+04  0.46999998093E+01 0. -1.
       -5    1    3    3    0  502  0.56271522162E+03  0.60597585134E+03 -0.66505976710E+03  0.10612171017E+04  0.46999998093E+01 0.  1.
</event>
<event>
 5   0  0.1144271E-06  0.2199706E+04  0.7818609E-02  0.8518550E-01
        1   -1    0    0  501    0  0.00000000000E+00  0.00000000000E+00  0.16767823020E+04  0.16767823020E+04  0.50400001928E-02 0.  1.
       -1   -1    0    0    0  501  0.00000000000E+00  0.00000000000E+00 -0.72142756033E+03  0.72142756035E+03  0.50400001928E-02 0. -1.
    10030    2    1    2    0    0  0.00000000000E+00  0.00000000000E+00  0.95535474167E+03  0.23982098624E+04  0.21997063126E+04 0.  0.
        3    1    3    3  502    0 -0.84231576380E+03 -0.70505313671E+03  0.53819491209E+03  0.12232127963E+04  0.10100000352E+00 0.  1.
       -3    1    3    3    0  502  0.84231576380E+03  0.70505313671E+03  0.41715982957E+03  0.11749970660E+04  0.10100000352E+00 0. -1.
</event>
<event>
 5   0  0.2581058E-06  0.2192937E+04  0.7818609E-02  0.8521374E-01
       -2   -1    0    0    0  501  0.00000000000E+00  0.00000000000E+00  0.42462655002E+03  0.42462655003E+03  0.25500000920E-02 0.  1.
        2   -1    0    0  501    0  0.00000000000E+00  0.00000000000E+00 -0.28312952360E+04  0.28312952360E+04  0.25500000920E-02 0. -1.
    10030    2    1    2    0    0  0.00000000000E+00  0.00000000000E+00 -0.24066686860E+04  0.32559217861E+04  0.21929369605E+04 0.  0.
        1    1    3    3  502    0  0.91003963425E+03  0.59117087347E+03 -0.14361484734E+04  0.18000493257E+04  0.50400001928E-02 0.  1.
       -1    1    3    3    0  502 -0.91003963425E+03 -0.59117087347E+03 -0.97052021265E+03  0.14558724603E+04  0.50400001928E-02 0. -1.
</event>
<event>
 5   0  0.1144271E-06  0.2199326E+04  0.7818609E-02  0.8518709E-01
       -1   -1    0    0    0  501  0.00000000000E+00  0.00000000000E+00  0.94293161116E+03  0.94293161118E+03  0.50400001928E-02 0. -1.
        1   -1    0    0  501    0  0.00000000000E+00  0.00000000000E+00 -0.12824459852E+04  0.12824459852E+04  0.50400001928E-02 0.  1.
    10030    2    1    2    0    0  0.00000000000E+00  0.00000000000E+00 -0.33951437403E+03  0.22253775964E+04  0.21993261323E+04 0.  0.
        3    1    3    3  502    0  0.16108183023E+03  0.81885944151E+03  0.55481209091E+03  0.10021450032E+04  0.10100000352E+00 0. -1.
       -3    1    3    3    0  502 -0.16108183023E+03 -0.81885944151E+03 -0.89432646495E+03  0.12232325932E+04  0.10100000352E+00 0.  1.
</event>
<event>
 5   0  0.2556869E-06  0.2199642E+04  0.7818609E-02  0.8518577E-01
        2   -1    0    0  501    0  0.00000000000E+00  0.00000000000E+00  0.11996494178E+04  0.11996494178E+04  0.25500000920E-02 0. -1.
       -2   -1    0    0    0  501  0.00000000000E+00  0.00000000000E+00 -0.10082997887E+04  0.10082997887E+04  0.25500000920E-02 0.  1.
    10030    2    1    2    0    0  0.00000000000E+00  0.00000000000E+00  0.19134962912E+03  0.22079492065E+04  0.21996420204E+04 0.  0.
        5    1    3    3  502    0 -0.96997243642E+02  0.82693577958E+03  0.81696560585E+03  0.11664845220E+04  0.46999998093E+01 0. -1.
       -5    1    3    3    0  502  0.96997243642E+02 -0.82693577958E+03 -0.62561597673E+03  0.10414646845E+04  0.46999998093E+01 0.  1.
</event>
<event>
 5   0  0.2532239E-06  0.2200334E+04  0.7818609E-02  0.8518289E-01
       -2   -1    0    0    0  501  0.00000000000E+00  0.00000000000E+00  0.11557846237E+04  0.11557846237E+04  0.25500000920E-02 0. -1.
        2   -1    0    0  501    0  0.00000000000E+00  0.00000000000E+00 -0.10472254206E+04  0.10472254206E+04  0.25500000920E-02 0.  1.
    10030    2    1    2    0    0  0.00000000000E+00  0.00000000000E+00  0.10855920310E+03  0.22030100444E+04  0.22003336463E+04 0.  0.
        3    1    3    3  502    0 -0.68443559186E+03 -0.63791874936E+03 -0.52519430943E+03  0.10729498977E+04  0.10100000352E+00 0.  1.
       -3    1    3    3    0  502  0.68443559186E+03  0.63791874936E+03  0.63375351253E+03  0.11300601466E+04  0.10100000352E+00 0. -1.
</event>
<event>
 5   0  0.2532239E-06  0.2199537E+04  0.7818609E-02  0.8518621E-01
        2   -1    0    0  501    0  0.00000000000E+00  0.00000000000E+00  0.19678196638E+04  0.19678196638E+04  0.25500000920E-02 0.  1.
       -2   -1    0    0    0  501  0.00000000000E+00  0.00000000000E+00 -0.61463502072E+03  0.61463502072E+03  0.25500000920E-02 0. -1.
    10030    2    1    2    0    0  0.00000000000E+00  0.00000000000E+00  0.13531846430E+04  0.25824546845E+04  0.21995371148E+04 0.  0.
        3    1    3    3  502    0  0.10955716346E+03 -0.60675233537E+03  0.17458137226E+04  0.18514904085E+04  0.10100000352E+00 0.  1.
       -3    1    3    3    0  502 -0.10955716346E+03  0.60675233537E+03 -0.39262907952E+03  0.73096427602E+03  0.10100000352E+00 0. -1.
</event>
<event>
 5   0  0.1107101E-06  0.2200943E+04  0.7818609E-02  0.8518036E-01
       -1   -1    0    0    0  501  0.00000000000E+00  0.00000000000E+00  0.45154944218E+03  0.45154944221E+03  0.50400001928E-02 0. -1.
        1   -1    0    0  501    0  0.00000000000E+00  0.00000000000E+00 -0.26819606218E+04  0.26819606218E+04  0.50400001928E-02 0.  1.
    10030    2    1    2    0    0  0.00000000000E+00  0.00000000000E+00 -0.22304111796E+04  0.31335100640E+04  0.22009432730E+04 0.  0.
        1    1    3    3  502    0 -0.88545645711E+03 -0.64946141201E+03 -0.10124952330E+04  0.14936464977E+04  0.50400001928E-02 0.  1.
       -1    1    3    3    0  502  0.88545645711E+03  0.64946141201E+03 -0.12179159466E+04  0.16398635664E+04  0.50400001928E-02 0. -1.
</event>
<event>
 5   0  0.1146827E-06  0.2196541E+04  0.7818609E-02  0.8519869E-01
        1   -1    0    0  501    0  0.00000000000E+00  0.00000000000E+00  0.88406963612E+03  0.88406963614E+03  0.50400001928E-02 0.  1.
       -1   -1    0    0    0  501  0.00000000000E+00  0.00000000000E+00 -0.13643703356E+04  0.13643703356E+04  0.50400001928E-02 0. -1.
    10030    2    1    2    0    0  0.00000000000E+00  0.00000000000E+00 -0.48030069951E+03  0.22484399718E+04  0.21965412686E+04 0.  0.
        4    1    3    3  502    0  0.68184544760E+03 -0.48630790655E+02 -0.11200643566E+04  0.13121828927E+04  0.12699999809E+01 0. -1.
       -4    1    3    3    0  502 -0.68184544760E+03  0.48630790655E+02  0.63976365708E+03  0.93625707903E+03  0.12699999809E+01 0.  1.
</event>
<event>
 5   0  0.1107101E-06  0.2200891E+04  0.7818609E-02  0.8518057E-01
       -1   -1    0    0    0  501  0.00000000000E+00  0.00000000000E+00  0.99562066268E+03  0.99562066269E+03  0.50400001928E-02 0.  1.
        1   -1    0    0  501    0  0.00000000000E+00  0.00000000000E+00 -0.12163072655E+04  0.12163072655E+04  0.50400001928E-02 0. -1.
    10030    2    1    2    0    0  0.00000000000E+00  0.00000000000E+00 -0.22068660282E+03  0.22119279282E+04  0.22008913156E+04 0.  0.
        1    1    3    3  502    0 -0.58679880165E+00  0.10617725264E+04  0.18027697269E+03  0.10769684439E+04  0.50400001928E-02 0.  1.
       -1    1    3    3    0  502  0.58679880165E+00 -0.10617725264E+04 -0.40096357552E+03  0.11349594843E+04  0.50400001928E-02 0. -1.
</event>
<event>
 5   0  0.8905000E-07  0.2200373E+04  0.7818609E-02  0.8518273E-01
        3   -1    0    0  501    0  0.00000000000E+00  0.00000000000E+00  0.72630441333E+03  0.72630442035E+03  0.10100000352E+00 0. -1.
       -3   -1    0    0    0  501  0.00000000000E+00  0.00000000000E+00 -0.16665326622E+04  0.16665326652E+04  0.10100000352E+00 0.  1.
    10030    2    1    2    0    0  0.00000000000E+00  0.00000000000E+00 -0.94022824885E+03  0.23928370856E+04  0.22003727317E+04 0.  0.
        2    1    3    3  502    0  0.10303243996E+04 -0.31106846354E+03 -0.71828131723E+03  0.12939319951E+04  0.25500000920E-02 0.  1.
       -2    1    3    3    0  502 -0.10303243996E+04  0.31106846354E+03 -0.22194693162E+03  0.10989050904E+04  0.25500000920E-02 0. -1.
</event>
<event>
 5   0  0.1144271E-06  0.2201531E+04  0.7818609E-02  0.8517791E-01
       -1   -1    0    0    0  501  0.00000000000E+00  0.00000000000E+00  0.69843984997E+03  0.69843984999E+03  0.50400001928E-02 0.  1.
        1   -1    0    0  501    0  0.00000000000E+00  0.00000000000E+00 -0.17348442126E+04  0.17348442126E+04  0.50400001928E-02 0. -1.
    10030    2    1    2    0    0  0.00000000000E+00  0.00000000000E+00 -0.10364043626E+04  0.24332840626E+04  0.22015306781E+04 0.  0.
        3    1    3    3  502    0  0.35191346065E+03  0.75590641491E+03  0.27609100252E+03  0.87833014508E+03  0.10100000352E+00 0.  1.
       -3    1    3    3    0  502 -0.35191346065E+03 -0.75590641491E+03 -0.13124953652E+04  0.15549539175E+04  0.10100000352E+00 0. -1.
</event>
<event>
 5   0  0.1146827E-06  0.2200216E+04  0.7818609E-02  0.8518338E-01
        1   -1    0    0  501    0  0.00000000000E+00  0.00000000000E+00  0.14781599697E+04  0.14781599697E+04  0.50400001928E-02 0. -1.
       -1   -1    0    0    0  501  0.00000000000E+00  0.00000000000E+00 -0.81874567564E+03  0.81874567565E+03  0.50400001928E-02 0.  1.
    10030    2    1    2    0    0  0.00000000000E+00  0.00000000000E+00  0.65941429407E+03  0.22969056454E+04  0.22002155196E+04 0.  0.
        4    1    3    3  502    0 -0.71195667703E+03  0.97504385920E+00  0.12052236960E+04  0.13998032115E+04  0.12699999809E+01 0. -1.
       -4    1    3    3    0  502  0.71195667703E+03 -0.97504385920E+00 -0.54580940193E+03  0.89710243385E+03  0.12699999809E+01 0.  1.
</event>
<event>
 5   0  0.1082209E-06  0.2200576E+04  0.7818609E-02  0.8518188E-01
       -1   -1    0    0    0  501  0.00000000000E+00  0.00000000000E+00  0.13575910392E+04  0.13575910392E+04  0.50400001928E-02 0.  1.
        1   -1    0    0  501    0  0.00000000000E+00  0.00000000000E+00 -0.89175145971E+03  0.89175145972E+03  0.50400001928E-02 0. -1.
    10030    2    1    2    0    0  0.00000000000E+00  0.00000000000E+00  0.46583957952E+03  0.22493424990E+04  0.22005760982E+04 0.  0.
        2    1    3    3  502    0  0.70352345310E+03  0.22408062415E+03  0.10667651792E+04  0.12973609069E+04  0.25500000920E-02 0.  1.
       -2    1    3    3    0  502 -0.70352345310E+03 -0.22408062415E+03 -0.60092559971E+03  0.95198159204E+03  0.25500000920E-02 0. -1.
</event>
<event>
 5   0  0.2606154E-06  0.2199576E+04  0.7818609E-02  0.8518605E-01
        2   -1    0    0  501    0  0.00000000000E+00  0.00000000000E+00  0.10691032545E+04  0.10691032545E+04  0.25500000920E-02 0. -1.
       -2   -1    0    0    0  501  0.00000000000E+00  0.00000000000E+00 -0.11313531980E+04  0.11313531980E+04  0.25500000920E-02 0.  1.
    10030    2    1    2    0    0  0.00000000000E+00  0.00000000000E+00 -0.62249943504E+02  0.22004564526E+04  0.21995757646E+04 0.  0.
        2    1    3    3  502    0 -0.78810819005E+02 -0.43496186784E+03 -0.10385686040E+04  0.11287283627E+04  0.25500000920E-02 0.  1.
       -2    1    3    3    0  502  0.78810819005E+02  0.43496186784E+03  0.97631866048E+03  0.10717280898E+04  0.25500000920E-02 0. -1.
</event>
<event>
 5   0  0.1137869E-06  0.2201001E+04  0.7818609E-02  0.8518012E-01
        1   -1    0    0  501    0  0.00000000000E+00  0.00000000000E+00  0.67444868505E+03  0.67444868507E+03  0.50400001928E-02 0. -1.
       -1   -1    0    0    0  501  0.00000000000E+00  0.00000000000E+00 -0.17956909640E+04  0.17956909640E+04  0.50400001928E-02 0.  1.
    10030    2    1    2    0    0  0.00000000000E+00  0.00000000000E+00 -0.11212422790E+04  0.24701396491E+04  0.22010010536E+04 0.  0.
        5    1    3    3  502    0 -0.47419074196E+03  0.83407061560E+03 -0.11655589089E+04  0.15096623171E+04  0.46999998093E+01 0.  1.
       -5    1    3    3    0  502  0.47419074196E+03 -0.83407061560E+03  0.44316629951E+02  0.96047733198E+03  0.46999998093E+01 0. -1.
</event>
<event>
 5   0  0.1144271E-06  0.2210896E+04  0.7818609E-02  0.8513907E-01
       -1   -1    0    0    0  501  0.00000000000E+00  0.00000000000E+00  0.13050932135E+04  0.13050932135E+04  0.50400001928E-02 0. -1.
        1   -1    0    0  501    0  0.00000000000E+00  0.00000000000E+00 -0.93634327561E+03  0.93634327562E+03  0.50400001928E-02 0.  1.
    10030    2    1    2    0    0  0.00000000000E+00  0.00000000000E+00  0.36874993786E+03  0.22414364891E+04  0.22108959763E+04 0.  0.
        3    1    3    3  502    0 -0.91074104765E+03  0.47862201499E+03  0.59429550984E+03  0.11881563249E+04  0.10100000352E+00 0. -1.
       -3    1    3    3    0  502  0.91074104765E+03 -0.47862201499E+03 -0.22554557199E+03  0.10532801642E+04  0.10100000352E+00 0.  1.
</event>
<event>
 5   0  0.2606154E-06  0.2207864E+04  0.7818609E-02  0.8515162E-01
        2   -1    0    0  501    0  0.00000000000E+00  0.00000000000E+00  0.99049144772E+03  0.99049144773E+03  0.25500000920E-02 0.  1.
       -2   -1    0    0    0  501  0.00000000000E+00  0.00000000000E+00 -0.12303653193E+04  0.12303653193E+04  0.25500000920E-02 0. -1.
    10030    2    1    2    0    0  0.00000000000E+00  0.00000000000E+00 -0.23987387153E+03  0.22208567670E+04  0.22078644218E+04 0.  0.
        2    1    3    3  502    0 -0.49625931541E+03  0.71177063578E+03  0.56655668579E+03  0.10362804757E+04  0.25500000920E-02 0.  1.
       -2    1    3    3    0  502  0.49625931541E+03 -0.71177063578E+03 -0.80643055732E+03  0.11845762913E+04  0.25500000920E-02 0. -1.
</event>
<event>
 5   0  0.1082209E-06  0.2198819E+04  0.7818609E-02  0.8518920E-01
       -1   -1    0    0    0  501  0.00000000000E+00  0.00000000000E+00  0.55843045899E+03  0.55843045901E+03  0.50400001928E-02 0. -1.
        1   -1    0    0  501    0  0.00000000000E+00  0.00000000000E+00 -0.21644622727E+04  0.21644622727E+04  0.50400001928E-02 0.  1.
    10030    2    1    2    0    0  0.00000000000E+00  0.00000000000E+00 -0.16060318137E+04  0.27228927317E+04  0.21988193745E+04 0.  0.
        2    1    3    3  502    0 -0.91439250053E+03  0.34720389837E+03 -0.18132640755E+03  0.99475798974E+03  0.25500000920E-02 0. -1.
       -2    1    3    3    0  502  0.91439250053E+03 -0.34720389837E+03 -0.14247054061E+04  0.17281347419E+04  0.25500000920E-02 0.  1.
</event>
<event>
 5   0  0.1137869E-06  0.2199971E+04  0.7818609E-02  0.8518440E-01
       -1   -1    0    0    0  501  0.00000000000E+00  0.00000000000E+00  0.80237333170E+03  0.80237333171E+03  0.50400001928E-02 0. -1.
        1   -1    0    0  501    0  0.00000000000E+00  0.00000000000E+00 -0.15079858139E+04  0.15079858139E+04  0.50400001928E-02 0.  1.
    10030    2    1    2    0    0  0.00000000000E+00  0.00000000000E+00 -0.70561248217E+03  0.23103591456E+04  0.21999705468E+04 0.  0.
        5    1    3    3  502    0  0.68644956954E+03  0.25461256548E+03 -0.12149147871E+04  0.14184782691E+04  0.46999998093E+01 0.  1.
       -5    1    3    3    0  502 -0.68644956954E+03 -0.25461256548E+03  0.50930230493E+03  0.89188087648E+03  0.46999998093E+01 0. -1.
</event>
<event>
 5   0  0.2581058E-06  0.2200118E+04  0.7818609E-02  0.8518379E-01
       -2   -1    0    0    0  501  0.00000000000E+00  0.00000000000E+00  0.56917880662E+03  0.56917880662E+03  0.25500000920E-02 0.  1.
        2   -1    0    0  501    0  0.00000000000E+00  0.00000000000E+00 -0.21260985573E+04  0.21260985573E+04  0.25500000920E-02 0. -1.
    10030    2    1    2    0    0  0.00000000000E+00  0.00000000000E+00 -0.15569197507E+04  0.26952773640E+04  0.22001183965E+04 0.  0.
        1    1    3    3  502    0 -0.10205136181E+04 -0.38006552612E+03 -0.96916200518E+03  0.14577972565E+04  0.50400001928E-02 0.  1.
       -1    1    3    3    0  502  0.10205136181E+04  0.38006552612E+03 -0.58775774554E+03  0.12374801074E+04  0.50400001928E-02 0. -1.
</event>
<event>
 5   0  0.2606154E-06  0.2200271E+04  0.7818609E-02  0.8518315E-01
       -2   -1    0    0    0  501  0.00000000000E+00  0.00000000000E+00  0.17266206828E+04  0.17266206828E+04  0.25500000920E-02 0. -1.
        2   -1    0    0  501    0  0.00000000000E+00  0.00000000000E+00 -0.70096334402E+03  0.70096334402E+03  0.25500000920E-02 0.  1.
    10030    2    1    2    0    0  0.00000000000E+00  0.00000000000E+00  0.10256573387E+04  0.24275840268E+04  0.22002707176E+04 0.  0.
        2    1    3    3  502    0 -0.70384023468E+02  0.10925215152E+04  0.63237712200E+03  0.12643013867E+04  0.25500000920E-02 0. -1.
       -2    1    3    3    0  502  0.70384023468E+02 -0.10925215152E+04  0.39328021674E+03  0.11632826401E+04  0.25500000920E-02 0.  1.
</event>
<event>
 5   0  0.2524749E-06  0.2199379E+04  0.7818609E-02  0.8518687E-01
       -2   -1    0    0    0  501  0.00000000000E+00  0.00000000000E+00  0.17903868550E+04  0.17903868550E+04  0.25500000920E-02 0. -1.
        2   -1    0    0  501    0  0.00000000000E+00  0.00000000000E+00 -0.67545004899E+03  0.67545004900E+03  0.25500000920E-02 0.  1.
    10030    2    1    2    0    0  0.00000000000E+00  0.00000000000E+00  0.11149368060E+04  0.24658369040E+04  0.21993789023E+04 0.  0.
        4    1    3    3  502    0 -0.59431717357E+03 -0.85421384490E+03  0.95610213182E+03  0.14131620908E+04  0.12699999809E+01 0. -1.
       -4    1    3    3    0  502  0.59431717357E+03  0.85421384490E+03  0.15883467418E+03  0.10526748131E+04  0.12699999809E+01 0.  1.
</event>
<event>
 5   0  0.2556869E-06  0.2200301E+04  0.7818609E-02  0.8518303E-01
        2   -1    0    0  501    0  0.00000000000E+00  0.00000000000E+00  0.27069497680E+04  0.27069497680E+04  0.25500000920E-02 0.  1.
       -2   -1    0    0    0  501  0.00000000000E+00  0.00000000000E+00 -0.44711998019E+03  0.44711998020E+03  0.25500000920E-02 0. -1.
    10030    2    1    2    0    0  0.00000000000E+00  0.00000000000E+00  0.22598297878E+04  0.31540697482E+04  0.22003011854E+04 0.  0.
        5    1    3    3  502    0 -0.25841523572E+03 -0.10371984194E+04  0.15030315046E+04  0.18443656875E+04  0.46999998093E+01 0.  1.
       -5    1    3    3    0  502  0.25841523572E+03  0.10371984194E+04  0.75679828317E+03  0.13097040607E+04  0.46999998093E+01 0. -1.
</event>
<event>
 5   0  0.2524749E-06  0.2200700E+04  0.7818609E-02  0.8518137E-01
       -2   -1    0    0    0  501  0.00000000000E+00  0.00000000000E+00  0.86908542876E+03  0.86908542877E+03  0.25500000920E-02 0.  1.
        2   -1    0    0  501    0  0.00000000000E+00  0.00000000000E+00 -0.13931538676E+04  0.13931538676E+04  0.25500000920E-02 0. -1.
    10030    2    1    2    0    0  0.00000000000E+00  0.00000000000E+00 -0.52406843879E+03  0.22622392963E+04  0.22006996400E+04 0.  0.
        4    1    3    3  502    0 -0.81873381963E+03 -0.71532135613E+03 -0.43635941288E+03  0.11715036748E+04  0.12699999809E+01 0. -1.
       -4    1    3    3    0  502  0.81873381963E+03  0.71532135613E+03 -0.87709025909E+02  0.10907356215E+04  0.12699999809E+01 0.  1.
</event>
<event>
 5   0  0.2581058E-06  0.2199100E+04  0.7818609E-02  0.8518803E-01
        2   -1    0    0  501    0  0.00000000000E+00  0.00000000000E+00  0.17860054904E+04  0.17860054904E+04  0.25500000920E-02 0.  1.
       -2   -1    0    0    0  501  0.00000000000E+00  0.00000000000E+00 -0.67693516071E+03  0.67693516071E+03  0.25500000920E-02 0. -1.
    10030    2    1    2    0    0  0.00000000000E+00  0.00000000000E+00  0.11090703297E+04  0.24629406511E+04  0.21990997373E+04 0.  0.
        1    1    3    3  502    0 -0.12612509336E+03 -0.21784922500E+03  0.17532996823E+04  0.17712779567E+04  0.50400001928E-02 0.  1.
       -1    1    3    3    0  502  0.12612509336E+03  0.21784922500E+03 -0.64422935261E+03  0.69166269438E+03  0.50400001928E-02 0. -1.
</event>
<event>
 5   0  0.1082209E-06  0.2199959E+04  0.7818609E-02  0.8518445E-01
        1   -1    0    0  501    0  0.00000000000E+00  0.00000000000E+00  0.88896422224E+03  0.88896422226E+03  0.50400001928E-02 0. -1.
       -1   -1    0    0    0  501  0.00000000000E+00  0.00000000000E+00 -0.13610836832E+04  0.13610836832E+04  0.50400001928E-02 0.  1.
    10030    2    1    2    0    0  0.00000000000E+00  0.00000000000E+00 -0.47211946092E+03  0.22500479054E+04  0.21999588158E+04 0.  0.
        2    1    3    3  502    0 -0.23958215962E+03 -0.33199302286E+03 -0.12802533240E+04  0.13441233396E+04  0.25500000920E-02 0.  1.
       -2    1    3    3    0  502  0.23958215962E+03  0.33199302286E+03  0.80813386305E+03  0.90592456587E+03  0.25500000920E-02 0. -1.
</event>
<event>
 5   0  0.2606154E-06  0.2199689E+04  0.7818609E-02  0.8518557E-01
       -2   -1    0    0    0  501  0.00000000000E+00  0.00000000000E+00  0.78166708453E+03  0.78166708453E+03  0.25500000920E-02 0. -1.
        2   -1    0    0  501    0  0.00000000000E+00  0.00000000000E+00 -0.15475364771E+04  0.15475364771E+04  0.25500000920E-02 0.  1.
    10030    2    1    2    0    0  0.00000000000E+00  0.00000000000E+00 -0.76586939259E+03  0.23292035616E+04  0.21996893656E+04 0.  0.
        2    1    3    3  502    0 -0.61121540913E+02 -0.51393940638E+03  0.64466234253E+03  0.82671584724E+03  0.25500000920E-02 0. -1.
       -2    1    3    3    0  502  0.61121540913E+02  0.51393940638E+03 -0.14105317351E+04  0.15024877144E+04  0.25500000920E-02 0.  1.
</event>
<event>
 5   0  0.2532239E-06  0.2199320E+04  0.7818609E-02  0.8518711E-01
        2   -1    0    0  501    0  0.00000000000E+00  0.00000000000E+00  0.92073030011E+03  0.92073030011E+03  0.25500000920E-02 0. -1.
       -2   -1    0    0    0  501  0.00000000000E+00  0.00000000000E+00 -0.13133621525E+04  0.13133621525E+04  0.25500000920E-02 0.  1.
    10030    2    1    2    0    0  0.00000000000E+00  0.00000000000E+00 -0.39263185237E+03  0.22340924526E+04  0.21993201939E+04 0.  0.
        3    1    3    3  502    0 -0.16372561846E+03  0.63944731610E+03 -0.10897403503E+04  0.12740616113E+04  0.10100000352E+00 0.  1.
       -3    1    3    3    0  502  0.16372561846E+03 -0.63944731610E+03  0.69710849789E+03  0.96003084130E+03  0.10100000352E+00 0. -1.
</event>
<event>
 5   0  0.8905000E-07  0.2196910E+04  0.7818609E-02  0.8519715E-01
        4   -1    0    0  501    0  0.00000000000E+00  0.00000000000E+00  0.11078866285E+04  0.11078873564E+04  0.12699999809E+01 0.  1.
       -4   -1    0    0    0  501  0.00000000000E+00  0.00000000000E+00 -0.10891018443E+04  0.10891025848E+04  0.12699999809E+01 0. -1.
    10030    2    1    2    0    0  0.00000000000E+00  0.00000000000E+00  0.18784784145E+02  0.21969899412E+04  0.21969096325E+04 0.  0.
        4    1    3    3  502    0 -0.12756977311E+03  0.98446849257E+03  0.47967451933E+03  0.11025159941E+04  0.12699999809E+01 0.  1.
       -4    1    3    3    0  502  0.12756977311E+03 -0.98446849257E+03 -0.46088973518E+03  0.10944739470E+04  0.12699999809E+01 0. -1.
</event>
<event>
 5   0  0.2581058E-06  0.2202170E+04  0.7818609E-02  0.8517526E-01
       -2   -1    0    0    0  501  0.00000000000E+00  0.00000000000E+00  0.63086055550E+03  0.63086055550E+03  0.25500000920E-02 0.  1.
        2   -1    0    0  501    0  0.00000000000E+00  0.00000000000E+00 -0.19217999581E+04  0.19217999581E+04  0.25500000920E-02 0. -1.
    10030    2    1    2    0    0  0.00000000000E+00  0.00000000000E+00 -0.12909394026E+04  0.25526605136E+04  0.22021696476E+04 0.  0.
        1    1    3    3  502    0  0.13461497634E+03 -0.74149703511E+03  0.28507336801E+03  0.80573312586E+03  0.50400001928E-02 0.  1.
       -1    1    3    3    0  502 -0.13461497634E+03  0.74149703511E+03 -0.15760127707E+04  0.17469273878E+04  0.50400001928E-02 0. -1.
</event>
<event>
 5   0  0.1107101E-06  0.2204661E+04  0.7818609E-02  0.8516490E-01
        1   -1    0    0  501    0  0.00000000000E+00  0.00000000000E+00  0.14720253906E+04  0.14720253906E+04  0.50400001928E-02 0. -1.
       -1   -1    0    0    0  501  0.00000000000E+00  0.00000000000E+00 -0.82548370285E+03  0.82548370287E+03  0.50400001928E-02 0.  1.
    10030    2    1    2    0    0  0.00000000000E+00  0.00000000000E+00  0.64654168774E+03  0.22975090935E+04  0.22046613982E+04 0.  0.
        1    1    3    3  502    0 -0.29451492972E+03 -0.20139981346E+02  0.14300669941E+04  0.14602178846E+04  0.50400001928E-02 0. -1.
       -1    1    3    3    0  502  0.29451492972E+03  0.20139981346E+02 -0.78352530641E+03  0.83729120889E+03  0.50400001928E-02 0.  1.
</event>
<event>
 5   0  0.2606154E-06  0.2200150E+04  0.7818609E-02  0.8518366E-01
        2   -1    0    0  501    0  0.00000000000E+00  0.00000000000E+00  0.14256394680E+04  0.14256394680E+04  0.25500000920E-02 0.  1.
       -2   -1    0    0    0  501  0.00000000000E+00  0.00000000000E+00 -0.84885792603E+03  0.84885792604E+03  0.25500000920E-02 0. -1.
    10030    2    1    2    0    0  0.00000000000E+00  0.00000000000E+00  0.57678154197E+03  0.22744973940E+04  0.22001503240E+04 0.  0.
        2    1    3    3  502    0 -0.35185257140E+03  0.96960977796E+03  0.68370228269E+03  0.12374943090E+04  0.25500000920E-02 0.  1.
       -2    1    3    3    0  502  0.35185257140E+03 -0.96960977796E+03 -0.10692074072E+03  0.10370030850E+04  0.25500000920E-02 0. -1.
</event>
<event>
 5   0  0.1144271E-06  0.2199787E+04  0.7818609E-02  0.8518517E-01
        1   -1    0    0  501    0  0.00000000000E+00  0.00000000000E+00  0.74136703728E+03  0.74136703730E+03  0.50400001928E-02 0. -1.
       -1   -1    0    0    0  501  0.00000000000E+00  0.00000000000E+00 -0.16318044593E+04  0.16318044593E+04  0.50400001928E-02 0.  1.
    10030    2    1    2    0    0  0.00000000000E+00  0.00000000000E+00 -0.89043742199E+03  0.23731714966E+04  0.21997872965E+04 0.  0.
        3    1    3    3  502    0  0.10720620065E+04  0.20304385757E+03 -0.59479088539E+03  0.12427067078E+04  0.10100000352E+00 0. -1.
       -3    1    3    3    0  502 -0.10720620065E+04 -0.20304385757E+03 -0.29564653660E+03  0.11304647888E+04  0.10100000352E+00 0.  1.
</event>
<event>
 5   0  0.2556869E-06  0.2198147E+04  0.7818609E-02  0.8519200E-01
        2   -1    0    0  501    0  0.00000000000E+00  0.00000000000E+00  0.89837943865E+03  0.89837943865E+03  0.25500000920E-02 0.  1.
       -2   -1    0    0    0  501  0.00000000000E+00  0.00000000000E+00 -0.13446020342E+04  0.13446020342E+04  0.25500000920E-02 0. -1.
    10030    2    1    2    0    0  0.00000000000E+00  0.00000000000E+00 -0.44622259558E+03  0.22429814729E+04  0.21981472387E+04 0.  0.
        5    1    3    3  502    0  0.39880475020E+03  0.81384405566E+03 -0.85752657176E+03  0.12477024032E+04  0.46999998093E+01 0. -1.
       -5    1    3    3    0  502 -0.39880475020E+03 -0.81384405566E+03  0.41130397618E+03  0.99527906967E+03  0.46999998093E+01 0.  1.
</event>
<event>
 5   0  0.1146827E-06  0.2199672E+04  0.7818609E-02  0.8518565E-01
        1   -1    0    0  501    0  0.00000000000E+00  0.00000000000E+00  0.11020615040E+04  0.11020615040E+04  0.50400001928E-02 0.  1.
       -1   -1    0    0    0  501  0.00000000000E+00  0.00000000000E+00 -0.10976151143E+04  0.10976151143E+04  0.50400001928E-02 0. -1.
    10030    2    1    2    0    0  0.00000000000E+00  0.00000000000E+00  0.44463897137E+01  0.21996766183E+04  0.21996721244E+04 0.  0.
        4    1    3    3  502    0 -0.10370387960E+04 -0.55461742597E+00  0.36854071721E+03  0.11005787773E+04  0.12699999809E+01 0.  1.
       -4    1    3    3    0  502  0.10370387960E+04  0.55461742597E+00 -0.36409432749E+03  0.10990978410E+04  0.12699999809E+01 0. -1.
</event>
<event>
 5   0  0.2524749E-06  0.2200498E+04  0.7818609E-02  0.8518221E-01
        2   -1    0    0  501    0  0.00000000000E+00  0.00000000000E+00  0.15121258386E+04  0.15121258386E+04  0.25500000920E-02 0. -1.
       -2   -1    0    0    0  501  0.00000000000E+00  0.00000000000E+00 -0.80056056250E+03  0.80056056250E+03  0.25500000920E-02 0.  1.
    10030    2    1    2    0    0  0.00000000000E+00  0.00000000000E+00  0.71156527606E+03  0.23126864011E+04  0.22004984089E+04 0.  0.
        4    1    3    3  502    0 -0.91155495438E+02 -0.80555831898E+03 -0.42599130541E+03  0.91580769532E+03  0.12699999809E+01 0.  1.
       -4    1    3    3    0  502  0.91155495438E+02  0.80555831898E+03  0.11375565815E+04  0.13968787057E+04  0.12699999809E+01 0. -1.
</event>
<event>
 5   0  0.1107101E-06  0.2200499E+04  0.7818609E-02  0.8518221E-01
        1   -1    0    0  501    0  0.00000000000E+00  0.00000000000E+00  0.91073613632E+03  0.91073613633E+03  0.50400001928E-02 0.  1.
       -1   -1    0    0    0  501  0.00000000000E+00  0.00000000000E+00 -0.13291979728E+04  0.13291979728E+04  0.50400001928E-02 0. -1.
    10030    2    1    2    0    0  0.00000000000E+00  0.00000000000E+00 -0.41846183643E+03  0.22399341091E+04  0.22004986945E+04 0.  0.
        1    1    3    3  502    0  0.80181161362E+03 -0.73941614357E+03 -0.62034704868E+02  0.10924680324E+04  0.50400001928E-02 0.  1.
       -1    1    3    3    0  502 -0.80181161362E+03  0.73941614357E+03 -0.35642713157E+03  0.11474660767E+04  0.50400001928E-02 0. -1.
</event>
<event>
 5   0  0.2581058E-06  0.2205950E+04  0.7818609E-02  0.8515956E-01
       -2   -1    0    0    0  501  0.00000000000E+00  0.00000000000E+00  0.79180946603E+03  0.79180946603E+03  0.25500000920E-02 0. -1.
        2   -1    0    0  501    0  0.00000000000E+00  0.00000000000E+00 -0.15364226470E+04  0.15364226470E+04  0.25500000920E-02 0.  1.
    10030    2    1    2    0    0  0.00000000000E+00  0.00000000000E+00 -0.74461318095E+03  0.23282321130E+04  0.22059501315E+04 0.  0.
        1    1    3    3  502    0 -0.59053961579E+03  0.38759817833E+03 -0.12663675736E+04  0.14500538669E+04  0.50400001928E-02 0.  1.
       -1    1    3    3    0  502  0.59053961579E+03 -0.38759817833E+03  0.52175439260E+03  0.87817824608E+03  0.50400001928E-02 0. -1.
</event>
<event>
 5   0  0.1146827E-06  0.2200054E+04  0.7818609E-02  0.8518406E-01
        1   -1    0    0  501    0  0.00000000000E+00  0.00000000000E+00  0.63357448584E+03  0.63357448586E+03  0.50400001928E-02 0.  1.
       -1   -1    0    0    0  501  0.00000000000E+00  0.00000000000E+00 -0.19098925159E+04  0.19098925159E+04  0.50400001928E-02 0. -1.
    10030    2    1    2    0    0  0.00000000000E+00  0.00000000000E+00 -0.12763180301E+04  0.25434670018E+04  0.22000537892E+04 0.  0.
        4    1    3    3  502    0  0.86187912938E+03  0.14517802584E+02 -0.14282123961E+04  0.16681842409E+04  0.12699999809E+01 0. -1.
       -4    1    3    3    0  502 -0.86187912938E+03 -0.14517802584E+02  0.15189436601E+03  0.87528276092E+03  0.12699999809E+01 0.  1.
</event>
<event>
 5   0  0.2532239E-06  0.2200543E+04  0.7818609E-02  0.8518202E-01
       -2   -1    0    0    0  501  0.00000000000E+00  0.00000000000E+00  0.76307553388E+03  0.76307553388E+03  0.25500000920E-02 0.  1.
        2   -1    0    0  501    0  0.00000000000E+00  0.00000000000E+00 -0.15864718192E+04  0.15864718192E+04  0.25500000920E-02 0. -1.
    10030    2    1    2    0    0  0.00000000000E+00  0.00000000000E+00 -0.82339628532E+03  0.23495473531E+04  0.22005434151E+04 0.  0.
        3    1    3    3  502    0  0.36058912204E+02 -0.43607841161E+03  0.66618017179E+03  0.79703240694E+03  0.10100000352E+00 0.  1.
       -3    1    3    3    0  502 -0.36058912204E+02  0.43607841161E+03 -0.14895764571E+04  0.15525149461E+04  0.10100000352E+00 0. -1.
</event>
<event>
 5   0  0.1144271E-06  0.2203228E+04  0.7818609E-02  0.8517086E-01
       -1   -1    0    0    0  501  0.00000000000E+00  0.00000000000E+00  0.13969580816E+04  0.13969580816E+04  0.50400001928E-02 0.  1.
        1   -1    0    0  501    0  0.00000000000E+00  0.00000000000E+00 -0.86871122566E+03  0.86871122567E+03  0.50400001928E-02 0. -1.
    10030    2    1    2    0    0  0.00000000000E+00  0.00000000000E+00  0.52824685593E+03  0.22656693073E+04  0.22032277842E+04 0.  0.
        3    1    3    3  502    0  0.26331206635E+03  0.38339925252E+03 -0.76278964903E+03  0.89340712443E+03  0.10100000352E+00 0. -1.
       -3    1    3    3    0  502 -0.26331206635E+03 -0.38339925252E+03  0.12910365050E+04  0.13722621828E+04  0.10100000352E+00 0.  1.
</event>
<event>
 5   0  0.2581058E-06  0.2199613E+04  0.7818609E-02  0.8518589E-01
       -2   -1    0    0    0  501  0.00000000000E+00  0.00000000000E+00  0.97758781913E+03  0.97758781914E+03  0.25500000920E-02 0. -1.
        2   -1    0    0  501    0  0.00000000000E+00  0.00000000000E+00 -0.12373053565E+04  0.12373053565E+04  0.25500000920E-02 0.  1.
    10030    2    1    2    0    0  0.00000000000E+00  0.00000000000E+00 -0.25971753732E+03  0.22148931756E+04  0.21996132797E+04 0.  0.
        1    1    3    3  502    0  0.76776636653E+03 -0.13774875830E+03  0.65085594125E+03  0.10159002757E+04  0.50400001928E-02 0. -1.
       -1    1    3    3    0  502 -0.76776636653E+03  0.13774875830E+03 -0.91057347857E+03  0.11989928998E+04  0.50400001928E-02 0.  1.
</event>
<event>
 5   0  0.1146827E-06  0.2202658E+04  0.7818609E-02  0.8517323E-01
        1   -1    0    0  501    0  0.00000000000E+00  0.00000000000E+00  0.12153086664E+04  0.12153086664E+04  0.50400001928E-02 0. -1.
       -1   -1    0    0    0  501  0.00000000000E+00  0.00000000000E+00 -0.99803910400E+03  0.99803910402E+03  0.50400001928E-02 0.  1.
    10030    2    1    2    0    0  0.00000000000E+00  0.00000000000E+00  0.21726956242E+03  0.22133477705E+04  0.22026580057E+04 0.  0.
        4    1    3    3  502    0  0.54099240034E+03 -0.94717033993E+03 -0.44154216515E+02  0.10916756102E+04  0.12699999809E+01 0.  1.
       -4    1    3    3    0  502 -0.54099240034E+03  0.94717033993E+03  0.26142377894E+03  0.11216721603E+04  0.12699999809E+01 0. -1.
</event>
<event>
 5   0  0.2532239E-06  0.2201383E+04  0.7818609E-02  0.8517853E-01
       -2   -1    0    0    0  501  0.00000000000E+00  0.00000000000E+00  0.45079257090E+03  0.45079257091E+03  0.25500000920E-02 0. -1.
        2   -1    0    0  501    0  0.00000000000E+00  0.00000000000E+00 -0.26875367637E+04  0.26875367637E+04  0.25500000920E-02 0.  1.
    10030    2    1    2    0    0  0.00000000000E+00  0.00000000000E+00 -0.22367441928E+04  0.31383293346E+04  0.22013828446E+04 0.  0.
        3    1    3    3  502    0  0.95431310207E+03  0.50275302802E+03 -0.14308636654E+04  0.17918830718E+04  0.10100000352E+00 0.  1.
       -3    1    3    3    0  502 -0.95431310207E+03 -0.50275302802E+03 -0.80588052747E+03  0.13464462628E+04  0.10100000352E+00 0. -1.
</event>
<event>
 5   0  0.1146827E-06  0.2203302E+04  0.7818609E-02  0.8517055E-01
       -1   -1    0    0    0  501  0.00000000000E+00  0.00000000000E+00  0.24274381811E+04  0.24274381811E+04  0.50400001928E-02 0.  1.
        1   -1    0    0  501    0  0.00000000000E+00  0.00000000000E+00 -0.49996527345E+03  0.49996527348E+03  0.50400001928E-02 0. -1.
    10030    2    1    2    0    0  0.00000000000E+00  0.00000000000E+00  0.19274729077E+04  0.29274034546E+04  0.22033018804E+04 0.  0.
        4    1    3    3  502    0 -0.56265259218E+03 -0.85447159463E+03  0.15065871159E+04  0.18211276716E+04  0.12699999809E+01 0.  1.
       -4    1    3    3    0  502  0.56265259218E+03  0.85447159463E+03  0.42088579179E+03  0.11062757830E+04  0.12699999809E+01 0. -1.
</event>
<event>
 5   0  0.8905000E-07  0.2200937E+04  0.7818609E-02  0.8518038E-01
       -3   -1    0    0    0  501  0.00000000000E+00  0.00000000000E+00  0.94064879989E+03  0.94064880531E+03  0.10100000352E+00 0.  1.
        3   -1    0    0  501    0  0.00000000000E+00  0.00000000000E+00 -0.12874426457E+04  0.12874426496E+04  0.10100000352E+00 0. -1.
    10030    2    1    2    0    0  0.00000000000E+00  0.00000000000E+00 -0.34679384576E+03  0.22280914549E+04  0.22009374276E+04 0.  0.
        2    1    3    3  502    0 -0.96112928580E+02  0.55414755098E+03 -0.11309601928E+04  0.12630867591E+04  0.25500000920E-02 0. -1.
       -2    1    3    3    0  502  0.96112928580E+02 -0.55414755098E+03  0.78416634699E+03  0.96500469587E+03  0.25500000920E-02 0.  1.
</event>
<event>
 5   0  0.1146827E-06  0.2197922E+04  0.7818609E-02  0.8519293E-01
       -1   -1    0    0    0  501  0.00000000000E+00  0.00000000000E+00  0.10783513506E+04  0.10783513506E+04  0.50400001928E-02 0. -1.
        1   -1    0    0  501    0  0.00000000000E+00  0.00000000000E+00 -0.11199650503E+04  0.11199650503E+04  0.50400001928E-02 0.  1.
    10030    2    1    2    0    0  0.00000000000E+00  0.00000000000E+00 -0.41613699670E+02  0.21983164009E+04  0.21979224960E+04 0.  0.
        4    1    3    3  502    0  0.88260990984E+02  0.53981799741E+03 -0.97414121544E+03  0.11172046336E+04  0.12699999809E+01 0.  1.
       -4    1    3    3    0  502 -0.88260990984E+02 -0.53981799741E+03  0.93252751577E+03  0.10811117673E+04  0.12699999809E+01 0. -1.
</event>
<event>
 5   0  0.1137869E-06  0.2199999E+04  0.7818609E-02  0.8518429E-01
       -1   -1    0    0    0  501  0.00000000000E+00  0.00000000000E+00  0.17777826792E+04  0.17777826792E+04  0.50400001928E-02 0.  1.
        1   -1    0    0  501    0  0.00000000000E+00  0.00000000000E+00 -0.68062231086E+03  0.68062231087E+03  0.50400001928E-02 0. -1.
    10030    2    1    2    0    0  0.00000000000E+00  0.00000000000E+00  0.10971603684E+04  0.24584049901E+04  0.21999986867E+04 0.  0.
        5    1    3    3  502    0  0.57471013000E+03 -0.63312983249E+03 -0.22467402769E+03  0.88410724860E+03  0.46999998093E+01 0. -1.
       -5    1    3    3    0  502 -0.57471013000E+03  0.63312983249E+03  0.13218343961E+04  0.15742977415E+04  0.46999998093E+01 0.  1.
</event>
<event>
 5   0  0.2606154E-06  0.2200084E+04  0.7818609E-02  0.8518393E-01
        2   -1    0    0  501    0  0.00000000000E+00  0.00000000000E+00  0.19059085166E+04  0.19059085166E+04  0.25500000920E-02 0.  1.
       -2   -1    0    0    0  501  0.00000000000E+00  0.00000000000E+00 -0.63491617453E+03  0.63491617453E+03  0.25500000920E-02 0. -1.
    10030    2    1    2    0    0  0.00000000000E+00  0.00000000000E+00  0.12709923420E+04  0.25408246911E+04  0.22000837660E+04 0.  0.
        2    1    3    3  502    0 -0.88371928346E+03 -0.57698301827E+03  0.27725552348E+03  0.10912102458E+04  0.25500000920E-02 0. -1.
       -2    1    3    3    0  502  0.88371928346E+03  0.57698301827E+03  0.99373681854E+03  0.14496144452E+04  0.25500000920E-02 0.  1.
</event>
<event>
 5   0  0.2524749E-06  0.2199785E+04  0.7818609E-02  0.8518518E-01
       -2   -1    0    0    0  501  0.00000000000E+00  0.00000000000E+00  0.81286288053E+03  0.81286288054E+03  0.25500000920E-02 0. -1.
        2   -1    0    0  501    0  0.00000000000E+00  0.00000000000E+00 -0.14882749349E+04  0.14882749349E+04  0.25500000920E-02 0.  1.
    10030    2    1    2    0    0  0.00000000000E+00  0.00000000000E+00 -0.67541205435E+03  0.23011378154E+04  0.21997849446E+04 0.  0.
        4    1    3    3  502    0 -0.20650964564E+03  0.85593677992E+03  0.35182087267E+03  0.94818434089E+03  0.12699999809E+01 0.  1.
       -4    1    3    3    0  502  0.20650964564E+03 -0.85593677992E+03 -0.10272329270E+04  0.13529534745E+04  0.12699999809E+01 0. -1.
</event>
<event>
 5   0  0.2556869E-06  0.2200309E+04  0.7818609E-02  0.8518300E-01
        2   -1    0    0  501    0  0.00000000000E+00  0.00000000000E+00  0.18043053658E+04  0.18043053658E+04  0.25500000920E-02 0.  1.
       -2   -1    0    0    0  501  0.00000000000E+00  0.00000000000E+00 -0.67080651587E+03  0.67080651587E+03  0.25500000920E-02 0. -1.
    10030    2    1    2    0    0  0.00000000000E+00  0.00000000000E+00  0.11334988499E+04  0.24751118816E+04  0.22003088838E+04 0.  0.
        5    1    3    3  502    0  0.27077024990E+03  0.74704020767E+03  0.14226533150E+04  0.16295245149E+04  0.46999998093E+01 0.  1.
       -5    1    3    3    0  502 -0.27077024990E+03 -0.74704020767E+03 -0.28915446507E+03  0.84558736673E+03  0.46999998093E+01 0. -1.
</event>
<event>
 5   0  0.2556869E-06  0.2200374E+04  0.7818609E-02  0.8518272E-01
        2   -1    0    0  501    0  0.00000000000E+00  0.00000000000E+00  0.59959475410E+03  0.59959475410E+03  0.25500000920E-02 0. -1.
       -2   -1    0    0    0  501  0.00000000000E+00  0.00000000000E+00 -0.20187165564E+04  0.20187165564E+04  0.25500000920E-02 0.  1.
    10030    2    1    2    0    0  0.00000000000E+00  0.00000000000E+00 -0.14191218023E+04  0.26183113105E+04  0.22003743838E+04 0.  0.
        5    1    3    3  502    0 -0.59543428048E+02 -0.16570936391E+02  0.59751533283E+03  0.60072179810E+03  0.46999998093E+01 0. -1.
       -5    1    3    3    0  502  0.59543428048E+02  0.16570936391E+02 -0.20166371351E+04  0.20175895123E+04  0.46999998093E+01 0.  1.
</event>
<event>
 5   0  0.1146827E-06  0.2199727E+04  0.7818609E-02  0.8518542E-01
       -1   -1    0    0    0  501  0.00000000000E+00  0.00000000000E+00  0.93491917149E+03  0.93491917151E+03  0.50400001928E-02 0.  1.
        1   -1    0    0  501    0  0.00000000000E+00  0.00000000000E+00 -0.12939081836E+04  0.12939081837E+04  0.50400001928E-02 0. -1.
    10030    2    1    2    0    0  0.00000000000E+00  0.00000000000E+00 -0.35898901216E+03  0.22288273552E+04  0.21997268622E+04 0.  0.
        4    1    3    3  502    0 -0.45356264924E+02  0.91928854371E+03  0.43059173203E+03  0.10161493345E+04  0.12699999809E+01 0.  1.
       -4    1    3    3    0  502  0.45356264924E+02 -0.91928854371E+03 -0.78958074419E+03  0.12126780207E+04  0.12699999809E+01 0. -1.
</event>
<event>
 5   0  0.1107101E-06  0.2201655E+04  0.7818609E-02  0.8517740E-01
        1   -1    0    0  501    0  0.00000000000E+00  0.00000000000E+00  0.11217820979E+04  0.11217820979E+04  0.50400001928E-02 0.  1.
       -1   -1    0    0    0  501  0.00000000000E+00  0.00000000000E+00 -0.10802640886E+04  0.10802640887E+04  0.50400001928E-02 0. -1.
    10030    2    1    2    0    0  0.00000000000E+00  0.00000000000E+00  0.41518009284E+02  0.22020461866E+04  0.22016547556E+04 0.  0.
        1    1    3    3  502    0 -0.20809210269E+03  0.54963929180E+03  0.95173878302E+03  0.11185760526E+04  0.50400001928E-02 0.  1.
       -1    1    3    3    0  502  0.20809210269E+03 -0.54963929180E+03 -0.91022077374E+03  0.10834701340E+04  0.50400001928E-02 0. -1.
</event>
<event>
 5   0  0.2532239E-06  0.2199987E+04  0.7818609E-02  0.8518433E-01
       -2   -1    0    0    0  501  0.00000000000E+00  0.00000000000E+00  0.11402206431E+04  0.11402206431E+04  0.25500000920E-02 0.  1.
        2   -1    0    0  501    0  0.00000000000E+00  0.00000000000E+00 -0.10611859669E+04  0.10611859670E+04  0.25500000920E-02 0. -1.
    10030    2    1    2    0    0  0.00000000000E+00  0.00000000000E+00  0.79034676151E+02  0.22014066101E+04  0.21999874051E+04 0.  0.
        3    1    3    3  502    0 -0.92385005723E+03  0.59352030598E+03  0.10452734576E+03  0.11030372877E+04  0.10100000352E+00 0.  1.
       -3    1    3    3    0  502  0.92385005723E+03 -0.59352030598E+03 -0.25492669608E+02  0.10983693223E+04  0.10100000352E+00 0. -1.
</event>
<event>
 5   0  0.2581058E-06  0.2200877E+04  0.7818609E-02  0.8518063E-01
       -2   -1    0    0    0  501  0.00000000000E+00  0.00000000000E+00  0.13015726007E+04  0.13015726007E+04  0.25500000920E-02 0.  1.
        2   -1    0    0  501    0  0.00000000000E+00  0.00000000000E+00 -0.93038637234E+03  0.93038637235E+03  0.25500000920E-02 0. -1.
    10030    2    1    2    0    0  0.00000000000E+00  0.00000000000E+00  0.37118622834E+03  0.22319589730E+04  0.22008774707E+04 0.  0.
        1    1    3    3  502    0 -0.51252412138E+03 -0.49134808945E+03 -0.66703078835E+03  0.97418375712E+03  0.50400001928E-02 0. -1.
       -1    1    3    3    0  502  0.51252412138E+03  0.49134808945E+03  0.10382170167E+04  0.12577752159E+04  0.50400001928E-02 0.  1.
</event>
<event>
 5   0  0.2556869E-06  0.2200569E+04  0.7818609E-02  0.8518191E-01
        2   -1    0    0  501    0  0.00000000000E+00  0.00000000000E+00  0.86945182646E+03  0.86945182646E+03  0.25500000920E-02 0.  1.
       -2   -1    0    0    0  501  0.00000000000E+00  0.00000000000E+00 -0.13924012132E+04  0.13924012132E+04  0.25500000920E-02 0. -1.
    10030    2    1    2    0    0  0.00000000000E+00  0.00000000000E+00 -0.52294938677E+03  0.22618530397E+04  0.22005688156E+04 0.  0.
        5    1    3    3  502    0  0.32264018125E+03  0.15290632939E+03 -0.13311920727E+04  0.13782494174E+04  0.46999998093E+01 0. -1.
       -5    1    3    3    0  502 -0.32264018125E+03 -0.15290632939E+03  0.80824268589E+03  0.88360362234E+03  0.46999998093E+01 0.  1.
</event>
<event>
 5   0  0.1144271E-06  0.2199773E+04  0.7818609E-02  0.8518523E-01
        1   -1    0    0  501    0  0.00000000000E+00  0.00000000000E+00  0.13415629745E+04  0.13415629745E+04  0.50400001928E-02 0.  1.
       -1   -1    0    0    0  501  0.00000000000E+00  0.00000000000E+00 -0.90174707151E+03  0.90174707152E+03  0.50400001928E-02 0. -1.
    10030    2    1    2    0    0  0.00000000000E+00  0.00000000000E+00  0.43981590301E+03  0.22433100460E+04  0.21997731552E+04 0.  0.
        3    1    3    3  502    0  0.40457926720E+03  0.66666166917E+03 -0.57109032086E+03  0.96657453379E+03  0.10100000352E+00 0. -1.
       -3    1    3    3    0  502 -0.40457926720E+03 -0.66666166917E+03  0.10109062239E+04  0.12767355123E+04  0.10100000352E+00 0.  1.
</event>
<event>
 5   0  0.2606154E-06  0.2199849E+04  0.7818609E-02  0.8518491E-01
       -2   -1    0    0    0  501  0.00000000000E+00  0.00000000000E+00  0.14828158174E+04  0.14828158174E+04  0.25500000920E-02 0. -1.
        2   -1    0    0  501    0  0.00000000000E+00  0.00000000000E+00 -0.81590299961E+03  0.81590299961E+03  0.25500000920E-02 0.  1.
    10030    2    1    2    0    0  0.00000000000E+00  0.00000000000E+00  0.66691281775E+03  0.22987188170E+04  0.21998489705E+04 0.  0.
        2    1    3    3  502    0 -0.98639781155E+03  0.70126984209E+02 -0.16978519689E+03  0.10033570898E+04  0.25500000920E-02 0.  1.
       -2    1    3    3    0  502  0.98639781155E+03 -0.70126984209E+02  0.83669801464E+03  0.12953617272E+04  0.25500000920E-02 0. -1.
</event>
<event>
 5   0  0.1107101E-06  0.2200430E+04  0.7818609E-02  0.8518249E-01
       -1   -1    0    0    0  501  0.00000000000E+00  0.00000000000E+00  0.10763882403E+04  0.10763882403E+04  0.50400001928E-02 0. -1.
        1   -1    0    0  501    0  0.00000000000E+00  0.00000000000E+00 -0.11245690253E+04  0.11245690254E+04  0.50400001928E-02 0.  1.
    10030    2    1    2    0    0  0.00000000000E+00  0.00000000000E+00 -0.48180785048E+02  0.22009572657E+04  0.22004298437E+04 0.  0.
        1    1    3    3  502    0  0.10983758852E+04  0.57178033979E+01  0.39254052820E+02  0.10990919702E+04  0.50400001928E-02 0. -1.
       -1    1    3    3    0  502 -0.10983758852E+04 -0.57178033979E+01 -0.87434837868E+02  0.11018652954E+04  0.50400001928E-02 0.  1.
</event>
<event>
 5   0  0.2532239E-06  0.2200097E+04  0.7818609E-02  0.8518388E-01
        2   -1    0    0  501    0  0.00000000000E+00  0.00000000000E+00  0.14811247420E+04  0.14811247420E+04  0.25500000920E-02 0. -1.
       -2   -1    0    0    0  501  0.00000000000E+00  0.00000000000E+00 -0.81701844065E+03  0.81701844065E+03  0.25500000920E-02 0.  1.
    10030    2    1    2    0    0  0.00000000000E+00  0.00000000000E+00  0.66410630131E+03  0.22981431826E+04  0.22000965680E+04 0.  0.
        3    1    3    3  502    0 -0.52269201537E+03  0.32692424134E+03  0.12837082297E+04  0.14240762731E+04  0.10100000352E+00 0. -1.
       -3    1    3    3    0  502  0.52269201537E+03 -0.32692424134E+03 -0.61960192835E+03  0.87406690952E+03  0.10100000352E+00 0.  1.
</event>
<event>
 5   0  0.2606154E-06  0.2199893E+04  0.7818609E-02  0.8518472E-01
       -2   -1    0    0    0  501  0.00000000000E+00  0.00000000000E+00  0.90845760117E+03  0.90845760118E+03  0.25500000920E-02 0.  1.
        2   -1    0    0  501    0  0.00000000000E+00  0.00000000000E+00 -0.13317988587E+04  0.13317988587E+04  0.25500000920E-02 0. -1.
    10030    2    1    2    0    0  0.00000000000E+00  0.00000000000E+00 -0.42334125757E+03  0.22402564599E+04  0.21998934488E+04 0.  0.
        2    1    3    3  502    0  0.19685790656E+03 -0.10811091540E+04 -0.26085543489E+03  0.11294226826E+04  0.25500000920E-02 0. -1.
       -2    1    3    3    0  502 -0.19685790656E+03  0.10811091540E+04 -0.16248582267E+03  0.11108337773E+04  0.25500000920E-02 0.  1.
</event>
<event>
 5   0  0.1107101E-06  0.2199414E+04  0.7818609E-02  0.8518672E-01
        1   -1    0    0  501    0  0.00000000000E+00  0.00000000000E+00  0.11699141797E+04  0.11699141797E+04  0.50400001928E-02 0. -1.
       -1   -1    0    0    0  501  0.00000000000E+00  0.00000000000E+00 -0.10337130451E+04  0.10337130451E+04  0.50400001928E-02 0.  1.
    10030    2    1    2    0    0  0.00000000000E+00  0.00000000000E+00  0.13620113463E+03  0.22036272248E+04  0.21994140576E+04 0.  0.
        1    1    3    3  502    0 -0.76640335914E+03  0.14845533177E+03 -0.70794269126E+03  0.10538481620E+04  0.50400001928E-02 0.  1.
       -1    1    3    3    0  502  0.76640335914E+03 -0.14845533177E+03  0.84414382589E+03  0.11497790628E+04  0.50400001928E-02 0. -1.
</event>
<event>
 5   0  0.2556869E-06  0.2199502E+04  0.7818609E-02  0.8518635E-01
       -2   -1    0    0    0  501  0.00000000000E+00  0.00000000000E+00  0.10067780093E+04  0.10067780093E+04  0.25500000920E-02 0.  1.
        2   -1    0    0  501    0  0.00000000000E+00  0.00000000000E+00 -0.12013098865E+04  0.12013098865E+04  0.25500000920E-02 0. -1.
    10030    2    1    2    0    0  0.00000000000E+00  0.00000000000E+00 -0.19453187723E+03  0.22080878958E+04  0.21995021037E+04 0.  0.
        5    1    3    3  502    0 -0.59184869598E+03 -0.77109338448E+03 -0.61362808132E+03  0.11495352968E+04  0.46999998093E+01 0. -1.
       -5    1    3    3    0  502  0.59184869598E+03  0.77109338448E+03  0.41909620409E+03  0.10585525990E+04  0.46999998093E+01 0.  1.
</event>
<event>
 5   0  0.2606154E-06  0.2200134E+04  0.7818609E-02  0.8518372E-01
       -2   -1    0    0    0  501  0.00000000000E+00  0.00000000000E+00  0.62782602352E+03  0.62782602353E+03  0.25500000920E-02 0. -1.
        2   -1    0    0  501    0  0.00000000000E+00  0.00000000000E+00 -0.19275204783E+04  0.19275204783E+04  0.25500000920E-02 0.  1.
    10030    2    1    2    0    0  0.00000000000E+00  0.00000000000E+00 -0.12996944548E+04  0.25553465018E+04  0.22001341024E+04 0.  0.
        2    1    3    3  502    0  0.47674706108E+03 -0.59940111301E+03  0.26731478752E+03  0.81118841841E+03  0.25500000920E-02 0. -1.
       -2    1    3    3    0  502 -0.47674706108E+03  0.59940111301E+03 -0.15670092423E+04  0.17441580834E+04  0.25500000920E-02 0.  1.
</event>
<event>
 5   0  0.2556869E-06  0.2200450E+04  0.7818609E-02  0.8518241E-01
       -2   -1    0    0    0  501  0.00000000000E+00  0.00000000000E+00  0.19238235616E+04  0.19238235616E+04  0.25500000920E-02 0.  1.
        2   -1    0    0  501    0  0.00000000000E+00  0.00000000000E+00 -0.62921338011E+03  0.62921338012E+03  0.25500000920E-02 0. -1.
    10030    2    1    2    0    0  0.00000000000E+00  0.00000000000E+00  0.12946101815E+04  0.25530369417E+04  0.22004504320E+04 0.  0.
        5    1    3    3  502    0 -0.10520476677E+04  0.21786352363E+03  0.37224249316E+03  0.11370379825E+04  0.46999998093E+01 0.  1.
       -5    1    3    3    0  502  0.10520476677E+04 -0.21786352363E+03  0.92236768832E+03  0.14159989592E+04  0.46999998093E+01 0. -1.
</event>
<event>
 5   0  0.1107101E-06  0.2207849E+04  0.7818609E-02  0.8515168E-01
        1   -1    0    0  501    0  0.00000000000E+00  0.00000000000E+00  0.58565884563E+03  0.58565884566E+03  0.50400001928E-02 0.  1.
       -1   -1    0    0    0  501  0.00000000000E+00  0.00000000000E+00 -0.20808180059E+04  0.20808180059E+04  0.50400001928E-02 0. -1.
    10030    2    1    2    0    0  0.00000000000E+00  0.00000000000E+00 -0.14951591602E+04  0.26664768515E+04  0.22078491537E+04 0.  0.
        1    1    3    3  502    0 -0.85939775483E+03 -0.33198113446E+03 -0.14820850366E+04  0.17450937025E+04  0.50400001928E-02 0. -1.
       -1    1    3    3    0  502  0.85939775483E+03  0.33198113446E+03 -0.13074123626E+02  0.92138314906E+03  0.50400001928E-02 0.  1.
</event>
<event>
 5   0  0.2524749E-06  0.2200227E+04  0.7818609E-02  0.8518334E-01
       -2   -1    0    0    0  501  0.00000000000E+00  0.00000000000E+00  0.18502307979E+04  0.18502307980E+04  0.25500000920E-02 0.  1.
        2   -1    0    0  501    0  0.00000000000E+00  0.00000000000E+00 -0.65410740170E+03  0.65410740170E+03  0.25500000920E-02 0. -1.
    10030    2    1    2    0    0  0.00000000000E+00  0.00000000000E+00  0.11961233963E+04  0.25043381997E+04  0.22002269517E+04 0.  0.
        4    1    3    3  502    0 -0.65204102821E+02 -0.50247734851E+03  0.17095088156E+04  0.17830190869E+04  0.12699999809E+01 0.  1.
       -4    1    3    3    0  502  0.65204102821E+02  0.50247734851E+03 -0.51338541931E+03  0.72131911277E+03  0.12699999809E+01 0. -1.
</event>
<event>
 5   0  0.2532239E-06  0.2199474E+04  0.7818609E-02  0.8518647E-01
       -2   -1    0    0    0  501  0.00000000000E+00  0.00000000000E+00  0.63499279500E+03  0.63499279500E+03  0.25500000920E-02 0.  1.
        2   -1    0    0  501    0  0.00000000000E+00  0.00000000000E+00 -0.19046231953E+04  0.19046231953E+04  0.25500000920E-02 0. -1.
    10030    2    1    2    0    0  0.00000000000E+00  0.00000000000E+00 -0.12696304003E+04  0.25396159903E+04  0.21994744884E+04 0.  0.
        3    1    3    3  502    0 -0.35004470649E+03  0.10222186648E+04 -0.39829659158E+03  0.11515652306E+04  0.10100000352E+00 0.  1.
       -3    1    3    3    0  502  0.35004470649E+03 -0.10222186648E+04 -0.87133380875E+03  0.13880507598E+04  0.10100000352E+00 0. -1.
</event>
<event>
 5   0  0.2556869E-06  0.2199951E+04  0.7818609E-02  0.8518449E-01
       -2   -1    0    0    0  501  0.00000000000E+00  0.00000000000E+00  0.10130099794E+04  0.10130099794E+04  0.25500000920E-02 0. -1.
        2   -1    0    0  501    0  0.00000000000E+00  0.00000000000E+00 -0.11944065310E+04  0.11944065310E+04  0.25500000920E-02 0.  1.
    10030    2    1    2    0    0  0.00000000000E+00  0.00000000000E+00 -0.18139655154E+03  0.22074165104E+04  0.21999506680E+04 0.  0.
        5    1    3    3  502    0  0.24852010538E+02  0.86869055965E+03 -0.76728827776E+03  0.11593076822E+04  0.46999998093E+01 0.  1.
       -5    1    3    3    0  502 -0.24852010538E+02 -0.86869055965E+03  0.58589172622E+03  0.10481088282E+04  0.46999998093E+01 0. -1.
</event>
<event>
 5   0  0.2532239E-06  0.2199037E+04  0.7818609E-02  0.8518829E-01
        2   -1    0    0  501    0  0.00000000000E+00  0.00000000000E+00  0.21424404077E+04  0.21424404077E+04  0.25500000920E-02 0.  1.
       -2   -1    0    0    0  501  0.00000000000E+00  0.00000000000E+00 -0.56428240582E+03  0.56428240582E+03  0.25500000920E-02 0. -1.
    10030    2    1    2    0    0  0.00000000000E+00  0.00000000000E+00  0.15781580018E+04  0.27067228135E+04  0.21990374509E+04 0.  0.
        3    1    3    3  502    0  0.11893102179E+03  0.92747768803E+03  0.15010501957E+04  0.17684770708E+04  0.10100000352E+00 0.  1.
       -3    1    3    3    0  502 -0.11893102179E+03 -0.92747768803E+03  0.77107806169E+02  0.93824574271E+03  0.10100000352E+00 0. -1.
</event>
<event>
 5   0  0.1144271E-06  0.2200271E+04  0.7818609E-02  0.8518315E-01
        1   -1    0    0  501    0  0.00000000000E+00  0.00000000000E+00  0.94186965505E+03  0.94186965506E+03  0.50400001928E-02 0.  1.
       -1   -1    0    0    0  501  0.00000000000E+00  0.00000000000E+00 -0.12849955198E+04  0.12849955198E+04  0.50400001928E-02 0. -1.
    10030    2    1    2    0    0  0.00000000000E+00  0.00000000000E+00 -0.34312586477E+03  0.22268651749E+04  0.22002711533E+04 0.  0.
        3    1    3    3  502    0 -0.10070014133E+02  0.74950731724E+03 -0.98655083343E+03  0.12390097582E+04  0.10100000352E+00 0. -1.
       -3    1    3    3    0  502  0.10070014133E+02 -0.74950731724E+03  0.64342496866E+03  0.98785541669E+03  0.10100000352E+00 0.  1.
</event>
<event>
 5   0  0.1144271E-06  0.2203161E+04  0.7818609E-02  0.8517114E-01
        1   -1    0    0  501    0  0.00000000000E+00  0.00000000000E+00  0.14732336175E+04  0.14732336175E+04  0.50400001928E-02 0. -1.
       -1   -1    0    0    0  501  0.00000000000E+00  0.00000000000E+00 -0.82368444507E+03  0.82368444509E+03  0.50400001928E-02 0.  1.
    10030    2    1    2    0    0  0.00000000000E+00  0.00000000000E+00  0.64954917242E+03  0.22969180626E+04  0.22031610152E+04 0.  0.
        3    1    3    3  502    0 -0.68691741448E+03 -0.22441108310E+03 -0.54202990307E+03  0.90333398838E+03  0.10100000352E+00 0.  1.
       -3    1    3    3    0  502  0.68691741448E+03  0.22441108310E+03  0.11915790755E+04  0.13935840742E+04  0.10100000352E+00 0. -1.
</event>
<event>
 5   0  0.2524749E-06  0.2200199E+04  0.7818609E-02  0.8518345E-01
       -2   -1    0    0    0  501  0.00000000000E+00  0.00000000000E+00  0.53302905518E+03  0.53302905519E+03  0.25500000920E-02 0.  1.
        2   -1    0    0  501    0  0.00000000000E+00  0.00000000000E+00 -0.22704556142E+04  0.22704556142E+04  0.25500000920E-02 0. -1.
    10030    2    1    2    0    0  0.00000000000E+00  0.00000000000E+00 -0.17374265590E+04  0.28034846694E+04  0.22001989100E+04 0.  0.
        4    1    3    3  502    0 -0.83570067161E+03  0.54815489286E+03 -0.28293251711E+03  0.10387116160E+04  0.12699999809E+01 0.  1.
       -4    1    3    3    0  502  0.83570067161E+03 -0.54815489286E+03 -0.14544940419E+04  0.17647730534E+04  0.12699999809E+01 0. -1.
</event>
<event>
 5   0  0.1137869E-06  0.2200266E+04  0.7818609E-02  0.8518317E-01
        1   -1    0    0  501    0  0.00000000000E+00  0.00000000000E+00  0.18074570006E+04  0.18074570006E+04  0.50400001928E-02 0. -1.
       -1   -1    0    0    0  501  0.00000000000E+00  0.00000000000E+00 -0.66961095669E+03  0.66961095670E+03  0.50400001928E-02 0.  1.
    10030    2    1    2    0    0  0.00000000000E+00  0.00000000000E+00  0.11378460439E+04  0.24770679573E+04  0.22002663579E+04 0.  0.
        5    1    3    3  502    0 -0.20634135106E+03  0.11143308814E+03  0.17789796522E+04  0.17943758745E+04  0.46999998093E+01 0. -1.
       -5    1    3    3    0  502  0.20634135106E+03 -0.11143308814E+03 -0.64113360824E+03  0.68269208279E+03  0.46999998093E+01 0.  1.
</event>
<event>
 5   0  0.8905000E-07  0.2196320E+04  0.7818609E-02  0.8519962E-01
        3   -1    0    0  501    0  0.00000000000E+00  0.00000000000E+00  0.14525856250E+04  0.14525856285E+04  0.10100000352E+00 0. -1.
       -3   -1    0    0    0  501  0.00000000000E+00  0.00000000000E+00 -0.83021258686E+03  0.83021259301E+03  0.10100000352E+00 0.  1.
    10030    2    1    2    0    0  0.00000000000E+00  0.00000000000E+00  0.62237303815E+03  0.22827982215E+04  0.21963195400E+04 0.  0.
        5    1    3    3  502    0 -0.64859979008E+03  0.87476409722E+03  0.16405399371E+03  0.11012854836E+04  0.46999998093E+01 0. -1.
       -5    1    3    3    0  502  0.64859979008E+03 -0.87476409722E+03  0.45831904445E+03  0.11815127380E+04  0.46999998093E+01 0.  1.
</event>
<event>
 5   0  0.1144271E-06  0.2201458E+04  0.7818609E-02  0.8517821E-01
        1   -1    0    0  501    0  0.00000000000E+00  0.00000000000E+00  0.16863846242E+04  0.16863846242E+04  0.50400001928E-02 0. -1.
       -1   -1    0    0    0  501  0.00000000000E+00  0.00000000000E+00 -0.71846286288E+03  0.71846286290E+03  0.50400001928E-02 0.  1.
    10030    2    1    2    0    0  0.00000000000E+00  0.00000000000E+00  0.96792176135E+03  0.24048474871E+04  0.22014583576E+04 0.  0.
        3    1    3    3  502    0  0.72017557124E+03 -0.59425454605E+03  0.11207524602E+04  0.14587245820E+04  0.10100000352E+00 0. -1.
       -3    1    3    3    0  502 -0.72017557124E+03  0.59425454605E+03 -0.15283069884E+03  0.94612290513E+03  0.10100000352E+00 0.  1.
</event>
<event>
 5   0  0.8905000E-07  0.2196326E+04  0.7818609E-02  0.8519959E-01
        3   -1    0    0  501    0  0.00000000000E+00  0.00000000000E+00  0.83980437651E+03  0.83980438258E+03  0.10100000352E+00 0. -1.
       -3   -1    0    0    0  501  0.00000000000E+00  0.00000000000E+00 -0.14360030676E+04  0.14360030711E+04  0.10100000352E+00 0.  1.
    10030    2    1    2    0    0  0.00000000000E+00  0.00000000000E+00 -0.59619869108E+03  0.22758074537E+04  0.21963257243E+04 0.  0.
        4    1    3    3  502    0  0.95677605924E+03 -0.37223732244E+03  0.10585340420E+03  0.10320792643E+04  0.12699999809E+01 0. -1.
       -4    1    3    3    0  502 -0.95677605924E+03  0.37223732244E+03 -0.70205209528E+03  0.12437281894E+04  0.12699999809E+01 0.  1.
</event>
<event>
 5   0  0.1144271E-06  0.2200760E+04  0.7818609E-02  0.8518112E-01
       -1   -1    0    0    0  501  0.00000000000E+00  0.00000000000E+00  0.12311737726E+04  0.12311737726E+04  0.50400001928E-02 0. -1.
        1   -1    0    0  501    0  0.00000000000E+00  0.00000000000E+00 -0.98348116348E+03  0.98348116349E+03  0.50400001928E-02 0.  1.
    10030    2    1    2    0    0  0.00000000000E+00  0.00000000000E+00  0.24769260909E+03  0.22146549361E+04  0.22007600635E+04 0.  0.
        3    1    3    3  502    0  0.81075099793E+02 -0.10929177819E+04  0.24258083607E+02  0.10961892695E+04  0.10100000352E+00 0. -1.
       -3    1    3    3    0  502 -0.81075099793E+02  0.10929177819E+04  0.22343452549E+03  0.11184656665E+04  0.10100000352E+00 0.  1.
</event>
<event>
 5   0  0.2581058E-06  0.2200083E+04  0.7818609E-02  0.8518394E-01
        2   -1    0    0  501    0  0.00000000000E+00  0.00000000000E+00  0.18493392844E+04  0.18493392844E+04  0.25500000920E-02 0. -1.
       -2   -1    0    0    0  501  0.00000000000E+00  0.00000000000E+00 -0.65433687584E+03  0.65433687585E+03  0.25500000920E-02 0.  1.
    10030    2    1    2    0    0  0.00000000000E+00  0.00000000000E+00  0.11950024085E+04  0.25036761602E+04  0.22000826255E+04 0.  0.
        1    1    3    3  502    0  0.42381774288E+03  0.52849549052E+03  0.15837941942E+04  0.17225948486E+04  0.50400001928E-02 0. -1.
       -1    1    3    3    0  502 -0.42381774288E+03 -0.52849549052E+03 -0.38879178572E+03  0.78108131161E+03  0.50400001928E-02 0.  1.
</event>
<event>
 5   0  0.1082209E-06  0.2199853E+04  0.7818609E-02  0.8518489E-01
       -1   -1    0    0    0  501  0.00000000000E+00  0.00000000000E+00  0.12475100341E+04  0.12475100341E+04  0.50400001928E-02 0.  1.
        1   -1    0    0  501    0  0.00000000000E+00  0.00000000000E+00 -0.96980204948E+03  0.96980204949E+03  0.50400001928E-02 0. -1.
    10030    2    1    2    0    0  0.00000000000E+00  0.00000000000E+00  0.27770798465E+03  0.22173120836E+04  0.21998525295E+04 0.  0.
        2    1    3    3  502    0  0.73642352903E+03  0.62761312796E+03  0.66609250177E+03  0.11746902032E+04  0.25500000920E-02 0.  1.
       -2    1    3    3    0  502 -0.73642352903E+03 -0.62761312796E+03 -0.38838451712E+03  0.10426218805E+04  0.25500000920E-02 0. -1.
</event>
<event>
 5   0  0.1144271E-06  0.2200063E+04  0.7818609E-02  0.8518402E-01
        1   -1    0    0  501    0  0.00000000000E+00  0.00000000000E+00  0.10166881980E+04  0.10166881980E+04  0.50400001928E-02 0. -1.
       -1   -1    0    0    0  501  0.00000000000E+00  0.00000000000E+00 -0.11902066038E+04  0.11902066038E+04  0.50400001928E-02 0.  1.
    10030    2    1    2    0    0  0.00000000000E+00  0.00000000000E+00 -0.17351840583E+03  0.22068948019E+04  0.22000627330E+04 0.  0.
        3    1    3    3  502    0  0.10125672335E+04 -0.41016180701E+03 -0.21578167035E+03  0.11135918686E+04  0.10100000352E+00 0.  1.
       -3    1    3    3    0  502 -0.10125672335E+04  0.41016180701E+03  0.42263264526E+02  0.10933029333E+04  0.10100000352E+00 0. -1.
</event>
<event>
 5   0  0.1082209E-06  0.2199956E+04  0.7818609E-02  0.8518447E-01
       -1   -1    0    0    0  501  0.00000000000E+00  0.00000000000E+00  0.14591111138E+04  0.14591111138E+04  0.50400001928E-02 0. -1.
        1   -1    0    0  501    0  0.00000000000E+00  0.00000000000E+00 -0.82923860306E+03  0.82923860308E+03  0.50400001928E-02 0.  1.
    10030    2    1    2    0    0  0.00000000000E+00  0.00000000000E+00  0.62987251078E+03  0.22883497169E+04  0.21999556921E+04 0.  0.
        2    1    3    3  502    0 -0.64287676324E+03  0.81302173046E+03  0.69805076285E+03  0.12496278384E+04  0.25500000920E-02 0. -1.
       -2    1    3    3    0  502  0.64287676324E+03 -0.81302173046E+03 -0.68178252071E+02  0.10387218785E+04  0.25500000920E-02 0.  1.
</event>
<event>
 5   0  0.1144271E-06  0.2204127E+04  0.7818609E-02  0.8516712E-01
        1   -1    0    0  501    0  0.00000000000E+00  0.00000000000E+00  0.23439772708E+04  0.23439772709E+04  0.50400001928E-02 0.  1.
       -1   -1    0    0    0  501  0.00000000000E+00  0.00000000000E+00 -0.51815519227E+03  0.51815519230E+03  0.50400001928E-02 0. -1.
    10030    2    1    2    0    0  0.00000000000E+00  0.00000000000E+00  0.18258220786E+04  0.28621324631E+04  0.22041270322E+04 0.  0.
        3    1    3    3  502    0 -0.95893617847E+03 -0.22391088345E+03  0.27036752147E+03  0.10211725050E+04  0.10100000352E+00 0. -1.
       -3    1    3    3    0  502  0.95893617847E+03  0.22391088345E+03  0.15554545571E+04  0.18409599581E+04  0.10100000352E+00 0.  1.
</event>
<event>
 5   0  0.2556869E-06  0.2199863E+04  0.7818609E-02  0.8518485E-01
       -2   -1    0    0    0  501  0.00000000000E+00  0.00000000000E+00  0.65805744568E+03  0.65805744568E+03  0.25500000920E-02 0.  1.
        2   -1    0    0  501    0  0.00000000000E+00  0.00000000000E+00 -0.18385168327E+04  0.18385168327E+04  0.25500000920E-02 0. -1.
    10030    2    1    2    0    0  0.00000000000E+00  0.00000000000E+00 -0.11804593870E+04  0.24965742784E+04  0.21998633510E+04 0.  0.
        5    1    3    3  502    0  0.57533980051E+03  0.89861018211E+03 -0.89328956654E+03  0.13915834453E+04  0.46999998093E+01 0. -1.
       -5    1    3    3    0  502 -0.57533980051E+03 -0.89861018211E+03 -0.28716982047E+03  0.11049908331E+04  0.46999998093E+01 0.  1.
</event>
<event>
 5   0  0.2581058E-06  0.2199893E+04  0.7818609E-02  0.8518473E-01
        2   -1    0    0  501    0  0.00000000000E+00  0.00000000000E+00  0.11563806010E+04  0.11563806010E+04  0.25500000920E-02 0. -1.
       -2   -1    0    0    0  501  0.00000000000E+00  0.00000000000E+00 -0.10462664693E+04  0.10462664693E+04  0.25500000920E-02 0.  1.
    10030    2    1    2    0    0  0.00000000000E+00  0.00000000000E+00  0.11011413169E+03  0.22026470703E+04  0.21998929506E+04 0.  0.
        1    1    3    3  502    0 -0.87060221922E+03  0.16037453514E+03  0.70872508874E+03  0.11340015287E+04  0.50400001928E-02 0. -1.
       -1    1    3    3    0  502  0.87060221922E+03 -0.16037453514E+03 -0.59861095705E+03  0.10686455416E+04  0.50400001928E-02 0.  1.
</event>
<event>
 5   0  0.1107101E-06  0.2200469E+04  0.7818609E-02  0.8518233E-01
       -1   -1    0    0    0  501  0.00000000000E+00  0.00000000000E+00  0.78078937362E+03  0.78078937363E+03  0.50400001928E-02 0. -1.
        1   -1    0    0  501    0  0.00000000000E+00  0.00000000000E+00 -0.15503740549E+04  0.15503740549E+04  0.50400001928E-02 0.  1.
    10030    2    1    2    0    0  0.00000000000E+00  0.00000000000E+00 -0.76958468126E+03  0.23311634285E+04  0.22004686657E+04 0.  0.
        1    1    3    3  502    0  0.74759451721E+03 -0.78826570301E+03 -0.20052108587E+03  0.11047484268E+04  0.50400001928E-02 0. -1.
       -1    1    3    3    0  502 -0.74759451721E+03  0.78826570301E+03 -0.56906359539E+03  0.12264150017E+04  0.50400001928E-02 0.  1.
</event>
<event>
 5   0  0.2606154E-06  0.2200170E+04  0.7818609E-02  0.8518357E-01
        2   -1    0    0  501    0  0.00000000000E+00  0.00000000000E+00  0.14872250255E+04  0.14872250255E+04  0.25500000920E-02 0. -1.
       -2   -1    0    0    0  501  0.00000000000E+00  0.00000000000E+00 -0.81372141248E+03  0.81372141249E+03  0.25500000920E-02 0.  1.
    10030    2    1    2    0    0  0.00000000000E+00  0.00000000000E+00  0.67350361303E+03  0.23009464380E+04  0.22001698557E+04 0.  0.
        2    1    3    3  502    0 -0.95333602040E+03 -0.54859922576E+03  0.35703528583E+03  0.11564103396E+04  0.25500000920E-02 0.  1.
       -2    1    3    3    0  502  0.95333602040E+03  0.54859922576E+03  0.31646832720E+03  0.11445360984E+04  0.25500000920E-02 0. -1.
</event>
<event>
 5   0  0.2556869E-06  0.2199369E+04  0.7818609E-02  0.8518691E-01
       -2   -1    0    0    0  501  0.00000000000E+00  0.00000000000E+00  0.76349583732E+03  0.76349583732E+03  0.25500000920E-02 0. -1.
        2   -1    0    0  501    0  0.00000000000E+00  0.00000000000E+00 -0.15839069009E+04  0.15839069009E+04  0.25500000920E-02 0.  1.
    10030    2    1    2    0    0  0.00000000000E+00  0.00000000000E+00 -0.82041106354E+03  0.23474027382E+04  0.21993692964E+04 0.  0.
        5    1    3    3  502    0  0.40565059417E+03 -0.46291290037E+03 -0.13828284262E+04  0.15136305045E+04  0.46999998093E+01 0.  1.
       -5    1    3    3    0  502 -0.40565059417E+03  0.46291290037E+03  0.56241736264E+03  0.83377223369E+03  0.46999998093E+01 0. -1.
</event>
<event>
 5   0  0.1082209E-06  0.2199514E+04  0.7818609E-02  0.8518630E-01
       -1   -1    0    0    0  501  0.00000000000E+00  0.00000000000E+00  0.77173955819E+03  0.77173955821E+03  0.50400001928E-02 0. -1.
        1   -1    0    0  501    0  0.00000000000E+00  0.00000000000E+00 -0.15671938288E+04  0.15671938288E+04  0.50400001928E-02 0.  1.
    10030    2    1    2    0    0  0.00000000000E+00  0.00000000000E+00 -0.79545427061E+03  0.23389333870E+04  0.21995140127E+04 0.  0.
        2    1    3    3  502    0 -0.70695800073E+03  0.10225300817E+03 -0.12869243573E+04  0.14718762156E+04  0.25500000920E-02 0.  1.
       -2    1    3    3    0  502  0.70695800073E+03 -0.10225300817E+03  0.49147008670E+03  0.86705717147E+03  0.25500000920E-02 0. -1.
</event>
<event>
 5   0  0.2606154E-06  0.2200584E+04  0.7818609E-02  0.8518185E-01
       -2   -1    0    0    0  501  0.00000000000E+00  0.00000000000E+00  0.18655573578E+04  0.18655573578E+04  0.25500000920E-02 0. -1.
        2   -1    0    0  501    0  0.00000000000E+00  0.00000000000E+00 -0.64894438608E+03  0.64894438609E+03  0.25500000920E-02 0.  1.
    10030    2    1    2    0    0  0.00000000000E+00  0.00000000000E+00  0.12166129717E+04  0.25145017439E+04  0.22005844444E+04 0.  0.
        2    1    3    3  502    0  0.39107819810E+03 -0.98322243678E+03  0.95295280025E+03  0.14240040578E+04  0.25500000920E-02 0. -1.
       -2    1    3    3    0  502 -0.39107819810E+03  0.98322243678E+03  0.26366017145E+03  0.10904976860E+04  0.25500000920E-02 0.  1.
</event>
<event>
 5   0  0.2532239E-06  0.2211053E+04  0.7818609E-02  0.8513842E-01
        2   -1    0    0  501    0  0.00000000000E+00  0.00000000000E+00  0.13460189977E+04  0.13460189977E+04  0.25500000920E-02 0. -1.
       -2   -1    0    0    0  501  0.00000000000E+00  0.00000000000E+00 -0.90800252596E+03  0.90800252596E+03  0.25500000920E-02 0.  1.
    10030    2    1    2    0    0  0.00000000000E+00  0.00000000000E+00  0.43801647170E+03  0.22540215236E+04  0.22110528260E+04 0.  0.
        3    1    3    3  502    0  0.10325730739E+04  0.33869871195E+03  0.42609298872E+03  0.11672528499E+04  0.10100000352E+00 0.  1.
       -3    1    3    3    0  502 -0.10325730739E+04 -0.33869871195E+03  0.11923482984E+02  0.10867686737E+04  0.10100000352E+00 0. -1.
</event>
<event>
 5   0  0.8905000E-07  0.2200737E+04  0.7818609E-02  0.8518121E-01
       -3   -1    0    0    0  501  0.00000000000E+00  0.00000000000E+00  0.93634943477E+03  0.93634944022E+03  0.10100000352E+00 0. -1.
        3   -1    0    0  501    0  0.00000000000E+00  0.00000000000E+00 -0.12931187615E+04  0.12931187655E+04  0.10100000352E+00 0.  1.
    10030    2    1    2    0    0  0.00000000000E+00  0.00000000000E+00 -0.35676932677E+03  0.22294682057E+04  0.22007371782E+04 0.  0.
        2    1    3    3  502    0 -0.68265374344E+03 -0.86094399805E+03 -0.11785234262E+03  0.11050474541E+04  0.25500000920E-02 0. -1.
       -2    1    3    3    0  502  0.68265374344E+03  0.86094399805E+03 -0.23891698414E+03  0.11244207516E+04  0.25500000920E-02 0.  1.
</event>
<event>
 5   0  0.1137869E-06  0.2201378E+04  0.7818609E-02  0.8517855E-01
        1   -1    0    0  501    0  0.00000000000E+00  0.00000000000E+00  0.18860468488E+04  0.18860468488E+04  0.50400001928E-02 0. -1.
       -1   -1    0    0    0  501  0.00000000000E+00  0.00000000000E+00 -0.64235763779E+03  0.64235763781E+03  0.50400001928E-02 0.  1.
    10030    2    1    2    0    0  0.00000000000E+00  0.00000000000E+00  0.12436892110E+04  0.25284044867E+04  0.22013782943E+04 0.  0.
        5    1    3    3  502    0  0.96624392046E+02  0.16074109213E+03 -0.62385897267E+03  0.65145689007E+03  0.46999998093E+01 0.  1.
       -5    1    3    3    0  502 -0.96624392046E+02 -0.16074109213E+03  0.18675481837E+04  0.18769475966E+04  0.46999998093E+01 0. -1.
</event>
<event>
 5   0  0.2581058E-06  0.2200579E+04  0.7818609E-02  0.8518187E-01
        2   -1    0    0  501    0  0.00000000000E+00  0.00000000000E+00  0.22472319226E+04  0.22472319226E+04  0.25500000920E-02 0. -1.
       -2   -1    0    0    0  501  0.00000000000E+00  0.00000000000E+00 -0.53872349774E+03  0.53872349775E+03  0.25500000920E-02 0.  1.
    10030    2    1    2    0    0  0.00000000000E+00  0.00000000000E+00  0.17085084249E+04  0.27859554204E+04  0.22005786890E+04 0.  0.
        1    1    3    3  502    0 -0.25958578146E+03 -0.10692095425E+04  0.84597002128E+03  0.13878973667E+04  0.50400001928E-02 0. -1.
       -1    1    3    3    0  502  0.25958578146E+03  0.10692095425E+04  0.86253840363E+03  0.13980580537E+04  0.50400001928E-02 0.  1.
</event>
<event>
 5   0  0.1146827E-06  0.2200019E+04  0.7818609E-02  0.8518420E-01
        1   -1    0    0  501    0  0.00000000000E+00  0.00000000000E+00  0.13559820883E+04  0.13559820883E+04  0.50400001928E-02 0. -1.
       -1   -1    0    0    0  501  0.00000000000E+00  0.00000000000E+00 -0.89235777499E+03  0.89235777501E+03  0.50400001928E-02 0.  1.
    10030    2    1    2    0    0  0.00000000000E+00  0.00000000000E+00  0.46362431333E+03  0.22483398633E+04  0.22000192356E+04 0.  0.
        4    1    3    3  502    0  0.32845284018E+02 -0.64866481610E+03  0.11391034117E+04  0.13112601007E+04  0.12699999809E+01 0. -1.
       -4    1    3    3    0  502 -0.32845284018E+02  0.64866481610E+03 -0.67547909835E+03  0.93707976263E+03  0.12699999809E+01 0.  1.
</event>
<event>
 5   0  0.1082209E-06  0.2195951E+04  0.7818609E-02  0.8520115E-01
        1   -1    0    0  501    0  0.00000000000E+00  0.00000000000E+00  0.10350677795E+04  0.10350677795E+04  0.50400001928E-02 0.  1.
       -1   -1    0    0    0  501  0.00000000000E+00  0.00000000000E+00 -0.11647067046E+04  0.11647067046E+04  0.50400001928E-02 0. -1.
    10030    2    1    2    0    0  0.00000000000E+00  0.00000000000E+00 -0.12963892510E+03  0.21997744842E+04  0.21959511676E+04 0.  0.
        2    1    3    3  502    0  0.51543708629E+03 -0.25195935641E+03 -0.10026072100E+04  0.11551537235E+04  0.25500000920E-02 0. -1.
       -2    1    3    3    0  502 -0.51543708629E+03  0.25195935641E+03  0.87296828493E+03  0.10446207607E+04  0.25500000920E-02 0.  1.
</event>
<event>
 5   0  0.2524749E-06  0.2198740E+04  0.7818609E-02  0.8518953E-01
       -2   -1    0    0    0  501  0.00000000000E+00  0.00000000000E+00  0.17310102779E+04  0.17310102779E+04  0.25500000920E-02 0. -1.
        2   -1    0    0  501    0  0.00000000000E+00  0.00000000000E+00 -0.69821323001E+03  0.69821323001E+03  0.25500000920E-02 0.  1.
    10030    2    1    2    0    0  0.00000000000E+00  0.00000000000E+00  0.10327970479E+04  0.24292235080E+04  0.21987398913E+04 0.  0.
        4    1    3    3  502    0 -0.12352925196E+03  0.66935291698E+03 -0.43741827370E+03  0.80909156628E+03  0.12699999809E+01 0.  1.
       -4    1    3    3    0  502  0.12352925196E+03 -0.66935291698E+03  0.14702153216E+04  0.16201319417E+04  0.12699999809E+01 0. -1.
</event>
<event>
 5   0  0.2606154E-06  0.2199925E+04  0.7818609E-02  0.8518459E-01
       -2   -1    0    0    0  501  0.00000000000E+00  0.00000000000E+00  0.82494412269E+03  0.82494412269E+03  0.25500000920E-02 0.  1.
        2   -1    0    0  501    0  0.00000000000E+00  0.00000000000E+00 -0.14666658931E+04  0.14666658931E+04  0.25500000920E-02 0. -1.
    10030    2    1    2    0    0  0.00000000000E+00  0.00000000000E+00 -0.64172177044E+03  0.22916100158E+04  0.21999249155E+04 0.  0.
        2    1    3    3  502    0 -0.86788488238E+03 -0.89776963701E+02  0.37685502096E+03  0.95042294749E+03  0.25500000920E-02 0.  1.
       -2    1    3    3    0  502  0.86788488238E+03  0.89776963701E+02 -0.10185767914E+04  0.13411870683E+04  0.25500000920E-02 0. -1.
</event>
<event>
 5   0  0.2556869E-06  0.2199600E+04  0.7818609E-02  0.8518595E-01
       -2   -1    0    0    0  501  0.00000000000E+00  0.00000000000E+00  0.12422649927E+04  0.12422649927E+04  0.25500000920E-02 0.  1.
        2   -1    0    0  501    0  0.00000000000E+00  0.00000000000E+00 -0.97367287549E+03  0.97367287549E+03  0.25500000920E-02 0. -1.
    10030    2    1    2    0    0  0.00000000000E+00  0.00000000000E+00  0.26859211718E+03  0.22159378682E+04  0.21995997159E+04 0.  0.
        5    1    3    3  502    0  0.84011958947E+03  0.23360653149E+03  0.80947165035E+03  0.11898064460E+04  0.46999998093E+01 0.  1.
       -5    1    3    3    0  502 -0.84011958947E+03 -0.23360653149E+03 -0.54087953318E+03  0.10261314222E+04  0.46999998093E+01 0. -1.
</event>
<event>
 5   0  0.1082209E-06  0.2199774E+04  0.7818609E-02  0.8518522E-01
        1   -1    0    0  501    0  0.00000000000E+00  0.00000000000E+00  0.14517079124E+04  0.14517079124E+04  0.50400001928E-02 0. -1.
       -1   -1    0    0    0  501  0.00000000000E+00  0.00000000000E+00 -0.83332992269E+03  0.83332992270E+03  0.50400001928E-02 0.  1.
    10030    2    1    2    0    0  0.00000000000E+00  0.00000000000E+00  0.61837798972E+03  0.22850378351E+04  0.21997742088E+04 0.  0.
        2    1    3    3  502    0 -0.10540559377E+04 -0.17100640432E+03  0.58298562920E+03  0.12166138887E+04  0.25500000920E-02 0.  1.
       -2    1    3    3    0  502  0.10540559377E+04  0.17100640432E+03  0.35392360518E+02  0.10684239465E+04  0.25500000920E-02 0. -1.
</event>
<event>
 5   0  0.2524749E-06  0.2197180E+04  0.7818609E-02  0.8519603E-01
       -2   -1    0    0    0  501  0.00000000000E+00  0.00000000000E+00  0.70685619850E+03  0.70685619850E+03  0.25500000920E-02 0.  1.
        2   -1    0    0  501    0  0.00000000000E+00  0.00000000000E+00 -0.17074195241E+04  0.17074195241E+04  0.25500000920E-02 0. -1.
    10030    2    1    2    0    0  0.00000000000E+00  0.00000000000E+00 -0.10005633256E+04  0.24142757226E+04  0.21971800782E+04 0.  0.
        4    1    3    3  502    0  0.50995805873E+03 -0.11346572080E+03  0.56162642081E+03  0.76704467986E+03  0.12699999809E+01 0.  1.
       -4    1    3    3    0  502 -0.50995805873E+03  0.11346572080E+03 -0.15621897464E+04  0.16472310427E+04  0.12699999809E+01 0. -1.
</event>
<event>
 5   0  0.2532239E-06  0.2198998E+04  0.7818609E-02  0.8518845E-01
        2   -1    0    0  501    0  0.00000000000E+00  0.00000000000E+00  0.25920446794E+04  0.25920446794E+04  0.25500000920E-02 0. -1.
       -2   -1    0    0    0  501  0.00000000000E+00  0.00000000000E+00 -0.46638795533E+03  0.46638795534E+03  0.25500000920E-02 0.  1.
    10030    2    1    2    0    0  0.00000000000E+00  0.00000000000E+00  0.21256567240E+04  0.30584326347E+04  0.21989983339E+04 0.  0.
        3    1    3    3  502    0  0.23081894416E+03  0.10507969431E+04  0.13782948515E+04  0.17484702767E+04  0.10100000352E+00 0. -1.
       -3    1    3    3    0  502 -0.23081894416E+03 -0.10507969431E+04  0.74736187254E+03  0.13099623580E+04  0.10100000352E+00 0.  1.
</event>
<event>
 5   0  0.1144271E-06  0.2200898E+04  0.7818609E-02  0.8518054E-01
       -1   -1    0    0    0  501  0.00000000000E+00  0.00000000000E+00  0.65438975433E+03  0.65438975435E+03  0.50400001928E-02 0. -1.
        1   -1    0    0  501    0  0.00000000000E+00  0.00000000000E+00 -0.18505611038E+04  0.18505611038E+04  0.50400001928E-02 0.  1.
    10030    2    1    2    0    0  0.00000000000E+00  0.00000000000E+00 -0.11961713495E+04  0.25049508582E+04  0.22008982040E+04 0.  0.
        3    1    3    3  502    0 -0.77418795779E+03 -0.60257248320E+03 -0.30689258214E+02  0.98153065783E+03  0.10100000352E+00 0. -1.
       -3    1    3    3    0  502  0.77418795779E+03  0.60257248320E+03 -0.11654820913E+04  0.15234202003E+04  0.10100000352E+00 0.  1.
</event>
<event>
 5   0  0.2532239E-06  0.2196710E+04  0.7818609E-02  0.8519799E-01
        2   -1    0    0  501    0  0.00000000000E+00  0.00000000000E+00  0.14549324152E+04  0.14549324152E+04  0.25500000920E-02 0.  1.
       -2   -1    0    0    0  501  0.00000000000E+00  0.00000000000E+00 -0.82916806331E+03  0.82916806332E+03  0.25500000920E-02 0. -1.
    10030    2    1    2    0    0  0.00000000000E+00  0.00000000000E+00  0.62576435192E+03  0.22841004785E+04  0.21967098060E+04 0.  0.
        3    1    3    3  502    0 -0.14639872080E+03 -0.63702730191E+03  0.12306910432E+04  0.13934980527E+04  0.10100000352E+00 0.  1.
       -3    1    3    3    0  502  0.14639872080E+03  0.63702730191E+03 -0.60492669132E+03  0.89060242583E+03  0.10100000352E+00 0. -1.
</event>
<event>
 5   0  0.1082209E-06  0.2199642E+04  0.7818609E-02  0.8518577E-01
        1   -1    0    0  501    0  0.00000000000E+00  0.00000000000E+00  0.10437142176E+04  0.10437142176E+04  0.50400001928E-02 0.  1.
       -1   -1    0    0    0  501  0.00000000000E+00  0.00000000000E+00 -0.11589440123E+04  0.11589440123E+04  0.50400001928E-02 0. -1.
    10030    2    1    2    0    0  0.00000000000E+00  0.00000000000E+00 -0.11522979466E+03  0.22026582299E+04  0.21996421009E+04 0.  0.
        2    1    3    3  502    0  0.62635326294E+03 -0.71352011114E+03  0.49828320696E+03  0.10722478787E+04  0.25500000920E-02 0.  1.
       -2    1    3    3    0  502 -0.62635326294E+03  0.71352011114E+03 -0.61351300162E+03  0.11304103512E+04  0.25500000920E-02 0. -1.
</event>
<event>
 5   0  0.1107101E-06  0.2199663E+04  0.7818609E-02  0.8518568E-01
        1   -1    0    0  501    0  0.00000000000E+00  0.00000000000E+00  0.19623533372E+04  0.19623533372E+04  0.50400001928E-02 0.  1.
       -1   -1    0    0    0  501  0.00000000000E+00  0.00000000000E+00 -0.61641761284E+03  0.61641761286E+03  0.50400001928E-02 0. -1.
    10030    2    1    2    0    0  0.00000000000E+00  0.00000000000E+00  0.13459357243E+04  0.25787709500E+04  0.21996628466E+04 0.  0.
        1    1    3    3  502    0  0.52145452703E+03  0.17037224580E+03 -0.44457440735E+03  0.70610759066E+03  0.50400001928E-02 0. -1.
       -1    1    3    3    0  502 -0.52145452703E+03 -0.17037224580E+03  0.17905101317E+04  0.18726633594E+04  0.50400001928E-02 0.  1.
</event>
<event>
 5   0  0.2524749E-06  0.2200390E+04  0.7818609E-02  0.8518266E-01
        2   -1    0    0  501    0  0.00000000000E+00  0.00000000000E+00  0.21234774568E+04  0.21234774568E+04  0.25500000920E-02 0.  1.
       -2   -1    0    0    0  501  0.00000000000E+00  0.00000000000E+00 -0.57002231740E+03  0.57002231741E+03  0.25500000920E-02 0. -1.
    10030    2    1    2    0    0  0.00000000000E+00  0.00000000000E+00  0.15534551394E+04  0.26934997742E+04  0.22003904571E+04 0.  0.
        4    1    3    3  502    0 -0.56724371988E+03 -0.24950001634E+03 -0.33606843844E+03  0.70495340563E+03  0.12699999809E+01 0. -1.
       -4    1    3    3    0  502  0.56724371988E+03  0.24950001634E+03  0.18895235779E+04  0.19885463686E+04  0.12699999809E+01 0.  1.
</event>
<event>
 5   0  0.2524749E-06  0.2208238E+04  0.7818609E-02  0.8515007E-01
        2   -1    0    0  501    0  0.00000000000E+00  0.00000000000E+00  0.71546325383E+03  0.71546325383E+03  0.25500000920E-02 0.  1.
       -2   -1    0    0    0  501  0.00000000000E+00  0.00000000000E+00 -0.17039009060E+04  0.17039009060E+04  0.25500000920E-02 0. -1.
    10030    2    1    2    0    0  0.00000000000E+00  0.00000000000E+00 -0.98843765214E+03  0.24193641598E+04  0.22082377466E+04 0.  0.
        4    1    3    3  502    0  0.85602811556E+03 -0.23954895212E+03  0.22330778526E+03  0.91653467744E+03  0.12699999809E+01 0.  1.
       -4    1    3    3    0  502 -0.85602811556E+03  0.23954895212E+03 -0.12117454374E+04  0.15028294824E+04  0.12699999809E+01 0. -1.
</event>
<event>
 5   0  0.2524749E-06  0.2206026E+04  0.7818609E-02  0.8515924E-01
       -2   -1    0    0    0  501  0.00000000000E+00  0.00000000000E+00  0.14320066697E+04  0.14320066697E+04  0.25500000920E-02 0. -1.
        2   -1    0    0  501    0  0.00000000000E+00  0.00000000000E+00 -0.84960367325E+03  0.84960367325E+03  0.25500000920E-02 0.  1.
    10030    2    1    2    0    0  0.00000000000E+00  0.00000000000E+00  0.58240299642E+03  0.22816103429E+04  0.22060264066E+04 0.  0.
        4    1    3    3  502    0 -0.73226438218E+02 -0.43383506048E+03 -0.75491885081E+03  0.87377288535E+03  0.12699999809E+01 0.  1.
       -4    1    3    3    0  502  0.73226438218E+02  0.43383506048E+03  0.13373218472E+04  0.14078374576E+04  0.12699999809E+01 0. -1.
</event>
<event>
 5   0  0.1107101E-06  0.2205120E+04  0.7818609E-02  0.8516300E-01
        1   -1    0    0  501    0  0.00000000000E+00  0.00000000000E+00  0.84654572415E+03  0.84654572417E+03  0.50400001928E-02 0.  1.
       -1   -1    0    0    0  501  0.00000000000E+00  0.00000000000E+00 -0.14359982323E+04  0.14359982323E+04  0.50400001928E-02 0. -1.
    10030    2    1    2    0    0  0.00000000000E+00  0.00000000000E+00 -0.58945250818E+03  0.22825439565E+04  0.22051196462E+04 0.  0.
        1    1    3    3  502    0  0.84239860171E+03  0.24409297571E+03 -0.98633341823E+03  0.13198751444E+04  0.50400001928E-02 0. -1.
       -1    1    3    3    0  502 -0.84239860171E+03 -0.24409297571E+03  0.39688091005E+03  0.96266881207E+03  0.50400001928E-02 0.  1.
</event>
<event>
 5   0  0.2532239E-06  0.2201433E+04  0.7818609E-02  0.8517832E-01
        2   -1    0    0  501    0  0.00000000000E+00  0.00000000000E+00  0.14283256810E+04  0.14283256810E+04  0.25500000920E-02 0.  1.
       -2   -1    0    0    0  501  0.00000000000E+00  0.00000000000E+00 -0.84824998058E+03  0.84824998058E+03  0.25500000920E-02 0. -1.
    10030    2    1    2    0    0  0.00000000000E+00  0.00000000000E+00  0.58007570045E+03  0.22765756616E+04  0.22014333796E+04 0.  0.
        3    1    3    3  502    0  0.45722901515E+03 -0.98543538357E+03  0.10668407338E+03  0.10915689484E+04  0.10100000352E+00 0.  1.
       -3    1    3    3    0  502 -0.45722901515E+03  0.98543538357E+03  0.47339162707E+03  0.11850067132E+04  0.10100000352E+00 0. -1.
</event>
<event>
 5   0  0.2581058E-06  0.2199604E+04  0.7818609E-02  0.8518593E-01
       -2   -1    0    0    0  501  0.00000000000E+00  0.00000000000E+00  0.11498939620E+04  0.11498939620E+04  0.25500000920E-02 0.  1.
        2   -1    0    0  501    0  0.00000000000E+00  0.00000000000E+00 -0.10518920640E+04  0.10518920640E+04  0.25500000920E-02 0. -1.
    10030    2    1    2    0    0  0.00000000000E+00  0.00000000000E+00  0.98001897998E+02  0.22017860261E+04  0.21996039036E+04 0.  0.
        1    1    3    3  502    0 -0.85744066422E+03 -0.57956907772E+03  0.42147159100E+03  0.11174717493E+04  0.50400001928E-02 0.  1.
       -1    1    3    3    0  502  0.85744066422E+03  0.57956907772E+03 -0.32346969300E+03  0.10843142768E+04  0.50400001928E-02 0. -1.
</event>
<event>
 5   0  0.1082209E-06  0.2200313E+04  0.7818609E-02  0.8518298E-01
        1   -1    0    0  501    0  0.00000000000E+00  0.00000000000E+00  0.14362083867E+04  0.14362083867E+04  0.50400001928E-02 0. -1.
       -1   -1    0    0    0  501  0.00000000000E+00  0.00000000000E+00 -0.84273555172E+03  0.84273555174E+03  0.50400001928E-02 0.  1.
    10030    2    1    2    0    0  0.00000000000E+00  0.00000000000E+00  0.59347283496E+03  0.22789439384E+04  0.22003125843E+04 0.  0.
        2    1    3    3  502    0  0.15879472795E+03  0.42269665271E+03 -0.74233782282E+03  0.86888069897E+03  0.25500000920E-02 0.  1.
       -2    1    3    3    0  502 -0.15879472795E+03 -0.42269665271E+03  0.13358106578E+04  0.14100632395E+04  0.25500000920E-02 0. -1.
</event>
<event>
 5   0  0.1107101E-06  0.2198662E+04  0.7818609E-02  0.8518985E-01
        1   -1    0    0  501    0  0.00000000000E+00  0.00000000000E+00  0.77528947745E+03  0.77528947746E+03  0.50400001928E-02 0.  1.
       -1   -1    0    0    0  501  0.00000000000E+00  0.00000000000E+00 -0.15588091612E+04  0.15588091612E+04  0.50400001928E-02 0. -1.
    10030    2    1    2    0    0  0.00000000000E+00  0.00000000000E+00 -0.78351968371E+03  0.23340986386E+04  0.21986617203E+04 0.  0.
        1    1    3    3  502    0  0.13073839906E+03 -0.33319879460E+03 -0.14952182466E+04  0.15374627054E+04  0.50400001928E-02 0. -1.
       -1    1    3    3    0  502 -0.13073839906E+03  0.33319879460E+03  0.71169856284E+03  0.79663593321E+03  0.50400001928E-02 0.  1.
</event>
<event>
 5   0  0.1082209E-06  0.2199491E+04  0.7818609E-02  0.8518640E-01
       -1   -1    0    0    0  501  0.00000000000E+00  0.00000000000E+00  0.98436935961E+03  0.98436935963E+03  0.50400001928E-02 0. -1.
        1   -1    0    0  501    0  0.00000000000E+00  0.00000000000E+00 -0.12286449289E+04  0.12286449290E+04  0.50400001928E-02 0.  1.
    10030    2    1    2    0    0  0.00000000000E+00  0.00000000000E+00 -0.24427556933E+03  0.22130142886E+04  0.21994912338E+04 0.  0.
        2    1    3    3  502    0  0.61599092373E+02  0.46100906188E+03 -0.11248172188E+04  0.12171842831E+04  0.25500000920E-02 0.  1.
       -2    1    3    3    0  502 -0.61599092373E+02 -0.46100906188E+03  0.88054164948E+03  0.99583000547E+03  0.25500000920E-02 0. -1.
</event>
<event>
 5   0  0.2532239E-06  0.2201364E+04  0.7818609E-02  0.8517861E-01
       -2   -1    0    0    0  501  0.00000000000E+00  0.00000000000E+00  0.61611827341E+03  0.61611827342E+03  0.25500000920E-02 0.  1.
        2   -1    0    0  501    0  0.00000000000E+00  0.00000000000E+00 -0.19663448813E+04  0.19663448813E+04  0.25500000920E-02 0. -1.
    10030    2    1    2    0    0  0.00000000000E+00  0.00000000000E+00 -0.13502266078E+04  0.25824631547E+04  0.22013641345E+04 0.  0.
        3    1    3    3  502    0  0.33435269698E+03  0.63651261176E+03  0.30256828203E+03  0.78005615593E+03  0.10100000352E+00 0.  1.
       -3    1    3    3    0  502 -0.33435269698E+03 -0.63651261176E+03 -0.16527948899E+04  0.18024069987E+04  0.10100000352E+00 0. -1.
</event>
<event>
 5   0  0.1082209E-06  0.2199574E+04  0.7818609E-02  0.8518605E-01
       -1   -1    0    0    0  501  0.00000000000E+00  0.00000000000E+00  0.95769327390E+03  0.95769327392E+03  0.50400001928E-02 0.  1.
        1   -1    0    0  501    0  0.00000000000E+00  0.00000000000E+00 -0.12629634737E+04  0.12629634737E+04  0.50400001928E-02 0. -1.
    10030    2    1    2    0    0  0.00000000000E+00  0.00000000000E+00 -0.30527019978E+03  0.22206567476E+04  0.21995741624E+04 0.  0.
        2    1    3    3  502    0  0.84206473082E+03  0.25581758817E+03  0.51324406613E+03  0.10187910093E+04  0.25500000920E-02 0. -1.
       -2    1    3    3    0  502 -0.84206473082E+03 -0.25581758817E+03 -0.81851426591E+03  0.12018657383E+04  0.25500000920E-02 0.  1.
</event>
<event>
 5   0  0.2524749E-06  0.2200174E+04  0.7818609E-02  0.8518356E-01
        2   -1    0    0  501    0  0.00000000000E+00  0.00000000000E+00  0.23466767086E+04  0.23466767086E+04  0.25500000920E-02 0. -1.
       -2   -1    0    0    0  501  0.00000000000E+00  0.00000000000E+00 -0.51570414976E+03  0.51570414976E+03  0.25500000920E-02 0.  1.
    10030    2    1    2    0    0  0.00000000000E+00  0.00000000000E+00  0.18309725588E+04  0.28623808583E+04  0.22001735538E+04 0.  0.
        4    1    3    3  502    0  0.10311157161E+04  0.13438446689E+03  0.13826276281E+04  0.17300056578E+04  0.12699999809E+01 0. -1.
       -4    1    3    3    0  502 -0.10311157161E+04 -0.13438446689E+03  0.44834493067E+03  0.11323752005E+04  0.12699999809E+01 0.  1.
</event>
<event>
 5   0  0.1144271E-06  0.2200092E+04  0.7818609E-02  0.8518390E-01
       -1   -1    0    0    0  501  0.00000000000E+00  0.00000000000E+00  0.98398671237E+03  0.98398671238E+03  0.50400001928E-02 0. -1.
        1   -1    0    0  501    0  0.00000000000E+00  0.00000000000E+00 -0.12297941322E+04  0.12297941322E+04  0.50400001928E-02 0.  1.
    10030    2    1    2    0    0  0.00000000000E+00  0.00000000000E+00 -0.24580741982E+03  0.22137808446E+04  0.22000918936E+04 0.  0.
        3    1    3    3  502    0 -0.53020136867E+03  0.50439867079E+03 -0.94933580637E+03  0.11986534086E+04  0.10100000352E+00 0.  1.
       -3    1    3    3    0  502  0.53020136867E+03 -0.50439867079E+03  0.70352838655E+03  0.10151274360E+04  0.10100000352E+00 0. -1.
</event>
<event>
 5   0  0.1107101E-06  0.2202836E+04  0.7818609E-02  0.8517249E-01
       -1   -1    0    0    0  501  0.00000000000E+00  0.00000000000E+00  0.86620545804E+03  0.86620545805E+03  0.50400001928E-02 0. -1.
        1   -1    0    0  501    0  0.00000000000E+00  0.00000000000E+00 -0.14005007965E+04  0.14005007965E+04  0.50400001928E-02 0.  1.
    10030    2    1    2    0    0  0.00000000000E+00  0.00000000000E+00 -0.53429533843E+03  0.22667062545E+04  0.22028358395E+04 0.  0.
        1    1    3    3  502    0 -0.50864646216E+03 -0.66370160400E+02  0.73578970973E+03  0.89694632985E+03  0.50400001928E-02 0. -1.
       -1    1    3    3    0  502  0.50864646216E+03  0.66370160400E+02 -0.12700850482E+04  0.13697599247E+04  0.50400001928E-02 0.  1.
</event>
<event>
 5   0  0.2524749E-06  0.2200281E+04  0.7818609E-02  0.8518311E-01
       -2   -1    0    0    0  501  0.00000000000E+00  0.00000000000E+00  0.74948332706E+03  0.74948332706E+03  0.25500000920E-02 0.  1.
        2   -1    0    0  501    0  0.00000000000E+00  0.00000000000E+00 -0.16148576091E+04  0.16148576091E+04  0.25500000920E-02 0. -1.
    10030    2    1    2    0    0  0.00000000000E+00  0.00000000000E+00 -0.86537428202E+03  0.23643409361E+04  0.22002807581E+04 0.  0.
        4    1    3    3  502    0 -0.90781778249E+03 -0.67719628520E+02  0.23110094000E+03  0.93921687147E+03  0.12699999809E+01 0.  1.
       -4    1    3    3    0  502  0.90781778249E+03  0.67719628520E+02 -0.10964752220E+04  0.14251240647E+04  0.12699999809E+01 0. -1.
</event>
<event>
 5   0  0.2556869E-06  0.2200452E+04  0.7818609E-02  0.8518240E-01
        2   -1    0    0  501    0  0.00000000000E+00  0.00000000000E+00  0.19178984153E+04  0.19178984153E+04  0.25500000920E-02 0.  1.
       -2   -1    0    0    0  501  0.00000000000E+00  0.00000000000E+00 -0.63115791178E+03  0.63115791178E+03  0.25500000920E-02 0. -1.
    10030    2    1    2    0    0  0.00000000000E+00  0.00000000000E+00  0.12867405035E+04  0.25490563270E+04  0.22004515526E+04 0.  0.
        5    1    3    3  502    0 -0.38537625557E+03 -0.48602145113E+03  0.16960349549E+04  0.18059037537E+04  0.46999998093E+01 0.  1.
       -5    1    3    3    0  502  0.38537625557E+03  0.48602145113E+03 -0.40929445142E+03  0.74315257336E+03  0.46999998093E+01 0. -1.
</event>
<event>
 5   0  0.1082209E-06  0.2200408E+04  0.7818609E-02  0.8518258E-01
       -1   -1    0    0    0  501  0.00000000000E+00  0.00000000000E+00  0.10066539168E+04  0.10066539168E+04  0.50400001928E-02 0. -1.
        1   -1    0    0  501    0  0.00000000000E+00  0.00000000000E+00 -0.12024480275E+04  0.12024480276E+04  0.50400001928E-02 0.  1.
    10030    2    1    2    0    0  0.00000000000E+00  0.00000000000E+00 -0.19579411079E+03  0.22091019443E+04  0.22004081591E+04 0.  0.
        2    1    3    3  502    0 -0.30144304704E+03 -0.10243511450E+04 -0.36405928398E+03  0.11281410998E+04  0.25500000920E-02 0. -1.
       -2    1    3    3    0  502  0.30144304704E+03  0.10243511450E+04  0.16826517319E+03  0.10809608445E+04  0.25500000920E-02 0.  1.
</event>
<event>
 5   0  0.1082209E-06  0.2200278E+04  0.7818609E-02  0.8518312E-01
        1   -1    0    0  501    0  0.00000000000E+00  0.00000000000E+00  0.21520091712E+04  0.21520091712E+04  0.50400001928E-02 0. -1.
       -1   -1    0    0    0  501  0.00000000000E+00  0.00000000000E+00 -0.56240745677E+03  0.56240745679E+03  0.50400001928E-02 0.  1.
    10030    2    1    2    0    0  0.00000000000E+00  0.00000000000E+00  0.15896017144E+04  0.27144166280E+04  0.22002781687E+04 0.  0.
        2    1    3    3  502    0  0.26959490011E+02 -0.51695900629E+03  0.19923711655E+04  0.20585228416E+04  0.25500000920E-02 0. -1.
       -2    1    3    3    0  502 -0.26959490011E+02  0.51695900629E+03 -0.40276945108E+03  0.65589378638E+03  0.25500000920E-02 0.  1.
</event>
<event>
 5   0  0.1107101E-06  0.2189544E+04  0.7818609E-02  0.8522793E-01
       -1   -1    0    0    0  501  0.00000000000E+00  0.00000000000E+00  0.91672323042E+03  0.91672323043E+03  0.50400001928E-02 0. -1.
        1   -1    0    0  501    0  0.00000000000E+00  0.00000000000E+00 -0.13074021982E+04  0.13074021982E+04  0.50400001928E-02 0.  1.
    10030    2    1    2    0    0  0.00000000000E+00  0.00000000000E+00 -0.39067896779E+03  0.22241254286E+04  0.21895442143E+04 0.  0.
        1    1    3    3  502    0  0.12042483541E+03 -0.96224891610E+03 -0.71139957247E+03  0.12027112992E+04  0.50400001928E-02 0.  1.
       -1    1    3    3    0  502 -0.12042483541E+03  0.96224891610E+03  0.32072060468E+03  0.10214141294E+04  0.50400001928E-02 0. -1.
</event>
<event>
 5   0  0.1137869E-06  0.2201251E+04  0.7818609E-02  0.8517908E-01
       -1   -1    0    0    0  501  0.00000000000E+00  0.00000000000E+00  0.87538774839E+03  0.87538774840E+03  0.50400001928E-02 0.  1.
        1   -1    0    0  501    0  0.00000000000E+00  0.00000000000E+00 -0.13838171972E+04  0.13838171972E+04  0.50400001928E-02 0. -1.
    10030    2    1    2    0    0  0.00000000000E+00  0.00000000000E+00 -0.50842944882E+03  0.22592049456E+04  0.22012511174E+04 0.  0.
        5    1    3    3  502    0  0.11916102176E+03  0.10477780270E+04  0.69227338284E+02  0.10568124986E+04  0.46999998093E+01 0. -1.
       -5    1    3    3    0  502 -0.11916102176E+03 -0.10477780270E+04 -0.57765678711E+03  0.12023924470E+04  0.46999998093E+01 0.  1.
</event>
<event>
 5   0  0.1144271E-06  0.2199258E+04  0.7818609E-02  0.8518737E-01
        1   -1    0    0  501    0  0.00000000000E+00  0.00000000000E+00  0.18194733545E+04  0.18194733545E+04  0.50400001928E-02 0. -1.
       -1   -1    0    0    0  501  0.00000000000E+00  0.00000000000E+00 -0.66457920273E+03  0.66457920275E+03  0.50400001928E-02 0.  1.
    10030    2    1    2    0    0  0.00000000000E+00  0.00000000000E+00  0.11548941517E+04  0.24840525572E+04  0.21992581943E+04 0.  0.
        3    1    3    3  502    0 -0.90099687782E+03 -0.58399864757E+03  0.30936289150E+03  0.11173876691E+04  0.10100000352E+00 0.  1.
       -3    1    3    3    0  502  0.90099687782E+03  0.58399864757E+03  0.84553126022E+03  0.13666648881E+04  0.10100000352E+00 0. -1.
</event>
<event>
 5   0  0.2581058E-06  0.2197505E+04  0.7818609E-02  0.8519468E-01
       -2   -1    0    0    0  501  0.00000000000E+00  0.00000000000E+00  0.73550770954E+03  0.73550770954E+03  0.25500000920E-02 0. -1.
        2   -1    0    0  501    0  0.00000000000E+00  0.00000000000E+00 -0.16413920541E+04  0.16413920541E+04  0.25500000920E-02 0.  1.
    10030    2    1    2    0    0  0.00000000000E+00  0.00000000000E+00 -0.90588434460E+03  0.23768997637E+04  0.21975045030E+04 0.  0.
        1    1    3    3  502    0  0.95973290562E+03 -0.28503580344E+03 -0.94258268941E+03  0.13750617389E+04  0.50400001928E-02 0.  1.
       -1    1    3    3    0  502 -0.95973290562E+03  0.28503580344E+03  0.36698344816E+02  0.10018380248E+04  0.50400001928E-02 0. -1.
</event>
<event>
 5   0  0.1137869E-06  0.2198954E+04  0.7818609E-02  0.8518863E-01
       -1   -1    0    0    0  501  0.00000000000E+00  0.00000000000E+00  0.12149784354E+04  0.12149784354E+04  0.50400001928E-02 0.  1.
        1   -1    0    0  501    0  0.00000000000E+00  0.00000000000E+00 -0.99495590153E+03  0.99495590154E+03  0.50400001928E-02 0. -1.
    10030    2    1    2    0    0  0.00000000000E+00  0.00000000000E+00  0.22002253390E+03  0.22099343370E+04  0.21989542647E+04 0.  0.
        5    1    3    3  502    0  0.14602365546E+03  0.84795866931E+03  0.79787839788E+03  0.11734516780E+04  0.46999998093E+01 0.  1.
       -5    1    3    3    0  502 -0.14602365546E+03 -0.84795866931E+03 -0.57785586398E+03  0.10364826590E+04  0.46999998093E+01 0. -1.
</event>
<event>
 5   0  0.1107101E-06  0.2200424E+04  0.7818609E-02  0.8518252E-01
        1   -1    0    0  501    0  0.00000000000E+00  0.00000000000E+00  0.13582721787E+04  0.13582721787E+04  0.50400001928E-02 0.  1.
       -1   -1    0    0    0  501  0.00000000000E+00  0.00000000000E+00 -0.89118091214E+03  0.89118091215E+03  0.50400001928E-02 0. -1.
    10030    2    1    2    0    0  0.00000000000E+00  0.00000000000E+00  0.46709126653E+03  0.22494530908E+04  0.22004238129E+04 0.  0.
        1    1    3    3  502    0  0.45711389093E+03  0.53097548614E+03  0.11007263109E+04  0.13047936571E+04  0.50400001928E-02 0.  1.
       -1    1    3    3    0  502 -0.45711389093E+03 -0.53097548614E+03 -0.63363504437E+03  0.94465943369E+03  0.50400001928E-02 0. -1.
</event>
<event>
 5   0  0.1107101E-06  0.2200649E+04  0.7818609E-02  0.8518158E-01
       -1   -1    0    0    0  501  0.00000000000E+00  0.00000000000E+00  0.89441580046E+03  0.89441580048E+03  0.50400001928E-02 0.  1.
        1   -1    0    0  501    0  0.00000000000E+00  0.00000000000E+00 -0.13536367032E+04  0.13536367032E+04  0.50400001928E-02 0. -1.
    10030    2    1    2    0    0  0.00000000000E+00  0.00000000000E+00 -0.45922090273E+03  0.22480525037E+04  0.22006490456E+04 0.  0.
        1    1    3    3  502    0  0.24879065331E+03 -0.10327598050E+04 -0.52253525968E+03  0.11838634641E+04  0.50400001928E-02 0. -1.
       -1    1    3    3    0  502 -0.24879065331E+03  0.10327598050E+04  0.63314356949E+02  0.10641890395E+04  0.50400001928E-02 0.  1.
</event>
<event>
 5   0  0.1146827E-06  0.2195694E+04  0.7818609E-02  0.8520223E-01
       -1   -1    0    0    0  501  0.00000000000E+00  0.00000000000E+00  0.66346865311E+03  0.66346865313E+03  0.50400001928E-02 0.  1.
        1   -1    0    0  501    0  0.00000000000E+00  0.00000000000E+00 -0.18166162673E+04  0.18166162673E+04  0.50400001928E-02 0. -1.
    10030    2    1    2    0    0  0.00000000000E+00  0.00000000000E+00 -0.11531476142E+04  0.24800849204E+04  0.21956939205E+04 0.  0.
        4    1    3    3  502    0 -0.59775144650E+03 -0.51848900390E+03 -0.14361458758E+04  0.16397116296E+04  0.12699999809E+01 0. -1.
       -4    1    3    3    0  502  0.59775144650E+03  0.51848900390E+03  0.28299826158E+03  0.84037329081E+03  0.12699999809E+01 0.  1.
</event>
<event>
 5   0  0.1144271E-06  0.2186042E+04  0.7818609E-02  0.8524260E-01
       -1   -1    0    0    0  501  0.00000000000E+00  0.00000000000E+00  0.39144962913E+03  0.39144962916E+03  0.50400001928E-02 0. -1.
        1   -1    0    0  501    0  0.00000000000E+00  0.00000000000E+00 -0.30519762458E+04  0.30519762458E+04  0.50400001928E-02 0.  1.
    10030    2    1    2    0    0  0.00000000000E+00  0.00000000000E+00 -0.26605266167E+04  0.34434258750E+04  0.21860420578E+04 0.  0.
        3    1    3    3  502    0  0.86230166460E+02  0.78249479142E+03 -0.25246680031E+04  0.26445571040E+04  0.10100000352E+00 0. -1.
       -3    1    3    3    0  502 -0.86230166460E+02 -0.78249479142E+03 -0.13585861363E+03  0.79886877102E+03  0.10100000352E+00 0.  1.
</event>
<event>
 5   0  0.2581058E-06  0.2199777E+04  0.7818609E-02  0.8518521E-01
        2   -1    0    0  501    0  0.00000000000E+00  0.00000000000E+00  0.15842948392E+04  0.15842948392E+04  0.25500000920E-02 0. -1.
       -2   -1    0    0    0  501  0.00000000000E+00  0.00000000000E+00 -0.76359167320E+03  0.76359167320E+03  0.25500000920E-02 0.  1.
    10030    2    1    2    0    0  0.00000000000E+00  0.00000000000E+00  0.82070316602E+03  0.23478865124E+04  0.21997766679E+04 0.  0.
        1    1    3    3  502    0 -0.86918495908E+03 -0.34123557336E+02  0.11288058109E+04  0.14250787589E+04  0.50400001928E-02 0. -1.
       -1    1    3    3    0  502  0.86918495908E+03  0.34123557336E+02 -0.30810264485E+03  0.92280775357E+03  0.50400001928E-02 0.  1.
</event>
<event>
 5   0  0.2532239E-06  0.2194193E+04  0.7818609E-02  0.8520849E-01
       -2   -1    0    0    0  501  0.00000000000E+00  0.00000000000E+00  0.77517929678E+03  0.77517929679E+03  0.25500000920E-02 0. -1.
        2   -1    0    0  501    0  0.00000000000E+00  0.00000000000E+00 -0.15526993364E+04  0.15526993364E+04  0.25500000920E-02 0.  1.
    10030    2    1    2    0    0  0.00000000000E+00  0.00000000000E+00 -0.77752003959E+03  0.23278786332E+04  0.21941926804E+04 0.  0.
        3    1    3    3  502    0  0.10144840783E+04 -0.37891777936E+03 -0.57514454580E+03  0.12261924349E+04  0.10100000352E+00 0. -1.
       -3    1    3    3    0  502 -0.10144840783E+04  0.37891777936E+03 -0.20237549379E+03  0.11016861982E+04  0.10100000352E+00 0.  1.
</event>
<event>
 5   0  0.1144271E-06  0.2200361E+04  0.7818609E-02  0.8518278E-01
       -1   -1    0    0    0  501  0.00000000000E+00  0.00000000000E+00  0.13287616467E+04  0.13287616467E+04  0.50400001928E-02 0. -1.
        1   -1    0    0  501    0  0.00000000000E+00  0.00000000000E+00 -0.91092098227E+03  0.91092098229E+03  0.50400001928E-02 0.  1.
    10030    2    1    2    0    0  0.00000000000E+00  0.00000000000E+00  0.41784066441E+03  0.22396826290E+04  0.22003607563E+04 0.  0.
        3    1    3    3  502    0 -0.82016191498E+03 -0.16047620978E+03 -0.51939344666E+03  0.98396531611E+03  0.10100000352E+00 0. -1.
       -3    1    3    3    0  502  0.82016191498E+03  0.16047620978E+03  0.93723411107E+03  0.12557173129E+04  0.10100000352E+00 0.  1.
</event>
<event>
 5   0  0.8905000E-07  0.2201121E+04  0.7818609E-02  0.8517962E-01
        4   -1    0    0  501    0  0.00000000000E+00  0.00000000000E+00  0.15425295155E+04  0.15425300383E+04  0.12699999809E+01 0. -1.
       -4   -1    0    0    0  501  0.00000000000E+00  0.00000000000E+00 -0.78522454266E+03  0.78522556969E+03  0.12699999809E+01 0.  1.
    10030    2    1    2    0    0  0.00000000000E+00  0.00000000000E+00  0.75730497285E+03  0.23277556080E+04  0.22011213844E+04 0.  0.
        1    1    3    3  502    0 -0.99515999862E+03 -0.82745656404E+02 -0.11061288864E+03  0.10047016859E+04  0.50400001928E-02 0.  1.
       -1    1    3    3    0  502  0.99515999862E+03  0.82745656404E+02  0.86791786149E+03  0.13230539221E+04  0.50400001928E-02 0. -1.
</event>
<event>
 5   0  0.1146827E-06  0.2200863E+04  0.7818609E-02  0.8518069E-01
       -1   -1    0    0    0  501  0.00000000000E+00  0.00000000000E+00  0.54364970729E+03  0.54364970732E+03  0.50400001928E-02 0.  1.
        1   -1    0    0  501    0  0.00000000000E+00  0.00000000000E+00 -0.22274449735E+04  0.22274449735E+04  0.50400001928E-02 0. -1.
    10030    2    1    2    0    0  0.00000000000E+00  0.00000000000E+00 -0.16837952662E+04  0.27710946809E+04  0.22008632924E+04 0.  0.
        4    1    3    3  502    0 -0.73460029150E+03  0.75400390341E+03 -0.43822340129E+03  0.11402634945E+04  0.12699999809E+01 0. -1.
       -4    1    3    3    0  502  0.73460029150E+03 -0.75400390341E+03 -0.12455718649E+04  0.16308311863E+04  0.12699999809E+01 0.  1.
</event>
<event>
 5   0  0.1082209E-06  0.2199333E+04  0.7818609E-02  0.8518706E-01
       -1   -1    0    0    0  501  0.00000000000E+00  0.00000000000E+00  0.82127813568E+03  0.82127813569E+03  0.50400001928E-02 0.  1.
        1   -1    0    0  501    0  0.00000000000E+00  0.00000000000E+00 -0.14724199329E+04  0.14724199329E+04  0.50400001928E-02 0. -1.
    10030    2    1    2    0    0  0.00000000000E+00  0.00000000000E+00 -0.65114179727E+03  0.22936980686E+04  0.21993328966E+04 0.  0.
        2    1    3    3  502    0 -0.66204768224E+03 -0.32725287676E+03 -0.11753089626E+04  0.13880751912E+04  0.25500000920E-02 0. -1.
       -2    1    3    3    0  502  0.66204768224E+03  0.32725287676E+03  0.52416716532E+03  0.90562287743E+03  0.25500000920E-02 0.  1.
</event>
<event>
 5   0  0.1107101E-06  0.2200552E+04  0.7818609E-02  0.8518198E-01
        1   -1    0    0  501    0  0.00000000000E+00  0.00000000000E+00  0.19155666097E+04  0.19155666097E+04  0.50400001928E-02 0.  1.
       -1   -1    0    0    0  501  0.00000000000E+00  0.00000000000E+00 -0.63198388710E+03  0.63198388712E+03  0.50400001928E-02 0. -1.
    10030    2    1    2    0    0  0.00000000000E+00  0.00000000000E+00  0.12835827226E+04  0.25475504968E+04  0.22005519598E+04 0.  0.
        1    1    3    3  502    0  0.22681016076E+03 -0.91373070450E+03 -0.17440596906E+02  0.94162138029E+03  0.50400001928E-02 0. -1.
       -1    1    3    3    0  502 -0.22681016076E+03  0.91373070450E+03  0.13010233195E+04  0.16059291165E+04  0.50400001928E-02 0.  1.
</event>
<event>
 5   0  0.1137869E-06  0.2199835E+04  0.7818609E-02  0.8518497E-01
        1   -1    0    0  501    0  0.00000000000E+00  0.00000000000E+00  0.99107813923E+03  0.99107813925E+03  0.50400001928E-02 0. -1.
       -1   -1    0    0    0  501  0.00000000000E+00  0.00000000000E+00 -0.12207098774E+04  0.12207098774E+04  0.50400001928E-02 0.  1.
    10030    2    1    2    0    0  0.00000000000E+00  0.00000000000E+00 -0.22963173816E+03  0.22117880166E+04  0.21998353337E+04 0.  0.
        5    1    3    3  502    0  0.65933958214E+03  0.51634080250E+03  0.60212252934E+03  0.10314601976E+04  0.46999998093E+01 0. -1.
       -5    1    3    3    0  502 -0.65933958214E+03 -0.51634080250E+03 -0.83175426749E+03  0.11803278190E+04  0.46999998093E+01 0.  1.
</event>
<event>
 5   0  0.2556869E-06  0.2197731E+04  0.7818609E-02  0.8519373E-01
        2   -1    0    0  501    0  0.00000000000E+00  0.00000000000E+00  0.78771779843E+03  0.78771779843E+03  0.25500000920E-02 0.  1.
       -2   -1    0    0    0  501  0.00000000000E+00  0.00000000000E+00 -0.15329157891E+04  0.15329157891E+04  0.25500000920E-02 0. -1.
    10030    2    1    2    0    0  0.00000000000E+00  0.00000000000E+00 -0.74519799066E+03  0.23206335875E+04  0.21977306938E+04 0.  0.
        5    1    3    3  502    0 -0.30145611948E+03  0.31201230073E+03  0.69344132309E+03  0.81799170310E+03  0.46999998093E+01 0.  1.
       -5    1    3    3    0  502  0.30145611948E+03 -0.31201230073E+03 -0.14386393137E+04  0.15026418844E+04  0.46999998093E+01 0. -1.
</event>
<event>
 5   0  0.2524749E-06  0.2200011E+04  0.7818609E-02  0.8518424E-01
        2   -1    0    0  501    0  0.00000000000E+00  0.00000000000E+00  0.15658462467E+04  0.15658462467E+04  0.25500000920E-02 0. -1.
       -2   -1    0    0    0  501  0.00000000000E+00  0.00000000000E+00 -0.77275286293E+03  0.77275286293E+03  0.25500000920E-02 0.  1.
    10030    2    1    2    0    0  0.00000000000E+00  0.00000000000E+00  0.79309338373E+03  0.23385991096E+04  0.22000110636E+04 0.  0.
        4    1    3    3  502    0 -0.71917941665E+03  0.77504470896E+01  0.12812820194E+04  0.14693414610E+04  0.12699999809E+01 0. -1.
       -4    1    3    3    0  502  0.71917941665E+03 -0.77504470896E+01 -0.48818863568E+03  0.86925764862E+03  0.12699999809E+01 0.  1.
</event>
<event>
 5   0  0.1137869E-06  0.2200100E+04  0.7818609E-02  0.8518386E-01
        1   -1    0    0  501    0  0.00000000000E+00  0.00000000000E+00  0.16586958618E+04  0.16586958618E+04  0.50400001928E-02 0. -1.
       -1   -1    0    0    0  501  0.00000000000E+00  0.00000000000E+00 -0.72955510813E+03  0.72955510815E+03  0.50400001928E-02 0.  1.
    10030    2    1    2    0    0  0.00000000000E+00  0.00000000000E+00  0.92914075369E+03  0.23882509700E+04  0.22001000330E+04 0.  0.
        5    1    3    3  502    0  0.85975363670E+03 -0.37434446164E+03 -0.15974746999E+03  0.95123679279E+03  0.46999998093E+01 0.  1.
       -5    1    3    3    0  502 -0.85975363670E+03  0.37434446164E+03  0.10888882237E+04  0.14370141772E+04  0.46999998093E+01 0. -1.
</event>
<event>
 5   0  0.8905000E-07  0.2199507E+04  0.7818609E-02  0.8518633E-01
        3   -1    0    0  501    0  0.00000000000E+00  0.00000000000E+00  0.20220890294E+04  0.20220890320E+04  0.10100000352E+00 0. -1.
       -3   -1    0    0    0  501  0.00000000000E+00  0.00000000000E+00 -0.59812269599E+03  0.59812270452E+03  0.10100000352E+00 0.  1.
    10030    2    1    2    0    0  0.00000000000E+00  0.00000000000E+00  0.14239663334E+04  0.26202117365E+04  0.21995066322E+04 0.  0.
        4    1    3    3  502    0  0.17752543444E+03  0.50762116870E+03 -0.43080746259E+03  0.68905095131E+03  0.12699999809E+01 0.  1.
       -4    1    3    3    0  502 -0.17752543444E+03 -0.50762116870E+03  0.18547737960E+04  0.19311607852E+04  0.12699999809E+01 0. -1.
</event>
<event>
 5   0  0.2581058E-06  0.2200620E+04  0.7818609E-02  0.8518170E-01
        2   -1    0    0  501    0  0.00000000000E+00  0.00000000000E+00  0.11096322890E+04  0.11096322890E+04  0.25500000920E-02 0. -1.
       -2   -1    0    0    0  501  0.00000000000E+00  0.00000000000E+00 -0.10910664472E+04  0.10910664472E+04  0.25500000920E-02 0.  1.
    10030    2    1    2    0    0  0.00000000000E+00  0.00000000000E+00  0.18565841806E+02  0.22006987363E+04  0.22006204210E+04 0.  0.
        1    1    3    3  502    0  0.73549858808E+03 -0.17396909601E+03 -0.79040742828E+03  0.10936029088E+04  0.50400001928E-02 0.  1.
       -1    1    3    3    0  502 -0.73549858808E+03  0.17396909601E+03  0.80897327008E+03  0.11070958275E+04  0.50400001928E-02 0. -1.
</event>
<event>
 5   0  0.2524749E-06  0.2200125E+04  0.7818609E-02  0.8518376E-01
        2   -1    0    0  501    0  0.00000000000E+00  0.00000000000E+00  0.15306087940E+04  0.15306087940E+04  0.25500000920E-02 0.  1.
       -2   -1    0    0    0  501  0.00000000000E+00  0.00000000000E+00 -0.79062508045E+03  0.79062508046E+03  0.25500000920E-02 0. -1.
    10030    2    1    2    0    0  0.00000000000E+00  0.00000000000E+00  0.73998371350E+03  0.23212338744E+04  0.22001251791E+04 0.  0.
        4    1    3    3  502    0 -0.58746885840E+03 -0.11990155421E+02 -0.61118567330E+03  0.84782838096E+03  0.12699999809E+01 0. -1.
       -4    1    3    3    0  502  0.58746885840E+03  0.11990155421E+02  0.13511693868E+04  0.14734054935E+04  0.12699999809E+01 0.  1.
</event>
<event>
 5   0  0.2524749E-06  0.2200297E+04  0.7818609E-02  0.8518304E-01
       -2   -1    0    0    0  501  0.00000000000E+00  0.00000000000E+00  0.89440597554E+03  0.89440597554E+03  0.25500000920E-02 0.  1.
        2   -1    0    0  501    0  0.00000000000E+00  0.00000000000E+00 -0.13532186033E+04  0.13532186033E+04  0.25500000920E-02 0. -1.
    10030    2    1    2    0    0  0.00000000000E+00  0.00000000000E+00 -0.45881262775E+03  0.22476245788E+04  0.22002970754E+04 0.  0.
        4    1    3    3  502    0  0.94782350174E+03  0.26924429984E+03  0.27046928859E+03  0.10217715657E+04  0.12699999809E+01 0.  1.
       -4    1    3    3    0  502 -0.94782350174E+03 -0.26924429984E+03 -0.72928191634E+03  0.12258530132E+04  0.12699999809E+01 0. -1.
</event>
<event>
 5   0  0.1146827E-06  0.2201053E+04  0.7818609E-02  0.8517990E-01
        1   -1    0    0  501    0  0.00000000000E+00  0.00000000000E+00  0.12954346655E+04  0.12954346655E+04  0.50400001928E-02 0.  1.
       -1   -1    0    0    0  501  0.00000000000E+00  0.00000000000E+00 -0.93494385063E+03  0.93494385064E+03  0.50400001928E-02 0. -1.
    10030    2    1    2    0    0  0.00000000000E+00  0.00000000000E+00  0.36049081490E+03  0.22303785162E+04  0.22010530884E+04 0.  0.
        4    1    3    3  502    0  0.69336252047E+03 -0.85337102808E+03  0.22737709327E+03  0.11228070412E+04  0.12699999809E+01 0.  1.
       -4    1    3    3    0  502 -0.69336252047E+03  0.85337102808E+03  0.13311372163E+03  0.11075714750E+04  0.12699999809E+01 0. -1.
</event>
<event>
 5   0  0.1144271E-06  0.2202257E+04  0.7818609E-02  0.8517489E-01
       -1   -1    0    0    0  501  0.00000000000E+00  0.00000000000E+00  0.76598730875E+03  0.76598730877E+03  0.50400001928E-02 0. -1.
        1   -1    0    0  501    0  0.00000000000E+00  0.00000000000E+00 -0.15829032982E+04  0.15829032983E+04  0.50400001928E-02 0.  1.
    10030    2    1    2    0    0  0.00000000000E+00  0.00000000000E+00 -0.81691598949E+03  0.23488906070E+04  0.22022568764E+04 0.  0.
        3    1    3    3  502    0  0.82995651125E+03 -0.53350602277E+03  0.11299913048E+03  0.99308876773E+03  0.10100000352E+00 0. -1.
       -3    1    3    3    0  502 -0.82995651125E+03  0.53350602277E+03 -0.92991511997E+03  0.13558018393E+04  0.10100000352E+00 0.  1.
</event>
<event>
 5   0  0.1144271E-06  0.2200565E+04  0.7818609E-02  0.8518193E-01
       -1   -1    0    0    0  501  0.00000000000E+00  0.00000000000E+00  0.64681302880E+03  0.64681302882E+03  0.50400001928E-02 0. -1.
        1   -1    0    0  501    0  0.00000000000E+00  0.00000000000E+00 -0.18716720819E+04  0.18716720819E+04  0.50400001928E-02 0.  1.
    10030    2    1    2    0    0  0.00000000000E+00  0.00000000000E+00 -0.12248590531E+04  0.25184851107E+04  0.22005652803E+04 0.  0.
        3    1    3    3  502    0  0.54873355943E+03  0.47094309328E+03 -0.15615314221E+04  0.17208359331E+04  0.10100000352E+00 0.  1.
       -3    1    3    3    0  502 -0.54873355943E+03 -0.47094309328E+03  0.33667236895E+03  0.79764917763E+03  0.10100000352E+00 0. -1.
</event>
<event>
 5   0  0.2524749E-06  0.2199213E+04  0.7818609E-02  0.8518756E-01
        2   -1    0    0  501    0  0.00000000000E+00  0.00000000000E+00  0.15142108217E+04  0.15142108217E+04  0.25500000920E-02 0.  1.
       -2   -1    0    0    0  501  0.00000000000E+00  0.00000000000E+00 -0.79852479755E+03  0.79852479755E+03  0.25500000920E-02 0. -1.
    10030    2    1    2    0    0  0.00000000000E+00  0.00000000000E+00  0.71568602415E+03  0.23127356192E+04  0.21992133956E+04 0.  0.
        4    1    3    3  502    0  0.10405505946E+04  0.35030595647E+03  0.29410520812E+03  0.11366438710E+04  0.12699999809E+01 0.  1.
       -4    1    3    3    0  502 -0.10405505946E+04 -0.35030595647E+03  0.42158081603E+03  0.11760917483E+04  0.12699999809E+01 0. -1.
</event>
<event>
 5   0  0.1146827E-06  0.2200135E+04  0.7818609E-02  0.8518372E-01
       -1   -1    0    0    0  501  0.00000000000E+00  0.00000000000E+00  0.81015115417E+03  0.81015115418E+03  0.50400001928E-02 0. -1.
        1   -1    0    0  501    0  0.00000000000E+00  0.00000000000E+00 -0.14937313645E+04  0.14937313645E+04  0.50400001928E-02 0.  1.
    10030    2    1    2    0    0  0.00000000000E+00  0.00000000000E+00 -0.68358021032E+03  0.23038825187E+04  0.22001347131E+04 0.  0.
        4    1    3    3  502    0  0.21700600358E+03 -0.10611031684E+04 -0.14005289881E+03  0.10920842307E+04  0.12699999809E+01 0. -1.
       -4    1    3    3    0  502 -0.21700600358E+03  0.10611031684E+04 -0.54352731152E+03  0.12117982880E+04  0.12699999809E+01 0.  1.
</event>
<event>
 5   0  0.2532239E-06  0.2201412E+04  0.7818609E-02  0.8517841E-01
       -2   -1    0    0    0  501  0.00000000000E+00  0.00000000000E+00  0.11358683927E+04  0.11358683927E+04  0.25500000920E-02 0. -1.
        2   -1    0    0  501    0  0.00000000000E+00  0.00000000000E+00 -0.10666321408E+04  0.10666321408E+04  0.25500000920E-02 0.  1.
    10030    2    1    2    0    0  0.00000000000E+00  0.00000000000E+00  0.69236251903E+02  0.22025005336E+04  0.22014120336E+04 0.  0.
        3    1    3    3  502    0 -0.48106578290E+03 -0.10346930011E+03  0.10196980476E+04  0.11322165438E+04  0.10100000352E+00 0. -1.
       -3    1    3    3    0  502  0.48106578290E+03  0.10346930011E+03 -0.95046179568E+03  0.10702839898E+04  0.10100000352E+00 0.  1.
</event>
<event>
 5   0  0.1137869E-06  0.2204806E+04  0.7818609E-02  0.8516431E-01
        1   -1    0    0  501    0  0.00000000000E+00  0.00000000000E+00  0.14435151485E+04  0.14435151485E+04  0.50400001928E-02 0. -1.
       -1   -1    0    0    0  501  0.00000000000E+00  0.00000000000E+00 -0.84189773358E+03  0.84189773360E+03  0.50400001928E-02 0.  1.
    10030    2    1    2    0    0  0.00000000000E+00  0.00000000000E+00  0.60161741496E+03  0.22854128821E+04  0.22048057801E+04 0.  0.
        5    1    3    3  502    0  0.74345479055E+02 -0.79440718345E+03  0.10893166470E+04  0.13502751093E+04  0.46999998093E+01 0. -1.
       -5    1    3    3    0  502 -0.74345479055E+02  0.79440718345E+03 -0.48769923199E+03  0.93513777288E+03  0.46999998093E+01 0.  1.
</event>
<event>
 5   0  0.2532239E-06  0.2200238E+04  0.7818609E-02  0.8518329E-01
        2   -1    0    0  501    0  0.00000000000E+00  0.00000000000E+00  0.18789837303E+04  0.18789837303E+04  0.25500000920E-02 0.  1.
       -2   -1    0    0    0  501  0.00000000000E+00  0.00000000000E+00 -0.64410474966E+03  0.64410474967E+03  0.25500000920E-02 0. -1.
    10030    2    1    2    0    0  0.00000000000E+00  0.00000000000E+00  0.12348789806E+04  0.25230884799E+04  0.22002384827E+04 0.  0.
        3    1    3    3  502    0  0.84101568572E+03  0.83949584724E+02  0.14249776001E+04  0.16567788288E+04  0.10100000352E+00 0.  1.
       -3    1    3    3    0  502 -0.84101568572E+03 -0.83949584724E+02 -0.19009861949E+03  0.86630965119E+03  0.10100000352E+00 0. -1.
</event>
<event>
 5   0  0.2581058E-06  0.2200513E+04  0.7818609E-02  0.8518215E-01
       -2   -1    0    0    0  501  0.00000000000E+00  0.00000000000E+00  0.82375527225E+03  0.82375527226E+03  0.25500000920E-02 0. -1.
        2   -1    0    0  501    0  0.00000000000E+00  0.00000000000E+00 -0.14695683471E+04  0.14695683471E+04  0.25500000920E-02 0.  1.
    10030    2    1    2    0    0  0.00000000000E+00  0.00000000000E+00 -0.64581307484E+03  0.22933236194E+04  0.22005132800E+04 0.  0.
        1    1    3    3  502    0  0.62713434539E+03  0.77290230795E+03 -0.81160762850E+03  0.12842828378E+04  0.50400001928E-02 0. -1.
       -1    1    3    3    0  502 -0.62713434539E+03 -0.77290230795E+03  0.16579455366E+03  0.10090407816E+04  0.50400001928E-02 0.  1.
</event>
<event>
 5   0  0.1137869E-06  0.2199291E+04  0.7818609E-02  0.8518723E-01
       -1   -1    0    0    0  501  0.00000000000E+00  0.00000000000E+00  0.57714427389E+03  0.57714427392E+03  0.50400001928E-02 0.  1.
        1   -1    0    0  501    0  0.00000000000E+00  0.00000000000E+00 -0.20951781982E+04  0.20951781982E+04  0.50400001928E-02 0. -1.
    10030    2    1    2    0    0  0.00000000000E+00  0.00000000000E+00 -0.15180339243E+04  0.26723224721E+04  0.21992908856E+04 0.  0.
        5    1    3    3  502    0 -0.94518678509E+03 -0.30646194771E+03 -0.18663512494E+03  0.10110152046E+04  0.46999998093E+01 0.  1.
       -5    1    3    3    0  502  0.94518678509E+03  0.30646194771E+03 -0.13313987994E+04  0.16613072675E+04  0.46999998093E+01 0. -1.
</event>
<event>
 5   0  0.1082209E-06  0.2198933E+04  0.7818609E-02  0.8518872E-01
        1   -1    0    0  501    0  0.00000000000E+00  0.00000000000E+00  0.27922126783E+04  0.27922126783E+04  0.50400001928E-02 0. -1.
       -1   -1    0    0    0  501  0.00000000000E+00  0.00000000000E+00 -0.43292780684E+03  0.43292780687E+03  0.50400001928E-02 0.  1.
    10030    2    1    2    0    0  0.00000000000E+00  0.00000000000E+00  0.23592848715E+04  0.32251404852E+04  0.21989329331E+04 0.  0.
        2    1    3    3  502    0  0.20120685514E+03 -0.43026222535E+03  0.26339668108E+04  0.26764511842E+04  0.25500000920E-02 0. -1.
       -2    1    3    3    0  502 -0.20120685514E+03  0.43026222535E+03 -0.27468193938E+03  0.54868930092E+03  0.25500000920E-02 0.  1.
</event>
<event>
 5   0  0.2606154E-06  0.2199524E+04  0.7818609E-02  0.8518626E-01
       -2   -1    0    0    0  501  0.00000000000E+00  0.00000000000E+00  0.11137696273E+04  0.11137696273E+04  0.25500000920E-02 0.  1.
        2   -1    0    0  501    0  0.00000000000E+00  0.00000000000E+00 -0.10859302078E+04  0.10859302078E+04  0.25500000920E-02 0. -1.
    10030    2    1    2    0    0  0.00000000000E+00  0.00000000000E+00  0.27839419480E+02  0.21996998351E+04  0.21995236601E+04 0.  0.
        2    1    3    3  502    0  0.11952868347E+02 -0.27005167970E+03  0.10800282194E+04  0.11133425958E+04  0.25500000920E-02 0.  1.
       -2    1    3    3    0  502 -0.11952868347E+02  0.27005167970E+03 -0.10521888000E+04  0.10863572394E+04  0.25500000920E-02 0. -1.
</event>
<event>
 5   0  0.2606154E-06  0.2195030E+04  0.7818609E-02  0.8520500E-01
        2   -1    0    0  501    0  0.00000000000E+00  0.00000000000E+00  0.27980748626E+04  0.27980748626E+04  0.25500000920E-02 0.  1.
       -2   -1    0    0    0  501  0.00000000000E+00  0.00000000000E+00 -0.43048841594E+03  0.43048841594E+03  0.25500000920E-02 0. -1.
    10030    2    1    2    0    0  0.00000000000E+00  0.00000000000E+00  0.23675864467E+04  0.32285632785E+04  0.21950296720E+04 0.  0.
        2    1    3    3  502    0 -0.22148552013E+03 -0.19509549984E+03  0.27386030208E+04  0.27544626690E+04  0.25500000920E-02 0.  1.
       -2    1    3    3    0  502  0.22148552013E+03  0.19509549984E+03 -0.37101657410E+03  0.47410060952E+03  0.25500000920E-02 0. -1.
</event>
<event>
 5   0  0.1144271E-06  0.2199807E+04  0.7818609E-02  0.8518509E-01
       -1   -1    0    0    0  501  0.00000000000E+00  0.00000000000E+00  0.10588474071E+04  0.10588474072E+04  0.50400001928E-02 0.  1.
        1   -1    0    0  501    0  0.00000000000E+00  0.00000000000E+00 -0.11425512187E+04  0.11425512187E+04  0.50400001928E-02 0. -1.
    10030    2    1    2    0    0  0.00000000000E+00  0.00000000000E+00 -0.83703811523E+02  0.22013986258E+04  0.21998067146E+04 0.  0.
        3    1    3    3  502    0 -0.54516244422E+03  0.76288254992E+03 -0.61724234714E+03  0.11225773919E+04  0.10100000352E+00 0. -1.
       -3    1    3    3    0  502  0.54516244422E+03 -0.76288254992E+03  0.53353853562E+03  0.10788212339E+04  0.10100000352E+00 0.  1.
</event>
<event>
 5   0  0.1082209E-06  0.2200338E+04  0.7818609E-02  0.8518287E-01
       -1   -1    0    0    0  501  0.00000000000E+00  0.00000000000E+00  0.58501935961E+03  0.58501935963E+03  0.50400001928E-02 0.  1.
        1   -1    0    0  501    0  0.00000000000E+00  0.00000000000E+00 -0.20689431591E+04  0.20689431592E+04  0.50400001928E-02 0. -1.
    10030    2    1    2    0    0  0.00000000000E+00  0.00000000000E+00 -0.14839237995E+04  0.26539625188E+04  0.22003379759E+04 0.  0.
        2    1    3    3  502    0 -0.83123588223E+03 -0.42920483633E+03 -0.43635213631E+02  0.93652224497E+03  0.25500000920E-02 0.  1.
       -2    1    3    3    0  502  0.83123588223E+03  0.42920483633E+03 -0.14402885859E+04  0.17174402738E+04  0.25500000920E-02 0. -1.
</event>
<event>
 5   0  0.2581058E-06  0.2201033E+04  0.7818609E-02  0.8517998E-01
       -2   -1    0    0    0  501  0.00000000000E+00  0.00000000000E+00  0.10545235708E+04  0.10545235708E+04  0.25500000920E-02 0. -1.
        2   -1    0    0  501    0  0.00000000000E+00  0.00000000000E+00 -0.11485150011E+04  0.11485150011E+04  0.25500000920E-02 0.  1.
    10030    2    1    2    0    0  0.00000000000E+00  0.00000000000E+00 -0.93991430265E+02  0.22030385720E+04  0.22010326123E+04 0.  0.
        1    1    3    3  502    0  0.92602340479E+03  0.58326462108E+03 -0.16294245529E+03  0.11064660899E+04  0.50400001928E-02 0.  1.
       -1    1    3    3    0  502 -0.92602340479E+03 -0.58326462108E+03  0.68951025027E+02  0.10965724820E+04  0.50400001928E-02 0. -1.
</event>
<event>
 5   0  0.1146827E-06  0.2199679E+04  0.7818609E-02  0.8518562E-01
        1   -1    0    0  501    0  0.00000000000E+00  0.00000000000E+00  0.16606526060E+04  0.16606526060E+04  0.50400001928E-02 0. -1.
       -1   -1    0    0    0  501  0.00000000000E+00  0.00000000000E+00 -0.72841630525E+03  0.72841630526E+03  0.50400001928E-02 0.  1.
    10030    2    1    2    0    0  0.00000000000E+00  0.00000000000E+00  0.93223630076E+03  0.23890689113E+04  0.21996785543E+04 0.  0.
        4    1    3    3  502    0  0.10354125204E+04  0.15045483208E+03  0.97917612002E+02  0.10508592748E+04  0.12699999809E+01 0.  1.
       -4    1    3    3    0  502 -0.10354125204E+04 -0.15045483208E+03  0.83431868875E+03  0.13382096365E+04  0.12699999809E+01 0. -1.
</event>
<event>
 5   0  0.2581058E-06  0.2201707E+04  0.7818609E-02  0.8517718E-01
       -2   -1    0    0    0  501  0.00000000000E+00  0.00000000000E+00  0.57429019555E+03  0.57429019555E+03  0.25500000920E-02 0.  1.
        2   -1    0    0  501    0  0.00000000000E+00  0.00000000000E+00 -0.21102190631E+04  0.21102190631E+04  0.25500000920E-02 0. -1.
    10030    2    1    2    0    0  0.00000000000E+00  0.00000000000E+00 -0.15359288676E+04  0.26845092587E+04  0.22017067184E+04 0.  0.
        1    1    3    3  502    0 -0.33221222101E+03  0.44032581517E+02  0.51058559676E+03  0.61073847076E+03  0.50400001928E-02 0.  1.
       -1    1    3    3    0  502  0.33221222101E+03 -0.44032581517E+02 -0.20465144644E+04  0.20737707879E+04  0.50400001928E-02 0. -1.
</event>
<event>
 5   0  0.1107101E-06  0.2200207E+04  0.7818609E-02  0.8518342E-01
       -1   -1    0    0    0  501  0.00000000000E+00  0.00000000000E+00  0.14472560091E+04  0.14472560091E+04  0.50400001928E-02 0.  1.
        1   -1    0    0  501    0  0.00000000000E+00  0.00000000000E+00 -0.83622220953E+03  0.83622220954E+03  0.50400001928E-02 0. -1.
    10030    2    1    2    0    0  0.00000000000E+00  0.00000000000E+00  0.61103379958E+03  0.22834782187E+04  0.22002069155E+04 0.  0.
        1    1    3    3  502    0 -0.28674400032E+03  0.60159281750E+03 -0.60287591830E+03  0.89866312524E+03  0.50400001928E-02 0. -1.
       -1    1    3    3    0  502  0.28674400032E+03 -0.60159281750E+03  0.12139097179E+04  0.13848150934E+04  0.50400001928E-02 0.  1.
</event>
<event>
 5   0  0.2524749E-06  0.2200452E+04  0.7818609E-02  0.8518240E-01
        2   -1    0    0  501    0  0.00000000000E+00  0.00000000000E+00  0.19852331770E+04  0.19852331770E+04  0.25500000920E-02 0.  1.
       -2   -1    0    0    0  501  0.00000000000E+00  0.00000000000E+00 -0.60975073020E+03  0.60975073020E+03  0.25500000920E-02 0. -1.
    10030    2    1    2    0    0  0.00000000000E+00  0.00000000000E+00  0.13754824468E+04  0.25949839072E+04  0.22004521166E+04 0.  0.
        4    1    3    3  502    0 -0.26461598877E+03 -0.73203812893E+03  0.16047104876E+04  0.17835354792E+04  0.12699999809E+01 0.  1.
       -4    1    3    3    0  502  0.26461598877E+03  0.73203812893E+03 -0.22922804079E+03  0.81144842800E+03  0.12699999809E+01 0. -1.
</event>
<event>
 5   0  0.8905000E-07  0.2201025E+04  0.7818609E-02  0.8518002E-01
       -3   -1    0    0    0  501  0.00000000000E+00  0.00000000000E+00  0.25327316836E+04  0.25327316856E+04  0.10100000352E+00 0. -1.
        3   -1    0    0  501    0  0.00000000000E+00  0.00000000000E+00 -0.47819012031E+03  0.47819013098E+03  0.10100000352E+00 0.  1.
    10030    2    1    2    0    0  0.00000000000E+00  0.00000000000E+00  0.20545415633E+04  0.30109218166E+04  0.22010245683E+04 0.  0.
        2    1    3    3  502    0  0.76058756947E+03  0.71603203294E+03  0.55352859303E+03  0.11821967799E+04  0.25500000920E-02 0.  1.
       -2    1    3    3    0  502 -0.76058756947E+03 -0.71603203294E+03  0.15010129702E+04  0.18287250367E+04  0.25500000920E-02 0. -1.
</event>
<event>
 5   0  0.2532239E-06  0.2209684E+04  0.7818609E-02  0.8514408E-01
       -2   -1    0    0    0  501  0.00000000000E+00  0.00000000000E+00  0.10168475484E+04  0.10168475484E+04  0.25500000920E-02 0. -1.
        2   -1    0    0  501    0  0.00000000000E+00  0.00000000000E+00 -0.12004510933E+04  0.12004510934E+04  0.25500000920E-02 0.  1.
    10030    2    1    2    0    0  0.00000000000E+00  0.00000000000E+00 -0.18360354495E+03  0.22172986417E+04  0.22096839152E+04 0.  0.
        3    1    3    3  502    0  0.24006748468E+03  0.34799468392E+03 -0.11160754838E+04  0.11934643660E+04  0.10100000352E+00 0.  1.
       -3    1    3    3    0  502 -0.24006748468E+03 -0.34799468392E+03  0.93247193884E+03  0.10238342757E+04  0.10100000352E+00 0. -1.
</event>
<event>
 5   0  0.2606154E-06  0.2199864E+04  0.7818609E-02  0.8518485E-01
        2   -1    0    0  501    0  0.00000000000E+00  0.00000000000E+00  0.23452432961E+04  0.23452432961E+04  0.25500000920E-02 0. -1.
       -2   -1    0    0    0  501  0.00000000000E+00  0.00000000000E+00 -0.51587433613E+03  0.51587433614E+03  0.25500000920E-02 0.  1.
    10030    2    1    2    0    0  0.00000000000E+00  0.00000000000E+00  0.18293689600E+04  0.28611176322E+04  0.21998643853E+04 0.  0.
        2    1    3    3  502    0  0.11100707395E+03 -0.18073525979E+03 -0.48902500628E+03  0.53304151937E+03  0.25500000920E-02 0.  1.
       -2    1    3    3    0  502 -0.11100707395E+03  0.18073525979E+03  0.23183939662E+04  0.23280761129E+04  0.25500000920E-02 0. -1.
</event>
<event>
 5   0  0.2581058E-06  0.2199796E+04  0.7818609E-02  0.8518513E-01
        2   -1    0    0  501    0  0.00000000000E+00  0.00000000000E+00  0.14647792354E+04  0.14647792354E+04  0.25500000920E-02 0.  1.
       -2   -1    0    0    0  501  0.00000000000E+00  0.00000000000E+00 -0.82590963244E+03  0.82590963244E+03  0.25500000920E-02 0. -1.
    10030    2    1    2    0    0  0.00000000000E+00  0.00000000000E+00  0.63886960301E+03  0.22906888679E+04  0.21997956996E+04 0.  0.
        1    1    3    3  502    0 -0.44889715222E+03  0.95594227581E+03 -0.57554986767E+00  0.10560940390E+04  0.50400001928E-02 0.  1.
       -1    1    3    3    0  502  0.44889715222E+03 -0.95594227581E+03  0.63944515287E+03  0.12345948289E+04  0.50400001928E-02 0. -1.
</event>
<event>
 5   0  0.1082209E-06  0.2193742E+04  0.7818609E-02  0.8521037E-01
       -1   -1    0    0    0  501  0.00000000000E+00  0.00000000000E+00  0.10353175086E+04  0.10353175086E+04  0.50400001928E-02 0.  1.
        1   -1    0    0  501    0  0.00000000000E+00  0.00000000000E+00 -0.11620840838E+04  0.11620840838E+04  0.50400001928E-02 0. -1.
    10030    2    1    2    0    0  0.00000000000E+00  0.00000000000E+00 -0.12676657520E+03  0.21974015923E+04  0.21937420070E+04 0.  0.
        2    1    3    3  502    0 -0.10231790649E+03 -0.67264834499E+03  0.79840143347E+03  0.10489850328E+04  0.25500000920E-02 0.  1.
       -2    1    3    3    0  502  0.10231790649E+03  0.67264834499E+03 -0.92516800867E+03  0.11484165596E+04  0.25500000920E-02 0. -1.
</event>
<event>
 5   0  0.2606154E-06  0.2200641E+04  0.7818609E-02  0.8518161E-01
       -2   -1    0    0    0  501  0.00000000000E+00  0.00000000000E+00  0.10402087502E+04  0.10402087502E+04  0.25500000920E-02 0. -1.
        2   -1    0    0  501    0  0.00000000000E+00  0.00000000000E+00 -0.11639062345E+04  0.11639062345E+04  0.25500000920E-02 0.  1.
    10030    2    1    2    0    0  0.00000000000E+00  0.00000000000E+00 -0.12369748431E+03  0.22041149847E+04  0.22006412243E+04 0.  0.
        2    1    3    3  502    0  0.13576966067E+03  0.10668344084E+04  0.17119082461E+03  0.10889790421E+04  0.25500000920E-02 0.  1.
       -2    1    3    3    0  502 -0.13576966067E+03 -0.10668344084E+04 -0.29488830892E+03  0.11151359426E+04  0.25500000920E-02 0. -1.
</event>
<event>
 5   0  0.1144271E-06  0.2200206E+04  0.7818609E-02  0.8518342E-01
       -1   -1    0    0    0  501  0.00000000000E+00  0.00000000000E+00  0.92010414085E+03  0.92010414086E+03  0.50400001928E-02 0.  1.
        1   -1    0    0  501    0  0.00000000000E+00  0.00000000000E+00 -0.13153150705E+04  0.13153150705E+04  0.50400001928E-02 0. -1.
    10030    2    1    2    0    0  0.00000000000E+00  0.00000000000E+00 -0.39521092969E+03  0.22354192114E+04  0.22002062112E+04 0.  0.
        3    1    3    3  502    0 -0.46213136207E+03  0.92407444066E+03 -0.58147213325E+03  0.11855753117E+04  0.10100000352E+00 0. -1.
       -3    1    3    3    0  502  0.46213136207E+03 -0.92407444066E+03  0.18626120356E+03  0.10498438997E+04  0.10100000352E+00 0.  1.
</event>
<event>
 5   0  0.1146827E-06  0.2200525E+04  0.7818609E-02  0.8518210E-01
        1   -1    0    0  501    0  0.00000000000E+00  0.00000000000E+00  0.15085835041E+04  0.15085835041E+04  0.50400001928E-02 0. -1.
       -1   -1    0    0    0  501  0.00000000000E+00  0.00000000000E+00 -0.80245971271E+03  0.80245971273E+03  0.50400001928E-02 0.  1.
    10030    2    1    2    0    0  0.00000000000E+00  0.00000000000E+00  0.70612379139E+03  0.23110432168E+04  0.22005249240E+04 0.  0.
        4    1    3    3  502    0  0.42367585780E+03  0.56429592599E+03  0.12396426906E+04  0.14264104381E+04  0.12699999809E+01 0. -1.
       -4    1    3    3    0  502 -0.42367585780E+03 -0.56429592599E+03 -0.53351889920E+03  0.88463277877E+03  0.12699999809E+01 0.  1.
</event>
<event>
 5   0  0.1082209E-06  0.2199967E+04  0.7818609E-02  0.8518442E-01
        1   -1    0    0  501    0  0.00000000000E+00  0.00000000000E+00  0.16583310534E+04  0.16583310534E+04  0.50400001928E-02 0.  1.
       -1   -1    0    0    0  501  0.00000000000E+00  0.00000000000E+00 -0.72962725507E+03  0.72962725509E+03  0.50400001928E-02 0. -1.
    10030    2    1    2    0    0  0.00000000000E+00  0.00000000000E+00  0.92870379832E+03  0.23879583085E+04  0.21999668493E+04 0.  0.
        2    1    3    3  502    0 -0.56068185461E+03 -0.91908181641E+03  0.21949162841E+03  0.10987502456E+04  0.25500000920E-02 0. -1.
       -2    1    3    3    0  502  0.56068185461E+03  0.91908181641E+03  0.70921216991E+03  0.12892080628E+04  0.25500000920E-02 0.  1.
</event>
<event>
 5   0  0.1137869E-06  0.2200114E+04  0.7818609E-02  0.8518381E-01
       -1   -1    0    0    0  501  0.00000000000E+00  0.00000000000E+00  0.70682827725E+03  0.70682827727E+03  0.50400001928E-02 0.  1.
        1   -1    0    0  501    0  0.00000000000E+00  0.00000000000E+00 -0.17120502849E+04  0.17120502849E+04  0.50400001928E-02 0. -1.
    10030    2    1    2    0    0  0.00000000000E+00  0.00000000000E+00 -0.10052220076E+04  0.24188785621E+04  0.22001141365E+04 0.  0.
        5    1    3    3  502    0 -0.73025043151E+03 -0.82265128686E+03 -0.51260502501E+03  0.12135925322E+04  0.46999998093E+01 0. -1.
       -5    1    3    3    0  502  0.73025043151E+03  0.82265128686E+03 -0.49261698259E+03  0.12052860300E+04  0.46999998093E+01 0.  1.
</event>
<event>
 5   0  0.2532239E-06  0.2199620E+04  0.7818609E-02  0.8518586E-01
        2   -1    0    0  501    0  0.00000000000E+00  0.00000000000E+00  0.17469407760E+04  0.17469407760E+04  0.25500000920E-02 0.  1.
       -2   -1    0    0    0  501  0.00000000000E+00  0.00000000000E+00 -0.69240034350E+03  0.69240034351E+03  0.25500000920E-02 0. -1.
    10030    2    1    2    0    0  0.00000000000E+00  0.00000000000E+00  0.10545404325E+04  0.24393411195E+04  0.21996203249E+04 0.  0.
        3    1    3    3  502    0 -0.26919938568E+03 -0.68096608494E+03 -0.38277114571E+03  0.82625472966E+03  0.10100000352E+00 0. -1.
       -3    1    3    3    0  502  0.26919938568E+03  0.68096608494E+03  0.14373115782E+04  0.16130863899E+04  0.10100000352E+00 0.  1.
</event>
<event>
 5   0  0.2524749E-06  0.2199921E+04  0.7818609E-02  0.8518461E-01
       -2   -1    0    0    0  501  0.00000000000E+00  0.00000000000E+00  0.66932794245E+03  0.66932794245E+03  0.25500000920E-02 0.  1.
        2   -1    0    0  501    0  0.00000000000E+00  0.00000000000E+00 -0.18076542249E+04  0.18076542249E+04  0.25500000920E-02 0. -1.
    10030    2    1    2    0    0  0.00000000000E+00  0.00000000000E+00 -0.11383262824E+04  0.24769821673E+04  0.21999213468E+04 0.  0.
        4    1    3    3  502    0  0.10380521620E+03  0.10950474439E+04 -0.57223488204E+03  0.12399027383E+04  0.12699999809E+01 0. -1.
       -4    1    3    3    0  502 -0.10380521620E+03 -0.10950474439E+04 -0.56609140039E+03  0.12370794290E+04  0.12699999809E+01 0.  1.
</event>
<event>
 5   0  0.2556869E-06  0.2200150E+04  0.7818609E-02  0.8518366E-01
       -2   -1    0    0    0  501  0.00000000000E+00  0.00000000000E+00  0.56077733137E+03  0.56077733138E+03  0.25500000920E-02 0. -1.
        2   -1    0    0  501    0  0.00000000000E+00  0.00000000000E+00 -0.21580129181E+04  0.21580129181E+04  0.25500000920E-02 0.  1.
    10030    2    1    2    0    0  0.00000000000E+00  0.00000000000E+00 -0.15972355867E+04  0.27187902495E+04  0.22001497452E+04 0.  0.
        5    1    3    3  502    0  0.50665106676E+03 -0.97640657010E+03 -0.78773623544E+03  0.13530024243E+04  0.46999998093E+01 0. -1.
       -5    1    3    3    0  502 -0.50665106676E+03  0.97640657010E+03 -0.80949935126E+03  0.13657878251E+04  0.46999998093E+01 0.  1.
</event>
<event>
 5   0  0.1082209E-06  0.2199045E+04  0.7818609E-02  0.8518826E-01
        1   -1    0    0  501    0  0.00000000000E+00  0.00000000000E+00  0.13438863710E+04  0.13438863710E+04  0.50400001928E-02 0. -1.
       -1   -1    0    0    0  501  0.00000000000E+00  0.00000000000E+00 -0.89959209020E+03  0.89959209022E+03  0.50400001928E-02 0.  1.
    10030    2    1    2    0    0  0.00000000000E+00  0.00000000000E+00  0.44429428075E+03  0.22434784612E+04  0.21990448376E+04 0.  0.
        2    1    3    3  502    0 -0.42137003132E+03 -0.23203043602E+03  0.12308406991E+04  0.13214990174E+04  0.25500000920E-02 0. -1.
       -2    1    3    3    0  502  0.42137003132E+03  0.23203043602E+03 -0.78654641833E+03  0.92197944376E+03  0.25500000920E-02 0.  1.
</event>
<event>
 5   0  0.1082209E-06  0.2205523E+04  0.7818609E-02  0.8516133E-01
        1   -1    0    0  501    0  0.00000000000E+00  0.00000000000E+00  0.97576077886E+03  0.97576077887E+03  0.50400001928E-02 0. -1.
       -1   -1    0    0    0  501  0.00000000000E+00  0.00000000000E+00 -0.12462923280E+04  0.12462923280E+04  0.50400001928E-02 0.  1.
    10030    2    1    2    0    0  0.00000000000E+00  0.00000000000E+00 -0.27053154914E+03  0.22220531069E+04  0.22055232238E+04 0.  0.
        2    1    3    3  502    0  0.26078181412E+03 -0.10183233409E+04 -0.47107088621E+03  0.11519103094E+04  0.25500000920E-02 0. -1.
       -2    1    3    3    0  502 -0.26078181412E+03  0.10183233409E+04  0.20053933707E+03  0.10701427974E+04  0.25500000920E-02 0.  1.
</event>
<event>
 5   0  0.8905000E-07  0.2200592E+04  0.7818609E-02  0.8518182E-01
        3   -1    0    0  501    0  0.00000000000E+00  0.00000000000E+00  0.12177560255E+04  0.12177560297E+04  0.10100000352E+00 0.  1.
       -3   -1    0    0    0  501  0.00000000000E+00  0.00000000000E+00 -0.99416596324E+03  0.99416596837E+03  0.10100000352E+00 0. -1.
    10030    2    1    2    0    0  0.00000000000E+00  0.00000000000E+00  0.22359006227E+03  0.22119219981E+04  0.22005922861E+04 0.  0.
        1    1    3    3  502    0 -0.65901889835E+03  0.66475557015E+03  0.69308529195E+03  0.11647201803E+04  0.50400001928E-02 0.  1.
       -1    1    3    3    0  502  0.65901889835E+03 -0.66475557015E+03 -0.46949522968E+03  0.10472018178E+04  0.50400001928E-02 0. -1.
</event>
<event>
 5   0  0.8905000E-07  0.2200476E+04  0.7818609E-02  0.8518230E-01
       -3   -1    0    0    0  501  0.00000000000E+00  0.00000000000E+00  0.56745861398E+03  0.56745862297E+03  0.10100000352E+00 0.  1.
        3   -1    0    0  501    0  0.00000000000E+00  0.00000000000E+00 -0.21332373791E+04  0.21332373815E+04  0.10100000352E+00 0. -1.
    10030    2    1    2    0    0  0.00000000000E+00  0.00000000000E+00 -0.15657787651E+04  0.27006960045E+04  0.22004762592E+04 0.  0.
        2    1    3    3  502    0  0.82403302430E+03 -0.40222752028E+03 -0.15291449434E+04  0.17830035505E+04  0.25500000920E-02 0. -1.
       -2    1    3    3    0  502 -0.82403302430E+03  0.40222752028E+03 -0.36633821768E+02  0.91769245399E+03  0.25500000920E-02 0.  1.
</event>
<event>
 5   0  0.1146827E-06  0.2199318E+04  0.7818609E-02  0.8518712E-01
        1   -1    0    0  501    0  0.00000000000E+00  0.00000000000E+00  0.11346520992E+04  0.11346520992E+04  0.50400001928E-02 0.  1.
       -1   -1    0    0    0  501  0.00000000000E+00  0.00000000000E+00 -0.10657454115E+04  0.10657454115E+04  0.50400001928E-02 0. -1.
    10030    2    1    2    0    0  0.00000000000E+00  0.00000000000E+00  0.68906687683E+02  0.22003975107E+04  0.21993183202E+04 0.  0.
        4    1    3    3  502    0  0.94866948038E+03  0.51266784263E+03 -0.18116703740E+03  0.10934464816E+04  0.12699999809E+01 0.  1.
       -4    1    3    3    0  502 -0.94866948038E+03 -0.51266784263E+03  0.25007372508E+03  0.11069510291E+04  0.12699999809E+01 0. -1.
</event>
<event>
 5   0  0.1107101E-06  0.2200417E+04  0.7818609E-02  0.8518255E-01
        1   -1    0    0  501    0  0.00000000000E+00  0.00000000000E+00  0.96416068710E+03  0.96416068711E+03  0.50400001928E-02 0.  1.
       -1   -1    0    0    0  501  0.00000000000E+00  0.00000000000E+00 -0.12554530610E+04  0.12554530610E+04  0.50400001928E-02 0. -1.
    10030    2    1    2    0    0  0.00000000000E+00  0.00000000000E+00 -0.29129237394E+03  0.22196137482E+04  0.22004167660E+04 0.  0.
        1    1    3    3  502    0 -0.65089462472E+03 -0.87661095251E+03 -0.28228238773E+03  0.11277384098E+04  0.50400001928E-02 0.  1.
       -1    1    3    3    0  502  0.65089462472E+03  0.87661095251E+03 -0.90099862086E+01  0.10918753383E+04  0.50400001928E-02 0. -1.
</event>
<event>
 5   0  0.2524749E-06  0.2199701E+04  0.7818609E-02  0.8518552E-01
       -2   -1    0    0    0  501  0.00000000000E+00  0.00000000000E+00  0.94351704403E+03  0.94351704404E+03  0.25500000920E-02 0.  1.
        2   -1    0    0  501    0  0.00000000000E+00  0.00000000000E+00 -0.12820875708E+04  0.12820875708E+04  0.25500000920E-02 0. -1.
    10030    2    1    2    0    0  0.00000000000E+00  0.00000000000E+00 -0.33857052678E+03  0.22256046148E+04  0.21997013206E+04 0.  0.
        4    1    3    3  502    0  0.24509677561E+03 -0.10624839090E+04 -0.23626873692E+02  0.10906439971E+04  0.12699999809E+01 0.  1.
       -4    1    3    3    0  502 -0.24509677561E+03  0.10624839090E+04 -0.31494365309E+03  0.11349606178E+04  0.12699999809E+01 0. -1.
</event>
<event>
 5   0  0.2556869E-06  0.2200251E+04  0.7818609E-02  0.8518323E-01
       -2   -1    0    0    0  501  0.00000000000E+00  0.00000000000E+00  0.15265965635E+04  0.15265965635E+04  0.25500000920E-02 0.  1.
        2   -1    0    0  501    0  0.00000000000E+00  0.00000000000E+00 -0.79279402418E+03  0.79279402418E+03  0.25500000920E-02 0. -1.
    10030    2    1    2    0    0  0.00000000000E+00  0.00000000000E+00  0.73380253936E+03  0.23193905877E+04  0.22002514701E+04 0.  0.
        5    1    3    3  502    0  0.92844153654E+03 -0.13913778257E+03  0.97144527291E+03  0.13509592953E+04  0.46999998093E+01 0.  1.
       -5    1    3    3    0  502 -0.92844153654E+03  0.13913778257E+03 -0.23764273355E+03  0.96843129241E+03  0.46999998093E+01 0. -1.
</event>
<event>
 5   0  0.1137869E-06  0.2200976E+04  0.7818609E-02  0.8518022E-01
        1   -1    0    0  501    0  0.00000000000E+00  0.00000000000E+00  0.18042859179E+04  0.18042859179E+04  0.50400001928E-02 0.  1.
       -1   -1    0    0    0  501  0.00000000000E+00  0.00000000000E+00 -0.67122076397E+03  0.67122076399E+03  0.50400001928E-02 0. -1.
    10030    2    1    2    0    0  0.00000000000E+00  0.00000000000E+00  0.11330651540E+04  0.24755066819E+04  0.22009763036E+04 0.  0.
        5    1    3    3  502    0  0.38438131559E+03 -0.68242750399E+03  0.14359983693E+04  0.16357168767E+04  0.46999998093E+01 0.  1.
       -5    1    3    3    0  502 -0.38438131559E+03  0.68242750399E+03 -0.30293321538E+03  0.83978980523E+03  0.46999998093E+01 0. -1.
</event>
<event>
 5   0  0.2581058E-06  0.2199346E+04  0.7818609E-02  0.8518700E-01
        2   -1    0    0  501    0  0.00000000000E+00  0.00000000000E+00  0.52253566238E+03  0.52253566238E+03  0.25500000920E-02 0.  1.
       -2   -1    0    0    0  501  0.00000000000E+00  0.00000000000E+00 -0.23142552678E+04  0.23142552678E+04  0.25500000920E-02 0. -1.
    10030    2    1    2    0    0  0.00000000000E+00  0.00000000000E+00 -0.17917196055E+04  0.28367909302E+04  0.21993461840E+04 0.  0.
        1    1    3    3  502    0  0.23247426024E+03  0.58047504771E+03 -0.20626321366E+04  0.21553298805E+04  0.50400001928E-02 0. -1.
       -1    1    3    3    0  502 -0.23247426024E+03 -0.58047504771E+03  0.27091253118E+03  0.68146104971E+03  0.50400001928E-02 0.  1.
</event>
<event>
 5   0  0.2606154E-06  0.2200166E+04  0.7818609E-02  0.8518359E-01
       -2   -1    0    0    0  501  0.00000000000E+00  0.00000000000E+00  0.15371448561E+04  0.15371448561E+04  0.25500000920E-02 0. -1.
        2   -1    0    0  501    0  0.00000000000E+00  0.00000000000E+00 -0.78729223052E+03  0.78729223052E+03  0.25500000920E-02 0.  1.
    10030    2    1    2    0    0  0.00000000000E+00  0.00000000000E+00  0.74985262554E+03  0.23244370866E+04  0.22001656323E+04 0.  0.
        2    1    3    3  502    0 -0.96033499847E+03  0.30641139396E+02  0.94090930158E+03  0.13448020310E+04  0.25500000920E-02 0. -1.
       -2    1    3    3    0  502  0.96033499847E+03 -0.30641139396E+02 -0.19105667604E+03  0.97963505561E+03  0.25500000920E-02 0.  1.
</event>
<event>
 5   0  0.2606154E-06  0.2201956E+04  0.7818609E-02  0.8517615E-01
       -2   -1    0    0    0  501  0.00000000000E+00  0.00000000000E+00  0.79793222207E+03  0.79793222207E+03  0.25500000920E-02 0. -1.
        2   -1    0    0  501    0  0.00000000000E+00  0.00000000000E+00 -0.15191169382E+04  0.15191169382E+04  0.25500000920E-02 0.  1.
    10030    2    1    2    0    0  0.00000000000E+00  0.00000000000E+00 -0.72118471609E+03  0.23170491602E+04  0.22019558161E+04 0.  0.
        2    1    3    3  502    0 -0.87636280121E+03 -0.64666235493E+03 -0.53016242392E+03  0.12113034947E+04  0.25500000920E-02 0.  1.
       -2    1    3    3    0  502  0.87636280121E+03  0.64666235493E+03 -0.19102229217E+03  0.11057456655E+04  0.25500000920E-02 0. -1.
</event>
<event>
 5   0  0.1146827E-06  0.2200504E+04  0.7818609E-02  0.8518218E-01
       -1   -1    0    0    0  501  0.00000000000E+00  0.00000000000E+00  0.15693423394E+04  0.15693423394E+04  0.50400001928E-02 0.  1.
        1   -1    0    0  501    0  0.00000000000E+00  0.00000000000E+00 -0.77137700312E+03  0.77137700314E+03  0.50400001928E-02 0. -1.
    10030    2    1    2    0    0  0.00000000000E+00  0.00000000000E+00  0.79796533627E+03  0.23407193425E+04  0.22005041156E+04 0.  0.
        4    1    3    3  502    0 -0.49157364940E+03 -0.47708881643E+03  0.13148289213E+04  0.14825771807E+04  0.12699999809E+01 0.  1.
       -4    1    3    3    0  502  0.49157364940E+03  0.47708881643E+03 -0.51686358501E+03  0.85814216186E+03  0.12699999809E+01 0. -1.
</event>
<event>
 5   0  0.1107101E-06  0.2199557E+04  0.7818609E-02  0.8518613E-01
       -1   -1    0    0    0  501  0.00000000000E+00  0.00000000000E+00  0.97665175080E+03  0.97665175081E+03  0.50400001928E-02 0.  1.
        1   -1    0    0  501    0  0.00000000000E+00  0.00000000000E+00 -0.12384278353E+04  0.12384278353E+04  0.50400001928E-02 0. -1.
    10030    2    1    2    0    0  0.00000000000E+00  0.00000000000E+00 -0.26177608447E+03  0.22150795861E+04  0.21995569677E+04 0.  0.
        1    1    3    3  502    0  0.35083163947E+03  0.81892250173E+03 -0.78026096358E+03  0.11842820924E+04  0.50400001928E-02 0. -1.
       -1    1    3    3    0  502 -0.35083163947E+03 -0.81892250173E+03  0.51848487911E+03  0.10307974937E+04  0.50400001928E-02 0.  1.
</event>
<event>
 5   0  0.2556869E-06  0.2198966E+04  0.7818609E-02  0.8518859E-01
        2   -1    0    0  501    0  0.00000000000E+00  0.00000000000E+00  0.69570530387E+03  0.69570530388E+03  0.25500000920E-02 0. -1.
       -2   -1    0    0    0  501  0.00000000000E+00  0.00000000000E+00 -0.17376073928E+04  0.17376073928E+04  0.25500000920E-02 0.  1.
    10030    2    1    2    0    0  0.00000000000E+00  0.00000000000E+00 -0.10419020889E+04  0.24333126966E+04  0.21989658289E+04 0.  0.
        5    1    3    3  502    0  0.61795478778E+03 -0.84329114322E+03 -0.14433858058E+03  0.10553974549E+04  0.46999998093E+01 0. -1.
       -5    1    3    3    0  502 -0.61795478778E+03  0.84329114322E+03 -0.89756350830E+03  0.13779152417E+04  0.46999998093E+01 0.  1.
</event>
<event>
 5   0  0.1137869E-06  0.2198853E+04  0.7818609E-02  0.8518906E-01
       -1   -1    0    0    0  501  0.00000000000E+00  0.00000000000E+00  0.12443462169E+04  0.12443462169E+04  0.50400001928E-02 0. -1.
        1   -1    0    0  501    0  0.00000000000E+00  0.00000000000E+00 -0.97138460031E+03  0.97138460032E+03  0.50400001928E-02 0.  1.
    10030    2    1    2    0    0  0.00000000000E+00  0.00000000000E+00  0.27296161655E+03  0.22157308172E+04  0.21988531124E+04 0.  0.
        5    1    3    3  502    0 -0.77302810494E+03  0.48053589243E+03  0.75784134193E+03  0.11844124216E+04  0.46999998093E+01 0. -1.
       -5    1    3    3    0  502  0.77302810494E+03 -0.48053589243E+03 -0.48487972539E+03  0.10313183956E+04  0.46999998093E+01 0.  1.
</event>
<event>
 5   0  0.2606154E-06  0.2199801E+04  0.7818609E-02  0.8518511E-01
       -2   -1    0    0    0  501  0.00000000000E+00  0.00000000000E+00  0.11335367095E+04  0.11335367096E+04  0.25500000920E-02 0.  1.
        2   -1    0    0  501    0  0.00000000000E+00  0.00000000000E+00 -0.10672627945E+04  0.10672627945E+04  0.25500000920E-02 0. -1.
    10030    2    1    2    0    0  0.00000000000E+00  0.00000000000E+00  0.66273915008E+02  0.22007995041E+04  0.21998014059E+04 0.  0.
        2    1    3    3  502    0  0.10063237410E+04 -0.42376773312E+03  0.16554122681E+03  0.11043869164E+04  0.25500000920E-02 0. -1.
       -2    1    3    3    0  502 -0.10063237410E+04  0.42376773312E+03 -0.99267311804E+02  0.10964125877E+04  0.25500000920E-02 0.  1.
</event>
<event>
 5   0  0.2524749E-06  0.2199523E+04  0.7818609E-02  0.8518627E-01
       -2   -1    0    0    0  501  0.00000000000E+00  0.00000000000E+00  0.92674664285E+03  0.92674664286E+03  0.25500000920E-02 0.  1.
        2   -1    0    0  501    0  0.00000000000E+00  0.00000000000E+00 -0.13050760262E+04  0.13050760262E+04  0.25500000920E-02 0. -1.
    10030    2    1    2    0    0  0.00000000000E+00  0.00000000000E+00 -0.37832938330E+03  0.22318226690E+04  0.21995225172E+04 0.  0.
        4    1    3    3  502    0  0.78682689509E+03 -0.25668286235E+01 -0.96880347485E+03  0.12480724888E+04  0.12699999809E+01 0. -1.
       -4    1    3    3    0  502 -0.78682689509E+03  0.25668286235E+01  0.59047409155E+03  0.98375018024E+03  0.12699999809E+01 0.  1.
</event>
<event>
 5   0  0.1146827E-06  0.2198784E+04  0.7818609E-02  0.8518934E-01
        1   -1    0    0  501    0  0.00000000000E+00  0.00000000000E+00  0.17418350233E+04  0.17418350233E+04  0.50400001928E-02 0.  1.
       -1   -1    0    0    0  501  0.00000000000E+00  0.00000000000E+00 -0.69390190270E+03  0.69390190272E+03  0.50400001928E-02 0. -1.
    10030    2    1    2    0    0  0.00000000000E+00  0.00000000000E+00  0.10479331206E+04  0.24357369260E+04  0.21987838792E+04 0.  0.
        4    1    3    3  502    0  0.84298865952E+02  0.56257909818E+03 -0.51819263763E+03  0.76949773431E+03  0.12699999809E+01 0. -1.
       -4    1    3    3    0  502 -0.84298865952E+02 -0.56257909818E+03  0.15661257582E+04  0.16662391917E+04  0.12699999809E+01 0.  1.
</event>
<event>
 5   0  0.2556869E-06  0.2199882E+04  0.7818609E-02  0.8518477E-01
       -2   -1    0    0    0  501  0.00000000000E+00  0.00000000000E+00  0.82372966542E+03  0.82372966542E+03  0.25500000920E-02 0. -1.
        2   -1    0    0  501    0  0.00000000000E+00  0.00000000000E+00 -0.14687705578E+04  0.14687705578E+04  0.25500000920E-02 0.  1.
    10030    2    1    2    0    0  0.00000000000E+00  0.00000000000E+00 -0.64504089238E+03  0.22925002232E+04  0.21998817061E+04 0.  0.
        5    1    3    3  502    0  0.96692381448E+03  0.45710546975E+03 -0.54879386151E+02  0.10709439343E+04  0.46999998093E+01 0. -1.
       -5    1    3    3    0  502 -0.96692381448E+03 -0.45710546975E+03 -0.59016150623E+03  0.12215562889E+04  0.46999998093E+01 0.  1.
</event>
<event>
 5   0  0.2532239E-06  0.2200264E+04  0.7818609E-02  0.8518318E-01
       -2   -1    0    0    0  501  0.00000000000E+00  0.00000000000E+00  0.12479167625E+04  0.12479167625E+04  0.25500000920E-02 0.  1.
        2   -1    0    0  501    0  0.00000000000E+00  0.00000000000E+00 -0.96984855777E+03  0.96984855777E+03  0.25500000920E-02 0. -1.
    10030    2    1    2    0    0  0.00000000000E+00  0.00000000000E+00  0.27806820473E+03  0.22177653203E+04  0.22002638681E+04 0.  0.
        3    1    3    3  502    0  0.58315723090E+03  0.21294302905E+03 -0.77641543732E+03  0.99410162010E+03  0.10100000352E+00 0. -1.
       -3    1    3    3    0  502 -0.58315723090E+03 -0.21294302905E+03  0.10544836420E+04  0.12236637002E+04  0.10100000352E+00 0.  1.
</event>
<event>
 5   0  0.2524749E-06  0.2199837E+04  0.7818609E-02  0.8518496E-01
        2   -1    0    0  501    0  0.00000000000E+00  0.00000000000E+00  0.13971550870E+04  0.13971550870E+04  0.25500000920E-02 0. -1.
       -2   -1    0    0    0  501  0.00000000000E+00  0.00000000000E+00 -0.86591746329E+03  0.86591746330E+03  0.25500000920E-02 0.  1.
    10030    2    1    2    0    0  0.00000000000E+00  0.00000000000E+00  0.53123762372E+03  0.22630725503E+04  0.21998372565E+04 0.  0.
        4    1    3    3  502    0 -0.14862931227E+03  0.94718640794E+02  0.13825337040E+04  0.13937228379E+04  0.12699999809E+01 0. -1.
       -4    1    3    3    0  502  0.14862931227E+03 -0.94718640794E+02 -0.85129608023E+03  0.86934971243E+03  0.12699999809E+01 0.  1.
</event>
<event>
 5   0  0.1082209E-06  0.2200945E+04  0.7818609E-02  0.8518035E-01
        1   -1    0    0  501    0  0.00000000000E+00  0.00000000000E+00  0.96839454903E+03  0.96839454904E+03  0.50400001928E-02 0.  1.
       -1   -1    0    0    0  501  0.00000000000E+00  0.00000000000E+00 -0.12505645400E+04  0.12505645400E+04  0.50400001928E-02 0. -1.
    10030    2    1    2    0    0  0.00000000000E+00  0.00000000000E+00 -0.28216999100E+03  0.22189590891E+04  0.22009451459E+04 0.  0.
        2    1    3    3  502    0  0.17197709560E+03 -0.95928902410E+03  0.37420322429E+03  0.10439538334E+04  0.25500000920E-02 0.  1.
       -2    1    3    3    0  502 -0.17197709560E+03  0.95928902410E+03 -0.65637321529E+03  0.11750052557E+04  0.25500000920E-02 0. -1.
</event>
<event>
 5   0  0.2556869E-06  0.2200238E+04  0.7818609E-02  0.8518329E-01
        2   -1    0    0  501    0  0.00000000000E+00  0.00000000000E+00  0.11579484619E+04  0.11579484619E+04  0.25500000920E-02 0. -1.
       -2   -1    0    0    0  501  0.00000000000E+00  0.00000000000E+00 -0.10451776438E+04  0.10451776438E+04  0.25500000920E-02 0.  1.
    10030    2    1    2    0    0  0.00000000000E+00  0.00000000000E+00  0.11277081805E+03  0.22031261057E+04  0.22002380281E+04 0.  0.
        5    1    3    3  502    0  0.47761653344E+03 -0.79213651611E+03  0.65268531134E+03  0.11320856941E+04  0.46999998093E+01 0. -1.
       -5    1    3    3    0  502 -0.47761653344E+03  0.79213651611E+03 -0.53991449329E+03  0.10710404116E+04  0.46999998093E+01 0.  1.
</event>
<event>
 5   0  0.1137869E-06  0.2200056E+04  0.7818609E-02  0.8518405E-01
       -1   -1    0    0    0  501  0.00000000000E+00  0.00000000000E+00  0.58704681635E+03  0.58704681637E+03  0.50400001928E-02 0. -1.
        1   -1    0    0  501    0  0.00000000000E+00  0.00000000000E+00 -0.20612687612E+04  0.20612687612E+04  0.50400001928E-02 0.  1.
    10030    2    1    2    0    0  0.00000000000E+00  0.00000000000E+00 -0.14742219448E+04  0.26483155776E+04  0.22000556938E+04 0.  0.
        5    1    3    3  502    0  0.97830768233E+03  0.32191149338E+03 -0.12022728656E+04  0.15830966693E+04  0.46999998093E+01 0.  1.
       -5    1    3    3    0  502 -0.97830768233E+03 -0.32191149338E+03 -0.27194907922E+03  0.10652189083E+04  0.46999998093E+01 0. -1.
</event>
<event>
 5   0  0.2524749E-06  0.2201026E+04  0.7818609E-02  0.8518001E-01
       -2   -1    0    0    0  501  0.00000000000E+00  0.00000000000E+00  0.15420734802E+04  0.15420734802E+04  0.25500000920E-02 0. -1.
        2   -1    0    0  501    0  0.00000000000E+00  0.00000000000E+00 -0.78538972999E+03  0.78538972999E+03  0.25500000920E-02 0.  1.
    10030    2    1    2    0    0  0.00000000000E+00  0.00000000000E+00  0.75668375017E+03  0.23274632101E+04  0.22010258283E+04 0.  0.
        4    1    3    3  502    0  0.84342565516E+03 -0.39885710971E+03  0.99554297462E+03  0.13643904342E+04  0.12699999809E+01 0. -1.
       -4    1    3    3    0  502 -0.84342565516E+03  0.39885710971E+03 -0.23885922445E+03  0.96307277594E+03  0.12699999809E+01 0.  1.
</event>
<event>
 5   0  0.1107101E-06  0.2193934E+04  0.7818609E-02  0.8520957E-01
        1   -1    0    0  501    0  0.00000000000E+00  0.00000000000E+00  0.14402276542E+04  0.14402276543E+04  0.50400001928E-02 0. -1.
       -1   -1    0    0    0  501  0.00000000000E+00  0.00000000000E+00 -0.83551795054E+03  0.83551795055E+03  0.50400001928E-02 0.  1.
    10030    2    1    2    0    0  0.00000000000E+00  0.00000000000E+00  0.60470970371E+03  0.22757456048E+04  0.21939335067E+04 0.  0.
        1    1    3    3  502    0  0.67210196790E+03  0.85184336223E+03  0.46954172664E+03  0.11822975946E+04  0.50400001928E-02 0. -1.
       -1    1    3    3    0  502 -0.67210196790E+03 -0.85184336223E+03  0.13516797707E+03  0.10934480102E+04  0.50400001928E-02 0.  1.
</event>
<event>
 5   0  0.2556869E-06  0.2199909E+04  0.7818609E-02  0.8518466E-01
       -2   -1    0    0    0  501  0.00000000000E+00  0.00000000000E+00  0.70413071068E+03  0.70413071068E+03  0.25500000920E-02 0. -1.
        2   -1    0    0  501    0  0.00000000000E+00  0.00000000000E+00 -0.17182887085E+04  0.17182887085E+04  0.25500000920E-02 0.  1.
    10030    2    1    2    0    0  0.00000000000E+00  0.00000000000E+00 -0.10141579978E+04  0.24224194192E+04  0.21999089522E+04 0.  0.
        5    1    3    3  502    0  0.89335764954E+03  0.35184492136E+03 -0.10980104730E+04  0.14586061249E+04  0.46999998093E+01 0.  1.
       -5    1    3    3    0  502 -0.89335764954E+03 -0.35184492136E+03  0.83852475207E+02  0.96381329430E+03  0.46999998093E+01 0. -1.
</event>
<event>
 5   0  0.1137869E-06  0.2200117E+04  0.7818609E-02  0.8518379E-01
       -1   -1    0    0    0  501  0.00000000000E+00  0.00000000000E+00  0.95574029054E+03  0.95574029055E+03  0.50400001928E-02 0.  1.
        1   -1    0    0  501    0  0.00000000000E+00  0.00000000000E+00 -0.12661689270E+04  0.12661689270E+04  0.50400001928E-02 0. -1.
    10030    2    1    2    0    0  0.00000000000E+00  0.00000000000E+00 -0.31042863642E+03  0.22219092175E+04  0.22001169588E+04 0.  0.
        5    1    3    3  502    0  0.43828824566E+03  0.11067694524E+03 -0.11680240139E+04  0.12524568494E+04  0.46999998093E+01 0. -1.
       -5    1    3    3    0  502 -0.43828824566E+03 -0.11067694524E+03  0.85759537752E+03  0.96945236811E+03  0.46999998093E+01 0.  1.
</event>
<event>
 5   0  0.1137869E-06  0.2204595E+04  0.7818609E-02  0.8516518E-01
       -1   -1    0    0    0  501  0.00000000000E+00  0.00000000000E+00  0.90366913024E+03  0.90366913025E+03  0.50400001928E-02 0.  1.
        1   -1    0    0  501    0  0.00000000000E+00  0.00000000000E+00 -0.13445853533E+04  0.13445853534E+04  0.50400001928E-02 0. -1.
    10030    2    1    2    0    0  0.00000000000E+00  0.00000000000E+00 -0.44091622311E+03  0.22482544836E+04  0.22045954521E+04 0.  0.
        5    1    3    3  502    0 -0.24370702543E+03 -0.96828241401E+03  0.25577407490E+03  0.10307310100E+04  0.46999998093E+01 0.  1.
       -5    1    3    3    0  502  0.24370702543E+03  0.96828241401E+03 -0.69669029801E+03  0.12175234736E+04  0.46999998093E+01 0. -1.
</event>
<event>
 5   0  0.2556869E-06  0.2200261E+04  0.7818609E-02  0.8518319E-01
        2   -1    0    0  501    0  0.00000000000E+00  0.00000000000E+00  0.10779662048E+04  0.10779662048E+04  0.25500000920E-02 0.  1.
       -2   -1    0    0    0  501  0.00000000000E+00  0.00000000000E+00 -0.11227506023E+04  0.11227506023E+04  0.25500000920E-02 0. -1.
    10030    2    1    2    0    0  0.00000000000E+00  0.00000000000E+00 -0.44784397526E+02  0.22007168071E+04  0.22002610806E+04 0.  0.
        5    1    3    3  502    0 -0.91434426498E+03  0.50907573073E+03 -0.36169922549E+03  0.11072632723E+04  0.46999998093E+01 0. -1.
       -5    1    3    3    0  502  0.91434426498E+03 -0.50907573073E+03  0.31691482797E+03  0.10934535348E+04  0.46999998093E+01 0.  1.
</event>
<event>
 5   0  0.1146827E-06  0.2199994E+04  0.7818609E-02  0.8518430E-01
        1   -1    0    0  501    0  0.00000000000E+00  0.00000000000E+00  0.13394312542E+04  0.13394312542E+04  0.50400001928E-02 0.  1.
       -1   -1    0    0    0  501  0.00000000000E+00  0.00000000000E+00 -0.90336386114E+03  0.90336386116E+03  0.50400001928E-02 0. -1.
    10030    2    1    2    0    0  0.00000000000E+00  0.00000000000E+00  0.43606739303E+03  0.22427951153E+04  0.21999943541E+04 0.  0.
        4    1    3    3  502    0 -0.28886064331E+02  0.53108763066E+02 -0.90166816728E+03  0.90369355548E+03  0.12699999809E+01 0. -1.
       -4    1    3    3    0  502  0.28886064331E+02 -0.53108763066E+02  0.13377355603E+04  0.13391015599E+04  0.12699999809E+01 0.  1.
</event>
<event>
 5   0  0.1146827E-06  0.2200377E+04  0.7818609E-02  0.8518271E-01
        1   -1    0    0  501    0  0.00000000000E+00  0.00000000000E+00  0.27344132268E+04  0.27344132268E+04  0.50400001928E-02 0. -1.
       -1   -1    0    0    0  501  0.00000000000E+00  0.00000000000E+00 -0.44265977842E+03  0.44265977845E+03  0.50400001928E-02 0.  1.
    10030    2    1    2    0    0  0.00000000000E+00  0.00000000000E+00  0.22917534483E+04  0.31770730052E+04  0.22003770160E+04 0.  0.
        4    1    3    3  502    0  0.67290164574E+03 -0.78224478866E+03  0.59472117226E+03  0.11909653311E+04  0.12699999809E+01 0. -1.
       -4    1    3    3    0  502 -0.67290164574E+03  0.78224478866E+03  0.16970322761E+04  0.19861076741E+04  0.12699999809E+01 0.  1.
</event>
<event>
 5   0  0.1137869E-06  0.2200901E+04  0.7818609E-02  0.8518053E-01
        1   -1    0    0  501    0  0.00000000000E+00  0.00000000000E+00  0.10634608015E+04  0.10634608016E+04  0.50400001928E-02 0. -1.
       -1   -1    0    0    0  501  0.00000000000E+00  0.00000000000E+00 -0.11387270594E+04  0.11387270594E+04  0.50400001928E-02 0.  1.
    10030    2    1    2    0    0  0.00000000000E+00  0.00000000000E+00 -0.75266257814E+02  0.22021878609E+04  0.22009012620E+04 0.  0.
        5    1    3    3  502    0  0.77717629065E+03 -0.32179099102E+03  0.67230054262E+03  0.10768298558E+04  0.46999998093E+01 0. -1.
       -5    1    3    3    0  502 -0.77717629065E+03  0.32179099102E+03 -0.74756680044E+03  0.11253580052E+04  0.46999998093E+01 0.  1.
</event>
<event>
 5   0  0.1146827E-06  0.2201128E+04  0.7818609E-02  0.8517959E-01
        1   -1    0    0  501    0  0.00000000000E+00  0.00000000000E+00  0.80582461227E+03  0.80582461229E+03  0.50400001928E-02 0.  1.
       -1   -1    0    0    0  501  0.00000000000E+00  0.00000000000E+00 -0.15031080075E+04  0.15031080075E+04  0.50400001928E-02 0. -1.
    10030    2    1    2    0    0  0.00000000000E+00  0.00000000000E+00 -0.69728339526E+03  0.23089326198E+04  0.22011282810E+04 0.  0.
        4    1    3    3  502    0 -0.41776812481E+03 -0.53677546040E+03  0.55893954688E+03  0.88038237770E+03  0.12699999809E+01 0.  1.
       -4    1    3    3    0  502  0.41776812481E+03  0.53677546040E+03 -0.12562229421E+04  0.14285502421E+04  0.12699999809E+01 0. -1.
</event>
<event>
 5   0  0.1146827E-06  0.2200276E+04  0.7818609E-02  0.8518313E-01
       -1   -1    0    0    0  501  0.00000000000E+00  0.00000000000E+00  0.11438679671E+04  0.11438679671E+04  0.50400001928E-02 0. -1.
        1   -1    0    0  501    0  0.00000000000E+00  0.00000000000E+00 -0.10580797620E+04  0.10580797620E+04  0.50400001928E-02 0.  1.
    10030    2    1    2    0    0  0.00000000000E+00  0.00000000000E+00  0.85788205036E+02  0.22019477291E+04  0.22002759340E+04 0.  0.
        4    1    3    3  502    0  0.14700939246E+02  0.23898338364E+03 -0.10316874477E+04  0.10591080105E+04  0.12699999809E+01 0.  1.
       -4    1    3    3    0  502 -0.14700939246E+02 -0.23898338364E+03  0.11174756527E+04  0.11428397186E+04  0.12699999809E+01 0. -1.
</event>
<event>
 5   0  0.1146827E-06  0.2200613E+04  0.7818609E-02  0.8518173E-01
       -1   -1    0    0    0  501  0.00000000000E+00  0.00000000000E+00  0.11003020086E+04  0.11003020086E+04  0.50400001928E-02 0.  1.
        1   -1    0    0  501    0  0.00000000000E+00  0.00000000000E+00 -0.11003114480E+04  0.11003114480E+04  0.50400001928E-02 0. -1.
    10030    2    1    2    0    0  0.00000000000E+00  0.00000000000E+00 -0.94394275097E-02  0.22006134566E+04  0.22006134566E+04 0.  0.
        4    1    3    3  502    0  0.33525330108E+03 -0.66443949960E+03 -0.81043587591E+03  0.11003102046E+04  0.12699999809E+01 0. -1.
       -4    1    3    3    0  502 -0.33525330108E+03  0.66443949960E+03  0.81042643648E+03  0.11003032520E+04  0.12699999809E+01 0.  1.
</event>
<event>
 5   0  0.1107101E-06  0.2199835E+04  0.7818609E-02  0.8518497E-01
        1   -1    0    0  501    0  0.00000000000E+00  0.00000000000E+00  0.21063438803E+04  0.21063438803E+04  0.50400001928E-02 0.  1.
       -1   -1    0    0    0  501  0.00000000000E+00  0.00000000000E+00 -0.57436912228E+03  0.57436912230E+03  0.50400001928E-02 0. -1.
    10030    2    1    2    0    0  0.00000000000E+00  0.00000000000E+00  0.15319747580E+04  0.26807130026E+04  0.21998353445E+04 0.  0.
        1    1    3    3  502    0  0.32638039374E+02 -0.54226832953E+03 -0.39947746309E+03  0.67431626584E+03  0.50400001928E-02 0. -1.
       -1    1    3    3    0  502 -0.32638039374E+02  0.54226832953E+03  0.19314522211E+04  0.20063967368E+04  0.50400001928E-02 0.  1.
</event>
<event>
 5   0  0.2606154E-06  0.2199219E+04  0.7818609E-02  0.8518753E-01
        2   -1    0    0  501    0  0.00000000000E+00  0.00000000000E+00  0.27513223787E+04  0.27513223787E+04  0.25500000920E-02 0. -1.
       -2   -1    0    0    0  501  0.00000000000E+00  0.00000000000E+00 -0.43947636351E+03  0.43947636352E+03  0.25500000920E-02 0.  1.
    10030    2    1    2    0    0  0.00000000000E+00  0.00000000000E+00  0.23118460152E+04  0.31907987422E+04  0.21992190922E+04 0.  0.
        2    1    3    3  502    0  0.60875233255E+03 -0.44120127235E+03 -0.83134716070E+01  0.75186905703E+03  0.25500000920E-02 0.  1.
       -2    1    3    3    0  502 -0.60875233255E+03  0.44120127235E+03  0.23201594868E+04  0.24389296852E+04  0.25500000920E-02 0. -1.
</event>
<event>
 5   0  0.1107101E-06  0.2199915E+04  0.7818609E-02  0.8518463E-01
       -1   -1    0    0    0  501  0.00000000000E+00  0.00000000000E+00  0.71278012829E+03  0.71278012831E+03  0.50400001928E-02 0. -1.
        1   -1    0    0  501    0  0.00000000000E+00  0.00000000000E+00 -0.16974469834E+04  0.16974469834E+04  0.50400001928E-02 0.  1.
    10030    2    1    2    0    0  0.00000000000E+00  0.00000000000E+00 -0.98466685508E+03  0.24102271117E+04  0.21999149789E+04 0.  0.
        1    1    3    3  502    0  0.10762729135E+04  0.91592596171E+02 -0.26473877780E+03  0.11121327297E+04  0.50400001928E-02 0. -1.
       -1    1    3    3    0  502 -0.10762729135E+04 -0.91592596171E+02 -0.71992807728E+03  0.12980943820E+04  0.50400001928E-02 0.  1.
</event>
<event>
 5   0  0.1107101E-06  0.2199791E+04  0.7818609E-02  0.8518515E-01
       -1   -1    0    0    0  501  0.00000000000E+00  0.00000000000E+00  0.53422458191E+03  0.53422458193E+03  0.50400001928E-02 0. -1.
        1   -1    0    0  501    0  0.00000000000E+00  0.00000000000E+00 -0.22645346567E+04  0.22645346567E+04  0.50400001928E-02 0.  1.
    10030    2    1    2    0    0  0.00000000000E+00  0.00000000000E+00 -0.17303100748E+04  0.27987592387E+04  0.21997909721E+04 0.  0.
        1    1    3    3  502    0  0.80601356634E+03  0.69338165092E+03 -0.12235105313E+04  0.16209299809E+04  0.50400001928E-02 0.  1.
       -1    1    3    3    0  502 -0.80601356634E+03 -0.69338165092E+03 -0.50679954354E+03  0.11778292577E+04  0.50400001928E-02 0. -1.
</event>
<event>
 5   0  0.2556869E-06  0.2200369E+04  0.7818609E-02  0.8518274E-01
       -2   -1    0    0    0  501  0.00000000000E+00  0.00000000000E+00  0.13178877181E+04  0.13178877181E+04  0.25500000920E-02 0. -1.
        2   -1    0    0  501    0  0.00000000000E+00  0.00000000000E+00 -0.91844406095E+03  0.91844406095E+03  0.25500000920E-02 0.  1.
    10030    2    1    2    0    0  0.00000000000E+00  0.00000000000E+00  0.39944365716E+03  0.22363317791E+04  0.22003691942E+04 0.  0.
        5    1    3    3  502    0 -0.98923467312E+03 -0.48046795429E+03  0.23103716508E+03  0.11237592960E+04  0.46999998093E+01 0.  1.
       -5    1    3    3    0  502  0.98923467312E+03  0.48046795429E+03  0.16840649208E+03  0.11125724831E+04  0.46999998093E+01 0. -1.
</event>
<event>
 5   0  0.8905000E-07  0.2200546E+04  0.7818609E-02  0.8518201E-01
       -4   -1    0    0    0  501  0.00000000000E+00  0.00000000000E+00  0.93661784053E+03  0.93661870156E+03  0.12699999809E+01 0.  1.
        4   -1    0    0  501    0  0.00000000000E+00  0.00000000000E+00 -0.12925214553E+04  0.12925220792E+04  0.12699999809E+01 0. -1.
    10030    2    1    2    0    0  0.00000000000E+00  0.00000000000E+00 -0.35590361472E+03  0.22291407807E+04  0.22005456681E+04 0.  0.
        5    1    3    3  502    0  0.80546860346E+03  0.14489862867E+03 -0.92290096146E+03  0.12335086374E+04  0.46999998093E+01 0. -1.
       -5    1    3    3    0  502 -0.80546860346E+03 -0.14489862867E+03  0.56699734674E+03  0.99563214340E+03  0.46999998093E+01 0.  1.
</event>
<event>
 5   0  0.1144271E-06  0.2199638E+04  0.7818609E-02  0.8518579E-01
        1   -1    0    0  501    0  0.00000000000E+00  0.00000000000E+00  0.11391545084E+04  0.11391545084E+04  0.50400001928E-02 0.  1.
       -1   -1    0    0    0  501  0.00000000000E+00  0.00000000000E+00 -0.10618415494E+04  0.10618415494E+04  0.50400001928E-02 0. -1.
    10030    2    1    2    0    0  0.00000000000E+00  0.00000000000E+00  0.77312958956E+02  0.22009960578E+04  0.21996377777E+04 0.  0.
        3    1    3    3  502    0  0.56044824541E+03 -0.27336013784E+02  0.98515394262E+03  0.11337450306E+04  0.10100000352E+00 0.  1.
       -3    1    3    3    0  502 -0.56044824541E+03  0.27336013784E+02 -0.90784098366E+03  0.10672510273E+04  0.10100000352E+00 0. -1.
</event>
<event>
 5   0  0.1146827E-06  0.2203028E+04  0.7818609E-02  0.8517169E-01
       -1   -1    0    0    0  501  0.00000000000E+00  0.00000000000E+00  0.12689893661E+04  0.12689893661E+04  0.50400001928E-02 0.  1.
        1   -1    0    0  501    0  0.00000000000E+00  0.00000000000E+00 -0.95614103850E+03  0.95614103851E+03  0.50400001928E-02 0. -1.
    10030    2    1    2    0    0  0.00000000000E+00  0.00000000000E+00  0.31284832763E+03  0.22251304046E+04  0.22030277442E+04 0.  0.
        4    1    3    3  502    0 -0.10952787731E+04 -0.11540895616E+03  0.13682901928E+03  0.11098101691E+04  0.12699999809E+01 0. -1.
       -4    1    3    3    0  502  0.10952787731E+04  0.11540895616E+03  0.17601930834E+03  0.11153202356E+04  0.12699999809E+01 0.  1.
</event>
<event>
 5   0  0.1146827E-06  0.2200616E+04  0.7818609E-02  0.8518172E-01
        1   -1    0    0  501    0  0.00000000000E+00  0.00000000000E+00  0.29225100470E+04  0.29225100470E+04  0.50400001928E-02 0.  1.
       -1   -1    0    0    0  501  0.00000000000E+00  0.00000000000E+00 -0.41425971902E+03  0.41425971905E+03  0.50400001928E-02 0. -1.
    10030    2    1    2    0    0  0.00000000000E+00  0.00000000000E+00  0.25082503280E+04  0.33367697661E+04  0.22006164509E+04 0.  0.
        4    1    3    3  502    0  0.65698997756E+03 -0.65280497497E+03  0.21548649677E+04  0.23454711271E+04  0.12699999809E+01 0.  1.
       -4    1    3    3    0  502 -0.65698997756E+03  0.65280497497E+03  0.35338536031E+03  0.99129863902E+03  0.12699999809E+01 0. -1.
</event>
<event>
 5   0  0.2524749E-06  0.2199923E+04  0.7818609E-02  0.8518460E-01
       -2   -1    0    0    0  501  0.00000000000E+00  0.00000000000E+00  0.70033112990E+03  0.70033112991E+03  0.25500000920E-02 0. -1.
        2   -1    0    0  501    0  0.00000000000E+00  0.00000000000E+00 -0.17276338752E+04  0.17276338752E+04  0.25500000920E-02 0.  1.
    10030    2    1    2    0    0  0.00000000000E+00  0.00000000000E+00 -0.10273027453E+04  0.24279650051E+04  0.21999234385E+04 0.  0.
        4    1    3    3  502    0 -0.45951633037E+03 -0.68016596143E+03  0.29445996145E+03  0.87206036188E+03  0.12699999809E+01 0. -1.
       -4    1    3    3    0  502  0.45951633037E+03  0.68016596143E+03 -0.13217627067E+04  0.15559046432E+04  0.12699999809E+01 0.  1.
</event>
<event>
 5   0  0.8905000E-07  0.2200283E+04  0.7818609E-02  0.8518310E-01
        3   -1    0    0  501    0  0.00000000000E+00  0.00000000000E+00  0.71048356396E+03  0.71048357114E+03  0.10100000352E+00 0. -1.
       -3   -1    0    0    0  501  0.00000000000E+00  0.00000000000E+00 -0.17035041593E+04  0.17035041623E+04  0.10100000352E+00 0.  1.
    10030    2    1    2    0    0  0.00000000000E+00  0.00000000000E+00 -0.99302059538E+03  0.24139877335E+04  0.22002833623E+04 0.  0.
        1    1    3    3  502    0  0.21702072130E+03  0.10729570092E+04 -0.61657908770E+03  0.12563854936E+04  0.50400001928E-02 0. -1.
       -1    1    3    3    0  502 -0.21702072130E+03 -0.10729570092E+04 -0.37644150768E+03  0.11576022399E+04  0.50400001928E-02 0.  1.
</event>
<event>
 5   0  0.1144271E-06  0.2200177E+04  0.7818609E-02  0.8518354E-01
        1   -1    0    0  501    0  0.00000000000E+00  0.00000000000E+00  0.11327730053E+04  0.11327730053E+04  0.50400001928E-02 0.  1.
       -1   -1    0    0    0  501  0.00000000000E+00  0.00000000000E+00 -0.10683471027E+04  0.10683471027E+04  0.50400001928E-02 0. -1.
    10030    2    1    2    0    0  0.00000000000E+00  0.00000000000E+00  0.64425902648E+02  0.22011201080E+04  0.22001770458E+04 0.  0.
        3    1    3    3  502    0 -0.25915122624E+02  0.24423248634E+03  0.11049941962E+04  0.11319599307E+04  0.10100000352E+00 0.  1.
       -3    1    3    3    0  502  0.25915122624E+02 -0.24423248634E+03 -0.10405682936E+04  0.10691601773E+04  0.10100000352E+00 0. -1.
</event>
<event>
 5   0  0.2606154E-06  0.2200307E+04  0.7818609E-02  0.8518300E-01
        2   -1    0    0  501    0  0.00000000000E+00  0.00000000000E+00  0.13363754223E+04  0.13363754223E+04  0.25500000920E-02 0.  1.
       -2   -1    0    0    0  501  0.00000000000E+00  0.00000000000E+00 -0.90568666635E+03  0.90568666636E+03  0.25500000920E-02 0. -1.
    10030    2    1    2    0    0  0.00000000000E+00  0.00000000000E+00  0.43068875596E+03  0.22420620887E+04  0.22003067070E+04 0.  0.
        2    1    3    3  502    0 -0.90565664836E+03  0.56726631258E+03 -0.51020920596E+02  0.10698636214E+04  0.25500000920E-02 0. -1.
       -2    1    3    3    0  502  0.90565664836E+03 -0.56726631258E+03  0.48170967655E+03  0.11721984672E+04  0.25500000920E-02 0.  1.
</event>
<event>
 5   0  0.2556869E-06  0.2198374E+04  0.7818609E-02  0.8519105E-01
       -2   -1    0    0    0  501  0.00000000000E+00  0.00000000000E+00  0.97263489595E+03  0.97263489595E+03  0.25500000920E-02 0.  1.
        2   -1    0    0  501    0  0.00000000000E+00  0.00000000000E+00 -0.12422053515E+04  0.12422053515E+04  0.25500000920E-02 0. -1.
    10030    2    1    2    0    0  0.00000000000E+00  0.00000000000E+00 -0.26957045554E+03  0.22148402474E+04  0.21983741927E+04 0.  0.
        5    1    3    3  502    0  0.74310180369E+02 -0.44452015967E+03 -0.11448260955E+04  0.12303532234E+04  0.46999998093E+01 0. -1.
       -5    1    3    3    0  502 -0.74310180369E+02  0.44452015967E+03  0.87525563998E+03  0.98448702408E+03  0.46999998093E+01 0.  1.
</event>
<event>
 5   0  0.2532239E-06  0.2205109E+04  0.7818609E-02  0.8516305E-01
        2   -1    0    0  501    0  0.00000000000E+00  0.00000000000E+00  0.16895675605E+04  0.16895675605E+04  0.25500000920E-02 0.  1.
       -2   -1    0    0    0  501  0.00000000000E+00  0.00000000000E+00 -0.71948986607E+03  0.71948986608E+03  0.25500000920E-02 0. -1.
    10030    2    1    2    0    0  0.00000000000E+00  0.00000000000E+00  0.97007769445E+03  0.24090574266E+04  0.22051092833E+04 0.  0.
        3    1    3    3  502    0  0.93542789697E+03  0.71308479462E+02 -0.14777206893E+03  0.94970882076E+03  0.10100000352E+00 0. -1.
       -3    1    3    3    0  502 -0.93542789697E+03 -0.71308479462E+02  0.11178497634E+04  0.14593486058E+04  0.10100000352E+00 0.  1.
</event>
<event>
 5   0  0.1082209E-06  0.2199648E+04  0.7818609E-02  0.8518575E-01
       -1   -1    0    0    0  501  0.00000000000E+00  0.00000000000E+00  0.84190735107E+03  0.84190735109E+03  0.50400001928E-02 0. -1.
        1   -1    0    0  501    0  0.00000000000E+00  0.00000000000E+00 -0.14367533186E+04  0.14367533186E+04  0.50400001928E-02 0.  1.
    10030    2    1    2    0    0  0.00000000000E+00  0.00000000000E+00 -0.59484596753E+03  0.22786606697E+04  0.21996483179E+04 0.  0.
        2    1    3    3  502    0 -0.44260664939E+03 -0.71279098250E+03  0.43920426911E+03  0.94703327335E+03  0.25500000920E-02 0. -1.
       -2    1    3    3    0  502  0.44260664939E+03  0.71279098250E+03 -0.10340502366E+04  0.13316273963E+04  0.25500000920E-02 0.  1.
</event>
<event>
 5   0  0.2532239E-06  0.2196712E+04  0.7818609E-02  0.8519798E-01
        2   -1    0    0  501    0  0.00000000000E+00  0.00000000000E+00  0.20687628187E+04  0.20687628187E+04  0.25500000920E-02 0.  1.
       -2   -1    0    0    0  501  0.00000000000E+00  0.00000000000E+00 -0.58314365227E+03  0.58314365227E+03  0.25500000920E-02 0. -1.
    10030    2    1    2    0    0  0.00000000000E+00  0.00000000000E+00  0.14856191664E+04  0.26519064710E+04  0.21967120028E+04 0.  0.
        3    1    3    3  502    0 -0.13570401875E+03  0.86933438595E+03 -0.50863311996E+02  0.88133134632E+03  0.10100000352E+00 0. -1.
       -3    1    3    3    0  502  0.13570401875E+03 -0.86933438595E+03  0.15364824784E+04  0.17705751246E+04  0.10100000352E+00 0.  1.
</event>
<event>
 5   0  0.1137869E-06  0.2204707E+04  0.7818609E-02  0.8516471E-01
       -1   -1    0    0    0  501  0.00000000000E+00  0.00000000000E+00  0.73663754216E+03  0.73663754218E+03  0.50400001928E-02 0. -1.
        1   -1    0    0  501    0  0.00000000000E+00  0.00000000000E+00 -0.16496355187E+04  0.16496355187E+04  0.50400001928E-02 0.  1.
    10030    2    1    2    0    0  0.00000000000E+00  0.00000000000E+00 -0.91299797656E+03  0.23862730609E+04  0.22047071951E+04 0.  0.
        5    1    3    3  502    0 -0.39305291113E+03  0.48007717092E+03 -0.14426869934E+04  0.15704561541E+04  0.46999998093E+01 0.  1.
       -5    1    3    3    0  502  0.39305291113E+03 -0.48007717092E+03  0.52968901681E+03  0.81581690685E+03  0.46999998093E+01 0. -1.
</event>
<event>
 5   0  0.1144271E-06  0.2192492E+04  0.7818609E-02  0.8521559E-01
       -1   -1    0    0    0  501  0.00000000000E+00  0.00000000000E+00  0.72113442664E+03  0.72113442665E+03  0.50400001928E-02 0. -1.
        1   -1    0    0  501    0  0.00000000000E+00  0.00000000000E+00 -0.16664795151E+04  0.16664795151E+04  0.50400001928E-02 0.  1.
    10030    2    1    2    0    0  0.00000000000E+00  0.00000000000E+00 -0.94534508843E+03  0.23876139417E+04  0.21924924170E+04 0.  0.
        3    1    3    3  502    0  0.60044853757E+03  0.39679575871E+03 -0.13731672430E+04  0.15503462865E+04  0.10100000352E+00 0.  1.
       -3    1    3    3    0  502 -0.60044853757E+03 -0.39679575871E+03  0.42782215460E+03  0.83726765527E+03  0.10100000352E+00 0. -1.
</event>
<event>
 5   0  0.1146827E-06  0.2193986E+04  0.7818609E-02  0.8520935E-01
        1   -1    0    0  501    0  0.00000000000E+00  0.00000000000E+00  0.14988431552E+04  0.14988431553E+04  0.50400001928E-02 0. -1.
       -1   -1    0    0    0  501  0.00000000000E+00  0.00000000000E+00 -0.80288174517E+03  0.80288174518E+03  0.50400001928E-02 0.  1.
    10030    2    1    2    0    0  0.00000000000E+00  0.00000000000E+00  0.69596141008E+03  0.23017249004E+04  0.21939861515E+04 0.  0.
        4    1    3    3  502    0 -0.65656406013E+03 -0.50616757110E+03 -0.40570584250E+03  0.92297389921E+03  0.12699999809E+01 0.  1.
       -4    1    3    3    0  502  0.65656406013E+03  0.50616757110E+03  0.11016672526E+04  0.13787510012E+04  0.12699999809E+01 0. -1.
</event>
<event>
 5   0  0.2524749E-06  0.2199708E+04  0.7818609E-02  0.8518550E-01
       -2   -1    0    0    0  501  0.00000000000E+00  0.00000000000E+00  0.76286007830E+03  0.76286007830E+03  0.25500000920E-02 0.  1.
        2   -1    0    0  501    0  0.00000000000E+00  0.00000000000E+00 -0.15857146565E+04  0.15857146565E+04  0.25500000920E-02 0. -1.
    10030    2    1    2    0    0  0.00000000000E+00  0.00000000000E+00 -0.82285457820E+03  0.23485747348E+04  0.21997076233E+04 0.  0.
        4    1    3    3  502    0 -0.56061504504E+03 -0.89295892037E+03 -0.77171529411E+02  0.10571763902E+04  0.12699999809E+01 0.  1.
       -4    1    3    3    0  502  0.56061504504E+03  0.89295892037E+03 -0.74568304879E+03  0.12913983446E+04  0.12699999809E+01 0. -1.
</event>
<event>
 5   0  0.1146827E-06  0.2199928E+04  0.7818609E-02  0.8518458E-01
        1   -1    0    0  501    0  0.00000000000E+00  0.00000000000E+00  0.18564214643E+04  0.18564214643E+04  0.50400001928E-02 0.  1.
       -1   -1    0    0    0  501  0.00000000000E+00  0.00000000000E+00 -0.65174916526E+03  0.65174916528E+03  0.50400001928E-02 0. -1.
    10030    2    1    2    0    0  0.00000000000E+00  0.00000000000E+00  0.12046722990E+04  0.25081706296E+04  0.21999283077E+04 0.  0.
        4    1    3    3  502    0  0.16497516182E+03  0.25770926297E+03  0.18069193612E+04  0.18326456447E+04  0.12699999809E+01 0.  1.
       -4    1    3    3    0  502 -0.16497516182E+03 -0.25770926297E+03 -0.60224706224E+03  0.67552498482E+03  0.12699999809E+01 0. -1.
</event>
<event>
 5   0  0.8905000E-07  0.2199796E+04  0.7818609E-02  0.8518513E-01
       -4   -1    0    0    0  501  0.00000000000E+00  0.00000000000E+00  0.65367275155E+03  0.65367398527E+03  0.12699999809E+01 0.  1.
        4   -1    0    0  501    0  0.00000000000E+00  0.00000000000E+00 -0.18507335158E+04  0.18507339515E+04  0.12699999809E+01 0. -1.
    10030    2    1    2    0    0  0.00000000000E+00  0.00000000000E+00 -0.11970607642E+04  0.25044079368E+04  0.21997964998E+04 0.  0.
        2    1    3    3  502    0 -0.22443043288E+02 -0.10990456099E+04 -0.55637279997E+03  0.12320534223E+04  0.25500000920E-02 0.  1.
       -2    1    3    3    0  502  0.22443043288E+02  0.10990456099E+04 -0.64068796426E+03  0.12723545145E+04  0.25500000920E-02 0. -1.
</event>
<event>
 5   0  0.1144271E-06  0.2199534E+04  0.7818609E-02  0.8518622E-01
        1   -1    0    0  501    0  0.00000000000E+00  0.00000000000E+00  0.91240640707E+03  0.91240640708E+03  0.50400001928E-02 0.  1.
       -1   -1    0    0    0  501  0.00000000000E+00  0.00000000000E+00 -0.13256020721E+04  0.13256020721E+04  0.50400001928E-02 0. -1.
    10030    2    1    2    0    0  0.00000000000E+00  0.00000000000E+00 -0.41319566506E+03  0.22380084792E+04  0.21995343360E+04 0.  0.
        3    1    3    3  502    0 -0.55502449335E+03  0.94828122007E+03 -0.25430456871E+03  0.11278121672E+04  0.10100000352E+00 0. -1.
       -3    1    3    3    0  502  0.55502449335E+03 -0.94828122007E+03 -0.15889109635E+03  0.11101963120E+04  0.10100000352E+00 0.  1.
</event>
<event>
 5   0  0.2606154E-06  0.2199844E+04  0.7818609E-02  0.8518493E-01
       -2   -1    0    0    0  501  0.00000000000E+00  0.00000000000E+00  0.80885506409E+03  0.80885506410E+03  0.25500000920E-02 0. -1.
        2   -1    0    0  501    0  0.00000000000E+00  0.00000000000E+00 -0.14957292067E+04  0.14957292067E+04  0.25500000920E-02 0.  1.
    10030    2    1    2    0    0  0.00000000000E+00  0.00000000000E+00 -0.68687414258E+03  0.23045842708E+04  0.21998437611E+04 0.  0.
        2    1    3    3  502    0  0.68067987474E+03  0.23995149308E+03 -0.12129722336E+04  0.14114543741E+04  0.25500000920E-02 0.  1.
       -2    1    3    3    0  502 -0.68067987474E+03 -0.23995149308E+03  0.52609809098E+03  0.89312989663E+03  0.25500000920E-02 0. -1.
</event>
<event>
 5   0  0.2524749E-06  0.2199755E+04  0.7818609E-02  0.8518530E-01
        2   -1    0    0  501    0  0.00000000000E+00  0.00000000000E+00  0.13312931140E+04  0.13312931140E+04  0.25500000920E-02 0.  1.
       -2   -1    0    0    0  501  0.00000000000E+00  0.00000000000E+00 -0.90868814515E+03  0.90868814516E+03  0.25500000920E-02 0. -1.
    10030    2    1    2    0    0  0.00000000000E+00  0.00000000000E+00  0.42260496881E+03  0.22399812591E+04  0.21997547776E+04 0.  0.
        4    1    3    3  502    0 -0.40861879861E+03  0.69225481206E+03  0.97572504279E+03  0.12642100377E+04  0.12699999809E+01 0.  1.
       -4    1    3    3    0  502  0.40861879861E+03 -0.69225481206E+03 -0.55312007399E+03  0.97577122142E+03  0.12699999809E+01 0. -1.
</event>
<event>
 5   0  0.2606154E-06  0.2198333E+04  0.7818609E-02  0.8519122E-01
        2   -1    0    0  501    0  0.00000000000E+00  0.00000000000E+00  0.18341401655E+04  0.18341401655E+04  0.25500000920E-02 0.  1.
       -2   -1    0    0    0  501  0.00000000000E+00  0.00000000000E+00 -0.65871006925E+03  0.65871006926E+03  0.25500000920E-02 0. -1.
    10030    2    1    2    0    0  0.00000000000E+00  0.00000000000E+00  0.11754300963E+04  0.24928502348E+04  0.21983326368E+04 0.  0.
        2    1    3    3  502    0  0.73719579369E+03  0.38614928635E+03 -0.22653587568E+03  0.86248907967E+03  0.25500000920E-02 0. -1.
       -2    1    3    3    0  502 -0.73719579369E+03 -0.38614928635E+03  0.14019659720E+04  0.16303611551E+04  0.25500000920E-02 0.  1.
</event>
<event>
 5   0  0.1146827E-06  0.2200648E+04  0.7818609E-02  0.8518158E-01
        1   -1    0    0  501    0  0.00000000000E+00  0.00000000000E+00  0.10573484880E+04  0.10573484880E+04  0.50400001928E-02 0.  1.
       -1   -1    0    0    0  501  0.00000000000E+00  0.00000000000E+00 -0.11450466688E+04  0.11450466688E+04  0.50400001928E-02 0. -1.
    10030    2    1    2    0    0  0.00000000000E+00  0.00000000000E+00 -0.87698180811E+02  0.22023951569E+04  0.22006484172E+04 0.  0.
        4    1    3    3  502    0 -0.20363867289E+03 -0.68503340442E+03  0.79345844445E+03  0.10678564465E+04  0.12699999809E+01 0.  1.
       -4    1    3    3    0  502  0.20363867289E+03  0.68503340442E+03 -0.88115662526E+03  0.11345387104E+04  0.12699999809E+01 0. -1.
</event>
<event>
 5   0  0.2556869E-06  0.2200342E+04  0.7818609E-02  0.8518286E-01
       -2   -1    0    0    0  501  0.00000000000E+00  0.00000000000E+00  0.61011417106E+03  0.61011417106E+03  0.25500000920E-02 0.  1.
        2   -1    0    0  501    0  0.00000000000E+00  0.00000000000E+00 -0.19838512583E+04  0.19838512583E+04  0.25500000920E-02 0. -1.
    10030    2    1    2    0    0  0.00000000000E+00  0.00000000000E+00 -0.13737370873E+04  0.25939654294E+04  0.22003415789E+04 0.  0.
        5    1    3    3  502    0  0.86489024368E+03  0.61878506102E+03 -0.35463090085E+03  0.11210331178E+04  0.46999998093E+01 0.  1.
       -5    1    3    3    0  502 -0.86489024368E+03 -0.61878506102E+03 -0.10191061864E+04  0.14729323116E+04  0.46999998093E+01 0. -1.
</event>
<event>
 5   0  0.1082209E-06  0.2200156E+04  0.7818609E-02  0.8518363E-01
        1   -1    0    0  501    0  0.00000000000E+00  0.00000000000E+00  0.20686253010E+04  0.20686253010E+04  0.50400001928E-02 0. -1.
       -1   -1    0    0    0  501  0.00000000000E+00  0.00000000000E+00 -0.58501261912E+03  0.58501261914E+03  0.50400001928E-02 0.  1.
    10030    2    1    2    0    0  0.00000000000E+00  0.00000000000E+00  0.14836126819E+04  0.26536379201E+04  0.22001562720E+04 0.  0.
        2    1    3    3  502    0 -0.16695427539E+03  0.96591347872E+03  0.13958325662E+03  0.99012426694E+03  0.25500000920E-02 0. -1.
       -2    1    3    3    0  502  0.16695427539E+03 -0.96591347872E+03  0.13440294252E+04  0.16635136532E+04  0.25500000920E-02 0.  1.
</event>
<event>
 5   0  0.1107101E-06  0.2197312E+04  0.7818609E-02  0.8519548E-01
       -1   -1    0    0    0  501  0.00000000000E+00  0.00000000000E+00  0.79923804449E+03  0.79923804451E+03  0.50400001928E-02 0. -1.
        1   -1    0    0  501    0  0.00000000000E+00  0.00000000000E+00 -0.15102440848E+04  0.15102440849E+04  0.50400001928E-02 0.  1.
    10030    2    1    2    0    0  0.00000000000E+00  0.00000000000E+00 -0.71100604036E+03  0.23094821294E+04  0.21973115656E+04 0.  0.
        1    1    3    3  502    0  0.42134316747E+03  0.10105280818E+04 -0.45153152023E+03  0.11843047676E+04  0.50400001928E-02 0.  1.
       -1    1    3    3    0  502 -0.42134316747E+03 -0.10105280818E+04 -0.25947452013E+03  0.11251773618E+04  0.50400001928E-02 0. -1.
</event>
<event>
 5   0  0.1137869E-06  0.2199043E+04  0.7818609E-02  0.8518827E-01
       -1   -1    0    0    0  501  0.00000000000E+00  0.00000000000E+00  0.83538046588E+03  0.83538046590E+03  0.50400001928E-02 0.  1.
        1   -1    0    0  501    0  0.00000000000E+00  0.00000000000E+00 -0.14471813077E+04  0.14471813078E+04  0.50400001928E-02 0. -1.
    10030    2    1    2    0    0  0.00000000000E+00  0.00000000000E+00 -0.61180084186E+03  0.22825617736E+04  0.21990425145E+04 0.  0.
        5    1    3    3  502    0  0.54009160156E+03  0.93072819613E+03 -0.71558245683E+02  0.10784695571E+04  0.46999998093E+01 0.  1.
       -5    1    3    3    0  502 -0.54009160156E+03 -0.93072819613E+03 -0.54024259618E+03  0.12040922165E+04  0.46999998093E+01 0. -1.
</event>
<event>
 5   0  0.1146827E-06  0.2199487E+04  0.7818609E-02  0.8518642E-01
       -1   -1    0    0    0  501  0.00000000000E+00  0.00000000000E+00  0.73319443692E+03  0.73319443693E+03  0.50400001928E-02 0. -1.
        1   -1    0    0  501    0  0.00000000000E+00  0.00000000000E+00 -0.16495427319E+04  0.16495427319E+04  0.50400001928E-02 0.  1.
    10030    2    1    2    0    0  0.00000000000E+00  0.00000000000E+00 -0.91634829500E+03  0.23827371689E+04  0.21994868079E+04 0.  0.
        4    1    3    3  502    0  0.53134097218E+03 -0.18564940873E+03  0.56534075116E+03  0.79774727170E+03  0.12699999809E+01 0. -1.
       -4    1    3    3    0  502 -0.53134097218E+03  0.18564940873E+03 -0.14816890462E+04  0.15849898972E+04  0.12699999809E+01 0.  1.
</event>
<event>
 5   0  0.2581058E-06  0.2200043E+04  0.7818609E-02  0.8518410E-01
       -2   -1    0    0    0  501  0.00000000000E+00  0.00000000000E+00  0.54516658568E+03  0.54516658569E+03  0.25500000920E-02 0.  1.
        2   -1    0    0  501    0  0.00000000000E+00  0.00000000000E+00 -0.22195910665E+04  0.22195910665E+04  0.25500000920E-02 0. -1.
    10030    2    1    2    0    0  0.00000000000E+00  0.00000000000E+00 -0.16744244808E+04  0.27647576522E+04  0.22000426208E+04 0.  0.
        1    1    3    3  502    0  0.39588372420E+03 -0.99037299287E+03 -0.49887645537E+03  0.11774719979E+04  0.50400001928E-02 0. -1.
       -1    1    3    3    0  502 -0.39588372420E+03  0.99037299287E+03 -0.11755480254E+04  0.15872856543E+04  0.50400001928E-02 0.  1.
</event>
<event>
 5   0  0.1107101E-06  0.2201472E+04  0.7818609E-02  0.8517816E-01
        1   -1    0    0  501    0  0.00000000000E+00  0.00000000000E+00  0.15567883732E+04  0.15567883732E+04  0.50400001928E-02 0.  1.
       -1   -1    0    0    0  501  0.00000000000E+00  0.00000000000E+00 -0.77828143697E+03  0.77828143698E+03  0.50400001928E-02 0. -1.
    10030    2    1    2    0    0  0.00000000000E+00  0.00000000000E+00  0.77850693626E+03  0.23350698102E+04  0.22014717733E+04 0.  0.
        1    1    3    3  502    0  0.35992728200E+03 -0.86979552879E+03  0.99442800100E+03  0.13692987108E+04  0.50400001928E-02 0.  1.
       -1    1    3    3    0  502 -0.35992728200E+03  0.86979552879E+03 -0.21592106473E+03  0.96577109941E+03  0.50400001928E-02 0. -1.
</event>
<event>
 5   0  0.2532239E-06  0.2200114E+04  0.7818609E-02  0.8518381E-01
        2   -1    0    0  501    0  0.00000000000E+00  0.00000000000E+00  0.15050672482E+04  0.15050672482E+04  0.25500000920E-02 0. -1.
       -2   -1    0    0    0  501  0.00000000000E+00  0.00000000000E+00 -0.80403404333E+03  0.80403404334E+03  0.25500000920E-02 0.  1.
    10030    2    1    2    0    0  0.00000000000E+00  0.00000000000E+00  0.70103320486E+03  0.23091012915E+04  0.22001139107E+04 0.  0.
        3    1    3    3  502    0  0.59946758414E+03 -0.10187468710E+03  0.13126539691E+04  0.14466514056E+04  0.10100000352E+00 0. -1.
       -3    1    3    3    0  502 -0.59946758414E+03  0.10187468710E+03 -0.61162076428E+03  0.86244988597E+03  0.10100000352E+00 0.  1.
</event>
<event>
 5   0  0.2581058E-06  0.2199991E+04  0.7818609E-02  0.8518432E-01
       -2   -1    0    0    0  501  0.00000000000E+00  0.00000000000E+00  0.94685299648E+03  0.94685299649E+03  0.25500000920E-02 0. -1.
        2   -1    0    0  501    0  0.00000000000E+00  0.00000000000E+00 -0.12779072509E+04  0.12779072509E+04  0.25500000920E-02 0.  1.
    10030    2    1    2    0    0  0.00000000000E+00  0.00000000000E+00 -0.33105425445E+03  0.22247602474E+04  0.21999911907E+04 0.  0.
        1    1    3    3  502    0 -0.45403500389E+03 -0.21350502168E+03  0.82440069517E+03  0.96507444546E+03  0.50400001928E-02 0. -1.
       -1    1    3    3    0  502  0.45403500389E+03  0.21350502168E+03 -0.11554549496E+04  0.12596858020E+04  0.50400001928E-02 0.  1.
</event>
<event>
 5   0  0.2581058E-06  0.2199876E+04  0.7818609E-02  0.8518480E-01
       -2   -1    0    0    0  501  0.00000000000E+00  0.00000000000E+00  0.50858426016E+03  0.50858426017E+03  0.25500000920E-02 0. -1.
        2   -1    0    0  501    0  0.00000000000E+00  0.00000000000E+00 -0.23788862229E+04  0.23788862229E+04  0.25500000920E-02 0.  1.
    10030    2    1    2    0    0  0.00000000000E+00  0.00000000000E+00 -0.18703019628E+04  0.28874704831E+04  0.21998764417E+04 0.  0.
        1    1    3    3  502    0  0.31004939818E+03  0.43614312470E+01  0.45002894556E+03  0.54651230843E+03  0.50400001928E-02 0. -1.
       -1    1    3    3    0  502 -0.31004939818E+03 -0.43614312470E+01 -0.23203309083E+04  0.23409581747E+04  0.50400001928E-02 0.  1.
</event>
<event>
 5   0  0.2556869E-06  0.2199776E+04  0.7818609E-02  0.8518521E-01
        2   -1    0    0  501    0  0.00000000000E+00  0.00000000000E+00  0.25726156888E+04  0.25726156888E+04  0.25500000920E-02 0. -1.
       -2   -1    0    0    0  501  0.00000000000E+00  0.00000000000E+00 -0.47024272790E+03  0.47024272791E+03  0.25500000920E-02 0.  1.
    10030    2    1    2    0    0  0.00000000000E+00  0.00000000000E+00  0.21023729609E+04  0.30428584167E+04  0.21997761880E+04 0.  0.
        5    1    3    3  502    0 -0.47052601458E+03 -0.38267793816E+03 -0.21801949817E+03  0.64450890322E+03  0.46999998093E+01 0.  1.
       -5    1    3    3    0  502  0.47052601458E+03  0.38267793816E+03  0.23203924591E+04  0.23983495135E+04  0.46999998093E+01 0. -1.
</event>
<event>
 5   0  0.1137869E-06  0.2200395E+04  0.7818609E-02  0.8518264E-01
       -1   -1    0    0    0  501  0.00000000000E+00  0.00000000000E+00  0.11819748279E+04  0.11819748279E+04  0.50400001928E-02 0.  1.
        1   -1    0    0  501    0  0.00000000000E+00  0.00000000000E+00 -0.10240783070E+04  0.10240783070E+04  0.50400001928E-02 0. -1.
    10030    2    1    2    0    0  0.00000000000E+00  0.00000000000E+00  0.15789652094E+03  0.22060531349E+04  0.22003952196E+04 0.  0.
        5    1    3    3  502    0 -0.41698009766E+03  0.17800152313E+03  0.10839507466E+04  0.11749588313E+04  0.46999998093E+01 0.  1.
       -5    1    3    3    0  502  0.41698009766E+03 -0.17800152313E+03 -0.92605422567E+03  0.10310943036E+04  0.46999998093E+01 0. -1.
</event>
<event>
 5   0  0.2532239E-06  0.2201398E+04  0.7818609E-02  0.8517847E-01
       -2   -1    0    0    0  501  0.00000000000E+00  0.00000000000E+00  0.81375897905E+03  0.81375897906E+03  0.25500000920E-02 0. -1.
        2   -1    0    0  501    0  0.00000000000E+00  0.00000000000E+00 -0.14888167384E+04  0.14888167384E+04  0.25500000920E-02 0.  1.
    10030    2    1    2    0    0  0.00000000000E+00  0.00000000000E+00 -0.67505775938E+03  0.23025757175E+04  0.22013977279E+04 0.  0.
        3    1    3    3  502    0  0.73966962770E+03 -0.57779243563E+03  0.26386012309E+03  0.97497560563E+03  0.10100000352E+00 0. -1.
       -3    1    3    3    0  502 -0.73966962770E+03  0.57779243563E+03 -0.93891788247E+03  0.13276001119E+04  0.10100000352E+00 0.  1.
</event>
<event>
 5   0  0.1082209E-06  0.2199604E+04  0.7818609E-02  0.8518593E-01
        1   -1    0    0  501    0  0.00000000000E+00  0.00000000000E+00  0.72625986431E+03  0.72625986433E+03  0.50400001928E-02 0.  1.
       -1   -1    0    0    0  501  0.00000000000E+00  0.00000000000E+00 -0.16654707870E+04  0.16654707870E+04  0.50400001928E-02 0. -1.
    10030    2    1    2    0    0  0.00000000000E+00  0.00000000000E+00 -0.93921092273E+03  0.23917306514E+04  0.21996041351E+04 0.  0.
        2    1    3    3  502    0  0.20082661411E+03 -0.88066876269E+03  0.21261707744E+03  0.92796272562E+03  0.25500000920E-02 0.  1.
       -2    1    3    3    0  502 -0.20082661411E+03  0.88066876269E+03 -0.11518280002E+04  0.14637679258E+04  0.25500000920E-02 0. -1.
</event>
<event>
 5   0  0.1107101E-06  0.2199589E+04  0.7818609E-02  0.8518599E-01
       -1   -1    0    0    0  501  0.00000000000E+00  0.00000000000E+00  0.16532441293E+04  0.16532441293E+04  0.50400001928E-02 0. -1.
        1   -1    0    0  501    0  0.00000000000E+00  0.00000000000E+00 -0.73162083137E+03  0.73162083139E+03  0.50400001928E-02 0.  1.
    10030    2    1    2    0    0  0.00000000000E+00  0.00000000000E+00  0.92162329793E+03  0.23848649607E+04  0.21995889110E+04 0.  0.
        1    1    3    3  502    0  0.40567210563E+03  0.12078102551E+03  0.15613953434E+04  0.16177494651E+04  0.50400001928E-02 0. -1.
       -1    1    3    3    0  502 -0.40567210563E+03 -0.12078102551E+03 -0.63977204547E+03  0.76711549561E+03  0.50400001928E-02 0.  1.
</event>
<event>
 5   0  0.1144271E-06  0.2199740E+04  0.7818609E-02  0.8518536E-01
        1   -1    0    0  501    0  0.00000000000E+00  0.00000000000E+00  0.15653939266E+04  0.15653939266E+04  0.50400001928E-02 0. -1.
       -1   -1    0    0    0  501  0.00000000000E+00  0.00000000000E+00 -0.77278592602E+03  0.77278592603E+03  0.50400001928E-02 0.  1.
    10030    2    1    2    0    0  0.00000000000E+00  0.00000000000E+00  0.79260800061E+03  0.23381798527E+04  0.21997403440E+04 0.  0.
        3    1    3    3  502    0 -0.14949318479E+02  0.23757913852E+03 -0.74507534620E+03  0.78217939816E+03  0.10100000352E+00 0.  1.
       -3    1    3    3    0  502  0.14949318479E+02 -0.23757913852E+03  0.15376833468E+04  0.15560004545E+04  0.10100000352E+00 0. -1.
</event>
<event>
 5   0  0.1144271E-06  0.2201347E+04  0.7818609E-02  0.8517868E-01
       -1   -1    0    0    0  501  0.00000000000E+00  0.00000000000E+00  0.82333152585E+03  0.82333152586E+03  0.50400001928E-02 0. -1.
        1   -1    0    0  501    0  0.00000000000E+00  0.00000000000E+00 -0.14714394995E+04  0.14714394995E+04  0.50400001928E-02 0.  1.
    10030    2    1    2    0    0  0.00000000000E+00  0.00000000000E+00 -0.64810797361E+03  0.22947710253E+04  0.22013473404E+04 0.  0.
        3    1    3    3  502    0  0.51636910708E+03 -0.43571775528E+03 -0.12298344857E+04  0.14032034384E+04  0.10100000352E+00 0.  1.
       -3    1    3    3    0  502 -0.51636910708E+03  0.43571775528E+03  0.58172651211E+03  0.89156758695E+03  0.10100000352E+00 0. -1.
</event>
<event>
 5   0  0.2606154E-06  0.2199941E+04  0.7818609E-02  0.8518452E-01
        2   -1    0    0  501    0  0.00000000000E+00  0.00000000000E+00  0.12522477291E+04  0.12522477291E+04  0.25500000920E-02 0.  1.
       -2   -1    0    0    0  501  0.00000000000E+00  0.00000000000E+00 -0.96621104770E+03  0.96621104770E+03  0.25500000920E-02 0. -1.
    10030    2    1    2    0    0  0.00000000000E+00  0.00000000000E+00  0.28603668136E+03  0.22184587768E+04  0.21999414449E+04 0.  0.
        2    1    3    3  502    0  0.61647458932E+03 -0.63718795605E+03  0.79956390288E+03  0.11938810014E+04  0.25500000920E-02 0.  1.
       -2    1    3    3    0  502 -0.61647458932E+03  0.63718795605E+03 -0.51352722152E+03  0.10245777754E+04  0.25500000920E-02 0. -1.
</event>
<event>
 5   0  0.1137869E-06  0.2200289E+04  0.7818609E-02  0.8518308E-01
       -1   -1    0    0    0  501  0.00000000000E+00  0.00000000000E+00  0.15926590188E+04  0.15926590188E+04  0.50400001928E-02 0.  1.
        1   -1    0    0  501    0  0.00000000000E+00  0.00000000000E+00 -0.75993531045E+03  0.75993531046E+03  0.50400001928E-02 0. -1.
    10030    2    1    2    0    0  0.00000000000E+00  0.00000000000E+00  0.83272370831E+03  0.23525943292E+04  0.22002889137E+04 0.  0.
        5    1    3    3  502    0  0.10807564443E+04  0.47437445556E+01  0.19661492373E+03  0.10985155953E+04  0.46999998093E+01 0. -1.
       -5    1    3    3    0  502 -0.10807564443E+04 -0.47437445556E+01  0.63610878458E+03  0.12540787339E+04  0.46999998093E+01 0.  1.
</event>
<event>
 5   0  0.2556869E-06  0.2199726E+04  0.7818609E-02  0.8518542E-01
        2   -1    0    0  501    0  0.00000000000E+00  0.00000000000E+00  0.16385751371E+04  0.16385751371E+04  0.25500000920E-02 0. -1.
       -2   -1    0    0    0  501  0.00000000000E+00  0.00000000000E+00 -0.73826221928E+03  0.73826221928E+03  0.25500000920E-02 0.  1.
    10030    2    1    2    0    0  0.00000000000E+00  0.00000000000E+00  0.90031291781E+03  0.23768373564E+04  0.21997255439E+04 0.  0.
        5    1    3    3  502    0 -0.79384739122E+03  0.73863549936E+03  0.25121263191E+03  0.11130615248E+04  0.46999998093E+01 0.  1.
       -5    1    3    3    0  502  0.79384739122E+03 -0.73863549936E+03  0.64910028590E+03  0.12637758316E+04  0.46999998093E+01 0. -1.
</event>
<event>
 5   0  0.1082209E-06  0.2199733E+04  0.7818609E-02  0.8518539E-01
       -1   -1    0    0    0  501  0.00000000000E+00  0.00000000000E+00  0.88097867076E+03  0.88097867078E+03  0.50400001928E-02 0.  1.
        1   -1    0    0  501    0  0.00000000000E+00  0.00000000000E+00 -0.13731395972E+04  0.13731395972E+04  0.50400001928E-02 0. -1.
    10030    2    1    2    0    0  0.00000000000E+00  0.00000000000E+00 -0.49216092643E+03  0.22541182680E+04  0.21997333449E+04 0.  0.
        2    1    3    3  502    0 -0.33061583222E+03 -0.24438725755E+03 -0.12914363433E+04  0.13553006268E+04  0.25500000920E-02 0. -1.
       -2    1    3    3    0  502  0.33061583222E+03  0.24438725755E+03  0.79927541685E+03  0.89881764121E+03  0.25500000920E-02 0.  1.
</event>
<event>
 5   0  0.1082209E-06  0.2200347E+04  0.7818609E-02  0.8518284E-01
        1   -1    0    0  501    0  0.00000000000E+00  0.00000000000E+00  0.11917241999E+04  0.11917241999E+04  0.50400001928E-02 0.  1.
       -1   -1    0    0    0  501  0.00000000000E+00  0.00000000000E+00 -0.10156554956E+04  0.10156554956E+04  0.50400001928E-02 0. -1.
    10030    2    1    2    0    0  0.00000000000E+00  0.00000000000E+00  0.17606870425E+03  0.22073796955E+04  0.22003465480E+04 0.  0.
        2    1    3    3  502    0  0.64425323053E+02  0.69167137427E+03 -0.76781700540E+03  0.10354240030E+04  0.25500000920E-02 0.  1.
       -2    1    3    3    0  502 -0.64425323053E+02 -0.69167137427E+03  0.94388570964E+03  0.11719556925E+04  0.25500000920E-02 0. -1.
</event>
<event>
 5   0  0.1107101E-06  0.2199208E+04  0.7818609E-02  0.8518758E-01
        1   -1    0    0  501    0  0.00000000000E+00  0.00000000000E+00  0.17520615642E+04  0.17520615642E+04  0.50400001928E-02 0.  1.
       -1   -1    0    0    0  501  0.00000000000E+00  0.00000000000E+00 -0.69011770293E+03  0.69011770295E+03  0.50400001928E-02 0. -1.
    10030    2    1    2    0    0  0.00000000000E+00  0.00000000000E+00  0.10619438613E+04  0.24421792672E+04  0.21992077684E+04 0.  0.
        1    1    3    3  502    0 -0.10484561508E+04  0.78188007542E+02  0.88866940580E+03  0.13766288452E+04  0.50400001928E-02 0. -1.
       -1    1    3    3    0  502  0.10484561508E+04 -0.78188007542E+02  0.17327445550E+03  0.10655504219E+04  0.50400001928E-02 0.  1.
</event>
<event>
 5   0  0.1082209E-06  0.2202138E+04  0.7818609E-02  0.8517539E-01
       -1   -1    0    0    0  501  0.00000000000E+00  0.00000000000E+00  0.74234061451E+03  0.74234061452E+03  0.50400001928E-02 0. -1.
        1   -1    0    0  501    0  0.00000000000E+00  0.00000000000E+00 -0.16331492165E+04  0.16331492166E+04  0.50400001928E-02 0.  1.
    10030    2    1    2    0    0  0.00000000000E+00  0.00000000000E+00 -0.89080860203E+03  0.23754898311E+04  0.22021380456E+04 0.  0.
        2    1    3    3  502    0 -0.28951770264E+03  0.11261129650E+03  0.69408899835E+03  0.76043496887E+03  0.25500000920E-02 0. -1.
       -2    1    3    3    0  502  0.28951770264E+03 -0.11261129650E+03 -0.15848976004E+04  0.16150548622E+04  0.25500000920E-02 0.  1.
</event>
<event>
 5   0  0.2581058E-06  0.2199090E+04  0.7818609E-02  0.8518807E-01
       -2   -1    0    0    0  501  0.00000000000E+00  0.00000000000E+00  0.65074899088E+03  0.65074899088E+03  0.25500000920E-02 0.  1.
        2   -1    0    0  501    0  0.00000000000E+00  0.00000000000E+00 -0.18578584909E+04  0.18578584909E+04  0.25500000920E-02 0. -1.
    10030    2    1    2    0    0  0.00000000000E+00  0.00000000000E+00 -0.12071095000E+04  0.25086074818E+04  0.21990903012E+04 0.  0.
        1    1    3    3  502    0  0.80134699981E+03  0.25383979200E+03  0.20501571387E+03  0.86523008330E+03  0.50400001928E-02 0.  1.
       -1    1    3    3    0  502 -0.80134699981E+03 -0.25383979200E+03 -0.14121252139E+04  0.16433773985E+04  0.50400001928E-02 0. -1.
</event>
<event>
 5   0  0.2581058E-06  0.2200653E+04  0.7818609E-02  0.8518156E-01
       -2   -1    0    0    0  501  0.00000000000E+00  0.00000000000E+00  0.91062298115E+03  0.91062298116E+03  0.25500000920E-02 0. -1.
        2   -1    0    0  501    0  0.00000000000E+00  0.00000000000E+00 -0.13295499448E+04  0.13295499448E+04  0.25500000920E-02 0.  1.
    10030    2    1    2    0    0  0.00000000000E+00  0.00000000000E+00 -0.41892696360E+03  0.22401729259E+04  0.22006532978E+04 0.  0.
        1    1    3    3  502    0 -0.53836873873E+03 -0.43630184851E+03 -0.10795161359E+04  0.12827919900E+04  0.50400001928E-02 0.  1.
       -1    1    3    3    0  502  0.53836873873E+03  0.43630184851E+03  0.66058917232E+03  0.95738093592E+03  0.50400001928E-02 0. -1.
</event>
<event>
 5   0  0.8905000E-07  0.2200606E+04  0.7818609E-02  0.8518176E-01
       -3   -1    0    0    0  501  0.00000000000E+00  0.00000000000E+00  0.11265870115E+04  0.11265870160E+04  0.10100000352E+00 0.  1.
        3   -1    0    0  501    0  0.00000000000E+00  0.00000000000E+00 -0.10746324391E+04  0.10746324438E+04  0.10100000352E+00 0. -1.
    10030    2    1    2    0    0  0.00000000000E+00  0.00000000000E+00  0.51954572391E+02  0.22012194598E+04  0.22006062421E+04 0.  0.
        1    1    3    3  502    0 -0.25348625726E+03  0.69473343862E+03 -0.78896264997E+03  0.10813750027E+04  0.50400001928E-02 0. -1.
       -1    1    3    3    0  502  0.25348625726E+03 -0.69473343862E+03  0.84091722236E+03  0.11198444572E+04  0.50400001928E-02 0.  1.
</event>
<event>
 5   0  0.1146827E-06  0.2199061E+04  0.7818609E-02  0.8518819E-01
        1   -1    0    0  501    0  0.00000000000E+00  0.00000000000E+00  0.13436492697E+04  0.13436492697E+04  0.50400001928E-02 0. -1.
       -1   -1    0    0    0  501  0.00000000000E+00  0.00000000000E+00 -0.89976397841E+03  0.89976397842E+03  0.50400001928E-02 0.  1.
    10030    2    1    2    0    0  0.00000000000E+00  0.00000000000E+00  0.44388529127E+03  0.22434132481E+04  0.21990609018E+04 0.  0.
        4    1    3    3  502    0 -0.39455414852E+03 -0.11512556105E+03 -0.81844881515E+03  0.91585312515E+03  0.12699999809E+01 0.  1.
       -4    1    3    3    0  502  0.39455414852E+03  0.11512556105E+03  0.12623341064E+04  0.13275601230E+04  0.12699999809E+01 0. -1.
</event>
<event>
 5   0  0.2556869E-06  0.2202110E+04  0.7818609E-02  0.8517551E-01
        2   -1    0    0  501    0  0.00000000000E+00  0.00000000000E+00  0.15034548460E+04  0.15034548461E+04  0.25500000920E-02 0. -1.
       -2   -1    0    0    0  501  0.00000000000E+00  0.00000000000E+00 -0.80635715704E+03  0.80635715705E+03  0.25500000920E-02 0.  1.
    10030    2    1    2    0    0  0.00000000000E+00  0.00000000000E+00  0.69709768901E+03  0.23098120031E+04  0.22021095117E+04 0.  0.
        5    1    3    3  502    0  0.45345005051E+03  0.27127611219E+03  0.13617598755E+04  0.14606915231E+04  0.46999998093E+01 0. -1.
       -5    1    3    3    0  502 -0.45345005051E+03 -0.27127611219E+03 -0.66466218647E+03  0.84912047995E+03  0.46999998093E+01 0.  1.
</event>
<event>
 5   0  0.1137869E-06  0.2199546E+04  0.7818609E-02  0.8518617E-01
        1   -1    0    0  501    0  0.00000000000E+00  0.00000000000E+00  0.93878233261E+03  0.93878233262E+03  0.50400001928E-02 0.  1.
       -1   -1    0    0    0  501  0.00000000000E+00  0.00000000000E+00 -0.12883718888E+04  0.12883718888E+04  0.50400001928E-02 0. -1.
    10030    2    1    2    0    0  0.00000000000E+00  0.00000000000E+00 -0.34958955617E+03  0.22271542214E+04  0.21995461050E+04 0.  0.
        5    1    3    3  502    0  0.66559824009E+03  0.73125674773E+03  0.31262161647E+03  0.10370688566E+04  0.46999998093E+01 0.  1.
       -5    1    3    3    0  502 -0.66559824009E+03 -0.73125674773E+03 -0.66221117264E+03  0.11900853648E+04  0.46999998093E+01 0. -1.
</event>
<event>
 5   0  0.1082209E-06  0.2200699E+04  0.7818609E-02  0.8518137E-01
        1   -1    0    0  501    0  0.00000000000E+00  0.00000000000E+00  0.15478532921E+04  0.15478532921E+04  0.50400001928E-02 0.  1.
       -1   -1    0    0    0  501  0.00000000000E+00  0.00000000000E+00 -0.78222438574E+03  0.78222438576E+03  0.50400001928E-02 0. -1.
    10030    2    1    2    0    0  0.00000000000E+00  0.00000000000E+00  0.76562890638E+03  0.23300776779E+04  0.22006986079E+04 0.  0.
        2    1    3    3  502    0  0.30189034352E+03 -0.99222262623E+03  0.77201890435E+03  0.12929256391E+04  0.25500000920E-02 0.  1.
       -2    1    3    3    0  502 -0.30189034352E+03  0.99222262623E+03 -0.63899979707E+01  0.10371520388E+04  0.25500000920E-02 0. -1.
</event>
<event>
 5   0  0.2556869E-06  0.2200808E+04  0.7818609E-02  0.8518092E-01
        2   -1    0    0  501    0  0.00000000000E+00  0.00000000000E+00  0.15987032226E+04  0.15987032226E+04  0.25500000920E-02 0.  1.
       -2   -1    0    0    0  501  0.00000000000E+00  0.00000000000E+00 -0.75741951737E+03  0.75741951737E+03  0.25500000920E-02 0. -1.
    10030    2    1    2    0    0  0.00000000000E+00  0.00000000000E+00  0.84128370518E+03  0.23561227399E+04  0.22008080546E+04 0.  0.
        5    1    3    3  502    0 -0.75728974931E+03  0.67103830784E+03  0.88370185420E+03  0.13434028555E+04  0.46999998093E+01 0.  1.
       -5    1    3    3    0  502  0.75728974931E+03 -0.67103830784E+03 -0.42418149015E+02  0.10127198845E+04  0.46999998093E+01 0. -1.
</event>
<event>
 5   0  0.2581058E-06  0.2202976E+04  0.7818609E-02  0.8517191E-01
       -2   -1    0    0    0  501  0.00000000000E+00  0.00000000000E+00  0.96331004853E+03  0.96331004854E+03  0.25500000920E-02 0. -1.
        2   -1    0    0  501    0  0.00000000000E+00  0.00000000000E+00 -0.12594861184E+04  0.12594861184E+04  0.25500000920E-02 0.  1.
    10030    2    1    2    0    0  0.00000000000E+00  0.00000000000E+00 -0.29617606990E+03  0.22227961670E+04  0.22029758363E+04 0.  0.
        1    1    3    3  502    0  0.37419312202E+03 -0.67611511868E+03 -0.94008549390E+03  0.12169276405E+04  0.50400001928E-02 0.  1.
       -1    1    3    3    0  502 -0.37419312202E+03  0.67611511868E+03  0.64390942399E+03  0.10058685265E+04  0.50400001928E-02 0. -1.
</event>
<event>
 5   0  0.1082209E-06  0.2202022E+04  0.7818609E-02  0.8517587E-01
       -1   -1    0    0    0  501  0.00000000000E+00  0.00000000000E+00  0.98119912276E+03  0.98119912277E+03  0.50400001928E-02 0. -1.
        1   -1    0    0  501    0  0.00000000000E+00  0.00000000000E+00 -0.12354526966E+04  0.12354526966E+04  0.50400001928E-02 0.  1.
    10030    2    1    2    0    0  0.00000000000E+00  0.00000000000E+00 -0.25425357384E+03  0.22166518194E+04  0.22020218910E+04 0.  0.
        2    1    3    3  502    0 -0.32714351024E+03  0.67903636627E+03  0.68077113389E+03  0.10156587024E+04  0.25500000920E-02 0. -1.
       -2    1    3    3    0  502  0.32714351024E+03 -0.67903636627E+03 -0.93502470773E+03  0.12009931170E+04  0.25500000920E-02 0.  1.
</event>
<event>
 5   0  0.1137869E-06  0.2201562E+04  0.7818609E-02  0.8517778E-01
        1   -1    0    0  501    0  0.00000000000E+00  0.00000000000E+00  0.14229845445E+04  0.14229845445E+04  0.50400001928E-02 0. -1.
       -1   -1    0    0    0  501  0.00000000000E+00  0.00000000000E+00 -0.85153355289E+03  0.85153355291E+03  0.50400001928E-02 0.  1.
    10030    2    1    2    0    0  0.00000000000E+00  0.00000000000E+00  0.57145099158E+03  0.22745180974E+04  0.22015622498E+04 0.  0.
        5    1    3    3  502    0  0.65519506903E+03  0.87729804337E+03  0.40244981328E+03  0.11665849209E+04  0.46999998093E+01 0.  1.
       -5    1    3    3    0  502 -0.65519506903E+03 -0.87729804337E+03  0.16900117830E+03  0.11079331765E+04  0.46999998093E+01 0. -1.
</event>
<event>
 5   0  0.1144271E-06  0.2199583E+04  0.7818609E-02  0.8518602E-01
       -1   -1    0    0    0  501  0.00000000000E+00  0.00000000000E+00  0.15232263845E+04  0.15232263845E+04  0.50400001928E-02 0. -1.
        1   -1    0    0  501    0  0.00000000000E+00  0.00000000000E+00 -0.79406551515E+03  0.79406551517E+03  0.50400001928E-02 0.  1.
    10030    2    1    2    0    0  0.00000000000E+00  0.00000000000E+00  0.72916086932E+03  0.23172918997E+04  0.21995831821E+04 0.  0.
        3    1    3    3  502    0 -0.90769118646E+03 -0.59056378448E+03  0.16228196963E+03  0.10949905577E+04  0.10100000352E+00 0.  1.
       -3    1    3    3    0  502  0.90769118646E+03  0.59056378448E+03  0.56687889969E+03  0.12223013420E+04  0.10100000352E+00 0. -1.
</event>
<event>
 5   0  0.1144271E-06  0.2200285E+04  0.7818609E-02  0.8518309E-01
        1   -1    0    0  501    0  0.00000000000E+00  0.00000000000E+00  0.29236417958E+04  0.29236417958E+04  0.50400001928E-02 0.  1.
       -1   -1    0    0    0  501  0.00000000000E+00  0.00000000000E+00 -0.41397468969E+03  0.41397468972E+03  0.50400001928E-02 0. -1.
    10030    2    1    2    0    0  0.00000000000E+00  0.00000000000E+00  0.25096671062E+04  0.33376164856E+04  0.22002851681E+04 0.  0.
        3    1    3    3  502    0 -0.31130341622E+03 -0.74518379982E+02  0.28514408726E+04  0.28693514713E+04  0.10100000352E+00 0.  1.
       -3    1    3    3    0  502  0.31130341622E+03  0.74518379982E+02 -0.34177376646E+03  0.46826501423E+03  0.10100000352E+00 0. -1.
</event>
<event>
 5   0  0.1137869E-06  0.2199171E+04  0.7818609E-02  0.8518773E-01
       -1   -1    0    0    0  501  0.00000000000E+00  0.00000000000E+00  0.58930089372E+03  0.58930089374E+03  0.50400001928E-02 0.  1.
        1   -1    0    0  501    0  0.00000000000E+00  0.00000000000E+00 -0.20517337466E+04  0.20517337466E+04  0.50400001928E-02 0. -1.
    10030    2    1    2    0    0  0.00000000000E+00  0.00000000000E+00 -0.14624328529E+04  0.26410346404E+04  0.21991712353E+04 0.  0.
        5    1    3    3  502    0 -0.31268861074E+02  0.27390796659E+03 -0.20095438448E+04  0.20283717287E+04  0.46999998093E+01 0. -1.
       -5    1    3    3    0  502  0.31268861074E+02 -0.27390796659E+03  0.54711099188E+03  0.61266291162E+03  0.46999998093E+01 0.  1.
</event>
<event>
 5   0  0.1146827E-06  0.2200097E+04  0.7818609E-02  0.8518388E-01
        1   -1    0    0  501    0  0.00000000000E+00  0.00000000000E+00  0.12193244399E+04  0.12193244400E+04  0.50400001928E-02 0.  1.
       -1   -1    0    0    0  501  0.00000000000E+00  0.00000000000E+00 -0.99244048013E+03  0.99244048014E+03  0.50400001928E-02 0. -1.
    10030    2    1    2    0    0  0.00000000000E+00  0.00000000000E+00  0.22688395981E+03  0.22117649201E+04  0.22000972093E+04 0.  0.
        4    1    3    3  502    0 -0.78603034735E+03  0.55464139080E+03 -0.42289889453E+03  0.10508643429E+04  0.12699999809E+01 0.  1.
       -4    1    3    3    0  502  0.78603034735E+03 -0.55464139080E+03  0.64978285435E+03  0.11609005772E+04  0.12699999809E+01 0. -1.
</event>
<event>
 5   0  0.1137869E-06  0.2199930E+04  0.7818609E-02  0.8518457E-01
        1   -1    0    0  501    0  0.00000000000E+00  0.00000000000E+00  0.13839709072E+04  0.13839709072E+04  0.50400001928E-02 0. -1.
       -1   -1    0    0    0  501  0.00000000000E+00  0.00000000000E+00 -0.87424039928E+03  0.87424039929E+03  0.50400001928E-02 0.  1.
    10030    2    1    2    0    0  0.00000000000E+00  0.00000000000E+00  0.50973050796E+03  0.22582113065E+04  0.21999302521E+04 0.  0.
        5    1    3    3  502    0  0.10105482319E+04  0.84372376294E+02  0.69226991539E+03  0.12278379994E+04  0.46999998093E+01 0. -1.
       -5    1    3    3    0  502 -0.10105482319E+04 -0.84372376294E+02 -0.18253940743E+03  0.10303733072E+04  0.46999998093E+01 0.  1.
</event>
<event>
 5   0  0.2524749E-06  0.2199606E+04  0.7818609E-02  0.8518592E-01
        2   -1    0    0  501    0  0.00000000000E+00  0.00000000000E+00  0.81551996029E+03  0.81551996029E+03  0.25500000920E-02 0.  1.
       -2   -1    0    0    0  501  0.00000000000E+00  0.00000000000E+00 -0.14831846343E+04  0.14831846343E+04  0.25500000920E-02 0. -1.
    10030    2    1    2    0    0  0.00000000000E+00  0.00000000000E+00 -0.66766467400E+03  0.22987045946E+04  0.21996060320E+04 0.  0.
        4    1    3    3  502    0 -0.62091113245E+03 -0.55101169466E+03 -0.10877353448E+04  0.13683253690E+04  0.12699999809E+01 0. -1.
       -4    1    3    3    0  502  0.62091113245E+03  0.55101169466E+03  0.42007067084E+03  0.93037922561E+03  0.12699999809E+01 0.  1.
</event>
<event>
 5   0  0.1137869E-06  0.2199928E+04  0.7818609E-02  0.8518458E-01
       -1   -1    0    0    0  501  0.00000000000E+00  0.00000000000E+00  0.13973521367E+04  0.13973521367E+04  0.50400001928E-02 0. -1.
        1   -1    0    0  501    0  0.00000000000E+00  0.00000000000E+00 -0.86586673411E+03  0.86586673412E+03  0.50400001928E-02 0.  1.
    10030    2    1    2    0    0  0.00000000000E+00  0.00000000000E+00  0.53148540258E+03  0.22632188708E+04  0.21999279361E+04 0.  0.
        5    1    3    3  502    0  0.19343444178E+03  0.64182847568E+02 -0.84626263694E+03  0.87047048306E+03  0.46999998093E+01 0.  1.
       -5    1    3    3    0  502 -0.19343444178E+03 -0.64182847568E+02  0.13777480395E+04  0.13927483878E+04  0.46999998093E+01 0. -1.
</event>
<event>
 5   0  0.2532239E-06  0.2198100E+04  0.7818609E-02  0.8519219E-01
        2   -1    0    0  501    0  0.00000000000E+00  0.00000000000E+00  0.16536169934E+04  0.16536169934E+04  0.25500000920E-02 0.  1.
       -2   -1    0    0    0  501  0.00000000000E+00  0.00000000000E+00 -0.73046609358E+03  0.73046609358E+03  0.25500000920E-02 0. -1.
    10030    2    1    2    0    0  0.00000000000E+00  0.00000000000E+00  0.92315089981E+03  0.23840830870E+04  0.21981002210E+04 0.  0.
        3    1    3    3  502    0  0.41926816852E+03 -0.10147163829E+04  0.40760584331E+03  0.11711437438E+04  0.10100000352E+00 0.  1.
       -3    1    3    3    0  502 -0.41926816852E+03  0.10147163829E+04  0.51554505651E+03  0.12129393432E+04  0.10100000352E+00 0. -1.
</event>
<event>
 5   0  0.2532239E-06  0.2199913E+04  0.7818609E-02  0.8518464E-01
       -2   -1    0    0    0  501  0.00000000000E+00  0.00000000000E+00  0.97939139123E+03  0.97939139124E+03  0.25500000920E-02 0. -1.
        2   -1    0    0  501    0  0.00000000000E+00  0.00000000000E+00 -0.12353636925E+04  0.12353636925E+04  0.25500000920E-02 0.  1.
    10030    2    1    2    0    0  0.00000000000E+00  0.00000000000E+00 -0.25597230122E+03  0.22147550837E+04  0.21999132396E+04 0.  0.
        3    1    3    3  502    0  0.48271964276E+03  0.88244908107E+03  0.32017996928E+03  0.10555803414E+04  0.10100000352E+00 0. -1.
       -3    1    3    3    0  502 -0.48271964276E+03 -0.88244908107E+03 -0.57615227050E+03  0.11591747423E+04  0.10100000352E+00 0.  1.
</event>
<event>
 5   0  0.1082209E-06  0.2198306E+04  0.7818609E-02  0.8519134E-01
       -1   -1    0    0    0  501  0.00000000000E+00  0.00000000000E+00  0.12164713638E+04  0.12164713638E+04  0.50400001928E-02 0.  1.
        1   -1    0    0  501    0  0.00000000000E+00  0.00000000000E+00 -0.99314867037E+03  0.99314867038E+03  0.50400001928E-02 0. -1.
    10030    2    1    2    0    0  0.00000000000E+00  0.00000000000E+00  0.22332269342E+03  0.22096200342E+04  0.21983056362E+04 0.  0.
        2    1    3    3  502    0 -0.12225576001E+03 -0.10726788059E+04 -0.95678370980E+02  0.10838545300E+04  0.25500000920E-02 0. -1.
       -2    1    3    3    0  502  0.12225576001E+03  0.10726788059E+04  0.31900106440E+03  0.11257655042E+04  0.25500000920E-02 0.  1.
</event>
<event>
 5   0  0.2556869E-06  0.2200183E+04  0.7818609E-02  0.8518352E-01
       -2   -1    0    0    0  501  0.00000000000E+00  0.00000000000E+00  0.42772818301E+03  0.42772818301E+03  0.25500000920E-02 0. -1.
        2   -1    0    0  501    0  0.00000000000E+00  0.00000000000E+00 -0.28293691427E+04  0.28293691427E+04  0.25500000920E-02 0.  1.
    10030    2    1    2    0    0  0.00000000000E+00  0.00000000000E+00 -0.24016409597E+04  0.32570973258E+04  0.22001826492E+04 0.  0.
        5    1    3    3  502    0  0.52430535536E+03  0.49343955131E+03 -0.24321160642E+04  0.25364521159E+04  0.46999998093E+01 0.  1.
       -5    1    3    3    0  502 -0.52430535536E+03 -0.49343955131E+03  0.30475104509E+02  0.72064520983E+03  0.46999998093E+01 0. -1.
</event>
<event>
 5   0  0.1137869E-06  0.2200466E+04  0.7818609E-02  0.8518234E-01
       -1   -1    0    0    0  501  0.00000000000E+00  0.00000000000E+00  0.11595099852E+04  0.11595099852E+04  0.50400001928E-02 0.  1.
        1   -1    0    0  501    0  0.00000000000E+00  0.00000000000E+00 -0.10439860822E+04  0.10439860822E+04  0.50400001928E-02 0. -1.
    10030    2    1    2    0    0  0.00000000000E+00  0.00000000000E+00  0.11552390302E+03  0.22034960674E+04  0.22004656659E+04 0.  0.
        5    1    3    3  502    0 -0.90055046634E+03  0.39931640605E+03  0.54838103107E+03  0.11274699906E+04  0.46999998093E+01 0.  1.
       -5    1    3    3    0  502  0.90055046634E+03 -0.39931640605E+03 -0.43285712804E+03  0.10760260768E+04  0.46999998093E+01 0. -1.
</event>
<event>
 5   0  0.1082209E-06  0.2199189E+04  0.7818609E-02  0.8518766E-01
        1   -1    0    0  501    0  0.00000000000E+00  0.00000000000E+00  0.75525115012E+03  0.75525115014E+03  0.50400001928E-02 0. -1.
       -1   -1    0    0    0  501  0.00000000000E+00  0.00000000000E+00 -0.16009347424E+04  0.16009347424E+04  0.50400001928E-02 0.  1.
    10030    2    1    2    0    0  0.00000000000E+00  0.00000000000E+00 -0.84568359225E+03  0.23561858925E+04  0.21991887645E+04 0.  0.
        2    1    3    3  502    0  0.20413614140E+03 -0.74455518222E+03  0.41604513648E+03  0.87699916715E+03  0.25500000920E-02 0. -1.
       -2    1    3    3    0  502 -0.20413614140E+03  0.74455518222E+03 -0.12617287287E+04  0.14791867254E+04  0.25500000920E-02 0.  1.
</event>
<event>
 5   0  0.2556869E-06  0.2198785E+04  0.7818609E-02  0.8518934E-01
       -2   -1    0    0    0  501  0.00000000000E+00  0.00000000000E+00  0.88189645619E+03  0.88189645619E+03  0.25500000920E-02 0. -1.
        2   -1    0    0  501    0  0.00000000000E+00  0.00000000000E+00 -0.13705286208E+04  0.13705286208E+04  0.25500000920E-02 0.  1.
    10030    2    1    2    0    0  0.00000000000E+00  0.00000000000E+00 -0.48863216463E+03  0.22524250770E+04  0.21987854227E+04 0.  0.
        5    1    3    3  502    0  0.46130225494E+03  0.78921202566E+02  0.77474543549E+03  0.90514137374E+03  0.46999998093E+01 0. -1.
       -5    1    3    3    0  502 -0.46130225494E+03 -0.78921202566E+02 -0.12633776001E+04  0.13472837033E+04  0.46999998093E+01 0.  1.
</event>
<event>
 5   0  0.2581058E-06  0.2199735E+04  0.7818609E-02  0.8518538E-01
       -2   -1    0    0    0  501  0.00000000000E+00  0.00000000000E+00  0.76170097055E+03  0.76170097055E+03  0.25500000920E-02 0.  1.
        2   -1    0    0  501    0  0.00000000000E+00  0.00000000000E+00 -0.15881674566E+04  0.15881674566E+04  0.25500000920E-02 0. -1.
    10030    2    1    2    0    0  0.00000000000E+00  0.00000000000E+00 -0.82646648602E+03  0.23498684271E+04  0.21997351596E+04 0.  0.
        1    1    3    3  502    0  0.16585804668E+03 -0.24689802205E+03  0.71792318358E+03  0.77709794910E+03  0.50400001928E-02 0.  1.
       -1    1    3    3    0  502 -0.16585804668E+03  0.24689802205E+03 -0.15443896696E+04  0.15727704780E+04  0.50400001928E-02 0. -1.
</event>
<event>
 5   0  0.1082209E-06  0.2200205E+04  0.7818609E-02  0.8518343E-01
        1   -1    0    0  501    0  0.00000000000E+00  0.00000000000E+00  0.11223878927E+04  0.11223878927E+04  0.50400001928E-02 0.  1.
       -1   -1    0    0    0  501  0.00000000000E+00  0.00000000000E+00 -0.10782596367E+04  0.10782596367E+04  0.50400001928E-02 0. -1.
    10030    2    1    2    0    0  0.00000000000E+00  0.00000000000E+00  0.44128256001E+02  0.22006475294E+04  0.22002050463E+04 0.  0.
        2    1    3    3  502    0 -0.95794982967E+03 -0.12454899492E+03  0.54852084742E+03  0.11108804834E+04  0.25500000920E-02 0. -1.
       -2    1    3    3    0  502  0.95794982967E+03  0.12454899492E+03 -0.50439259142E+03  0.10897670460E+04  0.25500000920E-02 0.  1.
</event>
<event>
 5   0  0.2581058E-06  0.2199062E+04  0.7818609E-02  0.8518819E-01
       -2   -1    0    0    0  501  0.00000000000E+00  0.00000000000E+00  0.12506761291E+04  0.12506761291E+04  0.25500000920E-02 0.  1.
        2   -1    0    0  501    0  0.00000000000E+00  0.00000000000E+00 -0.96665198628E+03  0.96665198629E+03  0.25500000920E-02 0. -1.
    10030    2    1    2    0    0  0.00000000000E+00  0.00000000000E+00  0.28402414278E+03  0.22173281153E+04  0.21990621313E+04 0.  0.
        1    1    3    3  502    0  0.46850684640E+02  0.76102182868E+03 -0.65679265834E+03  0.10063427877E+04  0.50400001928E-02 0. -1.
       -1    1    3    3    0  502 -0.46850684640E+02 -0.76102182868E+03  0.94081680112E+03  0.12109853276E+04  0.50400001928E-02 0.  1.
</event>
<event>
 5   0  0.1146827E-06  0.2199897E+04  0.7818609E-02  0.8518471E-01
        1   -1    0    0  501    0  0.00000000000E+00  0.00000000000E+00  0.12164618292E+04  0.12164618292E+04  0.50400001928E-02 0.  1.
       -1   -1    0    0    0  501  0.00000000000E+00  0.00000000000E+00 -0.99459532080E+03  0.99459532082E+03  0.50400001928E-02 0. -1.
    10030    2    1    2    0    0  0.00000000000E+00  0.00000000000E+00  0.22186650837E+03  0.22110571500E+04  0.21998974915E+04 0.  0.
        4    1    3    3  502    0  0.27673388390E+03  0.16100260795E+03 -0.94672723943E+03  0.99939859968E+03  0.12699999809E+01 0. -1.
       -4    1    3    3    0  502 -0.27673388390E+03 -0.16100260795E+03  0.11685937478E+04  0.12116585503E+04  0.12699999809E+01 0.  1.
</event>
<event>
 5   0  0.2532239E-06  0.2200997E+04  0.7818609E-02  0.8518013E-01
       -2   -1    0    0    0  501  0.00000000000E+00  0.00000000000E+00  0.10052089690E+04  0.10052089690E+04  0.25500000920E-02 0.  1.
        2   -1    0    0  501    0  0.00000000000E+00  0.00000000000E+00 -0.12048209334E+04  0.12048209334E+04  0.25500000920E-02 0. -1.
    10030    2    1    2    0    0  0.00000000000E+00  0.00000000000E+00 -0.19961196446E+03  0.22100299024E+04  0.22009968726E+04 0.  0.
        3    1    3    3  502    0  0.81981606614E+03  0.59983410239E+03  0.32524855437E+03  0.10666236286E+04  0.10100000352E+00 0.  1.
       -3    1    3    3    0  502 -0.81981606614E+03 -0.59983410239E+03 -0.52486051883E+03  0.11434062739E+04  0.10100000352E+00 0. -1.
</event>
<event>
 5   0  0.1146827E-06  0.2199901E+04  0.7818609E-02  0.8518470E-01
       -1   -1    0    0    0  501  0.00000000000E+00  0.00000000000E+00  0.86928110706E+03  0.86928110707E+03  0.50400001928E-02 0.  1.
        1   -1    0    0  501    0  0.00000000000E+00  0.00000000000E+00 -0.13918289260E+04  0.13918289260E+04  0.50400001928E-02 0. -1.
    10030    2    1    2    0    0  0.00000000000E+00  0.00000000000E+00 -0.52254781897E+03  0.22611100331E+04  0.21999005338E+04 0.  0.
        4    1    3    3  502    0  0.51427583719E+03  0.57403566731E+03  0.54534996459E+03  0.94414235200E+03  0.12699999809E+01 0.  1.
       -4    1    3    3    0  502 -0.51427583719E+03 -0.57403566731E+03 -0.10678977836E+04  0.13169676811E+04  0.12699999809E+01 0. -1.
</event>
<event>
 5   0  0.2532239E-06  0.2200488E+04  0.7818609E-02  0.8518225E-01
       -2   -1    0    0    0  501  0.00000000000E+00  0.00000000000E+00  0.11198760262E+04  0.11198760262E+04  0.25500000920E-02 0. -1.
        2   -1    0    0  501    0  0.00000000000E+00  0.00000000000E+00 -0.10809566142E+04  0.10809566142E+04  0.25500000920E-02 0.  1.
    10030    2    1    2    0    0  0.00000000000E+00  0.00000000000E+00  0.38919411961E+02  0.22008326403E+04  0.22004884890E+04 0.  0.
        3    1    3    3  502    0 -0.60176171384E+03 -0.82968008284E+03 -0.38066684204E+03  0.10933405027E+04  0.10100000352E+00 0.  1.
       -3    1    3    3    0  502  0.60176171384E+03  0.82968008284E+03  0.41958625400E+03  0.11074921376E+04  0.10100000352E+00 0. -1.
</event>
<event>
 5   0  0.2524749E-06  0.2199615E+04  0.7818609E-02  0.8518589E-01
        2   -1    0    0  501    0  0.00000000000E+00  0.00000000000E+00  0.89052016671E+03  0.89052016672E+03  0.25500000920E-02 0.  1.
       -2   -1    0    0    0  501  0.00000000000E+00  0.00000000000E+00 -0.13582804800E+04  0.13582804800E+04  0.25500000920E-02 0. -1.
    10030    2    1    2    0    0  0.00000000000E+00  0.00000000000E+00 -0.46776031332E+03  0.22488006468E+04  0.21996146567E+04 0.  0.
        4    1    3    3  502    0 -0.58250879854E+01  0.93810552736E+03 -0.82073563380E+03  0.12464688145E+04  0.12699999809E+01 0. -1.
       -4    1    3    3    0  502  0.58250879854E+01 -0.93810552736E+03  0.35297532048E+03  0.10023318322E+04  0.12699999809E+01 0.  1.
</event>
<event>
 5   0  0.2606154E-06  0.2199982E+04  0.7818609E-02  0.8518436E-01
       -2   -1    0    0    0  501  0.00000000000E+00  0.00000000000E+00  0.10958793678E+04  0.10958793678E+04  0.25500000920E-02 0. -1.
        2   -1    0    0  501    0  0.00000000000E+00  0.00000000000E+00 -0.11041176244E+04  0.11041176244E+04  0.25500000920E-02 0.  1.
    10030    2    1    2    0    0  0.00000000000E+00  0.00000000000E+00 -0.82382565630E+01  0.21999969922E+04  0.21999815674E+04 0.  0.
        2    1    3    3  502    0  0.28983738934E+03 -0.72148814188E+03 -0.78221768429E+03  0.11029122163E+04  0.25500000920E-02 0.  1.
       -2    1    3    3    0  502 -0.28983738934E+03  0.72148814188E+03  0.77397942773E+03  0.10970847760E+04  0.25500000920E-02 0. -1.
</event>
<event>
 5   0  0.2606154E-06  0.2199903E+04  0.7818609E-02  0.8518469E-01
       -2   -1    0    0    0  501  0.00000000000E+00  0.00000000000E+00  0.83023115439E+03  0.83023115439E+03  0.25500000920E-02 0.  1.
        2   -1    0    0  501    0  0.00000000000E+00  0.00000000000E+00 -0.14572964073E+04  0.14572964073E+04  0.25500000920E-02 0. -1.
    10030    2    1    2    0    0  0.00000000000E+00  0.00000000000E+00 -0.62706525293E+03  0.22875275617E+04  0.21999026147E+04 0.  0.
        2    1    3    3  502    0 -0.60485057075E+03  0.79176581031E+03  0.17102826928E+03  0.10109342116E+04  0.25500000920E-02 0.  1.
       -2    1    3    3    0  502  0.60485057075E+03 -0.79176581031E+03 -0.79809352222E+03  0.12765933501E+04  0.25500000920E-02 0. -1.
</event>
<event>
 5   0  0.1146827E-06  0.2203817E+04  0.7818609E-02  0.8516841E-01
        1   -1    0    0  501    0  0.00000000000E+00  0.00000000000E+00  0.12094609359E+04  0.12094609360E+04  0.50400001928E-02 0.  1.
       -1   -1    0    0    0  501  0.00000000000E+00  0.00000000000E+00 -0.10039202328E+04  0.10039202328E+04  0.50400001928E-02 0. -1.
    10030    2    1    2    0    0  0.00000000000E+00  0.00000000000E+00  0.20554070315E+03  0.22133811688E+04  0.22038169655E+04 0.  0.
        4    1    3    3  502    0  0.72933305496E+03 -0.35495185568E+03 -0.64631041754E+03  0.10371288703E+04  0.12699999809E+01 0. -1.
       -4    1    3    3    0  502 -0.72933305496E+03  0.35495185568E+03  0.85185112069E+03  0.11762522985E+04  0.12699999809E+01 0.  1.
</event>
<event>
 5   0  0.2606154E-06  0.2200706E+04  0.7818609E-02  0.8518134E-01
        2   -1    0    0  501    0  0.00000000000E+00  0.00000000000E+00  0.15792957093E+04  0.15792957093E+04  0.25500000920E-02 0.  1.
       -2   -1    0    0    0  501  0.00000000000E+00  0.00000000000E+00 -0.76665593593E+03  0.76665593593E+03  0.25500000920E-02 0. -1.
    10030    2    1    2    0    0  0.00000000000E+00  0.00000000000E+00  0.81263977338E+03  0.23459516452E+04  0.22007057324E+04 0.  0.
        2    1    3    3  502    0  0.46128802460E+03  0.99670056871E+03  0.33419521989E+03  0.11479917728E+04  0.25500000920E-02 0. -1.
       -2    1    3    3    0  502 -0.46128802460E+03 -0.99670056871E+03  0.47844455349E+03  0.11979598725E+04  0.25500000920E-02 0.  1.
</event>
<event>
 5   0  0.2556869E-06  0.2202067E+04  0.7818609E-02  0.8517568E-01
       -2   -1    0    0    0  501  0.00000000000E+00  0.00000000000E+00  0.74788593274E+03  0.74788593274E+03  0.25500000920E-02 0.  1.
        2   -1    0    0  501    0  0.00000000000E+00  0.00000000000E+00 -0.16209347487E+04  0.16209347487E+04  0.25500000920E-02 0. -1.
    10030    2    1    2    0    0  0.00000000000E+00  0.00000000000E+00 -0.87304881594E+03  0.23688206814E+04  0.22020665716E+04 0.  0.
        5    1    3    3  502    0 -0.31088857828E+03 -0.22034214392E+03  0.67468035436E+03  0.77486646530E+03  0.46999998093E+01 0.  1.
       -5    1    3    3    0  502  0.31088857828E+03  0.22034214392E+03 -0.15477291703E+04  0.15939542161E+04  0.46999998093E+01 0. -1.
</event>
<event>
 5   0  0.2556869E-06  0.2200971E+04  0.7818609E-02  0.8518024E-01
        2   -1    0    0  501    0  0.00000000000E+00  0.00000000000E+00  0.13415293330E+04  0.13415293330E+04  0.25500000920E-02 0. -1.
       -2   -1    0    0    0  501  0.00000000000E+00  0.00000000000E+00 -0.90275238783E+03  0.90275238783E+03  0.25500000920E-02 0.  1.
    10030    2    1    2    0    0  0.00000000000E+00  0.00000000000E+00  0.43877694518E+03  0.22442817208E+04  0.22009714298E+04 0.  0.
        5    1    3    3  502    0 -0.52820824982E+03 -0.91966324339E+03  0.51887234446E+03  0.11806926087E+04  0.46999998093E+01 0. -1.
       -5    1    3    3    0  502  0.52820824982E+03  0.91966324339E+03 -0.80095399286E+02  0.10635891121E+04  0.46999998093E+01 0.  1.
</event>
<event>
 5   0  0.2532239E-06  0.2201307E+04  0.7818609E-02  0.8517884E-01
        2   -1    0    0  501    0  0.00000000000E+00  0.00000000000E+00  0.17735484036E+04  0.17735484036E+04  0.25500000920E-02 0.  1.
       -2   -1    0    0    0  501  0.00000000000E+00  0.00000000000E+00 -0.68305883492E+03  0.68305883493E+03  0.25500000920E-02 0. -1.
    10030    2    1    2    0    0  0.00000000000E+00  0.00000000000E+00  0.10904895687E+04  0.24566072385E+04  0.22013067994E+04 0.  0.
        3    1    3    3  502    0 -0.85549085029E+03 -0.44201747221E+03  0.11401701607E+04  0.14923913850E+04  0.10100000352E+00 0.  1.
       -3    1    3    3    0  502  0.85549085029E+03  0.44201747221E+03 -0.49680591999E+02  0.96421585348E+03  0.10100000352E+00 0. -1.
</event>
<event>
 5   0  0.1137869E-06  0.2199162E+04  0.7818609E-02  0.8518777E-01
        1   -1    0    0  501    0  0.00000000000E+00  0.00000000000E+00  0.13203410518E+04  0.13203410518E+04  0.50400001928E-02 0.  1.
       -1   -1    0    0    0  501  0.00000000000E+00  0.00000000000E+00 -0.91573226088E+03  0.91573226089E+03  0.50400001928E-02 0. -1.
    10030    2    1    2    0    0  0.00000000000E+00  0.00000000000E+00  0.40460879089E+03  0.22360733127E+04  0.21991624738E+04 0.  0.
        5    1    3    3  502    0  0.85802457478E+03 -0.64176936283E+03 -0.48787167277E+02  0.10726026122E+04  0.46999998093E+01 0. -1.
       -5    1    3    3    0  502 -0.85802457478E+03  0.64176936283E+03  0.45339595816E+03  0.11634707005E+04  0.46999998093E+01 0.  1.
</event>
<event>
 5   0  0.1107101E-06  0.2199913E+04  0.7818609E-02  0.8518464E-01
        1   -1    0    0  501    0  0.00000000000E+00  0.00000000000E+00  0.71614819416E+03  0.71614819417E+03  0.50400001928E-02 0. -1.
       -1   -1    0    0    0  501  0.00000000000E+00  0.00000000000E+00 -0.16894609863E+04  0.16894609863E+04  0.50400001928E-02 0.  1.
    10030    2    1    2    0    0  0.00000000000E+00  0.00000000000E+00 -0.97331279218E+03  0.24056091805E+04  0.21999131205E+04 0.  0.
        1    1    3    3  502    0  0.24473445181E+03 -0.42720210211E+03  0.58893368977E+03  0.76761935810E+03  0.50400001928E-02 0. -1.
       -1    1    3    3    0  502 -0.24473445181E+03  0.42720210211E+03 -0.15622464820E+04  0.16379898224E+04  0.50400001928E-02 0.  1.
</event>
<event>
 5   0  0.2532239E-06  0.2204036E+04  0.7818609E-02  0.8516750E-01
       -2   -1    0    0    0  501  0.00000000000E+00  0.00000000000E+00  0.19257089788E+04  0.19257089788E+04  0.25500000920E-02 0. -1.
        2   -1    0    0  501    0  0.00000000000E+00  0.00000000000E+00 -0.63064770423E+03  0.63064770424E+03  0.25500000920E-02 0.  1.
    10030    2    1    2    0    0  0.00000000000E+00  0.00000000000E+00  0.12950612745E+04  0.25563566830E+04  0.22040362488E+04 0.  0.
        3    1    3    3  502    0 -0.28942444698E+02  0.86547272313E+03 -0.14301170552E+03  0.87768619547E+03  0.10100000352E+00 0.  1.
       -3    1    3    3    0  502  0.28942444698E+02 -0.86547272313E+03  0.14380729801E+04  0.16786704876E+04  0.10100000352E+00 0. -1.
</event>
<event>
 5   0  0.1082209E-06  0.2195465E+04  0.7818609E-02  0.8520318E-01
        1   -1    0    0  501    0  0.00000000000E+00  0.00000000000E+00  0.24472634517E+04  0.24472634517E+04  0.50400001928E-02 0. -1.
       -1   -1    0    0    0  501  0.00000000000E+00  0.00000000000E+00 -0.49239344784E+03  0.49239344786E+03  0.50400001928E-02 0.  1.
    10030    2    1    2    0    0  0.00000000000E+00  0.00000000000E+00  0.19548700039E+04  0.29396568996E+04  0.21954648608E+04 0.  0.
        2    1    3    3  502    0  0.21493416378E+03  0.15419699505E+03 -0.44907994736E+03  0.52119689866E+03  0.25500000920E-02 0.  1.
       -2    1    3    3    0  502 -0.21493416378E+03 -0.15419699505E+03  0.24039499512E+04  0.24184600009E+04  0.25500000920E-02 0. -1.
</event>
<event>
 5   0  0.2524749E-06  0.2197685E+04  0.7818609E-02  0.8519392E-01
       -2   -1    0    0    0  501  0.00000000000E+00  0.00000000000E+00  0.60151018322E+03  0.60151018323E+03  0.25500000920E-02 0.  1.
        2   -1    0    0  501    0  0.00000000000E+00  0.00000000000E+00 -0.20073714992E+04  0.20073714992E+04  0.25500000920E-02 0. -1.
    10030    2    1    2    0    0  0.00000000000E+00  0.00000000000E+00 -0.14058613160E+04  0.26088816825E+04  0.21976845982E+04 0.  0.
        4    1    3    3  502    0  0.84566664328E+03 -0.48645350357E+02  0.12798694752E+03  0.85668005305E+03  0.12699999809E+01 0.  1.
       -4    1    3    3    0  502 -0.84566664328E+03  0.48645350357E+02 -0.15338482635E+04  0.17522016294E+04  0.12699999809E+01 0. -1.
</event>
<event>
 5   0  0.1146827E-06  0.2198772E+04  0.7818609E-02  0.8518939E-01
        1   -1    0    0  501    0  0.00000000000E+00  0.00000000000E+00  0.11190719537E+04  0.11190719537E+04  0.50400001928E-02 0. -1.
       -1   -1    0    0    0  501  0.00000000000E+00  0.00000000000E+00 -0.10800465064E+04  0.10800465064E+04  0.50400001928E-02 0.  1.
    10030    2    1    2    0    0  0.00000000000E+00  0.00000000000E+00  0.39025447267E+02  0.21991184601E+04  0.21987721610E+04 0.  0.
        4    1    3    3  502    0  0.18036138228E+03  0.62583034245E+03 -0.86632101505E+03  0.10838392684E+04  0.12699999809E+01 0.  1.
       -4    1    3    3    0  502 -0.18036138228E+03 -0.62583034245E+03  0.90534646232E+03  0.11152791917E+04  0.12699999809E+01 0. -1.
</event>
<event>
 5   0  0.2524749E-06  0.2199639E+04  0.7818609E-02  0.8518578E-01
       -2   -1    0    0    0  501  0.00000000000E+00  0.00000000000E+00  0.59830697556E+03  0.59830697557E+03  0.25500000920E-02 0.  1.
        2   -1    0    0  501    0  0.00000000000E+00  0.00000000000E+00 -0.20217091032E+04  0.20217091032E+04  0.25500000920E-02 0. -1.
    10030    2    1    2    0    0  0.00000000000E+00  0.00000000000E+00 -0.14234021277E+04  0.26200160788E+04  0.21996387513E+04 0.  0.
        4    1    3    3  502    0  0.86903026521E+03  0.59489969387E+03 -0.10892700331E+04  0.15151336791E+04  0.12699999809E+01 0. -1.
       -4    1    3    3    0  502 -0.86903026521E+03 -0.59489969387E+03 -0.33413209454E+03  0.11048823997E+04  0.12699999809E+01 0.  1.
</event>
<event>
 5   0  0.2581058E-06  0.2199883E+04  0.7818609E-02  0.8518477E-01
        2   -1    0    0  501    0  0.00000000000E+00  0.00000000000E+00  0.19039760409E+04  0.19039760409E+04  0.25500000920E-02 0. -1.
       -2   -1    0    0    0  501  0.00000000000E+00  0.00000000000E+00 -0.63544437543E+03  0.63544437544E+03  0.25500000920E-02 0.  1.
    10030    2    1    2    0    0  0.00000000000E+00  0.00000000000E+00  0.12685316655E+04  0.25394204163E+04  0.21998826025E+04 0.  0.
        1    1    3    3  502    0 -0.69323191482E+03 -0.51818345472E+03  0.14178485960E+04  0.16611379298E+04  0.50400001928E-02 0. -1.
       -1    1    3    3    0  502  0.69323191482E+03  0.51818345472E+03 -0.14931693052E+03  0.87828248658E+03  0.50400001928E-02 0.  1.
</event>
<event>
 5   0  0.2606154E-06  0.2198266E+04  0.7818609E-02  0.8519150E-01
        2   -1    0    0  501    0  0.00000000000E+00  0.00000000000E+00  0.15603302936E+04  0.15603302936E+04  0.25500000920E-02 0.  1.
       -2   -1    0    0    0  501  0.00000000000E+00  0.00000000000E+00 -0.77425465212E+03  0.77425465212E+03  0.25500000920E-02 0. -1.
    10030    2    1    2    0    0  0.00000000000E+00  0.00000000000E+00  0.78607564145E+03  0.23345849457E+04  0.21982656697E+04 0.  0.
        2    1    3    3  502    0 -0.10624386756E+04  0.27870297060E+03  0.35000727588E+03  0.11528037034E+04  0.25500000920E-02 0. -1.
       -2    1    3    3    0  502  0.10624386756E+04 -0.27870297060E+03  0.43606836557E+03  0.11817812423E+04  0.25500000920E-02 0.  1.
</event>
<event>
 5   0  0.1144271E-06  0.2200662E+04  0.7818609E-02  0.8518153E-01
       -1   -1    0    0    0  501  0.00000000000E+00  0.00000000000E+00  0.42533588871E+03  0.42533588874E+03  0.50400001928E-02 0.  1.
        1   -1    0    0  501    0  0.00000000000E+00  0.00000000000E+00 -0.28465219167E+04  0.28465219167E+04  0.50400001928E-02 0. -1.
    10030    2    1    2    0    0  0.00000000000E+00  0.00000000000E+00 -0.24211860280E+04  0.32718578055E+04  0.22006616543E+04 0.  0.
        3    1    3    3  502    0 -0.60157738432E+03 -0.91170794656E+03 -0.14079528431E+04  0.17819758550E+04  0.10100000352E+00 0. -1.
       -3    1    3    3    0  502  0.60157738432E+03  0.91170794656E+03 -0.10132331849E+04  0.14898819505E+04  0.10100000352E+00 0.  1.
</event>
<event>
 5   0  0.1107101E-06  0.2200190E+04  0.7818609E-02  0.8518349E-01
       -1   -1    0    0    0  501  0.00000000000E+00  0.00000000000E+00  0.24336138088E+04  0.24336138088E+04  0.50400001928E-02 0.  1.
        1   -1    0    0  501    0  0.00000000000E+00  0.00000000000E+00 -0.49728880617E+03  0.49728880620E+03  0.50400001928E-02 0. -1.
    10030    2    1    2    0    0  0.00000000000E+00  0.00000000000E+00  0.19363250027E+04  0.29309026150E+04  0.22001899061E+04 0.  0.
        1    1    3    3  502    0 -0.59325566973E+03  0.68117400261E+03  0.18045967458E+04  0.20180484946E+04  0.50400001928E-02 0.  1.
       -1    1    3    3    0  502  0.59325566973E+03 -0.68117400261E+03  0.13172825683E+03  0.91285412042E+03  0.50400001928E-02 0. -1.
</event>
<event>
 5   0  0.1082209E-06  0.2200222E+04  0.7818609E-02  0.8518336E-01
       -1   -1    0    0    0  501  0.00000000000E+00  0.00000000000E+00  0.19541303359E+04  0.19541303359E+04  0.50400001928E-02 0.  1.
        1   -1    0    0  501    0  0.00000000000E+00  0.00000000000E+00 -0.61932616123E+03  0.61932616125E+03  0.50400001928E-02 0. -1.
    10030    2    1    2    0    0  0.00000000000E+00  0.00000000000E+00  0.13348041747E+04  0.25734564972E+04  0.22002218429E+04 0.  0.
        2    1    3    3  502    0 -0.35995825913E+03 -0.47859688815E+03 -0.41197466102E+03  0.72687554023E+03  0.25500000920E-02 0. -1.
       -2    1    3    3    0  502  0.35995825913E+03  0.47859688815E+03  0.17467788357E+04  0.18465809569E+04  0.25500000920E-02 0.  1.
</event>
<event>
 5   0  0.2606154E-06  0.2201202E+04  0.7818609E-02  0.8517928E-01
       -2   -1    0    0    0  501  0.00000000000E+00  0.00000000000E+00  0.93120073218E+03  0.93120073219E+03  0.25500000920E-02 0. -1.
        2   -1    0    0  501    0  0.00000000000E+00  0.00000000000E+00 -0.13008173666E+04  0.13008173666E+04  0.25500000920E-02 0.  1.
    10030    2    1    2    0    0  0.00000000000E+00  0.00000000000E+00 -0.36961663445E+03  0.22320180988E+04  0.22012015666E+04 0.  0.
        2    1    3    3  502    0 -0.65237675338E+03  0.28611926916E+03 -0.10355188065E+04  0.12568845863E+04  0.25500000920E-02 0.  1.
       -2    1    3    3    0  502  0.65237675338E+03 -0.28611926916E+03  0.66590217207E+03  0.97513351255E+03  0.25500000920E-02 0. -1.
</event>
<event>
 5   0  0.2556869E-06  0.2199415E+04  0.7818609E-02  0.8518672E-01
        2   -1    0    0  501    0  0.00000000000E+00  0.00000000000E+00  0.21486011025E+04  0.21486011025E+04  0.25500000920E-02 0.  1.
       -2   -1    0    0    0  501  0.00000000000E+00  0.00000000000E+00 -0.56285752133E+03  0.56285752134E+03  0.25500000920E-02 0. -1.
    10030    2    1    2    0    0  0.00000000000E+00  0.00000000000E+00  0.15857435811E+04  0.27114586238E+04  0.21994147320E+04 0.  0.
        5    1    3    3  502    0  0.52491048741E+03 -0.12262239307E+03 -0.38880452026E+03  0.66464901718E+03  0.46999998093E+01 0. -1.
       -5    1    3    3    0  502 -0.52491048741E+03  0.12262239307E+03  0.19745481014E+04  0.20468096066E+04  0.46999998093E+01 0.  1.
</event>
<event>
 5   0  0.1107101E-06  0.2200444E+04  0.7818609E-02  0.8518243E-01
        1   -1    0    0  501    0  0.00000000000E+00  0.00000000000E+00  0.10410040918E+04  0.10410040918E+04  0.50400001928E-02 0. -1.
       -1   -1    0    0    0  501  0.00000000000E+00  0.00000000000E+00 -0.11628089881E+04  0.11628089881E+04  0.50400001928E-02 0.  1.
    10030    2    1    2    0    0  0.00000000000E+00  0.00000000000E+00 -0.12180489631E+03  0.22038130799E+04  0.22004444229E+04 0.  0.
        1    1    3    3  502    0 -0.79420287834E+03  0.57943691392E+03  0.43380066014E+03  0.10745642661E+04  0.50400001928E-02 0. -1.
       -1    1    3    3    0  502  0.79420287834E+03 -0.57943691392E+03 -0.55560555645E+03  0.11292488138E+04  0.50400001928E-02 0.  1.
</event>
<event>
 5   0  0.2581058E-06  0.2201909E+04  0.7818609E-02  0.8517634E-01
       -2   -1    0    0    0  501  0.00000000000E+00  0.00000000000E+00  0.91036725669E+03  0.91036725669E+03  0.25500000920E-02 0. -1.
        2   -1    0    0  501    0  0.00000000000E+00  0.00000000000E+00 -0.13314411847E+04  0.13314411847E+04  0.25500000920E-02 0.  1.
    10030    2    1    2    0    0  0.00000000000E+00  0.00000000000E+00 -0.42107392797E+03  0.22418084413E+04  0.22019086800E+04 0.  0.
        1    1    3    3  502    0  0.87548449125E+03 -0.25155653530E+03  0.41900959562E+03  0.10026578809E+04  0.50400001928E-02 0. -1.
       -1    1    3    3    0  502 -0.87548449125E+03  0.25155653530E+03 -0.84008352358E+03  0.12391505605E+04  0.50400001928E-02 0.  1.
</event>
<event>
 5   0  0.1107101E-06  0.2199765E+04  0.7818609E-02  0.8518526E-01
        1   -1    0    0  501    0  0.00000000000E+00  0.00000000000E+00  0.58881829541E+03  0.58881829543E+03  0.50400001928E-02 0. -1.
       -1   -1    0    0    0  501  0.00000000000E+00  0.00000000000E+00 -0.20545242500E+04  0.20545242500E+04  0.50400001928E-02 0.  1.
    10030    2    1    2    0    0  0.00000000000E+00  0.00000000000E+00 -0.14657059546E+04  0.26433425454E+04  0.21997649573E+04 0.  0.
        1    1    3    3  502    0  0.36944974251E+03 -0.86202457886E+03 -0.14233164320E+04  0.17045260786E+04  0.50400001928E-02 0.  1.
       -1    1    3    3    0  502 -0.36944974251E+03  0.86202457886E+03 -0.42389522552E+02  0.93881646686E+03  0.50400001928E-02 0. -1.
</event>
<event>
 5   0  0.2556869E-06  0.2200408E+04  0.7818609E-02  0.8518258E-01
       -2   -1    0    0    0  501  0.00000000000E+00  0.00000000000E+00  0.78563995692E+03  0.78563995692E+03  0.25500000920E-02 0.  1.
        2   -1    0    0  501    0  0.00000000000E+00  0.00000000000E+00 -0.15407175434E+04  0.15407175434E+04  0.25500000920E-02 0. -1.
    10030    2    1    2    0    0  0.00000000000E+00  0.00000000000E+00 -0.75507758647E+03  0.23263575003E+04  0.22004083843E+04 0.  0.
        5    1    3    3  502    0  0.91104328744E+03 -0.51884709808E+03 -0.73013233639E+03  0.12776218147E+04  0.46999998093E+01 0. -1.
       -5    1    3    3    0  502 -0.91104328744E+03  0.51884709808E+03 -0.24945250083E+02  0.10487356856E+04  0.46999998093E+01 0.  1.
</event>
<event>
 5   0  0.2581058E-06  0.2203119E+04  0.7818609E-02  0.8517131E-01
       -2   -1    0    0    0  501  0.00000000000E+00  0.00000000000E+00  0.66093410124E+03  0.66093410124E+03  0.25500000920E-02 0.  1.
        2   -1    0    0  501    0  0.00000000000E+00  0.00000000000E+00 -0.18359363199E+04  0.18359363199E+04  0.25500000920E-02 0. -1.
    10030    2    1    2    0    0  0.00000000000E+00  0.00000000000E+00 -0.11750022187E+04  0.24968704212E+04  0.22031186274E+04 0.  0.
        1    1    3    3  502    0  0.30163625945E+03  0.96997790698E+03 -0.10704550332E+04  0.14757084913E+04  0.50400001928E-02 0. -1.
       -1    1    3    3    0  502 -0.30163625945E+03 -0.96997790698E+03 -0.10454718546E+03  0.10211619299E+04  0.50400001928E-02 0.  1.
</event>
<event>
 5   0  0.2556869E-06  0.2199996E+04  0.7818609E-02  0.8518430E-01
       -2   -1    0    0    0  501  0.00000000000E+00  0.00000000000E+00  0.10287133795E+04  0.10287133795E+04  0.25500000920E-02 0. -1.
        2   -1    0    0  501    0  0.00000000000E+00  0.00000000000E+00 -0.11762224962E+04  0.11762224962E+04  0.25500000920E-02 0.  1.
    10030    2    1    2    0    0  0.00000000000E+00  0.00000000000E+00 -0.14750911663E+03  0.22049358757E+04  0.21999961992E+04 0.  0.
        5    1    3    3  502    0  0.51471598950E+03 -0.61583931950E+03  0.68011988925E+03  0.10520341112E+04  0.46999998093E+01 0. -1.
       -5    1    3    3    0  502 -0.51471598950E+03  0.61583931950E+03 -0.82762900588E+03  0.11529017645E+04  0.46999998093E+01 0.  1.
</event>
<event>
 5   0  0.2556869E-06  0.2199409E+04  0.7818609E-02  0.8518674E-01
        2   -1    0    0  501    0  0.00000000000E+00  0.00000000000E+00  0.66154918918E+03  0.66154918919E+03  0.25500000920E-02 0.  1.
       -2   -1    0    0    0  501  0.00000000000E+00  0.00000000000E+00 -0.18280571414E+04  0.18280571414E+04  0.25500000920E-02 0. -1.
    10030    2    1    2    0    0  0.00000000000E+00  0.00000000000E+00 -0.11665079522E+04  0.24896063305E+04  0.21994087566E+04 0.  0.
        5    1    3    3  502    0  0.10244064535E+04 -0.38384609909E+03 -0.71021958649E+03  0.13042930502E+04  0.46999998093E+01 0. -1.
       -5    1    3    3    0  502 -0.10244064535E+04  0.38384609909E+03 -0.45628836569E+03  0.11853132803E+04  0.46999998093E+01 0.  1.
</event>
<event>
 5   0  0.1082209E-06  0.2200955E+04  0.7818609E-02  0.8518031E-01
       -1   -1    0    0    0  501  0.00000000000E+00  0.00000000000E+00  0.96406064022E+03  0.96406064023E+03  0.50400001928E-02 0.  1.
        1   -1    0    0  501    0  0.00000000000E+00  0.00000000000E+00 -0.12561977820E+04  0.12561977820E+04  0.50400001928E-02 0. -1.
    10030    2    1    2    0    0  0.00000000000E+00  0.00000000000E+00 -0.29213714178E+03  0.22202584222E+04  0.22009550999E+04 0.  0.
        2    1    3    3  502    0 -0.23593126299E+02 -0.55698826301E+03 -0.11032095373E+04  0.12360678962E+04  0.25500000920E-02 0. -1.
       -2    1    3    3    0  502  0.23593126299E+02  0.55698826301E+03  0.81107239555E+03  0.98419052605E+03  0.25500000920E-02 0.  1.
</event>
<event>
 5   0  0.2532239E-06  0.2199698E+04  0.7818609E-02  0.8518554E-01
       -2   -1    0    0    0  501  0.00000000000E+00  0.00000000000E+00  0.11304896241E+04  0.11304896241E+04  0.25500000920E-02 0. -1.
        2   -1    0    0  501    0  0.00000000000E+00  0.00000000000E+00 -0.10700389805E+04  0.10700389805E+04  0.25500000920E-02 0.  1.
    10030    2    1    2    0    0  0.00000000000E+00  0.00000000000E+00  0.60450643648E+02  0.22005286046E+04  0.21996981291E+04 0.  0.
        3    1    3    3  502    0 -0.98172652758E+03 -0.21306179292E+03 -0.41769996614E+03  0.10879593625E+04  0.10100000352E+00 0. -1.
       -3    1    3    3    0  502  0.98172652758E+03  0.21306179292E+03  0.47815060979E+03  0.11125692421E+04  0.10100000352E+00 0.  1.
</event>
<event>
 5   0  0.1082209E-06  0.2198961E+04  0.7818609E-02  0.8518861E-01
       -1   -1    0    0    0  501  0.00000000000E+00  0.00000000000E+00  0.13606182960E+04  0.13606182960E+04  0.50400001928E-02 0.  1.
        1   -1    0    0  501    0  0.00000000000E+00  0.00000000000E+00 -0.88846138940E+03  0.88846138941E+03  0.50400001928E-02 0. -1.
    10030    2    1    2    0    0  0.00000000000E+00  0.00000000000E+00  0.47215690657E+03  0.22490796854E+04  0.21989605014E+04 0.  0.
        2    1    3    3  502    0  0.70206604201E+03 -0.33743262759E+03 -0.55755776933E+03  0.95792910576E+03  0.25500000920E-02 0. -1.
       -2    1    3    3    0  502 -0.70206604201E+03  0.33743262759E+03  0.10297146759E+04  0.12911505796E+04  0.25500000920E-02 0.  1.
</event>
<event>
 5   0  0.2524749E-06  0.2204501E+04  0.7818609E-02  0.8516557E-01
       -2   -1    0    0    0  501  0.00000000000E+00  0.00000000000E+00  0.87349936737E+03  0.87349936737E+03  0.25500000920E-02 0. -1.
        2   -1    0    0  501    0  0.00000000000E+00  0.00000000000E+00 -0.13909061779E+04  0.13909061779E+04  0.25500000920E-02 0.  1.
    10030    2    1    2    0    0  0.00000000000E+00  0.00000000000E+00 -0.51740681049E+03  0.22644055452E+04  0.22045005479E+04 0.  0.
        4    1    3    3  502    0 -0.87578735024E+03  0.66627866411E+03 -0.19355018595E+03  0.11173155456E+04  0.12699999809E+01 0. -1.
       -4    1    3    3    0  502  0.87578735024E+03 -0.66627866411E+03 -0.32385662454E+03  0.11470899996E+04  0.12699999809E+01 0.  1.
</event>
<event>
 5   0  0.1144271E-06  0.2199573E+04  0.7818609E-02  0.8518606E-01
        1   -1    0    0  501    0  0.00000000000E+00  0.00000000000E+00  0.79107923778E+03  0.79107923780E+03  0.50400001928E-02 0. -1.
       -1   -1    0    0    0  501  0.00000000000E+00  0.00000000000E+00 -0.15289627913E+04  0.15289627913E+04  0.50400001928E-02 0.  1.
    10030    2    1    2    0    0  0.00000000000E+00  0.00000000000E+00 -0.73788355355E+03  0.23200420291E+04  0.21995733401E+04 0.  0.
        3    1    3    3  502    0 -0.70329791101E+03 -0.27859280876E+03  0.47308431655E+03  0.89221672563E+03  0.10100000352E+00 0. -1.
       -3    1    3    3    0  502  0.70329791101E+03  0.27859280876E+03 -0.12109678701E+04  0.14278253035E+04  0.10100000352E+00 0.  1.
</event>
<event>
 5   0  0.2532239E-06  0.2198936E+04  0.7818609E-02  0.8518871E-01
        2   -1    0    0  501    0  0.00000000000E+00  0.00000000000E+00  0.16304792867E+04  0.16304792867E+04  0.25500000920E-02 0. -1.
       -2   -1    0    0    0  501  0.00000000000E+00  0.00000000000E+00 -0.74139574152E+03  0.74139574152E+03  0.25500000920E-02 0.  1.
    10030    2    1    2    0    0  0.00000000000E+00  0.00000000000E+00  0.88908354514E+03  0.23718750282E+04  0.21989364700E+04 0.  0.
        3    1    3    3  502    0 -0.11004219394E+02 -0.18462485582E+03  0.16135790590E+04  0.16241443347E+04  0.10100000352E+00 0. -1.
       -3    1    3    3    0  502  0.11004219394E+02  0.18462485582E+03 -0.72449551382E+03  0.74773069348E+03  0.10100000352E+00 0.  1.
</event>
<event>
 5   0  0.1146827E-06  0.2200287E+04  0.7818609E-02  0.8518309E-01
        1   -1    0    0  501    0  0.00000000000E+00  0.00000000000E+00  0.21592975506E+04  0.21592975506E+04  0.50400001928E-02 0. -1.
       -1   -1    0    0    0  501  0.00000000000E+00  0.00000000000E+00 -0.56051352339E+03  0.56051352341E+03  0.50400001928E-02 0.  1.
    10030    2    1    2    0    0  0.00000000000E+00  0.00000000000E+00  0.15987840272E+04  0.27198110740E+04  0.22002867796E+04 0.  0.
        4    1    3    3  502    0  0.10610655161E+04  0.15262675293E+03  0.49369632266E+03  0.11802087218E+04  0.12699999809E+01 0.  1.
       -4    1    3    3    0  502 -0.10610655161E+04 -0.15262675293E+03  0.11050877045E+04  0.15396023521E+04  0.12699999809E+01 0. -1.
</event>
<event>
 5   0  0.2581058E-06  0.2199353E+04  0.7818609E-02  0.8518697E-01
        2   -1    0    0  501    0  0.00000000000E+00  0.00000000000E+00  0.14115053579E+04  0.14115053579E+04  0.25500000920E-02 0. -1.
       -2   -1    0    0    0  501  0.00000000000E+00  0.00000000000E+00 -0.85673671562E+03  0.85673671563E+03  0.25500000920E-02 0.  1.
    10030    2    1    2    0    0  0.00000000000E+00  0.00000000000E+00  0.55476864231E+03  0.22682420736E+04  0.21993530544E+04 0.  0.
        1    1    3    3  502    0  0.86833595827E+03 -0.34721848064E+03  0.87405621040E+03  0.12800555725E+04  0.50400001928E-02 0. -1.
       -1    1    3    3    0  502 -0.86833595827E+03  0.34721848064E+03 -0.31928756810E+03  0.98818650106E+03  0.50400001928E-02 0.  1.
</event>
<event>
 5   0  0.1137869E-06  0.2199812E+04  0.7818609E-02  0.8518507E-01
        1   -1    0    0  501    0  0.00000000000E+00  0.00000000000E+00  0.14364301278E+04  0.14364301278E+04  0.50400001928E-02 0. -1.
       -1   -1    0    0    0  501  0.00000000000E+00  0.00000000000E+00 -0.84222182805E+03  0.84222182806E+03  0.50400001928E-02 0.  1.
    10030    2    1    2    0    0  0.00000000000E+00  0.00000000000E+00  0.59420829974E+03  0.22786519559E+04  0.21998116357E+04 0.  0.
        5    1    3    3  502    0 -0.40253146828E+03  0.59843473400E+03  0.11572970462E+04  0.13636400760E+04  0.46999998093E+01 0. -1.
       -5    1    3    3    0  502  0.40253146828E+03 -0.59843473400E+03 -0.56308874647E+03  0.91501187982E+03  0.46999998093E+01 0.  1.
</event>
<event>
 5   0  0.1146827E-06  0.2200188E+04  0.7818609E-02  0.8518350E-01
       -1   -1    0    0    0  501  0.00000000000E+00  0.00000000000E+00  0.11386216560E+04  0.11386216560E+04  0.50400001928E-02 0. -1.
        1   -1    0    0  501    0  0.00000000000E+00  0.00000000000E+00 -0.10628697959E+04  0.10628697959E+04  0.50400001928E-02 0.  1.
    10030    2    1    2    0    0  0.00000000000E+00  0.00000000000E+00  0.75751860149E+02  0.22014914520E+04  0.22001877803E+04 0.  0.
        4    1    3    3  502    0  0.63412571359E+03  0.14622032573E+03 -0.84961588381E+03  0.10702077215E+04  0.12699999809E+01 0.  1.
       -4    1    3    3    0  502 -0.63412571359E+03 -0.14622032573E+03  0.92536774395E+03  0.11312837304E+04  0.12699999809E+01 0. -1.
</event>
<event>
 5   0  0.2532239E-06  0.2199296E+04  0.7818609E-02  0.8518721E-01
        2   -1    0    0  501    0  0.00000000000E+00  0.00000000000E+00  0.72095292530E+03  0.72095292530E+03  0.25500000920E-02 0.  1.
       -2   -1    0    0    0  501  0.00000000000E+00  0.00000000000E+00 -0.16772605116E+04  0.16772605116E+04  0.25500000920E-02 0. -1.
    10030    2    1    2    0    0  0.00000000000E+00  0.00000000000E+00 -0.95630758634E+03  0.23982134369E+04  0.21992961350E+04 0.  0.
        3    1    3    3  502    0  0.72053780717E+03 -0.28697262072E+03  0.37190305273E+03  0.86013946976E+03  0.10100000352E+00 0.  1.
       -3    1    3    3    0  502 -0.72053780717E+03  0.28697262072E+03 -0.13282106391E+04  0.15380739672E+04  0.10100000352E+00 0. -1.
</event>
<event>
 5   0  0.1137869E-06  0.2199235E+04  0.7818609E-02  0.8518747E-01
       -1   -1    0    0    0  501  0.00000000000E+00  0.00000000000E+00  0.62855707059E+03  0.62855707061E+03  0.50400001928E-02 0.  1.
        1   -1    0    0  501    0  0.00000000000E+00  0.00000000000E+00 -0.19237056035E+04  0.19237056035E+04  0.50400001928E-02 0. -1.
    10030    2    1    2    0    0  0.00000000000E+00  0.00000000000E+00 -0.12951485329E+04  0.25522626741E+04  0.21992351023E+04 0.  0.
        5    1    3    3  502    0 -0.66681924282E+03 -0.22127526958E+03 -0.16292463176E+04  0.17742819113E+04  0.46999998093E+01 0. -1.
       -5    1    3    3    0  502  0.66681924282E+03  0.22127526958E+03  0.33409778468E+03  0.77798076277E+03  0.46999998093E+01 0.  1.
</event>
<event>
 5   0  0.1144271E-06  0.2194628E+04  0.7818609E-02  0.8520667E-01
        1   -1    0    0  501    0  0.00000000000E+00  0.00000000000E+00  0.15592088362E+04  0.15592088362E+04  0.50400001928E-02 0.  1.
       -1   -1    0    0    0  501  0.00000000000E+00  0.00000000000E+00 -0.77224959912E+03  0.77224959914E+03  0.50400001928E-02 0. -1.
    10030    2    1    2    0    0  0.00000000000E+00  0.00000000000E+00  0.78695923705E+03  0.23314584353E+04  0.21946283500E+04 0.  0.
        3    1    3    3  502    0  0.78760945058E+03 -0.18965102234E+03 -0.39280284707E+03  0.90032785349E+03  0.10100000352E+00 0. -1.
       -3    1    3    3    0  502 -0.78760945058E+03  0.18965102234E+03  0.11797620841E+04  0.14311305818E+04  0.10100000352E+00 0.  1.
</event>
<event>
 5   0  0.1082209E-06  0.2199310E+04  0.7818609E-02  0.8518716E-01
       -1   -1    0    0    0  501  0.00000000000E+00  0.00000000000E+00  0.52284360477E+03  0.52284360479E+03  0.50400001928E-02 0.  1.
        1   -1    0    0  501    0  0.00000000000E+00  0.00000000000E+00 -0.23128153387E+04  0.23128153387E+04  0.50400001928E-02 0. -1.
    10030    2    1    2    0    0  0.00000000000E+00  0.00000000000E+00 -0.17899717340E+04  0.28356589435E+04  0.21993096270E+04 0.  0.
        2    1    3    3  502    0 -0.15318724954E+03 -0.35380935632E+03  0.43284286756E+03  0.57965536489E+03  0.25500000920E-02 0.  1.
       -2    1    3    3    0  502  0.15318724954E+03  0.35380935632E+03 -0.22228146015E+04  0.22560035786E+04  0.25500000920E-02 0. -1.
</event>
<event>
 5   0  0.2606154E-06  0.2200010E+04  0.7818609E-02  0.8518424E-01
       -2   -1    0    0    0  501  0.00000000000E+00  0.00000000000E+00  0.65313312308E+03  0.65313312308E+03  0.25500000920E-02 0. -1.
        2   -1    0    0  501    0  0.00000000000E+00  0.00000000000E+00 -0.18526245506E+04  0.18526245506E+04  0.25500000920E-02 0.  1.
    10030    2    1    2    0    0  0.00000000000E+00  0.00000000000E+00 -0.11994914275E+04  0.25057576736E+04  0.22000095078E+04 0.  0.
        2    1    3    3  502    0 -0.89169134046E+03 -0.59245725105E+03 -0.31184961920E+03  0.11150646734E+04  0.25500000920E-02 0. -1.
       -2    1    3    3    0  502  0.89169134046E+03  0.59245725105E+03 -0.88764180828E+03  0.13906930002E+04  0.25500000920E-02 0.  1.
</event>
<event>
 5   0  0.1082209E-06  0.2199365E+04  0.7818609E-02  0.8518692E-01
       -1   -1    0    0    0  501  0.00000000000E+00  0.00000000000E+00  0.96285365674E+03  0.96285365676E+03  0.50400001928E-02 0.  1.
        1   -1    0    0  501    0  0.00000000000E+00  0.00000000000E+00 -0.12559562477E+04  0.12559562477E+04  0.50400001928E-02 0. -1.
    10030    2    1    2    0    0  0.00000000000E+00  0.00000000000E+00 -0.29310259091E+03  0.22188099044E+04  0.21993654228E+04 0.  0.
        2    1    3    3  502    0  0.84835683567E+03  0.64349625762E+03 -0.42376293080E+03  0.11460243347E+04  0.25500000920E-02 0. -1.
       -2    1    3    3    0  502 -0.84835683567E+03 -0.64349625762E+03  0.13066033989E+03  0.10727855697E+04  0.25500000920E-02 0.  1.
</event>
<event>
 5   0  0.1082209E-06  0.2200210E+04  0.7818609E-02  0.8518341E-01
       -1   -1    0    0    0  501  0.00000000000E+00  0.00000000000E+00  0.84467303662E+03  0.84467303663E+03  0.50400001928E-02 0.  1.
        1   -1    0    0  501    0  0.00000000000E+00  0.00000000000E+00 -0.14327798892E+04  0.14327798892E+04  0.50400001928E-02 0. -1.
    10030    2    1    2    0    0  0.00000000000E+00  0.00000000000E+00 -0.58810685257E+03  0.22774529258E+04  0.22002095717E+04 0.  0.
        2    1    3    3  502    0 -0.62589260053E+03 -0.89839029294E+03 -0.40449444376E+03  0.11672456558E+04  0.25500000920E-02 0. -1.
       -2    1    3    3    0  502  0.62589260053E+03  0.89839029294E+03 -0.18361240881E+03  0.11102072701E+04  0.25500000920E-02 0.  1.
</event>
<event>
 5   0  0.1144271E-06  0.2200135E+04  0.7818609E-02  0.8518372E-01
       -1   -1    0    0    0  501  0.00000000000E+00  0.00000000000E+00  0.10763156283E+04  0.10763156283E+04  0.50400001928E-02 0. -1.
        1   -1    0    0  501    0  0.00000000000E+00  0.00000000000E+00 -0.11243432909E+04  0.11243432909E+04  0.50400001928E-02 0.  1.
    10030    2    1    2    0    0  0.00000000000E+00  0.00000000000E+00 -0.48027662666E+02  0.22006589192E+04  0.22001347737E+04 0.  0.
        3    1    3    3  502    0 -0.86788785405E+03  0.64835431551E+03 -0.21525456792E+03  0.11045031394E+04  0.10100000352E+00 0. -1.
       -3    1    3    3    0  502  0.86788785405E+03 -0.64835431551E+03  0.16722690525E+03  0.10961557798E+04  0.10100000352E+00 0.  1.
</event>
<event>
 5   0  0.2581058E-06  0.2198516E+04  0.7818609E-02  0.8519046E-01
       -2   -1    0    0    0  501  0.00000000000E+00  0.00000000000E+00  0.89175992263E+03  0.89175992263E+03  0.25500000920E-02 0.  1.
        2   -1    0    0  501    0  0.00000000000E+00  0.00000000000E+00 -0.13550373007E+04  0.13550373007E+04  0.25500000920E-02 0. -1.
    10030    2    1    2    0    0  0.00000000000E+00  0.00000000000E+00 -0.46327737804E+03  0.22467972233E+04  0.21985158252E+04 0.  0.
        1    1    3    3  502    0  0.77386879972E+02 -0.37974881850E+03  0.81962585672E+03  0.90663357503E+03  0.50400001928E-02 0.  1.
       -1    1    3    3    0  502 -0.77386879972E+02  0.37974881850E+03 -0.12829032348E+04  0.13401636483E+04  0.50400001928E-02 0. -1.
</event>
<event>
 5   0  0.2524749E-06  0.2200182E+04  0.7818609E-02  0.8518352E-01
        2   -1    0    0  501    0  0.00000000000E+00  0.00000000000E+00  0.17258132027E+04  0.17258132027E+04  0.25500000920E-02 0. -1.
       -2   -1    0    0    0  501  0.00000000000E+00  0.00000000000E+00 -0.70123455158E+03  0.70123455158E+03  0.25500000920E-02 0.  1.
    10030    2    1    2    0    0  0.00000000000E+00  0.00000000000E+00  0.10245786511E+04  0.24270477542E+04  0.22001816718E+04 0.  0.
        4    1    3    3  502    0  0.50062622662E+03 -0.88291417786E+03  0.44233936897E+02  0.10159342096E+04  0.12699999809E+01 0.  1.
       -4    1    3    3    0  502 -0.50062622662E+03  0.88291417786E+03  0.98034471419E+03  0.14111135446E+04  0.12699999809E+01 0. -1.
</event>
<event>
 5   0  0.1107101E-06  0.2200156E+04  0.7818609E-02  0.8518363E-01
        1   -1    0    0  501    0  0.00000000000E+00  0.00000000000E+00  0.13609151095E+04  0.13609151095E+04  0.50400001928E-02 0.  1.
       -1   -1    0    0    0  501  0.00000000000E+00  0.00000000000E+00 -0.88923372404E+03  0.88923372405E+03  0.50400001928E-02 0. -1.
    10030    2    1    2    0    0  0.00000000000E+00  0.00000000000E+00  0.47168138543E+03  0.22501488335E+04  0.22001560044E+04 0.  0.
        1    1    3    3  502    0 -0.61776557895E+03 -0.43824785487E+03 -0.58008164911E+03  0.95403889464E+03  0.50400001928E-02 0. -1.
       -1    1    3    3    0  502  0.61776557895E+03  0.43824785487E+03  0.10517630345E+04  0.12961099389E+04  0.50400001928E-02 0.  1.
</event>
<event>
 5   0  0.2581058E-06  0.2197342E+04  0.7818609E-02  0.8519535E-01
        2   -1    0    0  501    0  0.00000000000E+00  0.00000000000E+00  0.23157460760E+04  0.23157460760E+04  0.25500000920E-02 0. -1.
       -2   -1    0    0    0  501  0.00000000000E+00  0.00000000000E+00 -0.52124804507E+03  0.52124804508E+03  0.25500000920E-02 0.  1.
    10030    2    1    2    0    0  0.00000000000E+00  0.00000000000E+00  0.17944980309E+04  0.28369941211E+04  0.21973421354E+04 0.  0.
        1    1    3    3  502    0  0.27568157856E+03 -0.55867954954E+03  0.20656468852E+04  0.21575495883E+04  0.50400001928E-02 0. -1.
       -1    1    3    3    0  502 -0.27568157856E+03  0.55867954954E+03 -0.27114885429E+03  0.67944453272E+03  0.50400001928E-02 0.  1.
</event>
<event>
 5   0  0.2524749E-06  0.2199544E+04  0.7818609E-02  0.8518618E-01
        2   -1    0    0  501    0  0.00000000000E+00  0.00000000000E+00  0.91713536324E+03  0.91713536325E+03  0.25500000920E-02 0. -1.
       -2   -1    0    0    0  501  0.00000000000E+00  0.00000000000E+00 -0.13187782589E+04  0.13187782589E+04  0.25500000920E-02 0.  1.
    10030    2    1    2    0    0  0.00000000000E+00  0.00000000000E+00 -0.40164289568E+03  0.22359136222E+04  0.21995437505E+04 0.  0.
        4    1    3    3  502    0 -0.10912686708E+04 -0.12094274424E+03 -0.26512969640E+03  0.11295086666E+04  0.12699999809E+01 0. -1.
       -4    1    3    3    0  502  0.10912686708E+04  0.12094274424E+03 -0.13651319928E+03  0.11064049555E+04  0.12699999809E+01 0.  1.
</event>
<event>
 5   0  0.2556869E-06  0.2200399E+04  0.7818609E-02  0.8518262E-01
       -2   -1    0    0    0  501  0.00000000000E+00  0.00000000000E+00  0.74882735452E+03  0.74882735453E+03  0.25500000920E-02 0.  1.
        2   -1    0    0  501    0  0.00000000000E+00  0.00000000000E+00 -0.16164461445E+04  0.16164461445E+04  0.25500000920E-02 0. -1.
    10030    2    1    2    0    0  0.00000000000E+00  0.00000000000E+00 -0.86761879003E+03  0.23652734991E+04  0.22003991367E+04 0.  0.
        5    1    3    3  502    0 -0.24234682590E+03 -0.86927883402E+03  0.24266140630E+03  0.93449682900E+03  0.46999998093E+01 0.  1.
       -5    1    3    3    0  502  0.24234682590E+03  0.86927883402E+03 -0.11102801963E+04  0.14307766701E+04  0.46999998093E+01 0. -1.
</event>
<event>
 5   0  0.2581058E-06  0.2198993E+04  0.7818609E-02  0.8518847E-01
        2   -1    0    0  501    0  0.00000000000E+00  0.00000000000E+00  0.12852451482E+04  0.12852451482E+04  0.25500000920E-02 0. -1.
       -2   -1    0    0    0  501  0.00000000000E+00  0.00000000000E+00 -0.94059281642E+03  0.94059281642E+03  0.25500000920E-02 0.  1.
    10030    2    1    2    0    0  0.00000000000E+00  0.00000000000E+00  0.34465233176E+03  0.22258379646E+04  0.21989928183E+04 0.  0.
        1    1    3    3  502    0  0.73550911982E+02 -0.10964080977E+04  0.20981751168E+03  0.11187242026E+04  0.50400001928E-02 0.  1.
       -1    1    3    3    0  502 -0.73550911982E+02  0.10964080977E+04  0.13483482008E+03  0.11071137620E+04  0.50400001928E-02 0. -1.
</event>
<event>
 5   0  0.2556869E-06  0.2201177E+04  0.7818609E-02  0.8517938E-01
        2   -1    0    0  501    0  0.00000000000E+00  0.00000000000E+00  0.12162690516E+04  0.12162690516E+04  0.25500000920E-02 0.  1.
       -2   -1    0    0    0  501  0.00000000000E+00  0.00000000000E+00 -0.99591045976E+03  0.99591045976E+03  0.25500000920E-02 0. -1.
    10030    2    1    2    0    0  0.00000000000E+00  0.00000000000E+00  0.22035859188E+03  0.22121795114E+04  0.22011770219E+04 0.  0.
        5    1    3    3  502    0  0.56475666845E+03 -0.42777673739E+03 -0.73624777247E+03  0.10217758580E+04  0.46999998093E+01 0. -1.
       -5    1    3    3    0  502 -0.56475666845E+03  0.42777673739E+03  0.95660636436E+03  0.11904036534E+04  0.46999998093E+01 0.  1.
</event>
<event>
 5   0  0.2581058E-06  0.2200180E+04  0.7818609E-02  0.8518353E-01
       -2   -1    0    0    0  501  0.00000000000E+00  0.00000000000E+00  0.10030661335E+04  0.10030661335E+04  0.25500000920E-02 0.  1.
        2   -1    0    0  501    0  0.00000000000E+00  0.00000000000E+00 -0.12064991873E+04  0.12064991873E+04  0.25500000920E-02 0. -1.
    10030    2    1    2    0    0  0.00000000000E+00  0.00000000000E+00 -0.20343305376E+03  0.22095653208E+04  0.22001804243E+04 0.  0.
        1    1    3    3  502    0  0.25568212596E+03 -0.22421240582E+03  0.94895540273E+03  0.10080480687E+04  0.50400001928E-02 0.  1.
       -1    1    3    3    0  502 -0.25568212596E+03  0.22421240582E+03 -0.11523884565E+04  0.12015172521E+04  0.50400001928E-02 0. -1.
</event>
<event>
 5   0  0.1146827E-06  0.2200089E+04  0.7818609E-02  0.8518391E-01
        1   -1    0    0  501    0  0.00000000000E+00  0.00000000000E+00  0.23781391781E+04  0.23781391781E+04  0.50400001928E-02 0.  1.
       -1   -1    0    0    0  501  0.00000000000E+00  0.00000000000E+00 -0.50884229656E+03  0.50884229658E+03  0.50400001928E-02 0. -1.
    10030    2    1    2    0    0  0.00000000000E+00  0.00000000000E+00  0.18692968816E+04  0.28869814747E+04  0.22000889082E+04 0.  0.
        4    1    3    3  502    0  0.60807729517E+03  0.14258970659E+03 -0.25361402139E+03  0.67410051630E+03  0.12699999809E+01 0. -1.
       -4    1    3    3    0  502 -0.60807729517E+03 -0.14258970659E+03  0.21229109030E+04  0.22128809584E+04  0.12699999809E+01 0.  1.
</event>
<event>
 5   0  0.1144271E-06  0.2199906E+04  0.7818609E-02  0.8518467E-01
        1   -1    0    0  501    0  0.00000000000E+00  0.00000000000E+00  0.15348633256E+04  0.15348633256E+04  0.50400001928E-02 0.  1.
       -1   -1    0    0    0  501  0.00000000000E+00  0.00000000000E+00 -0.78827623861E+03  0.78827623863E+03  0.50400001928E-02 0. -1.
    10030    2    1    2    0    0  0.00000000000E+00  0.00000000000E+00  0.74658708700E+03  0.23231395642E+04  0.21999057154E+04 0.  0.
        3    1    3    3  502    0  0.68169805188E+02 -0.10963079873E+04  0.43448750567E+03  0.11812356785E+04  0.10100000352E+00 0. -1.
       -3    1    3    3    0  502 -0.68169805188E+02  0.10963079873E+04  0.31209958133E+03  0.11419038857E+04  0.10100000352E+00 0.  1.
</event>
<event>
 5   0  0.2581058E-06  0.2199255E+04  0.7818609E-02  0.8518738E-01
        2   -1    0    0  501    0  0.00000000000E+00  0.00000000000E+00  0.22421241394E+04  0.22421241394E+04  0.25500000920E-02 0.  1.
       -2   -1    0    0    0  501  0.00000000000E+00  0.00000000000E+00 -0.53930149476E+03  0.53930149476E+03  0.25500000920E-02 0. -1.
    10030    2    1    2    0    0  0.00000000000E+00  0.00000000000E+00  0.17028226447E+04  0.27814256342E+04  0.21992552374E+04 0.  0.
        1    1    3    3  502    0  0.34885242638E+03  0.59953297282E+02 -0.46528044318E+03  0.58461808395E+03  0.50400001928E-02 0. -1.
       -1    1    3    3    0  502 -0.34885242638E+03 -0.59953297282E+02  0.21681030879E+04  0.21968075502E+04  0.50400001928E-02 0.  1.
</event>
<event>
 5   0  0.1082209E-06  0.2199764E+04  0.7818609E-02  0.8518526E-01
       -1   -1    0    0    0  501  0.00000000000E+00  0.00000000000E+00  0.70110326777E+03  0.70110326778E+03  0.50400001928E-02 0.  1.
        1   -1    0    0  501    0  0.00000000000E+00  0.00000000000E+00 -0.17254817325E+04  0.17254817325E+04  0.50400001928E-02 0. -1.
    10030    2    1    2    0    0  0.00000000000E+00  0.00000000000E+00 -0.10243784648E+04  0.24265850003E+04  0.21997644248E+04 0.  0.
        2    1    3    3  502    0 -0.61026235774E+03 -0.86364176654E+03 -0.17861225035E+03  0.10724735811E+04  0.25500000920E-02 0. -1.
       -2    1    3    3    0  502  0.61026235774E+03  0.86364176654E+03 -0.84576621441E+03  0.13541114192E+04  0.25500000920E-02 0.  1.
</event>
<event>
 5   0  0.2606154E-06  0.2200031E+04  0.7818609E-02  0.8518415E-01
       -2   -1    0    0    0  501  0.00000000000E+00  0.00000000000E+00  0.88079954001E+03  0.88079954001E+03  0.25500000920E-02 0.  1.
        2   -1    0    0  501    0  0.00000000000E+00  0.00000000000E+00 -0.13737902354E+04  0.13737902354E+04  0.25500000920E-02 0. -1.
    10030    2    1    2    0    0  0.00000000000E+00  0.00000000000E+00 -0.49299069544E+03  0.22545897755E+04  0.22000307338E+04 0.  0.
        2    1    3    3  502    0 -0.19178350394E+03 -0.22488756627E+03 -0.13323369672E+04  0.13647260253E+04  0.25500000920E-02 0. -1.
       -2    1    3    3    0  502  0.19178350394E+03  0.22488756627E+03  0.83934627180E+03  0.88986375016E+03  0.25500000920E-02 0.  1.
</event>
<event>
 5   0  0.1146827E-06  0.2200382E+04  0.7818609E-02  0.8518269E-01
       -1   -1    0    0    0  501  0.00000000000E+00  0.00000000000E+00  0.74313132948E+03  0.74313132950E+03  0.50400001928E-02 0. -1.
        1   -1    0    0  501    0  0.00000000000E+00  0.00000000000E+00 -0.16288112499E+04  0.16288112499E+04  0.50400001928E-02 0.  1.
    10030    2    1    2    0    0  0.00000000000E+00  0.00000000000E+00 -0.88567992042E+03  0.23719425794E+04  0.22003823937E+04 0.  0.
        4    1    3    3  502    0  0.51525146722E+03  0.97066628215E+03 -0.49928630870E+03  0.12070482744E+04  0.12699999809E+01 0.  1.
       -4    1    3    3    0  502 -0.51525146722E+03 -0.97066628215E+03 -0.38639361172E+03  0.11648943050E+04  0.12699999809E+01 0. -1.
</event>
<event>
 5   0  0.2556869E-06  0.2201742E+04  0.7818609E-02  0.8517704E-01
       -2   -1    0    0    0  501  0.00000000000E+00  0.00000000000E+00  0.75985880637E+03  0.75985880638E+03  0.25500000920E-02 0. -1.
        2   -1    0    0  501    0  0.00000000000E+00  0.00000000000E+00 -0.15949234202E+04  0.15949234202E+04  0.25500000920E-02 0.  1.
    10030    2    1    2    0    0  0.00000000000E+00  0.00000000000E+00 -0.83506461382E+03  0.23547822266E+04  0.22017416800E+04 0.  0.
        5    1    3    3  502    0 -0.35354701168E+03  0.84916911195E+03  0.22933123484E+03  0.94799713893E+03  0.46999998093E+01 0.  1.
       -5    1    3    3    0  502  0.35354701168E+03 -0.84916911195E+03 -0.10643958487E+04  0.14067850876E+04  0.46999998093E+01 0. -1.
</event>
<event>
 5   0  0.1146827E-06  0.2199008E+04  0.7818609E-02  0.8518841E-01
        1   -1    0    0  501    0  0.00000000000E+00  0.00000000000E+00  0.20598403341E+04  0.20598403341E+04  0.50400001928E-02 0.  1.
       -1   -1    0    0    0  501  0.00000000000E+00  0.00000000000E+00 -0.58689428857E+03  0.58689428860E+03  0.50400001928E-02 0. -1.
    10030    2    1    2    0    0  0.00000000000E+00  0.00000000000E+00  0.14729460455E+04  0.26467346227E+04  0.21990075284E+04 0.  0.
        4    1    3    3  502    0  0.10616809604E+04 -0.28050120951E+03  0.66989810367E+03  0.12863174073E+04  0.12699999809E+01 0. -1.
       -4    1    3    3    0  502 -0.10616809604E+04  0.28050120951E+03  0.80304794187E+03  0.13604172154E+04  0.12699999809E+01 0.  1.
</event>
<event>
 5   0  0.2581058E-06  0.2200050E+04  0.7818609E-02  0.8518407E-01
        2   -1    0    0  501    0  0.00000000000E+00  0.00000000000E+00  0.17730906651E+04  0.17730906651E+04  0.25500000920E-02 0.  1.
       -2   -1    0    0    0  501  0.00000000000E+00  0.00000000000E+00 -0.68245530007E+03  0.68245530007E+03  0.25500000920E-02 0. -1.
    10030    2    1    2    0    0  0.00000000000E+00  0.00000000000E+00  0.10906353651E+04  0.24555459652E+04  0.22000501103E+04 0.  0.
        1    1    3    3  502    0  0.96931083730E+03  0.34746874067E+03  0.11339182770E+03  0.10359323007E+04  0.50400001928E-02 0. -1.
       -1    1    3    3    0  502 -0.96931083730E+03 -0.34746874067E+03  0.97724353737E+03  0.14196136645E+04  0.50400001928E-02 0.  1.
</event>
<event>
 5   0  0.1082209E-06  0.2199705E+04  0.7818609E-02  0.8518551E-01
       -1   -1    0    0    0  501  0.00000000000E+00  0.00000000000E+00  0.53018717745E+03  0.53018717747E+03  0.50400001928E-02 0.  1.
        1   -1    0    0  501    0  0.00000000000E+00  0.00000000000E+00 -0.22816014636E+04  0.22816014636E+04  0.50400001928E-02 0. -1.
    10030    2    1    2    0    0  0.00000000000E+00  0.00000000000E+00 -0.17514142862E+04  0.28117886411E+04  0.21997052894E+04 0.  0.
        2    1    3    3  502    0  0.10188371708E+04 -0.41394988340E+03 -0.85385853796E+03  0.13922852041E+04  0.25500000920E-02 0. -1.
       -2    1    3    3    0  502 -0.10188371708E+04  0.41394988340E+03 -0.89755574822E+03  0.14195034370E+04  0.25500000920E-02 0.  1.
</event>
<event>
 5   0  0.1082209E-06  0.2201462E+04  0.7818609E-02  0.8517820E-01
        1   -1    0    0  501    0  0.00000000000E+00  0.00000000000E+00  0.10890525150E+04  0.10890525150E+04  0.50400001928E-02 0.  1.
       -1   -1    0    0    0  501  0.00000000000E+00  0.00000000000E+00 -0.11125351337E+04  0.11125351337E+04  0.50400001928E-02 0. -1.
    10030    2    1    2    0    0  0.00000000000E+00  0.00000000000E+00 -0.23482618668E+02  0.22015876487E+04  0.22014624097E+04 0.  0.
        2    1    3    3  502    0  0.86370673997E+03  0.66219317438E+03  0.15294972944E+03  0.10990371935E+04  0.25500000920E-02 0.  1.
       -2    1    3    3    0  502 -0.86370673997E+03 -0.66219317438E+03 -0.17643234811E+03  0.11025504552E+04  0.25500000920E-02 0. -1.
</event>
<event>
 5   0  0.1144271E-06  0.2200595E+04  0.7818609E-02  0.8518181E-01
       -1   -1    0    0    0  501  0.00000000000E+00  0.00000000000E+00  0.12311870515E+04  0.12311870515E+04  0.50400001928E-02 0. -1.
        1   -1    0    0  501    0  0.00000000000E+00  0.00000000000E+00 -0.98332294250E+03  0.98332294251E+03  0.50400001928E-02 0.  1.
    10030    2    1    2    0    0  0.00000000000E+00  0.00000000000E+00  0.24786410899E+03  0.22145099940E+04  0.22005948962E+04 0.  0.
        3    1    3    3  502    0  0.80233433555E+03  0.45908769622E+03 -0.47662680982E+03  0.10400360690E+04  0.10100000352E+00 0. -1.
       -3    1    3    3    0  502 -0.80233433555E+03 -0.45908769622E+03  0.72449091881E+03  0.11744739250E+04  0.10100000352E+00 0.  1.
</event>
<event>
 5   0  0.1137869E-06  0.2200620E+04  0.7818609E-02  0.8518170E-01
        1   -1    0    0  501    0  0.00000000000E+00  0.00000000000E+00  0.13737485068E+04  0.13737485068E+04  0.50400001928E-02 0.  1.
       -1   -1    0    0    0  501  0.00000000000E+00  0.00000000000E+00 -0.88129803254E+03  0.88129803256E+03  0.50400001928E-02 0. -1.
    10030    2    1    2    0    0  0.00000000000E+00  0.00000000000E+00  0.49245047423E+03  0.22550465393E+04  0.22006197820E+04 0.  0.
        5    1    3    3  502    0  0.71883960511E+03 -0.41439327311E+02 -0.60634489097E+03  0.94134149623E+03  0.46999998093E+01 0. -1.
       -5    1    3    3    0  502 -0.71883960511E+03  0.41439327311E+02  0.10987953652E+04  0.13137050431E+04  0.46999998093E+01 0.  1.
</event>
<event>
 5   0  0.1146827E-06  0.2200240E+04  0.7818609E-02  0.8518328E-01
       -1   -1    0    0    0  501  0.00000000000E+00  0.00000000000E+00  0.65472673919E+03  0.65472673921E+03  0.50400001928E-02 0. -1.
        1   -1    0    0  501    0  0.00000000000E+00  0.00000000000E+00 -0.18485027356E+04  0.18485027356E+04  0.50400001928E-02 0.  1.
    10030    2    1    2    0    0  0.00000000000E+00  0.00000000000E+00 -0.11937759964E+04  0.25032294748E+04  0.22002401401E+04 0.  0.
        4    1    3    3  502    0  0.66397183062E+03  0.85629887600E+03 -0.81322059455E+03  0.13547825306E+04  0.12699999809E+01 0.  1.
       -4    1    3    3    0  502 -0.66397183062E+03 -0.85629887600E+03 -0.38055540185E+03  0.11484469442E+04  0.12699999809E+01 0. -1.
</event>
<event>
 5   0  0.2524749E-06  0.2200221E+04  0.7818609E-02  0.8518336E-01
       -2   -1    0    0    0  501  0.00000000000E+00  0.00000000000E+00  0.11716668695E+04  0.11716668695E+04  0.25500000920E-02 0. -1.
        2   -1    0    0  501    0  0.00000000000E+00  0.00000000000E+00 -0.10329243915E+04  0.10329243915E+04  0.25500000920E-02 0.  1.
    10030    2    1    2    0    0  0.00000000000E+00  0.00000000000E+00  0.13874247806E+03  0.22045912610E+04  0.22002211600E+04 0.  0.
        4    1    3    3  502    0 -0.31858753175E+03 -0.16938484088E+03 -0.97194865327E+03  0.10367618035E+04  0.12699999809E+01 0.  1.
       -4    1    3    3    0  502  0.31858753175E+03  0.16938484088E+03  0.11106911313E+04  0.11678294575E+04  0.12699999809E+01 0. -1.
</event>
<event>
 5   0  0.2581058E-06  0.2206128E+04  0.7818609E-02  0.8515882E-01
       -2   -1    0    0    0  501  0.00000000000E+00  0.00000000000E+00  0.74839129499E+03  0.74839129500E+03  0.25500000920E-02 0. -1.
        2   -1    0    0  501    0  0.00000000000E+00  0.00000000000E+00 -0.16258204629E+04  0.16258204629E+04  0.25500000920E-02 0.  1.
    10030    2    1    2    0    0  0.00000000000E+00  0.00000000000E+00 -0.87742916787E+03  0.23742117579E+04  0.22061277222E+04 0.  0.
        1    1    3    3  502    0  0.43641882056E+03  0.58591012408E+03 -0.13281173147E+04  0.15157993476E+04  0.50400001928E-02 0.  1.
       -1    1    3    3    0  502 -0.43641882056E+03 -0.58591012408E+03  0.45068814683E+03  0.85841241030E+03  0.50400001928E-02 0. -1.
</event>
<event>
 5   0  0.2556869E-06  0.2201368E+04  0.7818609E-02  0.8517859E-01
       -2   -1    0    0    0  501  0.00000000000E+00  0.00000000000E+00  0.10279278600E+04  0.10279278600E+04  0.25500000920E-02 0. -1.
        2   -1    0    0  501    0  0.00000000000E+00  0.00000000000E+00 -0.11785900552E+04  0.11785900552E+04  0.25500000920E-02 0.  1.
    10030    2    1    2    0    0  0.00000000000E+00  0.00000000000E+00 -0.15066219512E+03  0.22065179152E+04  0.22013682593E+04 0.  0.
        5    1    3    3  502    0 -0.63286063407E+03  0.57909133494E+03 -0.76659946984E+03  0.11504591229E+04  0.46999998093E+01 0.  1.
       -5    1    3    3    0  502  0.63286063407E+03 -0.57909133494E+03  0.61593727472E+03  0.10560587923E+04  0.46999998093E+01 0. -1.
</event>
<event>
 5   0  0.2606154E-06  0.2203338E+04  0.7818609E-02  0.8517040E-01
       -2   -1    0    0    0  501  0.00000000000E+00  0.00000000000E+00  0.86785654505E+03  0.86785654505E+03  0.25500000920E-02 0. -1.
        2   -1    0    0  501    0  0.00000000000E+00  0.00000000000E+00 -0.13984739638E+04  0.13984739638E+04  0.25500000920E-02 0.  1.
    10030    2    1    2    0    0  0.00000000000E+00  0.00000000000E+00 -0.53061741872E+03  0.22663305088E+04  0.22033381788E+04 0.  0.
        2    1    3    3  502    0  0.39727515326E+03 -0.28008604796E+03  0.75159080425E+03  0.89507791767E+03  0.25500000920E-02 0.  1.
       -2    1    3    3    0  502 -0.39727515326E+03  0.28008604796E+03 -0.12822082230E+04  0.13712525911E+04  0.25500000920E-02 0. -1.
</event>
<event>
 5   0  0.1082209E-06  0.2194622E+04  0.7818609E-02  0.8520670E-01
       -1   -1    0    0    0  501  0.00000000000E+00  0.00000000000E+00  0.75941969297E+03  0.75941969299E+03  0.50400001928E-02 0.  1.
        1   -1    0    0  501    0  0.00000000000E+00  0.00000000000E+00 -0.15855418915E+04  0.15855418915E+04  0.50400001928E-02 0. -1.
    10030    2    1    2    0    0  0.00000000000E+00  0.00000000000E+00 -0.82612219851E+03  0.23449615845E+04  0.21946222786E+04 0.  0.
        2    1    3    3  502    0  0.42002508495E+02  0.86836923087E+03 -0.11284498506E+04  0.14245098796E+04  0.25500000920E-02 0. -1.
       -2    1    3    3    0  502 -0.42002508495E+02 -0.86836923087E+03  0.30232765205E+03  0.92045170489E+03  0.25500000920E-02 0.  1.
</event>
<event>
 5   0  0.1107101E-06  0.2200902E+04  0.7818609E-02  0.8518053E-01
       -1   -1    0    0    0  501  0.00000000000E+00  0.00000000000E+00  0.17415234646E+04  0.17415234646E+04  0.50400001928E-02 0.  1.
        1   -1    0    0  501    0  0.00000000000E+00  0.00000000000E+00 -0.69536398768E+03  0.69536398769E+03  0.50400001928E-02 0. -1.
    10030    2    1    2    0    0  0.00000000000E+00  0.00000000000E+00  0.10461594769E+04  0.24368874523E+04  0.22009022704E+04 0.  0.
        1    1    3    3  502    0  0.38554038678E+02 -0.58146710133E+03 -0.51050018184E+03  0.77472629974E+03  0.50400001928E-02 0. -1.
       -1    1    3    3    0  502 -0.38554038678E+02  0.58146710133E+03  0.15566596588E+04  0.16621611526E+04  0.50400001928E-02 0.  1.
</event>
<event>
 5   0  0.2556869E-06  0.2196375E+04  0.7818609E-02  0.8519938E-01
       -2   -1    0    0    0  501  0.00000000000E+00  0.00000000000E+00  0.78420793397E+03  0.78420793398E+03  0.25500000920E-02 0.  1.
        2   -1    0    0  501    0  0.00000000000E+00  0.00000000000E+00 -0.15378779051E+04  0.15378779051E+04  0.25500000920E-02 0. -1.
    10030    2    1    2    0    0  0.00000000000E+00  0.00000000000E+00 -0.75366997110E+03  0.23220858390E+04  0.21963752454E+04 0.  0.
        5    1    3    3  502    0 -0.93765255331E+03  0.55950347926E+03 -0.50084068832E+03  0.12012909469E+04  0.46999998093E+01 0.  1.
       -5    1    3    3    0  502  0.93765255331E+03 -0.55950347926E+03 -0.25282928277E+03  0.11207948921E+04  0.46999998093E+01 0. -1.
</event>
<event>
 5   0  0.2581058E-06  0.2197775E+04  0.7818609E-02  0.8519355E-01
        2   -1    0    0  501    0  0.00000000000E+00  0.00000000000E+00  0.19879999748E+04  0.19879999748E+04  0.25500000920E-02 0.  1.
       -2   -1    0    0    0  501  0.00000000000E+00  0.00000000000E+00 -0.60742151026E+03  0.60742151027E+03  0.25500000920E-02 0. -1.
    10030    2    1    2    0    0  0.00000000000E+00  0.00000000000E+00  0.13805784645E+04  0.25954214850E+04  0.21977751906E+04 0.  0.
        1    1    3    3  502    0 -0.31805256912E+03  0.64255639051E+03 -0.29316336932E+03  0.77458434843E+03  0.50400001928E-02 0. -1.
       -1    1    3    3    0  502  0.31805256912E+03 -0.64255639051E+03  0.16737418338E+04  0.18208371366E+04  0.50400001928E-02 0.  1.
</event>
<event>
 5   0  0.1137869E-06  0.2202460E+04  0.7818609E-02  0.8517405E-01
       -1   -1    0    0    0  501  0.00000000000E+00  0.00000000000E+00  0.71495936885E+03  0.71495936887E+03  0.50400001928E-02 0. -1.
        1   -1    0    0  501    0  0.00000000000E+00  0.00000000000E+00 -0.16961914590E+04  0.16961914590E+04  0.50400001928E-02 0.  1.
    10030    2    1    2    0    0  0.00000000000E+00  0.00000000000E+00 -0.98123209010E+03  0.24111508278E+04  0.22024604196E+04 0.  0.
        5    1    3    3  502    0  0.89194955270E+03 -0.66230513397E+02  0.21269407088E+03  0.91935920252E+03  0.46999998093E+01 0.  1.
       -5    1    3    3    0  502 -0.89194955270E+03  0.66230513397E+02 -0.11939261610E+04  0.14917916253E+04  0.46999998093E+01 0. -1.
</event>
<event>
 5   0  0.1144271E-06  0.2199715E+04  0.7818609E-02  0.8518547E-01
        1   -1    0    0  501    0  0.00000000000E+00  0.00000000000E+00  0.94234898298E+03  0.94234898299E+03  0.50400001928E-02 0.  1.
       -1   -1    0    0    0  501  0.00000000000E+00  0.00000000000E+00 -0.12836925656E+04  0.12836925656E+04  0.50400001928E-02 0. -1.
    10030    2    1    2    0    0  0.00000000000E+00  0.00000000000E+00 -0.34134358262E+03  0.22260415486E+04  0.21997148758E+04 0.  0.
        3    1    3    3  502    0 -0.10979662472E+04 -0.54010735340E+02 -0.20629729679E+03  0.11184836273E+04  0.10100000352E+00 0. -1.
       -3    1    3    3    0  502  0.10979662472E+04  0.54010735340E+02 -0.13504628583E+03  0.11075579213E+04  0.10100000352E+00 0.  1.
</event>
<event>
 5   0  0.2556869E-06  0.2199790E+04  0.7818609E-02  0.8518515E-01
        2   -1    0    0  501    0  0.00000000000E+00  0.00000000000E+00  0.11200109491E+04  0.11200109491E+04  0.25500000920E-02 0. -1.
       -2   -1    0    0    0  501  0.00000000000E+00  0.00000000000E+00 -0.10801406165E+04  0.10801406165E+04  0.25500000920E-02 0.  1.
    10030    2    1    2    0    0  0.00000000000E+00  0.00000000000E+00  0.39870332651E+02  0.22001515656E+04  0.21997902782E+04 0.  0.
        5    1    3    3  502    0  0.66283176624E+03  0.85181850621E+03 -0.19177507939E+03  0.10962392480E+04  0.46999998093E+01 0.  1.
       -5    1    3    3    0  502 -0.66283176624E+03 -0.85181850621E+03  0.23164541204E+03  0.11039123175E+04  0.46999998093E+01 0. -1.
</event>
<event>
 5   0  0.1144271E-06  0.2200202E+04  0.7818609E-02  0.8518344E-01
       -1   -1    0    0    0  501  0.00000000000E+00  0.00000000000E+00  0.12756958796E+04  0.12756958796E+04  0.50400001928E-02 0. -1.
        1   -1    0    0  501    0  0.00000000000E+00  0.00000000000E+00 -0.94867599096E+03  0.94867599097E+03  0.50400001928E-02 0.  1.
    10030    2    1    2    0    0  0.00000000000E+00  0.00000000000E+00  0.32701988864E+03  0.22243718706E+04  0.22002018569E+04 0.  0.
        3    1    3    3  502    0 -0.50199805909E+03  0.47617671763E+03  0.10281688650E+04  0.12393052662E+04  0.10100000352E+00 0. -1.
       -3    1    3    3    0  502  0.50199805909E+03 -0.47617671763E+03 -0.70114897637E+03  0.98506660435E+03  0.10100000352E+00 0.  1.
</event>
<event>
 5   0  0.2556869E-06  0.2189494E+04  0.7818609E-02  0.8522814E-01
       -2   -1    0    0    0  501  0.00000000000E+00  0.00000000000E+00  0.58139341788E+03  0.58139341789E+03  0.25500000920E-02 0.  1.
        2   -1    0    0  501    0  0.00000000000E+00  0.00000000000E+00 -0.20613771572E+04  0.20613771572E+04  0.25500000920E-02 0. -1.
    10030    2    1    2    0    0  0.00000000000E+00  0.00000000000E+00 -0.14799837393E+04  0.26427705750E+04  0.21894941068E+04 0.  0.
        5    1    3    3  502    0 -0.74681796695E+03  0.13925119754E+03  0.21143128275E+03  0.78857672366E+03  0.46999998093E+01 0.  1.
       -5    1    3    3    0  502  0.74681796695E+03 -0.13925119754E+03 -0.16914150220E+04  0.18541938514E+04  0.46999998093E+01 0. -1.
</event>
<event>
 5   0  0.1082209E-06  0.2200747E+04  0.7818609E-02  0.8518117E-01
       -1   -1    0    0    0  501  0.00000000000E+00  0.00000000000E+00  0.63769720471E+03  0.63769720473E+03  0.50400001928E-02 0.  1.
        1   -1    0    0  501    0  0.00000000000E+00  0.00000000000E+00 -0.18987404968E+04  0.18987404968E+04  0.50400001928E-02 0. -1.
    10030    2    1    2    0    0  0.00000000000E+00  0.00000000000E+00 -0.12610432921E+04  0.25364377016E+04  0.22007466981E+04 0.  0.
        2    1    3    3  502    0  0.67384191382E+03  0.55115588124E+03 -0.14062263482E+04  0.16538767405E+04  0.25500000920E-02 0. -1.
       -2    1    3    3    0  502 -0.67384191382E+03 -0.55115588124E+03  0.14518305610E+03  0.88256096109E+03  0.25500000920E-02 0.  1.
</event>
<event>
 5   0  0.2581058E-06  0.2204922E+04  0.7818609E-02  0.8516382E-01
       -2   -1    0    0    0  501  0.00000000000E+00  0.00000000000E+00  0.36069848842E+03  0.36069848843E+03  0.25500000920E-02 0. -1.
        2   -1    0    0  501    0  0.00000000000E+00  0.00000000000E+00 -0.33696292767E+04  0.33696292767E+04  0.25500000920E-02 0.  1.
    10030    2    1    2    0    0  0.00000000000E+00  0.00000000000E+00 -0.30089307883E+04  0.37303277652E+04  0.22049219367E+04 0.  0.
        1    1    3    3  502    0  0.10123239760E+04  0.18222246663E+03 -0.21757045496E+04  0.24065940968E+04  0.50400001928E-02 0. -1.
       -1    1    3    3    0  502 -0.10123239760E+04 -0.18222246663E+03 -0.83322623872E+03  0.13237336683E+04  0.50400001928E-02 0.  1.
</event>
<event>
 5   0  0.1082209E-06  0.2199426E+04  0.7818609E-02  0.8518667E-01
       -1   -1    0    0    0  501  0.00000000000E+00  0.00000000000E+00  0.94487106744E+03  0.94487106745E+03  0.50400001928E-02 0. -1.
        1   -1    0    0  501    0  0.00000000000E+00  0.00000000000E+00 -0.12799296043E+04  0.12799296043E+04  0.50400001928E-02 0.  1.
    10030    2    1    2    0    0  0.00000000000E+00  0.00000000000E+00 -0.33505853682E+03  0.22248006717E+04  0.21994257900E+04 0.  0.
        2    1    3    3  502    0 -0.35062102475E+03 -0.11663805049E+03 -0.12152535971E+04  0.12701892942E+04  0.25500000920E-02 0.  1.
       -2    1    3    3    0  502  0.35062102475E+03  0.11663805049E+03  0.88019506032E+03  0.95461137749E+03  0.25500000920E-02 0. -1.
</event>
<event>
 5   0  0.2524749E-06  0.2198947E+04  0.7818609E-02  0.8518866E-01
       -2   -1    0    0    0  501  0.00000000000E+00  0.00000000000E+00  0.99928874037E+03  0.99928874038E+03  0.25500000920E-02 0. -1.
        2   -1    0    0  501    0  0.00000000000E+00  0.00000000000E+00 -0.12097024943E+04  0.12097024943E+04  0.25500000920E-02 0.  1.
    10030    2    1    2    0    0  0.00000000000E+00  0.00000000000E+00 -0.21041375393E+03  0.22089912347E+04  0.21989470951E+04 0.  0.
        4    1    3    3  502    0 -0.30835714765E+03  0.10452706918E+04  0.40941391536E+02  0.10905745092E+04  0.12699999809E+01 0. -1.
       -4    1    3    3    0  502  0.30835714765E+03 -0.10452706918E+04 -0.25135514547E+03  0.11184167255E+04  0.12699999809E+01 0.  1.
</event>
<event>
 5   0  0.1146827E-06  0.2199406E+04  0.7818609E-02  0.8518675E-01
        1   -1    0    0  501    0  0.00000000000E+00  0.00000000000E+00  0.14838230553E+04  0.14838230553E+04  0.50400001928E-02 0.  1.
       -1   -1    0    0    0  501  0.00000000000E+00  0.00000000000E+00 -0.81502064181E+03  0.81502064182E+03  0.50400001928E-02 0. -1.
    10030    2    1    2    0    0  0.00000000000E+00  0.00000000000E+00  0.66880241353E+03  0.22988436972E+04  0.21994057551E+04 0.  0.
        4    1    3    3  502    0 -0.19714400151E+03  0.76992368901E+03 -0.46002576036E+03  0.91829927438E+03  0.12699999809E+01 0. -1.
       -4    1    3    3    0  502  0.19714400151E+03 -0.76992368901E+03  0.11288281739E+04  0.13805444228E+04  0.12699999809E+01 0.  1.
</event>
<event>
 5   0  0.1082209E-06  0.2199638E+04  0.7818609E-02  0.8518579E-01
        1   -1    0    0  501    0  0.00000000000E+00  0.00000000000E+00  0.11290219110E+04  0.11290219110E+04  0.50400001928E-02 0. -1.
       -1   -1    0    0    0  501  0.00000000000E+00  0.00000000000E+00 -0.10713711000E+04  0.10713711000E+04  0.50400001928E-02 0.  1.
    10030    2    1    2    0    0  0.00000000000E+00  0.00000000000E+00  0.57650810983E+02  0.22003930110E+04  0.21996376490E+04 0.  0.
        2    1    3    3  502    0  0.38790374368E+03  0.10043952106E+04 -0.19557816161E+03  0.10943170796E+04  0.25500000920E-02 0.  1.
       -2    1    3    3    0  502 -0.38790374368E+03 -0.10043952106E+04  0.25322897259E+03  0.11060759314E+04  0.25500000920E-02 0. -1.
</event>
<event>
 5   0  0.1137869E-06  0.2199990E+04  0.7818609E-02  0.8518432E-01
       -1   -1    0    0    0  501  0.00000000000E+00  0.00000000000E+00  0.86519894566E+03  0.86519894567E+03  0.50400001928E-02 0. -1.
        1   -1    0    0  501    0  0.00000000000E+00  0.00000000000E+00 -0.13985098300E+04  0.13985098300E+04  0.50400001928E-02 0.  1.
    10030    2    1    2    0    0  0.00000000000E+00  0.00000000000E+00 -0.53331088434E+03  0.22637087757E+04  0.21999902095E+04 0.  0.
        5    1    3    3  502    0 -0.12261663436E+03 -0.78829029737E+03  0.51259695059E+03  0.94826903129E+03  0.46999998093E+01 0.  1.
       -5    1    3    3    0  502  0.12261663436E+03  0.78829029737E+03 -0.10459078349E+04  0.13154397444E+04  0.46999998093E+01 0. -1.
</event>
<event>
 5   0  0.1082209E-06  0.2199630E+04  0.7818609E-02  0.8518582E-01
        1   -1    0    0  501    0  0.00000000000E+00  0.00000000000E+00  0.12667427272E+04  0.12667427272E+04  0.50400001928E-02 0.  1.
       -1   -1    0    0    0  501  0.00000000000E+00  0.00000000000E+00 -0.95488447808E+03  0.95488447809E+03  0.50400001928E-02 0. -1.
    10030    2    1    2    0    0  0.00000000000E+00  0.00000000000E+00  0.31185824910E+03  0.22216272053E+04  0.21996299397E+04 0.  0.
        2    1    3    3  502    0  0.50307628487E+03 -0.97774688655E+03  0.17892178757E+03  0.11140411701E+04  0.25500000920E-02 0. -1.
       -2    1    3    3    0  502 -0.50307628487E+03  0.97774688655E+03  0.13293646153E+03  0.11075860352E+04  0.25500000920E-02 0.  1.
</event>
<event>
 5   0  0.1144271E-06  0.2201249E+04  0.7818609E-02  0.8517908E-01
        1   -1    0    0  501    0  0.00000000000E+00  0.00000000000E+00  0.10113458269E+04  0.10113458269E+04  0.50400001928E-02 0.  1.
       -1   -1    0    0    0  501  0.00000000000E+00  0.00000000000E+00 -0.11977843145E+04  0.11977843145E+04  0.50400001928E-02 0. -1.
    10030    2    1    2    0    0  0.00000000000E+00  0.00000000000E+00 -0.18643848764E+03  0.22091301415E+04  0.22012488892E+04 0.  0.
        3    1    3    3  502    0  0.24739199860E+03  0.91003383889E+03  0.47627150701E+03  0.10565031697E+04  0.10100000352E+00 0.  1.
       -3    1    3    3    0  502 -0.24739199860E+03 -0.91003383889E+03 -0.66270999465E+03  0.11526269718E+04  0.10100000352E+00 0. -1.
</event>
<event>
 5   0  0.1137869E-06  0.2199992E+04  0.7818609E-02  0.8518432E-01
        1   -1    0    0  501    0  0.00000000000E+00  0.00000000000E+00  0.11270921300E+04  0.11270921300E+04  0.50400001928E-02 0.  1.
       -1   -1    0    0    0  501  0.00000000000E+00  0.00000000000E+00 -0.10735509893E+04  0.10735509893E+04  0.50400001928E-02 0. -1.
    10030    2    1    2    0    0  0.00000000000E+00  0.00000000000E+00  0.53541140664E+02  0.22006431193E+04  0.21999917011E+04 0.  0.
        5    1    3    3  502    0 -0.91277558721E+03 -0.60361935165E+03  0.13839746147E+03  0.11030374162E+04  0.46999998093E+01 0.  1.
       -5    1    3    3    0  502  0.91277558721E+03  0.60361935165E+03 -0.84856320806E+02  0.10976057031E+04  0.46999998093E+01 0. -1.
</event>
<event>
 5   0  0.1137869E-06  0.2200731E+04  0.7818609E-02  0.8518124E-01
        1   -1    0    0  501    0  0.00000000000E+00  0.00000000000E+00  0.99869150536E+03  0.99869150537E+03  0.50400001928E-02 0.  1.
       -1   -1    0    0    0  501  0.00000000000E+00  0.00000000000E+00 -0.12123901526E+04  0.12123901527E+04  0.50400001928E-02 0. -1.
    10030    2    1    2    0    0  0.00000000000E+00  0.00000000000E+00 -0.21369864728E+03  0.22110816580E+04  0.22007305575E+04 0.  0.
        5    1    3    3  502    0 -0.97395407352E+03 -0.17958393206E+03  0.37493164353E+03  0.10589772204E+04  0.46999998093E+01 0.  1.
       -5    1    3    3    0  502  0.97395407352E+03  0.17958393206E+03 -0.58863029082E+03  0.11521044376E+04  0.46999998093E+01 0. -1.
</event>
<event>
 5   0  0.1137869E-06  0.2201158E+04  0.7818609E-02  0.8517946E-01
       -1   -1    0    0    0  501  0.00000000000E+00  0.00000000000E+00  0.14152623342E+04  0.14152623342E+04  0.50400001928E-02 0.  1.
        1   -1    0    0  501    0  0.00000000000E+00  0.00000000000E+00 -0.85586572260E+03  0.85586572261E+03  0.50400001928E-02 0. -1.
    10030    2    1    2    0    0  0.00000000000E+00  0.00000000000E+00  0.55939661157E+03  0.22711280568E+04  0.22011583499E+04 0.  0.
        5    1    3    3  502    0  0.87396801855E+03 -0.23799339054E+03 -0.36530639337E+03  0.97669432394E+03  0.46999998093E+01 0. -1.
       -5    1    3    3    0  502 -0.87396801855E+03  0.23799339054E+03  0.92470300493E+03  0.12944337328E+04  0.46999998093E+01 0.  1.
</event>
<event>
 5   0  0.2524749E-06  0.2200369E+04  0.7818609E-02  0.8518274E-01
       -2   -1    0    0    0  501  0.00000000000E+00  0.00000000000E+00  0.10357059001E+04  0.10357059001E+04  0.25500000920E-02 0. -1.
        2   -1    0    0  501    0  0.00000000000E+00  0.00000000000E+00 -0.11686774986E+04  0.11686774986E+04  0.25500000920E-02 0.  1.
    10030    2    1    2    0    0  0.00000000000E+00  0.00000000000E+00 -0.13297159856E+03  0.22043833987E+04  0.22003692241E+04 0.  0.
        4    1    3    3  502    0 -0.89202509617E+02 -0.56796233722E+03 -0.10062088993E+04  0.11588771575E+04  0.12699999809E+01 0.  1.
       -4    1    3    3    0  502  0.89202509617E+02  0.56796233722E+03  0.87323730071E+03  0.10455062412E+04  0.12699999809E+01 0. -1.
</event>
<event>
 5   0  0.1146827E-06  0.2203599E+04  0.7818609E-02  0.8516932E-01
       -1   -1    0    0    0  501  0.00000000000E+00  0.00000000000E+00  0.21670662529E+04  0.21670662529E+04  0.50400001928E-02 0. -1.
        1   -1    0    0  501    0  0.00000000000E+00  0.00000000000E+00 -0.56018668105E+03  0.56018668107E+03  0.50400001928E-02 0.  1.
    10030    2    1    2    0    0  0.00000000000E+00  0.00000000000E+00  0.16068795718E+04  0.27272529339E+04  0.22035985586E+04 0.  0.
        4    1    3    3  502    0  0.25593822958E+03 -0.86816555753E+03  0.25849491441E+02  0.90547535679E+03  0.12699999809E+01 0.  1.
       -4    1    3    3    0  502 -0.25593822958E+03  0.86816555753E+03  0.15810300804E+04  0.18217775772E+04  0.12699999809E+01 0. -1.
</event>
<event>
 5   0  0.2532239E-06  0.2199548E+04  0.7818609E-02  0.8518616E-01
        2   -1    0    0  501    0  0.00000000000E+00  0.00000000000E+00  0.18236336572E+04  0.18236336572E+04  0.25500000920E-02 0.  1.
       -2   -1    0    0    0  501  0.00000000000E+00  0.00000000000E+00 -0.66323761529E+03  0.66323761530E+03  0.25500000920E-02 0. -1.
    10030    2    1    2    0    0  0.00000000000E+00  0.00000000000E+00  0.11603960419E+04  0.24868712725E+04  0.21995476244E+04 0.  0.
        3    1    3    3  502    0  0.59523469595E+03 -0.91782976073E+03  0.70804713651E+03  0.13030911598E+04  0.10100000352E+00 0. -1.
       -3    1    3    3    0  502 -0.59523469595E+03  0.91782976073E+03  0.45234890542E+03  0.11837801128E+04  0.10100000352E+00 0.  1.
</event>
<event>
 5   0  0.2581058E-06  0.2199971E+04  0.7818609E-02  0.8518440E-01
       -2   -1    0    0    0  501  0.00000000000E+00  0.00000000000E+00  0.70872634922E+03  0.70872634923E+03  0.25500000920E-02 0. -1.
        2   -1    0    0  501    0  0.00000000000E+00  0.00000000000E+00 -0.17072428324E+04  0.17072428324E+04  0.25500000920E-02 0.  1.
    10030    2    1    2    0    0  0.00000000000E+00  0.00000000000E+00 -0.99851648317E+03  0.24159691816E+04  0.21999708906E+04 0.  0.
        1    1    3    3  502    0  0.67700061121E+03  0.78949441858E+03 -0.89267233651E+03  0.13705820533E+04  0.50400001928E-02 0.  1.
       -1    1    3    3    0  502 -0.67700061121E+03 -0.78949441858E+03 -0.10584414665E+03  0.10453871283E+04  0.50400001928E-02 0. -1.
</event>
<event>
 5   0  0.1146827E-06  0.2199746E+04  0.7818609E-02  0.8518534E-01
       -1   -1    0    0    0  501  0.00000000000E+00  0.00000000000E+00  0.64908424055E+03  0.64908424057E+03  0.50400001928E-02 0. -1.
        1   -1    0    0  501    0  0.00000000000E+00  0.00000000000E+00 -0.18637339854E+04  0.18637339854E+04  0.50400001928E-02 0.  1.
    10030    2    1    2    0    0  0.00000000000E+00  0.00000000000E+00 -0.12146497448E+04  0.25128182260E+04  0.21997457658E+04 0.  0.
        4    1    3    3  502    0 -0.72898899023E+03  0.24695453087E+03  0.29018508267E+03  0.82256943980E+03  0.12699999809E+01 0. -1.
       -4    1    3    3    0  502  0.72898899023E+03 -0.24695453087E+03 -0.15048348275E+04  0.16902487862E+04  0.12699999809E+01 0.  1.
</event>
<event>
 5   0  0.2581058E-06  0.2199855E+04  0.7818609E-02  0.8518488E-01
       -2   -1    0    0    0  501  0.00000000000E+00  0.00000000000E+00  0.97067121275E+03  0.97067121275E+03  0.25500000920E-02 0. -1.
        2   -1    0    0  501    0  0.00000000000E+00  0.00000000000E+00 -0.12463960414E+04  0.12463960414E+04  0.25500000920E-02 0.  1.
    10030    2    1    2    0    0  0.00000000000E+00  0.00000000000E+00 -0.27572482866E+03  0.22170672542E+04  0.21998552290E+04 0.  0.
        1    1    3    3  502    0 -0.12978418374E+03  0.60521484511E+03 -0.10542133726E+04  0.12224953080E+04  0.50400001928E-02 0.  1.
       -1    1    3    3    0  502  0.12978418374E+03 -0.60521484511E+03  0.77848854392E+03  0.99457194618E+03  0.50400001928E-02 0. -1.
</event>
<event>
 5   0  0.2532239E-06  0.2199083E+04  0.7818609E-02  0.8518810E-01
       -2   -1    0    0    0  501  0.00000000000E+00  0.00000000000E+00  0.12448772157E+04  0.12448772158E+04  0.25500000920E-02 0.  1.
        2   -1    0    0  501    0  0.00000000000E+00  0.00000000000E+00 -0.97117358759E+03  0.97117358759E+03  0.25500000920E-02 0. -1.
    10030    2    1    2    0    0  0.00000000000E+00  0.00000000000E+00  0.27370362816E+03  0.22160508033E+04  0.21990833288E+04 0.  0.
        3    1    3    3  502    0 -0.18151916238E+02  0.12857536434E+02  0.12446504452E+04  0.12448492074E+04  0.10100000352E+00 0.  1.
       -3    1    3    3    0  502  0.18151916238E+02 -0.12857536434E+02 -0.97094681701E+03  0.97120159594E+03  0.10100000352E+00 0. -1.
</event>
<event>
 5   0  0.1082209E-06  0.2196710E+04  0.7818609E-02  0.8519799E-01
       -1   -1    0    0    0  501  0.00000000000E+00  0.00000000000E+00  0.91012722468E+03  0.91012722469E+03  0.50400001928E-02 0. -1.
        1   -1    0    0  501    0  0.00000000000E+00  0.00000000000E+00 -0.13255114964E+04  0.13255114964E+04  0.50400001928E-02 0.  1.
    10030    2    1    2    0    0  0.00000000000E+00  0.00000000000E+00 -0.41538427168E+03  0.22356387211E+04  0.21967103582E+04 0.  0.
        2    1    3    3  502    0 -0.71213895256E+03 -0.83557854365E+03 -0.17470306577E+03  0.11116899530E+04  0.25500000920E-02 0. -1.
       -2    1    3    3    0  502  0.71213895256E+03  0.83557854365E+03 -0.24068120591E+03  0.11239487681E+04  0.25500000920E-02 0.  1.
</event>
<event>
 5   0  0.2532239E-06  0.2199627E+04  0.7818609E-02  0.8518583E-01
       -2   -1    0    0    0  501  0.00000000000E+00  0.00000000000E+00  0.10361142011E+04  0.10361142011E+04  0.25500000920E-02 0. -1.
        2   -1    0    0  501    0  0.00000000000E+00  0.00000000000E+00 -0.11674293511E+04  0.11674293511E+04  0.25500000920E-02 0.  1.
    10030    2    1    2    0    0  0.00000000000E+00  0.00000000000E+00 -0.13131514997E+03  0.22035435522E+04  0.21996273589E+04 0.  0.
        3    1    3    3  502    0 -0.14745109015E+03 -0.51345293405E+03 -0.10287298633E+04  0.11591638716E+04  0.10100000352E+00 0.  1.
       -3    1    3    3    0  502  0.14745109015E+03  0.51345293405E+03  0.89741471329E+03  0.10443796806E+04  0.10100000352E+00 0. -1.
</event>
<event>
 5   0  0.1146827E-06  0.2200789E+04  0.7818609E-02  0.8518100E-01
       -1   -1    0    0    0  501  0.00000000000E+00  0.00000000000E+00  0.74274400422E+03  0.74274400424E+03  0.50400001928E-02 0. -1.
        1   -1    0    0  501    0  0.00000000000E+00  0.00000000000E+00 -0.16302624329E+04  0.16302624329E+04  0.50400001928E-02 0.  1.
    10030    2    1    2    0    0  0.00000000000E+00  0.00000000000E+00 -0.88751842870E+03  0.23730064372E+04  0.22007886290E+04 0.  0.
        4    1    3    3  502    0  0.55840678153E+03 -0.36269743809E+03  0.50086558246E+03  0.83320796315E+03  0.12699999809E+01 0. -1.
       -4    1    3    3    0  502 -0.55840678153E+03  0.36269743809E+03 -0.13883840112E+04  0.15397984740E+04  0.12699999809E+01 0.  1.
</event>
<event>
 5   0  0.1082209E-06  0.2194831E+04  0.7818609E-02  0.8520582E-01
        1   -1    0    0  501    0  0.00000000000E+00  0.00000000000E+00  0.20380129232E+04  0.20380129232E+04  0.50400001928E-02 0. -1.
       -1   -1    0    0    0  501  0.00000000000E+00  0.00000000000E+00 -0.59092910464E+03  0.59092910466E+03  0.50400001928E-02 0.  1.
    10030    2    1    2    0    0  0.00000000000E+00  0.00000000000E+00  0.14470838186E+04  0.26289420279E+04  0.21948313393E+04 0.  0.
        2    1    3    3  502    0  0.65690622106E+03  0.31962743562E+02  0.17758062632E+04  0.18936829947E+04  0.25500000920E-02 0. -1.
       -2    1    3    3    0  502 -0.65690622106E+03 -0.31962743562E+02 -0.32872244459E+03  0.73525903315E+03  0.25500000920E-02 0.  1.
</event>
<event>
 5   0  0.1107101E-06  0.2201197E+04  0.7818609E-02  0.8517930E-01
        1   -1    0    0  501    0  0.00000000000E+00  0.00000000000E+00  0.11284333754E+04  0.11284333754E+04  0.50400001928E-02 0. -1.
       -1   -1    0    0    0  501  0.00000000000E+00  0.00000000000E+00 -0.10734502296E+04  0.10734502296E+04  0.50400001928E-02 0.  1.
    10030    2    1    2    0    0  0.00000000000E+00  0.00000000000E+00  0.54983145806E+02  0.22018836051E+04  0.22011970071E+04 0.  0.
        1    1    3    3  502    0 -0.84768332580E+03  0.35952270325E+03  0.63058382812E+03  0.11160015947E+04  0.50400001928E-02 0. -1.
       -1    1    3    3    0  502  0.84768332580E+03 -0.35952270325E+03 -0.57560068231E+03  0.10858820104E+04  0.50400001928E-02 0.  1.
</event>
<event>
 5   0  0.2581058E-06  0.2198602E+04  0.7818609E-02  0.8519010E-01
        2   -1    0    0  501    0  0.00000000000E+00  0.00000000000E+00  0.26129206547E+04  0.26129206547E+04  0.25500000920E-02 0. -1.
       -2   -1    0    0    0  501  0.00000000000E+00  0.00000000000E+00 -0.46249514475E+03  0.46249514476E+03  0.25500000920E-02 0.  1.
    10030    2    1    2    0    0  0.00000000000E+00  0.00000000000E+00  0.21504255100E+04  0.30754157995E+04  0.21986023892E+04 0.  0.
        1    1    3    3  502    0 -0.87297837961E+03 -0.22656297447E+03  0.19543937218E+04  0.21524583277E+04  0.50400001928E-02 0. -1.
       -1    1    3    3    0  502  0.87297837961E+03  0.22656297447E+03  0.19603178814E+03  0.92295747175E+03  0.50400001928E-02 0.  1.
</event>
<event>
 5   0  0.1107101E-06  0.2201773E+04  0.7818609E-02  0.8517691E-01
       -1   -1    0    0    0  501  0.00000000000E+00  0.00000000000E+00  0.96200365209E+03  0.96200365211E+03  0.50400001928E-02 0. -1.
        1   -1    0    0  501    0  0.00000000000E+00  0.00000000000E+00 -0.12598191393E+04  0.12598191393E+04  0.50400001928E-02 0.  1.
    10030    2    1    2    0    0  0.00000000000E+00  0.00000000000E+00 -0.29781548724E+03  0.22218227914E+04  0.22017725705E+04 0.  0.
        1    1    3    3  502    0 -0.24610350456E+03 -0.44601648704E+03  0.83591649946E+03  0.97890450799E+03  0.50400001928E-02 0. -1.
       -1    1    3    3    0  502  0.24610350456E+03  0.44601648704E+03 -0.11337319867E+04  0.12429182835E+04  0.50400001928E-02 0.  1.
</event>
<event>
 5   0  0.1146827E-06  0.2199917E+04  0.7818609E-02  0.8518463E-01
        1   -1    0    0  501    0  0.00000000000E+00  0.00000000000E+00  0.18429382001E+04  0.18429382001E+04  0.50400001928E-02 0. -1.
       -1   -1    0    0    0  501  0.00000000000E+00  0.00000000000E+00 -0.65651080530E+03  0.65651080532E+03  0.50400001928E-02 0.  1.
    10030    2    1    2    0    0  0.00000000000E+00  0.00000000000E+00  0.11864273948E+04  0.24994490055E+04  0.21999171275E+04 0.  0.
        4    1    3    3  502    0 -0.11704321482E+03  0.99204746592E+03  0.11164008090E+04  0.14980686460E+04  0.12699999809E+01 0. -1.
       -4    1    3    3    0  502  0.11704321482E+03 -0.99204746592E+03  0.70026585829E+02  0.10013803595E+04  0.12699999809E+01 0.  1.
</event>
<event>
 5   0  0.2606154E-06  0.2198209E+04  0.7818609E-02  0.8519174E-01
       -2   -1    0    0    0  501  0.00000000000E+00  0.00000000000E+00  0.62839974492E+03  0.62839974493E+03  0.25500000920E-02 0.  1.
        2   -1    0    0  501    0  0.00000000000E+00  0.00000000000E+00 -0.19223927129E+04  0.19223927129E+04  0.25500000920E-02 0. -1.
    10030    2    1    2    0    0  0.00000000000E+00  0.00000000000E+00 -0.12939929680E+04  0.25507924579E+04  0.21982093535E+04 0.  0.
        2    1    3    3  502    0 -0.70381433133E+03  0.29394814125E+03  0.27130907306E+03  0.80954847654E+03  0.25500000920E-02 0.  1.
       -2    1    3    3    0  502  0.70381433133E+03 -0.29394814125E+03 -0.15653020411E+04  0.17412439813E+04  0.25500000920E-02 0. -1.
</event>
<event>
 5   0  0.2606154E-06  0.2203300E+04  0.7818609E-02  0.8517056E-01
       -2   -1    0    0    0  501  0.00000000000E+00  0.00000000000E+00  0.10018890886E+04  0.10018890886E+04  0.25500000920E-02 0.  1.
        2   -1    0    0  501    0  0.00000000000E+00  0.00000000000E+00 -0.12113446289E+04  0.12113446289E+04  0.25500000920E-02 0. -1.
    10030    2    1    2    0    0  0.00000000000E+00  0.00000000000E+00 -0.20945554025E+03  0.22132337175E+04  0.22033002213E+04 0.  0.
        2    1    3    3  502    0 -0.11015204445E+04  0.15824135498E+02 -0.11069368045E+03  0.11071814593E+04  0.25500000920E-02 0. -1.
       -2    1    3    3    0  502  0.11015204445E+04 -0.15824135498E+02 -0.98761859796E+02  0.11060522582E+04  0.25500000920E-02 0.  1.
</event>
<event>
 5   0  0.8905000E-07  0.2201855E+04  0.7818609E-02  0.8517656E-01
        4   -1    0    0  501    0  0.00000000000E+00  0.00000000000E+00  0.16297067713E+04  0.16297072661E+04  0.12699999809E+01 0.  1.
       -4   -1    0    0    0  501  0.00000000000E+00  0.00000000000E+00 -0.74371637274E+03  0.74371745710E+03  0.12699999809E+01 0. -1.
    10030    2    1    2    0    0  0.00000000000E+00  0.00000000000E+00  0.88599039852E+03  0.23734247232E+04  0.22018551111E+04 0.  0.
        4    1    3    3  502    0  0.56659076448E+03 -0.74419037341E+03 -0.18293742186E+03  0.95305410103E+03  0.12699999809E+01 0. -1.
       -4    1    3    3    0  502 -0.56659076448E+03  0.74419037341E+03  0.10689278204E+04  0.14203706222E+04  0.12699999809E+01 0.  1.
</event>
<event>
 5   0  0.2581058E-06  0.2197741E+04  0.7818609E-02  0.8519369E-01
        2   -1    0    0  501    0  0.00000000000E+00  0.00000000000E+00  0.85119872733E+03  0.85119872733E+03  0.25500000920E-02 0.  1.
       -2   -1    0    0    0  501  0.00000000000E+00  0.00000000000E+00 -0.14186073488E+04  0.14186073488E+04  0.25500000920E-02 0. -1.
    10030    2    1    2    0    0  0.00000000000E+00  0.00000000000E+00 -0.56740862144E+03  0.22698060761E+04  0.21977413586E+04 0.  0.
        1    1    3    3  502    0  0.97173162179E+03 -0.32263624884E+03  0.12832633122E+03  0.10319031646E+04  0.50400001928E-02 0.  1.
       -1    1    3    3    0  502 -0.97173162179E+03  0.32263624884E+03 -0.69573495266E+03  0.12379029115E+04  0.50400001928E-02 0. -1.
</event>
<event>
 5   0  0.1144271E-06  0.2199771E+04  0.7818609E-02  0.8518524E-01
        1   -1    0    0  501    0  0.00000000000E+00  0.00000000000E+00  0.11165496270E+04  0.11165496270E+04  0.50400001928E-02 0. -1.
       -1   -1    0    0    0  501  0.00000000000E+00  0.00000000000E+00 -0.10834697948E+04  0.10834697948E+04  0.50400001928E-02 0.  1.
    10030    2    1    2    0    0  0.00000000000E+00  0.00000000000E+00  0.33079832209E+02  0.22000194219E+04  0.21997707111E+04 0.  0.
        3    1    3    3  502    0  0.23716771361E+03 -0.83062786086E+03  0.69746681734E+03  0.11102482331E+04  0.10100000352E+00 0. -1.
       -3    1    3    3    0  502 -0.23716771361E+03  0.83062786086E+03 -0.66438698513E+03  0.10897711887E+04  0.10100000352E+00 0.  1.
</event>
<event>
 5   0  0.2524749E-06  0.2202774E+04  0.7818609E-02  0.8517275E-01
        2   -1    0    0  501    0  0.00000000000E+00  0.00000000000E+00  0.16903983299E+04  0.16903983299E+04  0.25500000920E-02 0. -1.
       -2   -1    0    0    0  501  0.00000000000E+00  0.00000000000E+00 -0.71761356656E+03  0.71761356657E+03  0.25500000920E-02 0.  1.
    10030    2    1    2    0    0  0.00000000000E+00  0.00000000000E+00  0.97278476331E+03  0.24080118964E+04  0.22027735012E+04 0.  0.
        4    1    3    3  502    0 -0.91803387599E+03 -0.46502328543E+03  0.91540983331E+03  0.13773197266E+04  0.12699999809E+01 0. -1.
       -4    1    3    3    0  502  0.91803387599E+03  0.46502328543E+03  0.57374929997E+02  0.10306921698E+04  0.12699999809E+01 0.  1.
</event>
<event>
 5   0  0.2556869E-06  0.2201099E+04  0.7818609E-02  0.8517971E-01
        2   -1    0    0  501    0  0.00000000000E+00  0.00000000000E+00  0.16142837479E+04  0.16142837479E+04  0.25500000920E-02 0.  1.
       -2   -1    0    0    0  501  0.00000000000E+00  0.00000000000E+00 -0.75030718104E+03  0.75030718104E+03  0.25500000920E-02 0. -1.
    10030    2    1    2    0    0  0.00000000000E+00  0.00000000000E+00  0.86397656685E+03  0.23645909289E+04  0.22010985333E+04 0.  0.
        5    1    3    3  502    0  0.58479479129E+03  0.22566273502E+02  0.14332544682E+04  0.15481390910E+04  0.46999998093E+01 0.  1.
       -5    1    3    3    0  502 -0.58479479129E+03 -0.22566273502E+02 -0.56927790135E+03  0.81645183788E+03  0.46999998093E+01 0. -1.
</event>
<event>
 5   0  0.2532239E-06  0.2200389E+04  0.7818609E-02  0.8518266E-01
        2   -1    0    0  501    0  0.00000000000E+00  0.00000000000E+00  0.11561728799E+04  0.11561728799E+04  0.25500000920E-02 0. -1.
       -2   -1    0    0    0  501  0.00000000000E+00  0.00000000000E+00 -0.10469264514E+04  0.10469264514E+04  0.25500000920E-02 0.  1.
    10030    2    1    2    0    0  0.00000000000E+00  0.00000000000E+00  0.10924642843E+03  0.22030993313E+04  0.22003890296E+04 0.  0.
        3    1    3    3  502    0 -0.25597788165E+03  0.62843944569E+03  0.92169634294E+03  0.11445457490E+04  0.10100000352E+00 0. -1.
       -3    1    3    3    0  502  0.25597788165E+03 -0.62843944569E+03 -0.81244991450E+03  0.10585535823E+04  0.10100000352E+00 0.  1.
</event>
<event>
 5   0  0.1107101E-06  0.2200871E+04  0.7818609E-02  0.8518066E-01
       -1   -1    0    0    0  501  0.00000000000E+00  0.00000000000E+00  0.81858657326E+03  0.81858657328E+03  0.50400001928E-02 0. -1.
        1   -1    0    0  501    0  0.00000000000E+00  0.00000000000E+00 -0.14793279119E+04  0.14793279119E+04  0.50400001928E-02 0.  1.
    10030    2    1    2    0    0  0.00000000000E+00  0.00000000000E+00 -0.66074133865E+03  0.22979144852E+04  0.22008707060E+04 0.  0.
        1    1    3    3  502    0 -0.25610538747E+03  0.28154503743E+03  0.74767803929E+03  0.83897558251E+03  0.50400001928E-02 0. -1.
       -1    1    3    3    0  502  0.25610538747E+03 -0.28154503743E+03 -0.14084193779E+04  0.14589389027E+04  0.50400001928E-02 0.  1.
</event>
<event>
 5   0  0.1082209E-06  0.2199972E+04  0.7818609E-02  0.8518440E-01
        1   -1    0    0  501    0  0.00000000000E+00  0.00000000000E+00  0.12945212575E+04  0.12945212575E+04  0.50400001928E-02 0. -1.
       -1   -1    0    0    0  501  0.00000000000E+00  0.00000000000E+00 -0.93468452922E+03  0.93468452924E+03  0.50400001928E-02 0.  1.
    10030    2    1    2    0    0  0.00000000000E+00  0.00000000000E+00  0.35983672823E+03  0.22292057867E+04  0.21999718108E+04 0.  0.
        2    1    3    3  502    0  0.10822672488E+04 -0.14735512157E+03  0.31185248484E+03  0.11358996003E+04  0.25500000920E-02 0. -1.
       -2    1    3    3    0  502 -0.10822672488E+04  0.14735512157E+03  0.47984243397E+02  0.10933061864E+04  0.25500000920E-02 0.  1.
</event>
<event>
 5   0  0.1082209E-06  0.2200356E+04  0.7818609E-02  0.8518280E-01
        1   -1    0    0  501    0  0.00000000000E+00  0.00000000000E+00  0.12020800538E+04  0.12020800538E+04  0.50400001928E-02 0.  1.
       -1   -1    0    0    0  501  0.00000000000E+00  0.00000000000E+00 -0.10069140837E+04  0.10069140837E+04  0.50400001928E-02 0. -1.
    10030    2    1    2    0    0  0.00000000000E+00  0.00000000000E+00  0.19516597008E+03  0.22089941376E+04  0.22003557312E+04 0.  0.
        2    1    3    3  502    0  0.66972828319E+03  0.63587799284E+03 -0.50268961432E+03  0.10514626210E+04  0.25500000920E-02 0. -1.
       -2    1    3    3    0  502 -0.66972828319E+03 -0.63587799284E+03  0.69785558440E+03  0.11575315165E+04  0.25500000920E-02 0.  1.
</event>
<event>
 5   0  0.2606154E-06  0.2202954E+04  0.7818609E-02  0.8517200E-01
       -2   -1    0    0    0  501  0.00000000000E+00  0.00000000000E+00  0.98555378840E+03  0.98555378840E+03  0.25500000920E-02 0.  1.
        2   -1    0    0  501    0  0.00000000000E+00  0.00000000000E+00 -0.12310351177E+04  0.12310351177E+04  0.25500000920E-02 0. -1.
    10030    2    1    2    0    0  0.00000000000E+00  0.00000000000E+00 -0.24548132926E+03  0.22165889061E+04  0.22029537661E+04 0.  0.
        2    1    3    3  502    0  0.59831560698E+03 -0.54953135467E+03  0.62569459580E+03  0.10254072374E+04  0.25500000920E-02 0. -1.
       -2    1    3    3    0  502 -0.59831560698E+03  0.54953135467E+03 -0.87117592506E+03  0.11911816687E+04  0.25500000920E-02 0.  1.
</event>
<event>
 5   0  0.2524749E-06  0.2198293E+04  0.7818609E-02  0.8519139E-01
       -2   -1    0    0    0  501  0.00000000000E+00  0.00000000000E+00  0.76797215320E+03  0.76797215321E+03  0.25500000920E-02 0. -1.
        2   -1    0    0  501    0  0.00000000000E+00  0.00000000000E+00 -0.15731332755E+04  0.15731332755E+04  0.25500000920E-02 0.  1.
    10030    2    1    2    0    0  0.00000000000E+00  0.00000000000E+00 -0.80516112230E+03  0.23411054287E+04  0.21982925637E+04 0.  0.
        4    1    3    3  502    0 -0.18380491461E+03 -0.10674211003E+04 -0.60167179481E+03  0.12390248640E+04  0.12699999809E+01 0.  1.
       -4    1    3    3    0  502  0.18380491461E+03  0.10674211003E+04 -0.20348932749E+03  0.11020805648E+04  0.12699999809E+01 0. -1.
</event>
<event>
 5   0  0.2556869E-06  0.2199333E+04  0.7818609E-02  0.8518706E-01
       -2   -1    0    0    0  501  0.00000000000E+00  0.00000000000E+00  0.99447376002E+03  0.99447376002E+03  0.25500000920E-02 0. -1.
        2   -1    0    0  501    0  0.00000000000E+00  0.00000000000E+00 -0.12159859972E+04  0.12159859972E+04  0.25500000920E-02 0.  1.
    10030    2    1    2    0    0  0.00000000000E+00  0.00000000000E+00 -0.22151223716E+03  0.22104597572E+04  0.21993327777E+04 0.  0.
        5    1    3    3  502    0  0.45870980839E+03  0.39530965717E+03 -0.10333105470E+04  0.11976799197E+04  0.46999998093E+01 0.  1.
       -5    1    3    3    0  502 -0.45870980839E+03 -0.39530965717E+03  0.81179830989E+03  0.10127798375E+04  0.46999998093E+01 0. -1.
</event>
<event>
 5   0  0.1107101E-06  0.2200331E+04  0.7818609E-02  0.8518290E-01
       -1   -1    0    0    0  501  0.00000000000E+00  0.00000000000E+00  0.96289390307E+03  0.96289390309E+03  0.50400001928E-02 0.  1.
        1   -1    0    0  501    0  0.00000000000E+00  0.00000000000E+00 -0.12570067332E+04  0.12570067332E+04  0.50400001928E-02 0. -1.
    10030    2    1    2    0    0  0.00000000000E+00  0.00000000000E+00 -0.29411283016E+03  0.22199006363E+04  0.22003309929E+04 0.  0.
        1    1    3    3  502    0 -0.73416144753E+03  0.21023657520E+03  0.65192878766E+03  0.10040934184E+04  0.50400001928E-02 0.  1.
       -1    1    3    3    0  502  0.73416144753E+03 -0.21023657520E+03 -0.94604161782E+03  0.12158072180E+04  0.50400001928E-02 0. -1.
</event>
<event>
 5   0  0.1146827E-06  0.2199674E+04  0.7818609E-02  0.8518564E-01
       -1   -1    0    0    0  501  0.00000000000E+00  0.00000000000E+00  0.13798404069E+04  0.13798404070E+04  0.50400001928E-02 0. -1.
        1   -1    0    0  501    0  0.00000000000E+00  0.00000000000E+00 -0.87665307717E+03  0.87665307718E+03  0.50400001928E-02 0.  1.
    10030    2    1    2    0    0  0.00000000000E+00  0.00000000000E+00  0.50318732978E+03  0.22564934841E+04  0.21996739202E+04 0.  0.
        4    1    3    3  502    0  0.78575371948E+03 -0.25368146828E+03  0.99691225711E+03  0.12944492483E+04  0.12699999809E+01 0. -1.
       -4    1    3    3    0  502 -0.78575371948E+03  0.25368146828E+03 -0.49372492733E+03  0.96204423588E+03  0.12699999809E+01 0.  1.
</event>
<event>
 5   0  0.2606154E-06  0.2199185E+04  0.7818609E-02  0.8518767E-01
        2   -1    0    0  501    0  0.00000000000E+00  0.00000000000E+00  0.12601300710E+04  0.12601300710E+04  0.25500000920E-02 0. -1.
       -2   -1    0    0    0  501  0.00000000000E+00  0.00000000000E+00 -0.95950729771E+03  0.95950729771E+03  0.25500000920E-02 0.  1.
    10030    2    1    2    0    0  0.00000000000E+00  0.00000000000E+00  0.30062277326E+03  0.22196373687E+04  0.21991853029E+04 0.  0.
        2    1    3    3  502    0  0.49669742612E+03 -0.97640601535E+03  0.24620527830E+03  0.11228063408E+04  0.25500000920E-02 0. -1.
       -2    1    3    3    0  502 -0.49669742612E+03  0.97640601535E+03  0.54417494968E+02  0.10968310279E+04  0.25500000920E-02 0.  1.
</event>
<event>
 5   0  0.2581058E-06  0.2199560E+04  0.7818609E-02  0.8518611E-01
        2   -1    0    0  501    0  0.00000000000E+00  0.00000000000E+00  0.12953535365E+04  0.12953535365E+04  0.25500000920E-02 0. -1.
       -2   -1    0    0    0  501  0.00000000000E+00  0.00000000000E+00 -0.93373423671E+03  0.93373423671E+03  0.25500000920E-02 0.  1.
    10030    2    1    2    0    0  0.00000000000E+00  0.00000000000E+00  0.36161929981E+03  0.22290877732E+04  0.21995599066E+04 0.  0.
        1    1    3    3  502    0  0.10360053119E+02 -0.29838152022E+03 -0.89187850118E+03  0.94052438735E+03  0.50400001928E-02 0.  1.
       -1    1    3    3    0  502 -0.10360053119E+02  0.29838152022E+03  0.12534978010E+04  0.12885633859E+04  0.50400001928E-02 0. -1.
</event>
<event>
 5   0  0.2581058E-06  0.2200139E+04  0.7818609E-02  0.8518370E-01
       -2   -1    0    0    0  501  0.00000000000E+00  0.00000000000E+00  0.13281400385E+04  0.13281400385E+04  0.25500000920E-02 0.  1.
        2   -1    0    0  501    0  0.00000000000E+00  0.00000000000E+00 -0.91116346078E+03  0.91116346078E+03  0.25500000920E-02 0. -1.
    10030    2    1    2    0    0  0.00000000000E+00  0.00000000000E+00  0.41697657771E+03  0.22393034993E+04  0.22001387900E+04 0.  0.
        1    1    3    3  502    0 -0.27312255287E+03 -0.29387233593E+03  0.12510245069E+04  0.13137804975E+04  0.50400001928E-02 0.  1.
       -1    1    3    3    0  502  0.27312255287E+03  0.29387233593E+03 -0.83404792916E+03  0.92552300180E+03  0.50400001928E-02 0. -1.
</event>
<event>
 5   0  0.1082209E-06  0.2202408E+04  0.7818609E-02  0.8517426E-01
        1   -1    0    0  501    0  0.00000000000E+00  0.00000000000E+00  0.69372228034E+03  0.69372228036E+03  0.50400001928E-02 0. -1.
       -1   -1    0    0    0  501  0.00000000000E+00  0.00000000000E+00 -0.17480345351E+04  0.17480345351E+04  0.50400001928E-02 0.  1.
    10030    2    1    2    0    0  0.00000000000E+00  0.00000000000E+00 -0.10543122548E+04  0.24417568155E+04  0.22024082309E+04 0.  0.
        2    1    3    3  502    0  0.20041384505E+03 -0.72925504378E+02  0.67060723585E+03  0.70370299364E+03  0.25500000920E-02 0. -1.
       -2    1    3    3    0  502 -0.20041384505E+03  0.72925504378E+02 -0.17249194907E+04  0.17380538219E+04  0.25500000920E-02 0.  1.
</event>
<event>
 5   0  0.2556869E-06  0.2200184E+04  0.7818609E-02  0.8518352E-01
        2   -1    0    0  501    0  0.00000000000E+00  0.00000000000E+00  0.98261617976E+03  0.98261617977E+03  0.25500000920E-02 0.  1.
       -2   -1    0    0    0  501  0.00000000000E+00  0.00000000000E+00 -0.12316126147E+04  0.12316126147E+04  0.25500000920E-02 0. -1.
    10030    2    1    2    0    0  0.00000000000E+00  0.00000000000E+00 -0.24899643491E+03  0.22142287944E+04  0.22001840672E+04 0.  0.
        5    1    3    3  502    0  0.36997071275E+03 -0.82259693532E+03  0.50931272540E+03  0.10358405227E+04  0.46999998093E+01 0.  1.
       -5    1    3    3    0  502 -0.36997071275E+03  0.82259693532E+03 -0.75830916031E+03  0.11783882717E+04  0.46999998093E+01 0. -1.
</event>
<event>
 5   0  0.1146827E-06  0.2200104E+04  0.7818609E-02  0.8518385E-01
       -1   -1    0    0    0  501  0.00000000000E+00  0.00000000000E+00  0.79046436962E+03  0.79046436964E+03  0.50400001928E-02 0.  1.
        1   -1    0    0  501    0  0.00000000000E+00  0.00000000000E+00 -0.15308901010E+04  0.15308901010E+04  0.50400001928E-02 0. -1.
    10030    2    1    2    0    0  0.00000000000E+00  0.00000000000E+00 -0.74042573134E+03  0.23213544706E+04  0.22001037054E+04 0.  0.
        4    1    3    3  502    0  0.81125833857E+02 -0.87007011618E+03  0.33482662994E+03  0.93579586076E+03  0.12699999809E+01 0.  1.
       -4    1    3    3    0  502 -0.81125833857E+02  0.87007011618E+03 -0.10752523613E+04  0.13855586098E+04  0.12699999809E+01 0. -1.
</event>
<event>
 5   0  0.1107101E-06  0.2199335E+04  0.7818609E-02  0.8518705E-01
        1   -1    0    0  501    0  0.00000000000E+00  0.00000000000E+00  0.16048432253E+04  0.16048432253E+04  0.50400001928E-02 0. -1.
       -1   -1    0    0    0  501  0.00000000000E+00  0.00000000000E+00 -0.75351210802E+03  0.75351210804E+03  0.50400001928E-02 0.  1.
    10030    2    1    2    0    0  0.00000000000E+00  0.00000000000E+00  0.85133111730E+03  0.23583553334E+04  0.21993351739E+04 0.  0.
        1    1    3    3  502    0  0.10994234543E+04  0.19593362148E+02  0.41240319082E+03  0.11743901496E+04  0.50400001928E-02 0. -1.
       -1    1    3    3    0  502 -0.10994234543E+04 -0.19593362148E+02  0.43892792648E+03  0.11839651838E+04  0.50400001928E-02 0.  1.
</event>
<event>
 5   0  0.1107101E-06  0.2199830E+04  0.7818609E-02  0.8518499E-01
        1   -1    0    0  501    0  0.00000000000E+00  0.00000000000E+00  0.11594279633E+04  0.11594279633E+04  0.50400001928E-02 0.  1.
       -1   -1    0    0    0  501  0.00000000000E+00  0.00000000000E+00 -0.10434565927E+04  0.10434565927E+04  0.50400001928E-02 0. -1.
    10030    2    1    2    0    0  0.00000000000E+00  0.00000000000E+00  0.11597137062E+03  0.22028845560E+04  0.21998297680E+04 0.  0.
        1    1    3    3  502    0 -0.44584451060E+03 -0.18991608931E+03  0.10467611680E+04  0.11534965936E+04  0.50400001928E-02 0.  1.
       -1    1    3    3    0  502  0.44584451060E+03  0.18991608931E+03 -0.93078979738E+03  0.10493879624E+04  0.50400001928E-02 0. -1.
</event>
<event>
 5   0  0.1082209E-06  0.2199675E+04  0.7818609E-02  0.8518564E-01
       -1   -1    0    0    0  501  0.00000000000E+00  0.00000000000E+00  0.56525587208E+03  0.56525587210E+03  0.50400001928E-02 0. -1.
        1   -1    0    0  501    0  0.00000000000E+00  0.00000000000E+00 -0.21399901663E+04  0.21399901663E+04  0.50400001928E-02 0.  1.
    10030    2    1    2    0    0  0.00000000000E+00  0.00000000000E+00 -0.15747342942E+04  0.27052460384E+04  0.21996745284E+04 0.  0.
        2    1    3    3  502    0  0.76780828175E+03  0.14569995374E+03 -0.17391101434E+04  0.19066363379E+04  0.25500000920E-02 0.  1.
       -2    1    3    3    0  502 -0.76780828175E+03 -0.14569995374E+03  0.16437584913E+03  0.79860970056E+03  0.25500000920E-02 0. -1.
</event>
<event>
 5   0  0.1107101E-06  0.2206975E+04  0.7818609E-02  0.8515530E-01
       -1   -1    0    0    0  501  0.00000000000E+00  0.00000000000E+00  0.15913984840E+04  0.15913984840E+04  0.50400001928E-02 0. -1.
        1   -1    0    0  501    0  0.00000000000E+00  0.00000000000E+00 -0.76516664228E+03  0.76516664230E+03  0.50400001928E-02 0.  1.
    10030    2    1    2    0    0  0.00000000000E+00  0.00000000000E+00  0.82623184173E+03  0.23565651263E+04  0.22069753370E+04 0.  0.
        1    1    3    3  502    0  0.44776593153E+03 -0.65590220447E+02 -0.66152361496E+03  0.80150477206E+03  0.50400001928E-02 0.  1.
       -1    1    3    3    0  502 -0.44776593153E+03  0.65590220447E+02  0.14877554567E+04  0.15550603543E+04  0.50400001928E-02 0. -1.
</event>
<event>
 5   0  0.2532239E-06  0.2199318E+04  0.7818609E-02  0.8518712E-01
       -2   -1    0    0    0  501  0.00000000000E+00  0.00000000000E+00  0.85558738819E+03  0.85558738819E+03  0.25500000920E-02 0. -1.
        2   -1    0    0  501    0  0.00000000000E+00  0.00000000000E+00 -0.14133567698E+04  0.14133567698E+04  0.25500000920E-02 0.  1.
    10030    2    1    2    0    0  0.00000000000E+00  0.00000000000E+00 -0.55776938163E+03  0.22689441580E+04  0.21993182828E+04 0.  0.
        3    1    3    3  502    0  0.21088020327E+03  0.36800787010E+03  0.76780332053E+03  0.87716714588E+03  0.10100000352E+00 0. -1.
       -3    1    3    3    0  502 -0.21088020327E+03 -0.36800787010E+03 -0.13255727022E+04  0.13917770121E+04  0.10100000352E+00 0.  1.
</event>
<event>
 5   0  0.1144271E-06  0.2200057E+04  0.7818609E-02  0.8518404E-01
       -1   -1    0    0    0  501  0.00000000000E+00  0.00000000000E+00  0.11874561738E+04  0.11874561738E+04  0.50400001928E-02 0.  1.
        1   -1    0    0  501    0  0.00000000000E+00  0.00000000000E+00 -0.10190380493E+04  0.10190380494E+04  0.50400001928E-02 0. -1.
    10030    2    1    2    0    0  0.00000000000E+00  0.00000000000E+00  0.16841812445E+03  0.22064942232E+04  0.22000572929E+04 0.  0.
        3    1    3    3  502    0 -0.49540297080E+03  0.31756664433E+03  0.10163315261E+04  0.11743945071E+04  0.10100000352E+00 0.  1.
       -3    1    3    3    0  502  0.49540297080E+03 -0.31756664433E+03 -0.84791340165E+03  0.10320997161E+04  0.10100000352E+00 0. -1.
</event>
<event>
 5   0  0.2524749E-06  0.2202432E+04  0.7818609E-02  0.8517417E-01
       -2   -1    0    0    0  501  0.00000000000E+00  0.00000000000E+00  0.55226324046E+03  0.55226324046E+03  0.25500000920E-02 0. -1.
        2   -1    0    0  501    0  0.00000000000E+00  0.00000000000E+00 -0.21958310522E+04  0.21958310522E+04  0.25500000920E-02 0.  1.
    10030    2    1    2    0    0  0.00000000000E+00  0.00000000000E+00 -0.16435678117E+04  0.27480942926E+04  0.22024320851E+04 0.  0.
        4    1    3    3  502    0 -0.45988465174E+02  0.38155285437E+01 -0.21946231733E+04  0.21951086494E+04  0.12699999809E+01 0.  1.
       -4    1    3    3    0  502  0.45988465174E+02 -0.38155285437E+01  0.55105536157E+03  0.55298564321E+03  0.12699999809E+01 0. -1.
</event>
<event>
 5   0  0.2532239E-06  0.2204569E+04  0.7818609E-02  0.8516529E-01
       -2   -1    0    0    0  501  0.00000000000E+00  0.00000000000E+00  0.14890556617E+04  0.14890556617E+04  0.25500000920E-02 0. -1.
        2   -1    0    0  501    0  0.00000000000E+00  0.00000000000E+00 -0.81597448518E+03  0.81597448519E+03  0.25500000920E-02 0.  1.
    10030    2    1    2    0    0  0.00000000000E+00  0.00000000000E+00  0.67308117649E+03  0.23050301469E+04  0.22045692794E+04 0.  0.
        3    1    3    3  502    0 -0.22886671293E+03  0.23170418090E+02 -0.79059803743E+03  0.82338454415E+03  0.10100000352E+00 0.  1.
       -3    1    3    3    0  502  0.22886671293E+03 -0.23170418090E+02  0.14636792139E+04  0.14816456027E+04  0.10100000352E+00 0. -1.
</event>
<event>
 5   0  0.2606154E-06  0.2200005E+04  0.7818609E-02  0.8518426E-01
       -2   -1    0    0    0  501  0.00000000000E+00  0.00000000000E+00  0.10024518245E+04  0.10024518245E+04  0.25500000920E-02 0.  1.
        2   -1    0    0  501    0  0.00000000000E+00  0.00000000000E+00 -0.12070462755E+04  0.12070462755E+04  0.25500000920E-02 0. -1.
    10030    2    1    2    0    0  0.00000000000E+00  0.00000000000E+00 -0.20459445094E+03  0.22094981000E+04  0.22000052192E+04 0.  0.
        2    1    3    3  502    0  0.69365317050E+02 -0.40939196286E+02 -0.12040806846E+04  0.12067716686E+04  0.25500000920E-02 0. -1.
       -2    1    3    3    0  502 -0.69365317050E+02  0.40939196286E+02  0.99948623368E+03  0.10027264315E+04  0.25500000920E-02 0.  1.
</event>
<event>
 5   0  0.1137869E-06  0.2199113E+04  0.7818609E-02  0.8518798E-01
       -1   -1    0    0    0  501  0.00000000000E+00  0.00000000000E+00  0.61834818370E+03  0.61834818372E+03  0.50400001928E-02 0.  1.
        1   -1    0    0  501    0  0.00000000000E+00  0.00000000000E+00 -0.19552480771E+04  0.19552480771E+04  0.50400001928E-02 0. -1.
    10030    2    1    2    0    0  0.00000000000E+00  0.00000000000E+00 -0.13368998934E+04  0.25735962608E+04  0.21991126367E+04 0.  0.
        5    1    3    3  502    0  0.10474752640E+04  0.15360289598E+03 -0.32088464333E+03  0.11062492137E+04  0.46999998093E+01 0.  1.
       -5    1    3    3    0  502 -0.10474752640E+04 -0.15360289598E+03 -0.10160152500E+04  0.14673470471E+04  0.46999998093E+01 0. -1.
</event>
<event>
 5   0  0.1107101E-06  0.2198696E+04  0.7818609E-02  0.8518971E-01
        1   -1    0    0  501    0  0.00000000000E+00  0.00000000000E+00  0.13150043417E+04  0.13150043417E+04  0.50400001928E-02 0.  1.
       -1   -1    0    0    0  501  0.00000000000E+00  0.00000000000E+00 -0.91905880425E+03  0.91905880427E+03  0.50400001928E-02 0. -1.
    10030    2    1    2    0    0  0.00000000000E+00  0.00000000000E+00  0.39594553740E+03  0.22340631459E+04  0.21986962663E+04 0.  0.
        1    1    3    3  502    0  0.94489341863E+03  0.46690148005E+02 -0.37100127591E+03  0.10161916597E+04  0.50400001928E-02 0. -1.
       -1    1    3    3    0  502 -0.94489341863E+03 -0.46690148005E+02  0.76694681332E+03  0.12178714862E+04  0.50400001928E-02 0.  1.
</event>
<event>
 5   0  0.2581058E-06  0.2203459E+04  0.7818609E-02  0.8516990E-01
       -2   -1    0    0    0  501  0.00000000000E+00  0.00000000000E+00  0.71043058343E+03  0.71043058344E+03  0.25500000920E-02 0. -1.
        2   -1    0    0  501    0  0.00000000000E+00  0.00000000000E+00 -0.17085527814E+04  0.17085527814E+04  0.25500000920E-02 0.  1.
    10030    2    1    2    0    0  0.00000000000E+00  0.00000000000E+00 -0.99812219793E+03  0.24189833648E+04  0.22034592343E+04 0.  0.
        1    1    3    3  502    0 -0.69730048674E+03  0.83440676205E+03 -0.69342504663E+03  0.12896902375E+04  0.50400001928E-02 0.  1.
       -1    1    3    3    0  502  0.69730048674E+03 -0.83440676205E+03 -0.30469715130E+03  0.11292931273E+04  0.50400001928E-02 0. -1.
</event>
<event>
 5   0  0.2524749E-06  0.2201258E+04  0.7818609E-02  0.8517905E-01
        2   -1    0    0  501    0  0.00000000000E+00  0.00000000000E+00  0.17171995886E+04  0.17171995886E+04  0.25500000920E-02 0.  1.
       -2   -1    0    0    0  501  0.00000000000E+00  0.00000000000E+00 -0.70544168521E+03  0.70544168521E+03  0.25500000920E-02 0. -1.
    10030    2    1    2    0    0  0.00000000000E+00  0.00000000000E+00  0.10117579033E+04  0.24226412738E+04  0.22012579781E+04 0.  0.
        4    1    3    3  502    0  0.60375146897E+03 -0.47172851492E+03  0.13754966642E+04  0.15744955745E+04  0.12699999809E+01 0.  1.
       -4    1    3    3    0  502 -0.60375146897E+03  0.47172851492E+03 -0.36373876087E+03  0.84814569923E+03  0.12699999809E+01 0. -1.
</event>
<event>
 5   0  0.2556869E-06  0.2199886E+04  0.7818609E-02  0.8518476E-01
       -2   -1    0    0    0  501  0.00000000000E+00  0.00000000000E+00  0.10657989657E+04  0.10657989657E+04  0.25500000920E-02 0.  1.
        2   -1    0    0  501    0  0.00000000000E+00  0.00000000000E+00 -0.11351806208E+04  0.11351806208E+04  0.25500000920E-02 0. -1.
    10030    2    1    2    0    0  0.00000000000E+00  0.00000000000E+00 -0.69381655018E+02  0.22009795865E+04  0.21998857530E+04 0.  0.
        5    1    3    3  502    0 -0.38031467813E+03 -0.88359335823E+02 -0.10635044204E+04  0.11329211662E+04  0.46999998093E+01 0. -1.
       -5    1    3    3    0  502  0.38031467813E+03  0.88359335823E+02  0.99412276536E+03  0.10680584203E+04  0.46999998093E+01 0.  1.
</event>
<event>
 5   0  0.2532239E-06  0.2193991E+04  0.7818609E-02  0.8520933E-01
       -2   -1    0    0    0  501  0.00000000000E+00  0.00000000000E+00  0.78477338812E+03  0.78477338812E+03  0.25500000920E-02 0. -1.
        2   -1    0    0  501    0  0.00000000000E+00  0.00000000000E+00 -0.15334348113E+04  0.15334348113E+04  0.25500000920E-02 0.  1.
    10030    2    1    2    0    0  0.00000000000E+00  0.00000000000E+00 -0.74866142316E+03  0.23182081994E+04  0.21939907314E+04 0.  0.
        3    1    3    3  502    0 -0.18211756015E+02 -0.58181852404E+03  0.60812685428E+03  0.84182108792E+03  0.10100000352E+00 0. -1.
       -3    1    3    3    0  502  0.18211756015E+02  0.58181852404E+03 -0.13567882774E+04  0.14763871115E+04  0.10100000352E+00 0.  1.
</event>
<event>
 5   0  0.2524749E-06  0.2200753E+04  0.7818609E-02  0.8518115E-01
       -2   -1    0    0    0  501  0.00000000000E+00  0.00000000000E+00  0.10170800774E+04  0.10170800774E+04  0.25500000920E-02 0. -1.
        2   -1    0    0  501    0  0.00000000000E+00  0.00000000000E+00 -0.11904951988E+04  0.11904951989E+04  0.25500000920E-02 0.  1.
    10030    2    1    2    0    0  0.00000000000E+00  0.00000000000E+00 -0.17341512141E+03  0.22075752763E+04  0.22007534610E+04 0.  0.
        4    1    3    3  502    0 -0.64171530009E+03 -0.49461923684E+03  0.66016782699E+03  0.10451171650E+04  0.12699999809E+01 0. -1.
       -4    1    3    3    0  502  0.64171530009E+03  0.49461923684E+03 -0.83358294840E+03  0.11624581113E+04  0.12699999809E+01 0.  1.
</event>
<event>
 5   0  0.1137869E-06  0.2199952E+04  0.7818609E-02  0.8518448E-01
       -1   -1    0    0    0  501  0.00000000000E+00  0.00000000000E+00  0.62251112174E+03  0.62251112176E+03  0.50400001928E-02 0.  1.
        1   -1    0    0  501    0  0.00000000000E+00  0.00000000000E+00 -0.19436558257E+04  0.19436558257E+04  0.50400001928E-02 0. -1.
    10030    2    1    2    0    0  0.00000000000E+00  0.00000000000E+00 -0.13211447040E+04  0.25661669475E+04  0.21999521525E+04 0.  0.
        5    1    3    3  502    0  0.73253513378E+03  0.81930134495E+03 -0.60759298186E+03  0.12558080019E+04  0.46999998093E+01 0.  1.
       -5    1    3    3    0  502 -0.73253513378E+03 -0.81930134495E+03 -0.71355172210E+03  0.13103589455E+04  0.46999998093E+01 0. -1.
</event>
<event>
 5   0  0.1082209E-06  0.2204283E+04  0.7818609E-02  0.8516648E-01
       -1   -1    0    0    0  501  0.00000000000E+00  0.00000000000E+00  0.66935430679E+03  0.66935430681E+03  0.50400001928E-02 0.  1.
        1   -1    0    0  501    0  0.00000000000E+00  0.00000000000E+00 -0.18147575341E+04  0.18147575341E+04  0.50400001928E-02 0. -1.
    10030    2    1    2    0    0  0.00000000000E+00  0.00000000000E+00 -0.11454032273E+04  0.24841118409E+04  0.22042828959E+04 0.  0.
        2    1    3    3  502    0 -0.10761266064E+04  0.86698831479E+02 -0.82254523983E+03  0.13572567303E+04  0.25500000920E-02 0. -1.
       -2    1    3    3    0  502  0.10761266064E+04 -0.86698831479E+02 -0.32285798748E+03  0.11268551106E+04  0.25500000920E-02 0.  1.
</event>
<event>
 5   0  0.2524749E-06  0.2197315E+04  0.7818609E-02  0.8519546E-01
       -2   -1    0    0    0  501  0.00000000000E+00  0.00000000000E+00  0.63038128175E+03  0.63038128175E+03  0.25500000920E-02 0. -1.
        2   -1    0    0  501    0  0.00000000000E+00  0.00000000000E+00 -0.19147914311E+04  0.19147914311E+04  0.25500000920E-02 0.  1.
    10030    2    1    2    0    0  0.00000000000E+00  0.00000000000E+00 -0.12844101493E+04  0.25451727128E+04  0.21973153407E+04 0.  0.
        4    1    3    3  502    0  0.15748037281E+03 -0.82470022385E+03  0.17857562002E+03  0.85838301009E+03  0.12699999809E+01 0. -1.
       -4    1    3    3    0  502 -0.15748037281E+03  0.82470022385E+03 -0.14629857693E+04  0.16867897027E+04  0.12699999809E+01 0.  1.
</event>
<event>
 5   0  0.2532239E-06  0.2202540E+04  0.7818609E-02  0.8517372E-01
        2   -1    0    0  501    0  0.00000000000E+00  0.00000000000E+00  0.15029230075E+04  0.15029230075E+04  0.25500000920E-02 0. -1.
       -2   -1    0    0    0  501  0.00000000000E+00  0.00000000000E+00 -0.80695756251E+03  0.80695756251E+03  0.25500000920E-02 0.  1.
    10030    2    1    2    0    0  0.00000000000E+00  0.00000000000E+00  0.69596544496E+03  0.23098805700E+04  0.22025395222E+04 0.  0.
        3    1    3    3  502    0  0.89310996761E+03  0.89843251330E+02  0.10171035573E+04  0.13565459375E+04  0.10100000352E+00 0. -1.
       -3    1    3    3    0  502 -0.89310996761E+03 -0.89843251330E+02 -0.32113811237E+03  0.95333463247E+03  0.10100000352E+00 0.  1.
</event>
<event>
 5   0  0.8905000E-07  0.2200187E+04  0.7818609E-02  0.8518350E-01
       -3   -1    0    0    0  501  0.00000000000E+00  0.00000000000E+00  0.10331800006E+04  0.10331800056E+04  0.10100000352E+00 0. -1.
        3   -1    0    0  501    0  0.00000000000E+00  0.00000000000E+00 -0.11713408456E+04  0.11713408499E+04  0.10100000352E+00 0.  1.
    10030    2    1    2    0    0  0.00000000000E+00  0.00000000000E+00 -0.13816084495E+03  0.22045208555E+04  0.22001872155E+04 0.  0.
        4    1    3    3  502    0  0.31246723926E+03 -0.89577356760E+01  0.98774269386E+03  0.10360276342E+04  0.12699999809E+01 0. -1.
       -4    1    3    3    0  502 -0.31246723926E+03  0.89577356760E+01 -0.11259035388E+04  0.11684932213E+04  0.12699999809E+01 0.  1.
</event>
<event>
 5   0  0.2606154E-06  0.2199230E+04  0.7818609E-02  0.8518749E-01
       -2   -1    0    0    0  501  0.00000000000E+00  0.00000000000E+00  0.11088330736E+04  0.11088330736E+04  0.25500000920E-02 0.  1.
        2   -1    0    0  501    0  0.00000000000E+00  0.00000000000E+00 -0.10904733278E+04  0.10904733278E+04  0.25500000920E-02 0. -1.
    10030    2    1    2    0    0  0.00000000000E+00  0.00000000000E+00  0.18359745737E+02  0.21993064014E+04  0.21992297667E+04 0.  0.
        2    1    3    3  502    0  0.36215670632E+02 -0.55502443456E+03 -0.93942536822E+03  0.10917342718E+04  0.25500000920E-02 0. -1.
       -2    1    3    3    0  502 -0.36215670632E+02  0.55502443456E+03  0.95778511395E+03  0.11075721296E+04  0.25500000920E-02 0.  1.
</event>
<event>
 5   0  0.2524749E-06  0.2199693E+04  0.7818609E-02  0.8518556E-01
       -2   -1    0    0    0  501  0.00000000000E+00  0.00000000000E+00  0.82309883395E+03  0.82309883395E+03  0.25500000920E-02 0. -1.
        2   -1    0    0  501    0  0.00000000000E+00  0.00000000000E+00 -0.14696443815E+04  0.14696443815E+04  0.25500000920E-02 0.  1.
    10030    2    1    2    0    0  0.00000000000E+00  0.00000000000E+00 -0.64654554753E+03  0.22927432154E+04  0.21996932302E+04 0.  0.
        4    1    3    3  502    0 -0.36362738251E+03 -0.36548498881E+03 -0.13358924371E+04  0.14319268021E+04  0.12699999809E+01 0.  1.
       -4    1    3    3    0  502  0.36362738251E+03  0.36548498881E+03  0.68934688955E+03  0.86081641329E+03  0.12699999809E+01 0. -1.
</event>
<event>
 5   0  0.1107101E-06  0.2199022E+04  0.7818609E-02  0.8518835E-01
       -1   -1    0    0    0  501  0.00000000000E+00  0.00000000000E+00  0.54087417470E+03  0.54087417473E+03  0.50400001928E-02 0. -1.
        1   -1    0    0  501    0  0.00000000000E+00  0.00000000000E+00 -0.22351301845E+04  0.22351301845E+04  0.50400001928E-02 0.  1.
    10030    2    1    2    0    0  0.00000000000E+00  0.00000000000E+00 -0.16942560098E+04  0.27760043592E+04  0.21990217770E+04 0.  0.
        1    1    3    3  502    0 -0.96225917615E+03 -0.14818901247E+03 -0.20217399917E+03  0.99437268238E+03  0.50400001928E-02 0. -1.
       -1    1    3    3    0  502  0.96225917615E+03  0.14818901247E+03 -0.14920820106E+04  0.17816316768E+04  0.50400001928E-02 0.  1.
</event>
<event>
 5   0  0.2606154E-06  0.2199322E+04  0.7818609E-02  0.8518710E-01
       -2   -1    0    0    0  501  0.00000000000E+00  0.00000000000E+00  0.57063264352E+03  0.57063264352E+03  0.25500000920E-02 0. -1.
        2   -1    0    0  501    0  0.00000000000E+00  0.00000000000E+00 -0.21191469953E+04  0.21191469953E+04  0.25500000920E-02 0.  1.
    10030    2    1    2    0    0  0.00000000000E+00  0.00000000000E+00 -0.15485143518E+04  0.26897796388E+04  0.21993221246E+04 0.  0.
        2    1    3    3  502    0 -0.92050366248E+03 -0.41111187558E+03 -0.13114253546E+04  0.16541391802E+04  0.25500000920E-02 0.  1.
       -2    1    3    3    0  502  0.92050366248E+03  0.41111187558E+03 -0.23708899717E+03  0.10356404586E+04  0.25500000920E-02 0. -1.
</event>
<event>
 5   0  0.1137869E-06  0.2196802E+04  0.7818609E-02  0.8519760E-01
        1   -1    0    0  501    0  0.00000000000E+00  0.00000000000E+00  0.92604342055E+03  0.92604342057E+03  0.50400001928E-02 0.  1.
       -1   -1    0    0    0  501  0.00000000000E+00  0.00000000000E+00 -0.13028384696E+04  0.13028384696E+04  0.50400001928E-02 0. -1.
    10030    2    1    2    0    0  0.00000000000E+00  0.00000000000E+00 -0.37679504907E+03  0.22288818902E+04  0.21968022149E+04 0.  0.
        5    1    3    3  502    0  0.35415944659E+03 -0.20963771650E+03  0.84484789138E+03  0.93976961823E+03  0.46999998093E+01 0.  1.
       -5    1    3    3    0  502 -0.35415944659E+03  0.20963771650E+03 -0.12216429405E+04  0.12891122720E+04  0.46999998093E+01 0. -1.
</event>
<event>
 5   0  0.1144271E-06  0.2200852E+04  0.7818609E-02  0.8518074E-01
       -1   -1    0    0    0  501  0.00000000000E+00  0.00000000000E+00  0.65227056540E+03  0.65227056542E+03  0.50400001928E-02 0.  1.
        1   -1    0    0  501    0  0.00000000000E+00  0.00000000000E+00 -0.18564950595E+04  0.18564950595E+04  0.50400001928E-02 0. -1.
    10030    2    1    2    0    0  0.00000000000E+00  0.00000000000E+00 -0.12042244941E+04  0.25087656249E+04  0.22008517280E+04 0.  0.
        3    1    3    3  502    0  0.25697884564E+03  0.57541515335E+03  0.42620512606E+03  0.76078350764E+03  0.10100000352E+00 0.  1.
       -3    1    3    3    0  502 -0.25697884564E+03 -0.57541515335E+03 -0.16304296201E+04  0.17479821172E+04  0.10100000352E+00 0. -1.
</event>
<event>
 5   0  0.2556869E-06  0.2198849E+04  0.7818609E-02  0.8518907E-01
       -2   -1    0    0    0  501  0.00000000000E+00  0.00000000000E+00  0.65175050164E+03  0.65175050165E+03  0.25500000920E-02 0. -1.
        2   -1    0    0  501    0  0.00000000000E+00  0.00000000000E+00 -0.18545970871E+04  0.18545970871E+04  0.25500000920E-02 0.  1.
    10030    2    1    2    0    0  0.00000000000E+00  0.00000000000E+00 -0.12028465855E+04  0.25063475888E+04  0.21988493190E+04 0.  0.
        5    1    3    3  502    0 -0.74825989168E+03 -0.45273111787E+02 -0.15181096227E+04  0.16931099895E+04  0.46999998093E+01 0.  1.
       -5    1    3    3    0  502  0.74825989168E+03  0.45273111787E+02  0.31526303723E+03  0.81323759922E+03  0.46999998093E+01 0. -1.
</event>
<event>
 5   0  0.1137869E-06  0.2199117E+04  0.7818609E-02  0.8518796E-01
        1   -1    0    0  501    0  0.00000000000E+00  0.00000000000E+00  0.17276300104E+04  0.17276300104E+04  0.50400001928E-02 0.  1.
       -1   -1    0    0    0  501  0.00000000000E+00  0.00000000000E+00 -0.69981915941E+03  0.69981915943E+03  0.50400001928E-02 0. -1.
    10030    2    1    2    0    0  0.00000000000E+00  0.00000000000E+00  0.10278108509E+04  0.24274491698E+04  0.21991167151E+04 0.  0.
        5    1    3    3  502    0  0.58522969494E+03  0.50517240502E+03 -0.34914043052E+03  0.84830070426E+03  0.46999998093E+01 0. -1.
       -5    1    3    3    0  502 -0.58522969494E+03 -0.50517240502E+03  0.13769512815E+04  0.15791484655E+04  0.46999998093E+01 0.  1.
</event>
<event>
 5   0  0.2532239E-06  0.2200237E+04  0.7818609E-02  0.8518330E-01
        2   -1    0    0  501    0  0.00000000000E+00  0.00000000000E+00  0.90222778791E+03  0.90222778791E+03  0.25500000920E-02 0. -1.
       -2   -1    0    0    0  501  0.00000000000E+00  0.00000000000E+00 -0.13414132980E+04  0.13414132980E+04  0.25500000920E-02 0.  1.
    10030    2    1    2    0    0  0.00000000000E+00  0.00000000000E+00 -0.43918551010E+03  0.22436410859E+04  0.22002366714E+04 0.  0.
        3    1    3    3  502    0 -0.34105316030E+03  0.76092974497E+03 -0.95133421788E+03  0.12650565755E+04  0.10100000352E+00 0.  1.
       -3    1    3    3    0  502  0.34105316030E+03 -0.76092974497E+03  0.51214870777E+03  0.97858451041E+03  0.10100000352E+00 0. -1.
</event>
<event>
 5   0  0.1107101E-06  0.2199770E+04  0.7818609E-02  0.8518524E-01
       -1   -1    0    0    0  501  0.00000000000E+00  0.00000000000E+00  0.81228504973E+03  0.81228504974E+03  0.50400001928E-02 0.  1.
        1   -1    0    0  501    0  0.00000000000E+00  0.00000000000E+00 -0.14893131441E+04  0.14893131441E+04  0.50400001928E-02 0. -1.
    10030    2    1    2    0    0  0.00000000000E+00  0.00000000000E+00 -0.67702809436E+03  0.23015981938E+04  0.21997698073E+04 0.  0.
        1    1    3    3  502    0  0.94316416691E+03 -0.81207133035E+02 -0.92443069356E+03  0.13231497842E+04  0.50400001928E-02 0. -1.
       -1    1    3    3    0  502 -0.94316416691E+03  0.81207133035E+02  0.24740259920E+03  0.97844840964E+03  0.50400001928E-02 0.  1.
</event>
<event>
 5   0  0.1137869E-06  0.2199575E+04  0.7818609E-02  0.8518605E-01
        1   -1    0    0  501    0  0.00000000000E+00  0.00000000000E+00  0.69299339563E+03  0.69299339565E+03  0.50400001928E-02 0. -1.
       -1   -1    0    0    0  501  0.00000000000E+00  0.00000000000E+00 -0.17453740973E+04  0.17453740974E+04  0.50400001928E-02 0.  1.
    10030    2    1    2    0    0  0.00000000000E+00  0.00000000000E+00 -0.10523807017E+04  0.24383674930E+04  0.21995751612E+04 0.  0.
        5    1    3    3  502    0  0.21585889965E+03  0.86806801081E+03  0.18309373267E+03  0.91306217800E+03  0.46999998093E+01 0. -1.
       -5    1    3    3    0  502 -0.21585889965E+03 -0.86806801081E+03 -0.12354744344E+04  0.15253053150E+04  0.46999998093E+01 0.  1.
</event>
<event>
 5   0  0.2532239E-06  0.2199692E+04  0.7818609E-02  0.8518556E-01
       -2   -1    0    0    0  501  0.00000000000E+00  0.00000000000E+00  0.20461776638E+04  0.20461776638E+04  0.25500000920E-02 0. -1.
        2   -1    0    0  501    0  0.00000000000E+00  0.00000000000E+00 -0.59118115386E+03  0.59118115387E+03  0.25500000920E-02 0.  1.
    10030    2    1    2    0    0  0.00000000000E+00  0.00000000000E+00  0.14549965099E+04  0.26373588177E+04  0.21996924079E+04 0.  0.
        3    1    3    3  502    0 -0.50459522840E+03  0.88970138325E+03  0.24272875952E+03  0.10512383920E+04  0.10100000352E+00 0.  1.
       -3    1    3    3    0  502  0.50459522840E+03 -0.88970138325E+03  0.12122677504E+04  0.15861204257E+04  0.10100000352E+00 0. -1.
</event>
<event>
 5   0  0.2556869E-06  0.2199408E+04  0.7818609E-02  0.8518675E-01
       -2   -1    0    0    0  501  0.00000000000E+00  0.00000000000E+00  0.93274847414E+03  0.93274847414E+03  0.25500000920E-02 0. -1.
        2   -1    0    0  501    0  0.00000000000E+00  0.00000000000E+00 -0.12965434903E+04  0.12965434903E+04  0.25500000920E-02 0.  1.
    10030    2    1    2    0    0  0.00000000000E+00  0.00000000000E+00 -0.36379501616E+03  0.22292919644E+04  0.21994080679E+04 0.  0.
        5    1    3    3  502    0  0.65362239187E+03  0.28347640096E+02 -0.10778197975E+04  0.12608502789E+04  0.46999998093E+01 0.  1.
       -5    1    3    3    0  502 -0.65362239187E+03 -0.28347640096E+02  0.71402478138E+03  0.96844168553E+03  0.46999998093E+01 0. -1.
</event>
<event>
 5   0  0.2556869E-06  0.2200289E+04  0.7818609E-02  0.8518308E-01
        2   -1    0    0  501    0  0.00000000000E+00  0.00000000000E+00  0.11210662265E+04  0.11210662265E+04  0.25500000920E-02 0. -1.
       -2   -1    0    0    0  501  0.00000000000E+00  0.00000000000E+00 -0.10796128630E+04  0.10796128630E+04  0.25500000920E-02 0.  1.
    10030    2    1    2    0    0  0.00000000000E+00  0.00000000000E+00  0.41453363477E+02  0.22006790895E+04  0.22002886342E+04 0.  0.
        5    1    3    3  502    0 -0.68628001659E+03  0.65754423581E+03 -0.53340299227E+03  0.10899016127E+04  0.46999998093E+01 0.  1.
       -5    1    3    3    0  502  0.68628001659E+03 -0.65754423581E+03  0.57485635574E+03  0.11107774768E+04  0.46999998093E+01 0. -1.
</event>
<event>
 5   0  0.1146827E-06  0.2197055E+04  0.7818609E-02  0.8519655E-01
        1   -1    0    0  501    0  0.00000000000E+00  0.00000000000E+00  0.11173181286E+04  0.11173181286E+04  0.50400001928E-02 0. -1.
       -1   -1    0    0    0  501  0.00000000000E+00  0.00000000000E+00 -0.10800533620E+04  0.10800533620E+04  0.50400001928E-02 0.  1.
    10030    2    1    2    0    0  0.00000000000E+00  0.00000000000E+00  0.37264766551E+02  0.21973714906E+04  0.21970554852E+04 0.  0.
        4    1    3    3  502    0  0.60529599711E+03 -0.90493444935E+03  0.16518668635E+03  0.11011711293E+04  0.12699999809E+01 0.  1.
       -4    1    3    3    0  502 -0.60529599711E+03  0.90493444935E+03 -0.12792191980E+03  0.10962003613E+04  0.12699999809E+01 0. -1.
</event>
<event>
 5   0  0.1137869E-06  0.2200125E+04  0.7818609E-02  0.8518376E-01
        1   -1    0    0  501    0  0.00000000000E+00  0.00000000000E+00  0.20685352022E+04  0.20685352022E+04  0.50400001928E-02 0. -1.
       -1   -1    0    0    0  501  0.00000000000E+00  0.00000000000E+00 -0.58502164763E+03  0.58502164765E+03  0.50400001928E-02 0.  1.
    10030    2    1    2    0    0  0.00000000000E+00  0.00000000000E+00  0.14835135545E+04  0.26535568498E+04  0.22001253348E+04 0.  0.
        5    1    3    3  502    0  0.94145308353E+02 -0.10588724324E+04  0.40053330692E+03  0.11360119661E+04  0.46999998093E+01 0.  1.
       -5    1    3    3    0  502 -0.94145308353E+02  0.10588724324E+04  0.10829802476E+04  0.15175448837E+04  0.46999998093E+01 0. -1.
</event>
<event>
 5   0  0.1146827E-06  0.2200083E+04  0.7818609E-02  0.8518393E-01
       -1   -1    0    0    0  501  0.00000000000E+00  0.00000000000E+00  0.12484713273E+04  0.12484713273E+04  0.50400001928E-02 0.  1.
        1   -1    0    0  501    0  0.00000000000E+00  0.00000000000E+00 -0.96925878253E+03  0.96925878254E+03  0.50400001928E-02 0. -1.
    10030    2    1    2    0    0  0.00000000000E+00  0.00000000000E+00  0.27921254478E+03  0.22177301099E+04  0.22000834518E+04 0.  0.
        4    1    3    3  502    0  0.85946837525E+03  0.34113142146E+03 -0.46101996228E+03  0.10332461242E+04  0.12699999809E+01 0. -1.
       -4    1    3    3    0  502 -0.85946837525E+03 -0.34113142146E+03  0.74023250706E+03  0.11844839856E+04  0.12699999809E+01 0.  1.
</event>
<event>
 5   0  0.1144271E-06  0.2200335E+04  0.7818609E-02  0.8518289E-01
       -1   -1    0    0    0  501  0.00000000000E+00  0.00000000000E+00  0.64227428949E+03  0.64227428951E+03  0.50400001928E-02 0.  1.
        1   -1    0    0  501    0  0.00000000000E+00  0.00000000000E+00 -0.18845042714E+04  0.18845042714E+04  0.50400001928E-02 0. -1.
    10030    2    1    2    0    0  0.00000000000E+00  0.00000000000E+00 -0.12422299819E+04  0.25267785609E+04  0.22003351035E+04 0.  0.
        3    1    3    3  502    0  0.81401806606E+03 -0.38132526726E+03 -0.13495182227E+04  0.16214912318E+04  0.10100000352E+00 0. -1.
       -3    1    3    3    0  502 -0.81401806606E+03  0.38132526726E+03  0.10728824082E+03  0.90528732905E+03  0.10100000352E+00 0.  1.
</event>
<event>
 5   0  0.1146827E-06  0.2200169E+04  0.7818609E-02  0.8518358E-01
       -1   -1    0    0    0  501  0.00000000000E+00  0.00000000000E+00  0.20241764309E+04  0.20241764309E+04  0.50400001928E-02 0.  1.
        1   -1    0    0  501    0  0.00000000000E+00  0.00000000000E+00 -0.59786593224E+03  0.59786593227E+03  0.50400001928E-02 0. -1.
    10030    2    1    2    0    0  0.00000000000E+00  0.00000000000E+00  0.14263104987E+04  0.26220423632E+04  0.22001692016E+04 0.  0.
        4    1    3    3  502    0  0.37417365295E+03 -0.36167633242E+02 -0.51894534688E+03  0.64079630633E+03  0.12699999809E+01 0. -1.
       -4    1    3    3    0  502 -0.37417365295E+03  0.36167633242E+02  0.19452558456E+04  0.19812460569E+04  0.12699999809E+01 0.  1.
</event>
<event>
 5   0  0.2532239E-06  0.2200400E+04  0.7818609E-02  0.8518262E-01
        2   -1    0    0  501    0  0.00000000000E+00  0.00000000000E+00  0.85600633381E+03  0.85600633382E+03  0.25500000920E-02 0. -1.
       -2   -1    0    0    0  501  0.00000000000E+00  0.00000000000E+00 -0.14140548842E+04  0.14140548842E+04  0.25500000920E-02 0.  1.
    10030    2    1    2    0    0  0.00000000000E+00  0.00000000000E+00 -0.55804855039E+03  0.22700612180E+04  0.22003999066E+04 0.  0.
        3    1    3    3  502    0  0.10325323870E+04  0.33588563972E+03 -0.46211861402E+03  0.11800406420E+04  0.10100000352E+00 0.  1.
       -3    1    3    3    0  502 -0.10325323870E+04 -0.33588563972E+03 -0.95929936369E+02  0.10900205760E+04  0.10100000352E+00 0. -1.
</event>
<event>
 5   0  0.2556869E-06  0.2200204E+04  0.7818609E-02  0.8518343E-01
        2   -1    0    0  501    0  0.00000000000E+00  0.00000000000E+00  0.14975203616E+04  0.14975203616E+04  0.25500000920E-02 0.  1.
       -2   -1    0    0    0  501  0.00000000000E+00  0.00000000000E+00 -0.80815197519E+03  0.80815197520E+03  0.25500000920E-02 0. -1.
    10030    2    1    2    0    0  0.00000000000E+00  0.00000000000E+00  0.68936838643E+03  0.23056723368E+04  0.22002036616E+04 0.  0.
        5    1    3    3  502    0  0.74269992508E+03  0.74805984057E+03  0.67441825002E+03  0.12514226983E+04  0.46999998093E+01 0.  1.
       -5    1    3    3    0  502 -0.74269992508E+03 -0.74805984057E+03  0.14950136409E+02  0.10542496385E+04  0.46999998093E+01 0. -1.
</event>
<event>
 5   0  0.2556869E-06  0.2202087E+04  0.7818609E-02  0.8517560E-01
       -2   -1    0    0    0  501  0.00000000000E+00  0.00000000000E+00  0.74007577821E+03  0.74007577821E+03  0.25500000920E-02 0.  1.
        2   -1    0    0  501    0  0.00000000000E+00  0.00000000000E+00 -0.16380708460E+04  0.16380708460E+04  0.25500000920E-02 0. -1.
    10030    2    1    2    0    0  0.00000000000E+00  0.00000000000E+00 -0.89799506776E+03  0.23781466242E+04  0.22020867886E+04 0.  0.
        5    1    3    3  502    0 -0.98046254993E+03 -0.48062137685E+03 -0.29638108487E+03  0.11314448980E+04  0.46999998093E+01 0. -1.
       -5    1    3    3    0  502  0.98046254993E+03  0.48062137685E+03 -0.60161398288E+03  0.12467017262E+04  0.46999998093E+01 0.  1.
</event>
<event>
 5   0  0.1107101E-06  0.2199847E+04  0.7818609E-02  0.8518492E-01
        1   -1    0    0  501    0  0.00000000000E+00  0.00000000000E+00  0.95027110729E+03  0.95027110730E+03  0.50400001928E-02 0. -1.
       -1   -1    0    0    0  501  0.00000000000E+00  0.00000000000E+00 -0.12731436579E+04  0.12731436579E+04  0.50400001928E-02 0.  1.
    10030    2    1    2    0    0  0.00000000000E+00  0.00000000000E+00 -0.32287255061E+03  0.22234147652E+04  0.21998469343E+04 0.  0.
        1    1    3    3  502    0  0.26453211960E+03 -0.58855670854E+03  0.73886793202E+03  0.98096996002E+03  0.50400001928E-02 0. -1.
       -1    1    3    3    0  502 -0.26453211960E+03  0.58855670854E+03 -0.10617404826E+04  0.12424448052E+04  0.50400001928E-02 0.  1.
</event>
<event>
 5   0  0.2581058E-06  0.2199550E+04  0.7818609E-02  0.8518615E-01
        2   -1    0    0  501    0  0.00000000000E+00  0.00000000000E+00  0.12847667952E+04  0.12847667952E+04  0.25500000920E-02 0.  1.
       -2   -1    0    0    0  501  0.00000000000E+00  0.00000000000E+00 -0.94142021106E+03  0.94142021106E+03  0.25500000920E-02 0. -1.
    10030    2    1    2    0    0  0.00000000000E+00  0.00000000000E+00  0.34334658412E+03  0.22261870062E+04  0.21995503427E+04 0.  0.
        1    1    3    3  502    0  0.20755674132E+03 -0.82913645937E+03 -0.52877586243E+03  0.10050626756E+04  0.50400001928E-02 0. -1.
       -1    1    3    3    0  502 -0.20755674132E+03  0.82913645937E+03  0.87212244655E+03  0.12211243307E+04  0.50400001928E-02 0.  1.
</event>
<event>
 5   0  0.2581058E-06  0.2199784E+04  0.7818609E-02  0.8518518E-01
        2   -1    0    0  501    0  0.00000000000E+00  0.00000000000E+00  0.18941731523E+04  0.18941731523E+04  0.25500000920E-02 0. -1.
       -2   -1    0    0    0  501  0.00000000000E+00  0.00000000000E+00 -0.63867544169E+03  0.63867544170E+03  0.25500000920E-02 0.  1.
    10030    2    1    2    0    0  0.00000000000E+00  0.00000000000E+00  0.12554977106E+04  0.25328485940E+04  0.21997835118E+04 0.  0.
        1    1    3    3  502    0  0.10673815858E+04 -0.24348123751E+03  0.74946806245E+03  0.13267588098E+04  0.50400001928E-02 0.  1.
       -1    1    3    3    0  502 -0.10673815858E+04  0.24348123751E+03  0.50602964815E+03  0.12060897842E+04  0.50400001928E-02 0. -1.
</event>
<event>
 5   0  0.1144271E-06  0.2199748E+04  0.7818609E-02  0.8518533E-01
       -1   -1    0    0    0  501  0.00000000000E+00  0.00000000000E+00  0.12733084633E+04  0.12733084633E+04  0.50400001928E-02 0.  1.
        1   -1    0    0  501    0  0.00000000000E+00  0.00000000000E+00 -0.95006243924E+03  0.95006243926E+03  0.50400001928E-02 0. -1.
    10030    2    1    2    0    0  0.00000000000E+00  0.00000000000E+00  0.32324602406E+03  0.22233709026E+04  0.21997477533E+04 0.  0.
        3    1    3    3  502    0 -0.56539054139E+03 -0.92115593581E+03 -0.44349165233E+02  0.10817400709E+04  0.10100000352E+00 0. -1.
       -3    1    3    3    0  502  0.56539054139E+03  0.92115593581E+03  0.36759518929E+03  0.11416308316E+04  0.10100000352E+00 0.  1.
</event>
<event>
 5   0  0.2524749E-06  0.2200782E+04  0.7818609E-02  0.8518103E-01
        2   -1    0    0  501    0  0.00000000000E+00  0.00000000000E+00  0.18775912684E+04  0.18775912684E+04  0.25500000920E-02 0.  1.
       -2   -1    0    0    0  501  0.00000000000E+00  0.00000000000E+00 -0.64490098980E+03  0.64490098981E+03  0.25500000920E-02 0. -1.
    10030    2    1    2    0    0  0.00000000000E+00  0.00000000000E+00  0.12326902785E+04  0.25224922582E+04  0.22007821041E+04 0.  0.
        4    1    3    3  502    0 -0.16554635876E+03  0.22048077818E+03  0.18373584479E+04  0.18579303134E+04  0.12699999809E+01 0.  1.
       -4    1    3    3    0  502  0.16554635876E+03 -0.22048077818E+03 -0.60466816937E+03  0.66456194474E+03  0.12699999809E+01 0. -1.
</event>
<event>
 5   0  0.1082209E-06  0.2200297E+04  0.7818609E-02  0.8518305E-01
        1   -1    0    0  501    0  0.00000000000E+00  0.00000000000E+00  0.57738289568E+03  0.57738289570E+03  0.50400001928E-02 0. -1.
       -1   -1    0    0    0  501  0.00000000000E+00  0.00000000000E+00 -0.20962280947E+04  0.20962280947E+04  0.50400001928E-02 0.  1.
    10030    2    1    2    0    0  0.00000000000E+00  0.00000000000E+00 -0.15188451990E+04  0.26736109904E+04  0.22002965685E+04 0.  0.
        2    1    3    3  502    0  0.48521760435E+03 -0.64350365946E+03  0.15052912390E+03  0.81987322219E+03  0.25500000920E-02 0. -1.
       -2    1    3    3    0  502 -0.48521760435E+03  0.64350365946E+03 -0.16693743229E+04  0.18537377682E+04  0.25500000920E-02 0.  1.
</event>
<event>
 5   0  0.2606154E-06  0.2199357E+04  0.7818609E-02  0.8518696E-01
        2   -1    0    0  501    0  0.00000000000E+00  0.00000000000E+00  0.12639740430E+04  0.12639740430E+04  0.25500000920E-02 0. -1.
       -2   -1    0    0    0  501  0.00000000000E+00  0.00000000000E+00 -0.95673829690E+03  0.95673829691E+03  0.25500000920E-02 0.  1.
    10030    2    1    2    0    0  0.00000000000E+00  0.00000000000E+00  0.30723574607E+03  0.22207123399E+04  0.21993566088E+04 0.  0.
        2    1    3    3  502    0 -0.20997745787E+03 -0.59978157389E+03  0.10598087687E+04  0.12357277595E+04  0.25500000920E-02 0. -1.
       -2    1    3    3    0  502  0.20997745787E+03  0.59978157389E+03 -0.75257302268E+03  0.98498458042E+03  0.25500000920E-02 0.  1.
</event>
<event>
 5   0  0.1107101E-06  0.2199310E+04  0.7818609E-02  0.8518715E-01
       -1   -1    0    0    0  501  0.00000000000E+00  0.00000000000E+00  0.93767387060E+03  0.93767387061E+03  0.50400001928E-02 0.  1.
        1   -1    0    0  501    0  0.00000000000E+00  0.00000000000E+00 -0.12896178701E+04  0.12896178701E+04  0.50400001928E-02 0. -1.
    10030    2    1    2    0    0  0.00000000000E+00  0.00000000000E+00 -0.35194399954E+03  0.22272917408E+04  0.21993098735E+04 0.  0.
        1    1    3    3  502    0 -0.25047095619E+03  0.96803217303E+03 -0.63941754834E+03  0.11868769056E+04  0.50400001928E-02 0.  1.
       -1    1    3    3    0  502  0.25047095619E+03 -0.96803217303E+03  0.28747354881E+03  0.10404148351E+04  0.50400001928E-02 0. -1.
</event>
<event>
 5   0  0.2606154E-06  0.2200024E+04  0.7818609E-02  0.8518418E-01
       -2   -1    0    0    0  501  0.00000000000E+00  0.00000000000E+00  0.13146256575E+04  0.13146256575E+04  0.25500000920E-02 0. -1.
        2   -1    0    0  501    0  0.00000000000E+00  0.00000000000E+00 -0.92043379942E+03  0.92043379943E+03  0.25500000920E-02 0.  1.
    10030    2    1    2    0    0  0.00000000000E+00  0.00000000000E+00  0.39419185812E+03  0.22350594570E+04  0.22000235351E+04 0.  0.
        2    1    3    3  502    0 -0.20250767302E+03 -0.99582722916E+03 -0.23073365556E+03  0.10420744924E+04  0.25500000920E-02 0.  1.
       -2    1    3    3    0  502  0.20250767302E+03  0.99582722916E+03  0.62492551368E+03  0.11929849645E+04  0.25500000920E-02 0. -1.
</event>
<event>
 5   0  0.2556869E-06  0.2199043E+04  0.7818609E-02  0.8518826E-01
        2   -1    0    0  501    0  0.00000000000E+00  0.00000000000E+00  0.14786377074E+04  0.14786377074E+04  0.25500000920E-02 0. -1.
       -2   -1    0    0    0  501  0.00000000000E+00  0.00000000000E+00 -0.81760918523E+03  0.81760918524E+03  0.25500000920E-02 0.  1.
    10030    2    1    2    0    0  0.00000000000E+00  0.00000000000E+00  0.66102852217E+03  0.22962468926E+04  0.21990432203E+04 0.  0.
        5    1    3    3  502    0  0.19023845467E+03 -0.31570574458E+03  0.14121917959E+04  0.14595096934E+04  0.46999998093E+01 0. -1.
       -5    1    3    3    0  502 -0.19023845467E+03  0.31570574458E+03 -0.75116327372E+03  0.83673719923E+03  0.46999998093E+01 0.  1.
</event>
<event>
 5   0  0.2556869E-06  0.2200081E+04  0.7818609E-02  0.8518394E-01
       -2   -1    0    0    0  501  0.00000000000E+00  0.00000000000E+00  0.12791100753E+04  0.12791100753E+04  0.25500000920E-02 0. -1.
        2   -1    0    0  501    0  0.00000000000E+00  0.00000000000E+00 -0.94603985107E+03  0.94603985107E+03  0.25500000920E-02 0.  1.
    10030    2    1    2    0    0  0.00000000000E+00  0.00000000000E+00  0.33307022426E+03  0.22251499264E+04  0.22000810032E+04 0.  0.
        5    1    3    3  502    0 -0.28390277360E+02 -0.22330830290E+03 -0.92248577139E+03  0.94956552928E+03  0.46999998093E+01 0.  1.
       -5    1    3    3    0  502  0.28390277360E+02  0.22330830290E+03  0.12555559956E+04  0.12755843971E+04  0.46999998093E+01 0. -1.
</event>
<event>
 5   0  0.8905000E-07  0.2199125E+04  0.7818609E-02  0.8518792E-01
       -4   -1    0    0    0  501  0.00000000000E+00  0.00000000000E+00  0.18450759295E+04  0.18450763666E+04  0.12699999809E+01 0. -1.
        4   -1    0    0  501    0  0.00000000000E+00  0.00000000000E+00 -0.65527690676E+03  0.65527813746E+03  0.12699999809E+01 0.  1.
    10030    2    1    2    0    0  0.00000000000E+00  0.00000000000E+00  0.11897990228E+04  0.25003545041E+04  0.21991250377E+04 0.  0.
        2    1    3    3  502    0 -0.25997132889E+03 -0.19191089295E+03 -0.60007509426E+03  0.68154603765E+03  0.25500000920E-02 0.  1.
       -2    1    3    3    0  502  0.25997132889E+03  0.19191089295E+03  0.17898741170E+04  0.18188084664E+04  0.25500000920E-02 0. -1.
</event>
<event>
 5   0  0.1107101E-06  0.2199536E+04  0.7818609E-02  0.8518621E-01
        1   -1    0    0  501    0  0.00000000000E+00  0.00000000000E+00  0.87515060902E+03  0.87515060904E+03  0.50400001928E-02 0.  1.
       -1   -1    0    0    0  501  0.00000000000E+00  0.00000000000E+00 -0.13820355949E+04  0.13820355949E+04  0.50400001928E-02 0. -1.
    10030    2    1    2    0    0  0.00000000000E+00  0.00000000000E+00 -0.50688498586E+03  0.22571862039E+04  0.21995356715E+04 0.  0.
        1    1    3    3  502    0 -0.90366681352E+03 -0.26238810163E+03  0.33071196107E+03  0.99741246581E+03  0.50400001928E-02 0.  1.
       -1    1    3    3    0  502  0.90366681352E+03  0.26238810163E+03 -0.83759694693E+03  0.12597737381E+04  0.50400001928E-02 0. -1.
</event>
<event>
 5   0  0.1144271E-06  0.2199916E+04  0.7818609E-02  0.8518463E-01
        1   -1    0    0  501    0  0.00000000000E+00  0.00000000000E+00  0.11974730318E+04  0.11974730318E+04  0.50400001928E-02 0.  1.
       -1   -1    0    0    0  501  0.00000000000E+00  0.00000000000E+00 -0.10103841177E+04  0.10103841177E+04  0.50400001928E-02 0. -1.
    10030    2    1    2    0    0  0.00000000000E+00  0.00000000000E+00  0.18708891410E+03  0.22078571495E+04  0.21999161191E+04 0.  0.
        3    1    3    3  502    0 -0.56733536726E+03  0.26659229311E+03 -0.81358039836E+03  0.10270608280E+04  0.10100000352E+00 0. -1.
       -3    1    3    3    0  502  0.56733536726E+03 -0.26659229311E+03  0.10006693125E+04  0.11807963215E+04  0.10100000352E+00 0.  1.
</event>
<event>
 5   0  0.1144271E-06  0.2198041E+04  0.7818609E-02  0.8519244E-01
        1   -1    0    0  501    0  0.00000000000E+00  0.00000000000E+00  0.13802438488E+04  0.13802438488E+04  0.50400001928E-02 0.  1.
       -1   -1    0    0    0  501  0.00000000000E+00  0.00000000000E+00 -0.87509621179E+03  0.87509621181E+03  0.50400001928E-02 0. -1.
    10030    2    1    2    0    0  0.00000000000E+00  0.00000000000E+00  0.50514763698E+03  0.22553400606E+04  0.21980410946E+04 0.  0.
        3    1    3    3  502    0 -0.30628098475E+03  0.10268102405E+04  0.18710220623E+01  0.10715179992E+04  0.10100000352E+00 0.  1.
       -3    1    3    3    0  502  0.30628098475E+03 -0.10268102405E+04  0.50327661492E+03  0.11838220614E+04  0.10100000352E+00 0. -1.
</event>
<event>
 5   0  0.2581058E-06  0.2197382E+04  0.7818609E-02  0.8519519E-01
       -2   -1    0    0    0  501  0.00000000000E+00  0.00000000000E+00  0.10178434687E+04  0.10178434687E+04  0.25500000920E-02 0.  1.
        2   -1    0    0  501    0  0.00000000000E+00  0.00000000000E+00 -0.11859597393E+04  0.11859597393E+04  0.25500000920E-02 0. -1.
    10030    2    1    2    0    0  0.00000000000E+00  0.00000000000E+00 -0.16811627065E+03  0.22038032080E+04  0.21973815097E+04 0.  0.
        1    1    3    3  502    0  0.85619570912E+03 -0.32688646408E+03 -0.69179563303E+03  0.11482626227E+04  0.50400001928E-02 0. -1.
       -1    1    3    3    0  502 -0.85619570912E+03  0.32688646408E+03  0.52367936238E+03  0.10555405853E+04  0.50400001928E-02 0.  1.
</event>
<event>
 5   0  0.1137869E-06  0.2197983E+04  0.7818609E-02  0.8519268E-01
        1   -1    0    0  501    0  0.00000000000E+00  0.00000000000E+00  0.10506710316E+04  0.10506710317E+04  0.50400001928E-02 0.  1.
       -1   -1    0    0    0  501  0.00000000000E+00  0.00000000000E+00 -0.11495340824E+04  0.11495340824E+04  0.50400001928E-02 0. -1.
    10030    2    1    2    0    0  0.00000000000E+00  0.00000000000E+00 -0.98863050736E+02  0.22002051140E+04  0.21979828573E+04 0.  0.
        5    1    3    3  502    0 -0.93566864960E+03 -0.24588236019E+03 -0.57132811224E+03  0.11235532292E+04  0.46999998093E+01 0. -1.
       -5    1    3    3    0  502  0.93566864960E+03  0.24588236019E+03  0.47246506150E+03  0.10766518849E+04  0.46999998093E+01 0.  1.
</event>
<event>
 5   0  0.2581058E-06  0.2199267E+04  0.7818609E-02  0.8518733E-01
       -2   -1    0    0    0  501  0.00000000000E+00  0.00000000000E+00  0.39689228593E+03  0.39689228593E+03  0.25500000920E-02 0.  1.
        2   -1    0    0  501    0  0.00000000000E+00  0.00000000000E+00 -0.30466554812E+04  0.30466554812E+04  0.25500000920E-02 0. -1.
    10030    2    1    2    0    0  0.00000000000E+00  0.00000000000E+00 -0.26497631953E+04  0.34435477672E+04  0.21992672038E+04 0.  0.
        1    1    3    3  502    0  0.94183510080E+03  0.14836961467E+03 -0.21826711694E+04  0.23818312982E+04  0.50400001928E-02 0.  1.
       -1    1    3    3    0  502 -0.94183510080E+03 -0.14836961467E+03 -0.46709202593E+03  0.10617164689E+04  0.50400001928E-02 0. -1.
</event>
<event>
 5   0  0.2532239E-06  0.2199775E+04  0.7818609E-02  0.8518522E-01
       -2   -1    0    0    0  501  0.00000000000E+00  0.00000000000E+00  0.64094700016E+03  0.64094700016E+03  0.25500000920E-02 0. -1.
        2   -1    0    0  501    0  0.00000000000E+00  0.00000000000E+00 -0.18874452799E+04  0.18874452799E+04  0.25500000920E-02 0.  1.
    10030    2    1    2    0    0  0.00000000000E+00  0.00000000000E+00 -0.12464982798E+04  0.25283922801E+04  0.21997748886E+04 0.  0.
        3    1    3    3  502    0 -0.89280697722E+03  0.61975723525E+03 -0.81745487533E+03  0.13599396357E+04  0.10100000352E+00 0. -1.
       -3    1    3    3    0  502  0.89280697722E+03 -0.61975723525E+03 -0.42904340445E+03  0.11684526445E+04  0.10100000352E+00 0.  1.
</event>
<event>
 5   0  0.2606154E-06  0.2200030E+04  0.7818609E-02  0.8518415E-01
       -2   -1    0    0    0  501  0.00000000000E+00  0.00000000000E+00  0.44660054146E+03  0.44660054147E+03  0.25500000920E-02 0.  1.
        2   -1    0    0  501    0  0.00000000000E+00  0.00000000000E+00 -0.27094311999E+04  0.27094311999E+04  0.25500000920E-02 0. -1.
    10030    2    1    2    0    0  0.00000000000E+00  0.00000000000E+00 -0.22628306584E+04  0.31560317413E+04  0.22000304006E+04 0.  0.
        2    1    3    3  502    0 -0.69449476140E+03  0.97201367587E+02 -0.23471932018E+04  0.24497116169E+04  0.25500000920E-02 0. -1.
       -2    1    3    3    0  502  0.69449476140E+03 -0.97201367587E+02  0.84362543361E+02  0.70632012445E+03  0.25500000920E-02 0.  1.
</event>
<event>
 5   0  0.1082209E-06  0.2199940E+04  0.7818609E-02  0.8518453E-01
       -1   -1    0    0    0  501  0.00000000000E+00  0.00000000000E+00  0.12481881042E+04  0.12481881042E+04  0.50400001928E-02 0.  1.
        1   -1    0    0  501    0  0.00000000000E+00  0.00000000000E+00 -0.96935270208E+03  0.96935270209E+03  0.50400001928E-02 0. -1.
    10030    2    1    2    0    0  0.00000000000E+00  0.00000000000E+00  0.27883540207E+03  0.22175408063E+04  0.21999404642E+04 0.  0.
        2    1    3    3  502    0  0.12618757426E+03  0.96695570517E+03  0.65241747541E+03  0.11732754160E+04  0.25500000920E-02 0.  1.
       -2    1    3    3    0  502 -0.12618757426E+03 -0.96695570517E+03 -0.37358207333E+03  0.10442653902E+04  0.25500000920E-02 0. -1.
</event>
<event>
 5   0  0.2556869E-06  0.2199402E+04  0.7818609E-02  0.8518677E-01
       -2   -1    0    0    0  501  0.00000000000E+00  0.00000000000E+00  0.13036811112E+04  0.13036811113E+04  0.25500000920E-02 0. -1.
        2   -1    0    0  501    0  0.00000000000E+00  0.00000000000E+00 -0.92763699424E+03  0.92763699424E+03  0.25500000920E-02 0.  1.
    10030    2    1    2    0    0  0.00000000000E+00  0.00000000000E+00  0.37604411701E+03  0.22313181055E+04  0.21994024893E+04 0.  0.
        5    1    3    3  502    0  0.31369941510E+03 -0.49180372676E+03  0.11337740997E+04  0.12750466768E+04  0.46999998093E+01 0. -1.
       -5    1    3    3    0  502 -0.31369941510E+03  0.49180372676E+03 -0.75772998272E+03  0.95627142873E+03  0.46999998093E+01 0.  1.
</event>
<event>
 5   0  0.8905000E-07  0.2199866E+04  0.7818609E-02  0.8518484E-01
       -3   -1    0    0    0  501  0.00000000000E+00  0.00000000000E+00  0.18970346250E+04  0.18970346277E+04  0.10100000352E+00 0.  1.
        3   -1    0    0  501    0  0.00000000000E+00  0.00000000000E+00 -0.63776017775E+03  0.63776018574E+03  0.10100000352E+00 0. -1.
    10030    2    1    2    0    0  0.00000000000E+00  0.00000000000E+00  0.12592744472E+04  0.25347948134E+04  0.21998664988E+04 0.  0.
        3    1    3    3  502    0 -0.27791256282E+03 -0.61824338795E+02 -0.59456769142E+03  0.65921801502E+03  0.10100000352E+00 0. -1.
       -3    1    3    3    0  502  0.27791256282E+03  0.61824338795E+02  0.18538421386E+04  0.18755767984E+04  0.10100000352E+00 0.  1.
</event>
<event>
 5   0  0.2556869E-06  0.2199665E+04  0.7818609E-02  0.8518568E-01
       -2   -1    0    0    0  501  0.00000000000E+00  0.00000000000E+00  0.11881427044E+04  0.11881427044E+04  0.25500000920E-02 0. -1.
        2   -1    0    0  501    0  0.00000000000E+00  0.00000000000E+00 -0.10180860800E+04  0.10180860800E+04  0.25500000920E-02 0.  1.
    10030    2    1    2    0    0  0.00000000000E+00  0.00000000000E+00  0.17005662443E+03  0.22062287844E+04  0.21996650185E+04 0.  0.
        5    1    3    3  502    0  0.66591036797E+03 -0.71524046009E+03 -0.42106027658E+03  0.10641049668E+04  0.46999998093E+01 0.  1.
       -5    1    3    3    0  502 -0.66591036797E+03  0.71524046009E+03  0.59111690101E+03  0.11421238175E+04  0.46999998093E+01 0. -1.
</event>
<event>
 5   0  0.2581058E-06  0.2200717E+04  0.7818609E-02  0.8518130E-01
       -2   -1    0    0    0  501  0.00000000000E+00  0.00000000000E+00  0.26680684314E+04  0.26680684314E+04  0.25500000920E-02 0.  1.
        2   -1    0    0  501    0  0.00000000000E+00  0.00000000000E+00 -0.45380745140E+03  0.45380745141E+03  0.25500000920E-02 0. -1.
    10030    2    1    2    0    0  0.00000000000E+00  0.00000000000E+00  0.22142609800E+04  0.31218758828E+04  0.22007174603E+04 0.  0.
        1    1    3    3  502    0 -0.98319482312E+03  0.39071757397E+03  0.67812787130E+03  0.12566581447E+04  0.50400001928E-02 0. -1.
       -1    1    3    3    0  502  0.98319482312E+03 -0.39071757397E+03  0.15361331087E+04  0.18652177381E+04  0.50400001928E-02 0.  1.
</event>
<event>
 5   0  0.2524749E-06  0.2202175E+04  0.7818609E-02  0.8517523E-01
       -2   -1    0    0    0  501  0.00000000000E+00  0.00000000000E+00  0.66192116892E+03  0.66192116893E+03  0.25500000920E-02 0.  1.
        2   -1    0    0  501    0  0.00000000000E+00  0.00000000000E+00 -0.18316283770E+04  0.18316283770E+04  0.25500000920E-02 0. -1.
    10030    2    1    2    0    0  0.00000000000E+00  0.00000000000E+00 -0.11697072081E+04  0.24935495459E+04  0.22021749216E+04 0.  0.
        4    1    3    3  502    0  0.90665850241E+03  0.49143035876E+01 -0.12922888818E+04  0.15786278717E+04  0.12699999809E+01 0. -1.
       -4    1    3    3    0  502 -0.90665850241E+03 -0.49143035876E+01  0.12258167372E+03  0.91492167424E+03  0.12699999809E+01 0.  1.
</event>
<event>
 5   0  0.1082209E-06  0.2198425E+04  0.7818609E-02  0.8519084E-01
       -1   -1    0    0    0  501  0.00000000000E+00  0.00000000000E+00  0.93688910616E+03  0.93688910617E+03  0.50400001928E-02 0. -1.
        1   -1    0    0  501    0  0.00000000000E+00  0.00000000000E+00 -0.12896591818E+04  0.12896591818E+04  0.50400001928E-02 0.  1.
    10030    2    1    2    0    0  0.00000000000E+00  0.00000000000E+00 -0.35277007560E+03  0.22265482879E+04  0.21984245614E+04 0.  0.
        2    1    3    3  502    0 -0.23433136937E+03 -0.88250597210E+03  0.44344048414E+03  0.10150701672E+04  0.25500000920E-02 0. -1.
       -2    1    3    3    0  502  0.23433136937E+03  0.88250597210E+03 -0.79621055974E+03  0.12114781207E+04  0.25500000920E-02 0.  1.
</event>
<event>
 5   0  0.1082209E-06  0.2199572E+04  0.7818609E-02  0.8518606E-01
       -1   -1    0    0    0  501  0.00000000000E+00  0.00000000000E+00  0.14580149496E+04  0.14580149497E+04  0.50400001928E-02 0. -1.
        1   -1    0    0  501    0  0.00000000000E+00  0.00000000000E+00 -0.82957261616E+03  0.82957261617E+03  0.50400001928E-02 0.  1.
    10030    2    1    2    0    0  0.00000000000E+00  0.00000000000E+00  0.62844233348E+03  0.22875875658E+04  0.21995720276E+04 0.  0.
        2    1    3    3  502    0 -0.74955287331E+03  0.73711360093E+03 -0.21758853980E+02  0.10514938984E+04  0.25500000920E-02 0.  1.
       -2    1    3    3    0  502  0.74955287331E+03 -0.73711360093E+03  0.65020118746E+03  0.12360936675E+04  0.25500000920E-02 0. -1.
</event>
<event>
 5   0  0.2556869E-06  0.2199239E+04  0.7818609E-02  0.8518745E-01
       -2   -1    0    0    0  501  0.00000000000E+00  0.00000000000E+00  0.97890454704E+03  0.97890454705E+03  0.25500000920E-02 0. -1.
        2   -1    0    0  501    0  0.00000000000E+00  0.00000000000E+00 -0.12352207892E+04  0.12352207892E+04  0.25500000920E-02 0.  1.
    10030    2    1    2    0    0  0.00000000000E+00  0.00000000000E+00 -0.25631624218E+03  0.22141253363E+04  0.21992391841E+04 0.  0.
        5    1    3    3  502    0 -0.19211481125E+03 -0.25127897180E+03  0.93210464530E+03  0.98432229588E+03  0.46999998093E+01 0. -1.
       -5    1    3    3    0  502  0.19211481125E+03  0.25127897180E+03 -0.11884208875E+04  0.12298030404E+04  0.46999998093E+01 0.  1.
</event>
<event>
 5   0  0.2532239E-06  0.2200434E+04  0.7818609E-02  0.8518248E-01
       -2   -1    0    0    0  501  0.00000000000E+00  0.00000000000E+00  0.69332025047E+03  0.69332025048E+03  0.25500000920E-02 0.  1.
        2   -1    0    0  501    0  0.00000000000E+00  0.00000000000E+00 -0.17459137462E+04  0.17459137462E+04  0.25500000920E-02 0. -1.
    10030    2    1    2    0    0  0.00000000000E+00  0.00000000000E+00 -0.10525934957E+04  0.24392339967E+04  0.22004339170E+04 0.  0.
        3    1    3    3  502    0  0.88266734396E+03 -0.61147373673E+03 -0.26053847323E+03  0.11049353271E+04  0.10100000352E+00 0.  1.
       -3    1    3    3    0  502 -0.88266734396E+03  0.61147373673E+03 -0.79205502246E+03  0.13342986696E+04  0.10100000352E+00 0. -1.
</event>
<event>
 5   0  0.1082209E-06  0.2198759E+04  0.7818609E-02  0.8518945E-01
       -1   -1    0    0    0  501  0.00000000000E+00  0.00000000000E+00  0.10748652838E+04  0.10748652838E+04  0.50400001928E-02 0. -1.
        1   -1    0    0  501    0  0.00000000000E+00  0.00000000000E+00 -0.11244530351E+04  0.11244530351E+04  0.50400001928E-02 0.  1.
    10030    2    1    2    0    0  0.00000000000E+00  0.00000000000E+00 -0.49587751306E+02  0.21993183190E+04  0.21987592236E+04 0.  0.
        2    1    3    3  502    0 -0.37091041375E+01  0.63486444564E+03  0.87296925430E+03  0.10794174080E+04  0.25500000920E-02 0. -1.
       -2    1    3    3    0  502  0.37091041375E+01 -0.63486444564E+03 -0.92255700561E+03  0.11199009110E+04  0.25500000920E-02 0.  1.
</event>
<event>
 5   0  0.2524749E-06  0.2199819E+04  0.7818609E-02  0.8518503E-01
        2   -1    0    0  501    0  0.00000000000E+00  0.00000000000E+00  0.13656753269E+04  0.13656753269E+04  0.25500000920E-02 0. -1.
       -2   -1    0    0    0  501  0.00000000000E+00  0.00000000000E+00 -0.88586308578E+03  0.88586308578E+03  0.25500000920E-02 0.  1.
    10030    2    1    2    0    0  0.00000000000E+00  0.00000000000E+00  0.47981224108E+03  0.22515384127E+04  0.21998194101E+04 0.  0.
        4    1    3    3  502    0 -0.40723701718E+03  0.53868597106E+03 -0.64870807813E+03  0.93640180858E+03  0.12699999809E+01 0.  1.
       -4    1    3    3    0  502  0.40723701718E+03 -0.53868597106E+03  0.11285203192E+04  0.13151366041E+04  0.12699999809E+01 0. -1.
</event>
<event>
 5   0  0.1146827E-06  0.2192708E+04  0.7818609E-02  0.8521469E-01
       -1   -1    0    0    0  501  0.00000000000E+00  0.00000000000E+00  0.63583556994E+03  0.63583556996E+03  0.50400001928E-02 0.  1.
        1   -1    0    0  501    0  0.00000000000E+00  0.00000000000E+00 -0.18904141814E+04  0.18904141815E+04  0.50400001928E-02 0. -1.
    10030    2    1    2    0    0  0.00000000000E+00  0.00000000000E+00 -0.12545786115E+04  0.25262497514E+04  0.21927084426E+04 0.  0.
        4    1    3    3  502    0  0.61662511569E+02 -0.89525209640E+01  0.63379313666E+03  0.63684987708E+03  0.12699999809E+01 0.  1.
       -4    1    3    3    0  502 -0.61662511569E+02  0.89525209640E+01 -0.18883717482E+04  0.18893998743E+04  0.12699999809E+01 0. -1.
</event>
<event>
 5   0  0.1144271E-06  0.2200395E+04  0.7818609E-02  0.8518264E-01
       -1   -1    0    0    0  501  0.00000000000E+00  0.00000000000E+00  0.52331203089E+03  0.52331203092E+03  0.50400001928E-02 0. -1.
        1   -1    0    0  501    0  0.00000000000E+00  0.00000000000E+00 -0.23130264673E+04  0.23130264674E+04  0.50400001928E-02 0.  1.
    10030    2    1    2    0    0  0.00000000000E+00  0.00000000000E+00 -0.17897144365E+04  0.28363384983E+04  0.22003950356E+04 0.  0.
        3    1    3    3  502    0 -0.90086210122E+03  0.12585783161E+02 -0.80915335546E+02  0.90457627046E+03  0.10100000352E+00 0. -1.
       -3    1    3    3    0  502  0.90086210122E+03 -0.12585783161E+02 -0.17087991009E+04  0.19317622278E+04  0.10100000352E+00 0.  1.
</event>
<event>
 5   0  0.2581058E-06  0.2201042E+04  0.7818609E-02  0.8517995E-01
        2   -1    0    0  501    0  0.00000000000E+00  0.00000000000E+00  0.10996708158E+04  0.10996708158E+04  0.25500000920E-02 0.  1.
       -2   -1    0    0    0  501  0.00000000000E+00  0.00000000000E+00 -0.11013718707E+04  0.11013718708E+04  0.25500000920E-02 0. -1.
    10030    2    1    2    0    0  0.00000000000E+00  0.00000000000E+00 -0.17010549015E+01  0.22010426866E+04  0.22010420293E+04 0.  0.
        1    1    3    3  502    0 -0.45070195735E+03 -0.34013169636E+03 -0.94548019636E+03  0.11012513914E+04  0.50400001928E-02 0. -1.
       -1    1    3    3    0  502  0.45070195735E+03  0.34013169636E+03  0.94377914146E+03  0.10997912952E+04  0.50400001928E-02 0.  1.
</event>
<event>
 5   0  0.1082209E-06  0.2200617E+04  0.7818609E-02  0.8518171E-01
        1   -1    0    0  501    0  0.00000000000E+00  0.00000000000E+00  0.11436622780E+04  0.11436622780E+04  0.50400001928E-02 0.  1.
       -1   -1    0    0    0  501  0.00000000000E+00  0.00000000000E+00 -0.10585983056E+04  0.10585983056E+04  0.50400001928E-02 0. -1.
    10030    2    1    2    0    0  0.00000000000E+00  0.00000000000E+00  0.85063972415E+02  0.22022605836E+04  0.22006171404E+04 0.  0.
        2    1    3    3  502    0 -0.10700096126E+04 -0.17535911861E+03 -0.14471081260E+03  0.10938978978E+04  0.25500000920E-02 0.  1.
       -2    1    3    3    0  502  0.10700096126E+04  0.17535911861E+03  0.22977478501E+03  0.11083626858E+04  0.25500000920E-02 0. -1.
</event>
<event>
 5   0  0.2581058E-06  0.2200185E+04  0.7818609E-02  0.8518351E-01
        2   -1    0    0  501    0  0.00000000000E+00  0.00000000000E+00  0.21851327175E+04  0.21851327175E+04  0.25500000920E-02 0.  1.
       -2   -1    0    0    0  501  0.00000000000E+00  0.00000000000E+00 -0.55383509466E+03  0.55383509466E+03  0.25500000920E-02 0. -1.
    10030    2    1    2    0    0  0.00000000000E+00  0.00000000000E+00  0.16312976229E+04  0.27389678122E+04  0.22001847063E+04 0.  0.
        1    1    3    3  502    0 -0.25181920624E+03  0.71725893868E+03 -0.17427014726E+03  0.77989959738E+03  0.50400001928E-02 0. -1.
       -1    1    3    3    0  502  0.25181920624E+03 -0.71725893868E+03  0.18055677701E+04  0.19590682148E+04  0.50400001928E-02 0.  1.
</event>
<event>
 5   0  0.2532239E-06  0.2199771E+04  0.7818609E-02  0.8518523E-01
       -2   -1    0    0    0  501  0.00000000000E+00  0.00000000000E+00  0.65825651387E+03  0.65825651387E+03  0.25500000920E-02 0. -1.
        2   -1    0    0  501    0  0.00000000000E+00  0.00000000000E+00 -0.18378065063E+04  0.18378065063E+04  0.25500000920E-02 0.  1.
    10030    2    1    2    0    0  0.00000000000E+00  0.00000000000E+00 -0.11795499924E+04  0.24960630202E+04  0.21997709917E+04 0.  0.
        3    1    3    3  502    0  0.44839329950E+03  0.46617794545E+03 -0.15991853964E+04  0.17250427154E+04  0.10100000352E+00 0.  1.
       -3    1    3    3    0  502 -0.44839329950E+03 -0.46617794545E+03  0.41963540396E+03  0.77102030473E+03  0.10100000352E+00 0. -1.
</event>
<event>
 5   0  0.1107101E-06  0.2200603E+04  0.7818609E-02  0.8518177E-01
        1   -1    0    0  501    0  0.00000000000E+00  0.00000000000E+00  0.15361431021E+04  0.15361431021E+04  0.50400001928E-02 0.  1.
       -1   -1    0    0    0  501  0.00000000000E+00  0.00000000000E+00 -0.78811922364E+03  0.78811922366E+03  0.50400001928E-02 0. -1.
    10030    2    1    2    0    0  0.00000000000E+00  0.00000000000E+00  0.74802387844E+03  0.23242623257E+04  0.22006034709E+04 0.  0.
        1    1    3    3  502    0 -0.28932958115E+03  0.77852867349E+03 -0.38823864958E+03  0.91681391298E+03  0.50400001928E-02 0. -1.
       -1    1    3    3    0  502  0.28932958115E+03 -0.77852867349E+03  0.11362625280E+04  0.14074484128E+04  0.50400001928E-02 0.  1.
</event>
<event>
 5   0  0.1107101E-06  0.2200522E+04  0.7818609E-02  0.8518211E-01
       -1   -1    0    0    0  501  0.00000000000E+00  0.00000000000E+00  0.13828351279E+04  0.13828351279E+04  0.50400001928E-02 0. -1.
        1   -1    0    0  501    0  0.00000000000E+00  0.00000000000E+00 -0.87542902210E+03  0.87542902211E+03  0.50400001928E-02 0.  1.
    10030    2    1    2    0    0  0.00000000000E+00  0.00000000000E+00  0.50740610580E+03  0.22582641500E+04  0.22005217597E+04 0.  0.
        1    1    3    3  502    0  0.40561286004E+03  0.10713384820E+03 -0.79012741263E+03  0.89459531738E+03  0.50400001928E-02 0.  1.
       -1    1    3    3    0  502 -0.40561286004E+03 -0.10713384820E+03  0.12975335184E+04  0.13636688327E+04  0.50400001928E-02 0. -1.
</event>
<event>
 5   0  0.2581058E-06  0.2200095E+04  0.7818609E-02  0.8518389E-01
        2   -1    0    0  501    0  0.00000000000E+00  0.00000000000E+00  0.98370106570E+03  0.98370106570E+03  0.25500000920E-02 0. -1.
       -2   -1    0    0    0  501  0.00000000000E+00  0.00000000000E+00 -0.12301547653E+04  0.12301547653E+04  0.25500000920E-02 0.  1.
    10030    2    1    2    0    0  0.00000000000E+00  0.00000000000E+00 -0.24645369957E+03  0.22138558310E+04  0.22000950467E+04 0.  0.
        1    1    3    3  502    0  0.63138962222E+03 -0.36295620978E+03 -0.95283145840E+03  0.11992822243E+04  0.50400001928E-02 0.  1.
       -1    1    3    3    0  502 -0.63138962222E+03  0.36295620978E+03  0.70637775883E+03  0.10145736067E+04  0.50400001928E-02 0. -1.
</event>
<event>
 5   0  0.1082209E-06  0.2198925E+04  0.7818609E-02  0.8518876E-01
        1   -1    0    0  501    0  0.00000000000E+00  0.00000000000E+00  0.21098709888E+04  0.21098709888E+04  0.50400001928E-02 0.  1.
       -1   -1    0    0    0  501  0.00000000000E+00  0.00000000000E+00 -0.57293433449E+03  0.57293433451E+03  0.50400001928E-02 0. -1.
    10030    2    1    2    0    0  0.00000000000E+00  0.00000000000E+00  0.15369366543E+04  0.26828053233E+04  0.21989247653E+04 0.  0.
        2    1    3    3  502    0  0.50598898549E+03  0.33026143749E+02  0.19586938770E+04  0.20232640172E+04  0.25500000920E-02 0.  1.
       -2    1    3    3    0  502 -0.50598898549E+03 -0.33026143749E+02 -0.42175722266E+03  0.65954130612E+03  0.25500000920E-02 0. -1.
</event>
<event>
 5   0  0.1107101E-06  0.2200156E+04  0.7818609E-02  0.8518363E-01
        1   -1    0    0  501    0  0.00000000000E+00  0.00000000000E+00  0.27207799533E+04  0.27207799533E+04  0.50400001928E-02 0.  1.
       -1   -1    0    0    0  501  0.00000000000E+00  0.00000000000E+00 -0.44478857538E+03  0.44478857541E+03  0.50400001928E-02 0. -1.
    10030    2    1    2    0    0  0.00000000000E+00  0.00000000000E+00  0.22759913780E+04  0.31655685287E+04  0.22001562121E+04 0.  0.
        1    1    3    3  502    0  0.84515098525E+02 -0.91775305805E+03  0.20021800561E+04  0.22041185210E+04  0.50400001928E-02 0.  1.
       -1    1    3    3    0  502 -0.84515098525E+02  0.91775305805E+03  0.27381132185E+03  0.96145000777E+03  0.50400001928E-02 0. -1.
</event>
<event>
 5   0  0.2532239E-06  0.2209966E+04  0.7818609E-02  0.8514291E-01
       -2   -1    0    0    0  501  0.00000000000E+00  0.00000000000E+00  0.70728173246E+03  0.70728173247E+03  0.25500000920E-02 0.  1.
        2   -1    0    0  501    0  0.00000000000E+00  0.00000000000E+00 -0.17263106418E+04  0.17263106418E+04  0.25500000920E-02 0. -1.
    10030    2    1    2    0    0  0.00000000000E+00  0.00000000000E+00 -0.10190289094E+04  0.24335923743E+04  0.22099664989E+04 0.  0.
        3    1    3    3  502    0 -0.50593639926E+03 -0.97059307179E+03 -0.67639255378E+03  0.12866737924E+04  0.10100000352E+00 0. -1.
       -3    1    3    3    0  502  0.50593639926E+03  0.97059307179E+03 -0.34263635559E+03  0.11469185819E+04  0.10100000352E+00 0.  1.
</event>
<event>
 5   0  0.1146827E-06  0.2201020E+04  0.7818609E-02  0.8518004E-01
       -1   -1    0    0    0  501  0.00000000000E+00  0.00000000000E+00  0.49742108192E+03  0.49742108194E+03  0.50400001928E-02 0. -1.
        1   -1    0    0  501    0  0.00000000000E+00  0.00000000000E+00 -0.24348028838E+04  0.24348028838E+04  0.50400001928E-02 0.  1.
    10030    2    1    2    0    0  0.00000000000E+00  0.00000000000E+00 -0.19373818019E+04  0.29322239658E+04  0.22010200224E+04 0.  0.
        4    1    3    3  502    0  0.65024299060E+03 -0.92077683317E+02  0.20775542983E+03  0.68880924654E+03  0.12699999809E+01 0. -1.
       -4    1    3    3    0  502 -0.65024299060E+03  0.92077683317E+02 -0.21451372317E+04  0.22434147192E+04  0.12699999809E+01 0.  1.
</event>
<event>
 5   0  0.1107101E-06  0.2200378E+04  0.7818609E-02  0.8518271E-01
        1   -1    0    0  501    0  0.00000000000E+00  0.00000000000E+00  0.17388606532E+04  0.17388606532E+04  0.50400001928E-02 0. -1.
       -1   -1    0    0    0  501  0.00000000000E+00  0.00000000000E+00 -0.69609701376E+03  0.69609701378E+03  0.50400001928E-02 0.  1.
    10030    2    1    2    0    0  0.00000000000E+00  0.00000000000E+00  0.10427636395E+04  0.24349576670E+04  0.22003778840E+04 0.  0.
        1    1    3    3  502    0 -0.29129483479E+03 -0.36237287224E+03 -0.58204036113E+03  0.74494144825E+03  0.50400001928E-02 0.  1.
       -1    1    3    3    0  502  0.29129483479E+03  0.36237287224E+03  0.16248040006E+04  0.16900162188E+04  0.50400001928E-02 0. -1.
</event>
<event>
 5   0  0.1146827E-06  0.2202518E+04  0.7818609E-02  0.8517381E-01
       -1   -1    0    0    0  501  0.00000000000E+00  0.00000000000E+00  0.11405306249E+04  0.11405306249E+04  0.50400001928E-02 0. -1.
        1   -1    0    0  501    0  0.00000000000E+00  0.00000000000E+00 -0.10633396029E+04  0.10633396029E+04  0.50400001928E-02 0.  1.
    10030    2    1    2    0    0  0.00000000000E+00  0.00000000000E+00  0.77191021972E+02  0.22038702278E+04  0.22025179970E+04 0.  0.
        4    1    3    3  502    0 -0.27630068519E+03 -0.10130515051E+04  0.37069436346E+03  0.11135669466E+04  0.12699999809E+01 0.  1.
       -4    1    3    3    0  502  0.27630068519E+03  0.10130515051E+04 -0.29350334149E+03  0.10903032812E+04  0.12699999809E+01 0. -1.
</event>
<event>
 5   0  0.2606154E-06  0.2197084E+04  0.7818609E-02  0.8519643E-01
        2   -1    0    0  501    0  0.00000000000E+00  0.00000000000E+00  0.18965318566E+04  0.18965318566E+04  0.25500000920E-02 0. -1.
       -2   -1    0    0    0  501  0.00000000000E+00  0.00000000000E+00 -0.63631661938E+03  0.63631661939E+03  0.25500000920E-02 0.  1.
    10030    2    1    2    0    0  0.00000000000E+00  0.00000000000E+00  0.12602152372E+04  0.25328484760E+04  0.21970841946E+04 0.  0.
        2    1    3    3  502    0  0.28185440618E+03  0.30099371853E+03 -0.54371022656E+03  0.68239280136E+03  0.25500000920E-02 0.  1.
       -2    1    3    3    0  502 -0.28185440618E+03 -0.30099371853E+03  0.18039254638E+04  0.18504556746E+04  0.25500000920E-02 0. -1.
</event>
<event>
 5   0  0.2524749E-06  0.2201120E+04  0.7818609E-02  0.8517962E-01
       -2   -1    0    0    0  501  0.00000000000E+00  0.00000000000E+00  0.56939806663E+03  0.56939806664E+03  0.25500000920E-02 0.  1.
        2   -1    0    0  501    0  0.00000000000E+00  0.00000000000E+00 -0.21272155367E+04  0.21272155367E+04  0.25500000920E-02 0. -1.
    10030    2    1    2    0    0  0.00000000000E+00  0.00000000000E+00 -0.15578174701E+04  0.26966136034E+04  0.22011200912E+04 0.  0.
        4    1    3    3  502    0  0.53667312967E+03 -0.40552162675E+03 -0.18460664721E+04  0.19647974120E+04  0.12699999809E+01 0. -1.
       -4    1    3    3    0  502 -0.53667312967E+03  0.40552162675E+03  0.28824900201E+03  0.73181619136E+03  0.12699999809E+01 0.  1.
</event>
<event>
 5   0  0.2532239E-06  0.2198573E+04  0.7818609E-02  0.8519022E-01
        2   -1    0    0  501    0  0.00000000000E+00  0.00000000000E+00  0.10518597591E+04  0.10518597591E+04  0.25500000920E-02 0. -1.
       -2   -1    0    0    0  501  0.00000000000E+00  0.00000000000E+00 -0.11488518355E+04  0.11488518355E+04  0.25500000920E-02 0.  1.
    10030    2    1    2    0    0  0.00000000000E+00  0.00000000000E+00 -0.96992076420E+02  0.22007115945E+04  0.21985731872E+04 0.  0.
        3    1    3    3  502    0 -0.97663252041E+03 -0.45599050708E+03  0.16779879749E+03  0.10908230237E+04  0.10100000352E+00 0. -1.
       -3    1    3    3    0  502  0.97663252041E+03  0.45599050708E+03 -0.26479087391E+03  0.11098885708E+04  0.10100000352E+00 0.  1.
</event>
<event>
 5   0  0.1144271E-06  0.2200033E+04  0.7818609E-02  0.8518414E-01
       -1   -1    0    0    0  501  0.00000000000E+00  0.00000000000E+00  0.59744520892E+03  0.59744520894E+03  0.50400001928E-02 0. -1.
        1   -1    0    0  501    0  0.00000000000E+00  0.00000000000E+00 -0.20253512573E+04  0.20253512574E+04  0.50400001928E-02 0.  1.
    10030    2    1    2    0    0  0.00000000000E+00  0.00000000000E+00 -0.14279060484E+04  0.26227964663E+04  0.22000330953E+04 0.  0.
        3    1    3    3  502    0 -0.48550635908E+03 -0.98402671148E+03 -0.80638521284E+03  0.13617202779E+04  0.10100000352E+00 0.  1.
       -3    1    3    3    0  502  0.48550635908E+03  0.98402671148E+03 -0.62152083558E+03  0.12610761884E+04  0.10100000352E+00 0. -1.
</event>
<event>
 5   0  0.2556869E-06  0.2198815E+04  0.7818609E-02  0.8518921E-01
        2   -1    0    0  501    0  0.00000000000E+00  0.00000000000E+00  0.19618846201E+04  0.19618846201E+04  0.25500000920E-02 0. -1.
       -2   -1    0    0    0  501  0.00000000000E+00  0.00000000000E+00 -0.61608972621E+03  0.61608972622E+03  0.25500000920E-02 0.  1.
    10030    2    1    2    0    0  0.00000000000E+00  0.00000000000E+00  0.13457948939E+04  0.25779743463E+04  0.21988150977E+04 0.  0.
        5    1    3    3  502    0  0.94330132168E+03  0.23991940906E+03  0.12722141704E+04  0.16018519569E+04  0.46999998093E+01 0. -1.
       -5    1    3    3    0  502 -0.94330132168E+03 -0.23991940906E+03  0.73580723464E+02  0.97612238945E+03  0.46999998093E+01 0.  1.
</event>
<event>
 5   0  0.2606154E-06  0.2201056E+04  0.7818609E-02  0.8517989E-01
       -2   -1    0    0    0  501  0.00000000000E+00  0.00000000000E+00  0.61242423139E+03  0.61242423140E+03  0.25500000920E-02 0. -1.
        2   -1    0    0  501    0  0.00000000000E+00  0.00000000000E+00 -0.19776515217E+04  0.19776515217E+04  0.25500000920E-02 0.  1.
    10030    2    1    2    0    0  0.00000000000E+00  0.00000000000E+00 -0.13652272903E+04  0.25900757531E+04  0.22010558495E+04 0.  0.
        2    1    3    3  502    0  0.94061277251E+03  0.57034187011E+03 -0.64324151647E+03  0.12742848524E+04  0.25500000920E-02 0.  1.
       -2    1    3    3    0  502 -0.94061277251E+03 -0.57034187011E+03 -0.72198577380E+03  0.13157909006E+04  0.25500000920E-02 0. -1.
</event>
<event>
 5   0  0.1144271E-06  0.2200512E+04  0.7818609E-02  0.8518215E-01
       -1   -1    0    0    0  501  0.00000000000E+00  0.00000000000E+00  0.17852857130E+04  0.17852857130E+04  0.50400001928E-02 0.  1.
        1   -1    0    0  501    0  0.00000000000E+00  0.00000000000E+00 -0.67807847497E+03  0.67807847499E+03  0.50400001928E-02 0. -1.
    10030    2    1    2    0    0  0.00000000000E+00  0.00000000000E+00  0.11072072381E+04  0.24633641880E+04  0.22005124982E+04 0.  0.
        3    1    3    3  502    0  0.93405023410E+02 -0.62271471650E+03  0.15636341661E+04  0.16856600879E+04  0.10100000352E+00 0.  1.
       -3    1    3    3    0  502 -0.93405023410E+02  0.62271471650E+03 -0.45642692799E+03  0.77770410011E+03  0.10100000352E+00 0. -1.
</event>
<event>
 5   0  0.2556869E-06  0.2200611E+04  0.7818609E-02  0.8518174E-01
       -2   -1    0    0    0  501  0.00000000000E+00  0.00000000000E+00  0.83928722281E+03  0.83928722281E+03  0.25500000920E-02 0. -1.
        2   -1    0    0  501    0  0.00000000000E+00  0.00000000000E+00 -0.14425004849E+04  0.14425004849E+04  0.25500000920E-02 0.  1.
    10030    2    1    2    0    0  0.00000000000E+00  0.00000000000E+00 -0.60321326205E+03  0.22817877077E+04  0.22006110296E+04 0.  0.
        5    1    3    3  502    0 -0.92568327741E+03  0.57474824991E+03 -0.46030492591E+03  0.11828473256E+04  0.46999998093E+01 0. -1.
       -5    1    3    3    0  502  0.92568327741E+03 -0.57474824991E+03 -0.14290833615E+03  0.10989403821E+04  0.46999998093E+01 0.  1.
</event>
<event>
 5   0  0.8905000E-07  0.2200705E+04  0.7818609E-02  0.8518135E-01
        3   -1    0    0  501    0  0.00000000000E+00  0.00000000000E+00  0.92257117090E+03  0.92257117643E+03  0.10100000352E+00 0. -1.
       -3   -1    0    0    0  501  0.00000000000E+00  0.00000000000E+00 -0.13123926248E+04  0.13123926286E+04  0.10100000352E+00 0.  1.
    10030    2    1    2    0    0  0.00000000000E+00  0.00000000000E+00 -0.38982145386E+03  0.22349638051E+04  0.22007049880E+04 0.  0.
        2    1    3    3  502    0 -0.37154544034E+03 -0.15952068629E+03  0.84438858792E+03  0.93620774992E+03  0.25500000920E-02 0. -1.
       -2    1    3    3    0  502  0.37154544034E+03  0.15952068629E+03 -0.12342100418E+04  0.12987560552E+04  0.25500000920E-02 0.  1.
</event>
<event>
 5   0  0.2556869E-06  0.2199941E+04  0.7818609E-02  0.8518453E-01
        2   -1    0    0  501    0  0.00000000000E+00  0.00000000000E+00  0.37446146064E+04  0.37446146064E+04  0.25500000920E-02 0. -1.
       -2   -1    0    0    0  501  0.00000000000E+00  0.00000000000E+00 -0.32311348364E+03  0.32311348365E+03  0.25500000920E-02 0.  1.
    10030    2    1    2    0    0  0.00000000000E+00  0.00000000000E+00  0.34215011228E+04  0.40677280900E+04  0.21999413359E+04 0.  0.
        5    1    3    3  502    0  0.15819643289E+03  0.94976887509E+03  0.72741725089E+03  0.12067497563E+04  0.46999998093E+01 0.  1.
       -5    1    3    3    0  502 -0.15819643289E+03 -0.94976887509E+03  0.26940838719E+04  0.28609783337E+04  0.46999998093E+01 0. -1.
</event>
<event>
 5   0  0.2581058E-06  0.2198249E+04  0.7818609E-02  0.8519157E-01
       -2   -1    0    0    0  501  0.00000000000E+00  0.00000000000E+00  0.10894796297E+04  0.10894796297E+04  0.25500000920E-02 0.  1.
        2   -1    0    0  501    0  0.00000000000E+00  0.00000000000E+00 -0.11088544636E+04  0.11088544636E+04  0.25500000920E-02 0. -1.
    10030    2    1    2    0    0  0.00000000000E+00  0.00000000000E+00 -0.19374833867E+02  0.21983340933E+04  0.21982487124E+04 0.  0.
        1    1    3    3  502    0  0.88237311012E+03 -0.48361859946E+02 -0.66328236615E+03  0.11049274511E+04  0.50400001928E-02 0.  1.
       -1    1    3    3    0  502 -0.88237311012E+03  0.48361859946E+02  0.64390753228E+03  0.10934066422E+04  0.50400001928E-02 0. -1.
</event>
<event>
 5   0  0.2524749E-06  0.2200247E+04  0.7818609E-02  0.8518325E-01
       -2   -1    0    0    0  501  0.00000000000E+00  0.00000000000E+00  0.10086143906E+04  0.10086143906E+04  0.25500000920E-02 0. -1.
        2   -1    0    0  501    0  0.00000000000E+00  0.00000000000E+00 -0.11999351693E+04  0.11999351693E+04  0.25500000920E-02 0.  1.
    10030    2    1    2    0    0  0.00000000000E+00  0.00000000000E+00 -0.19132077875E+03  0.22085495599E+04  0.22002471493E+04 0.  0.
        4    1    3    3  502    0  0.91197607708E+03 -0.18184065765E+03  0.49435337673E+03  0.10531634555E+04  0.12699999809E+01 0. -1.
       -4    1    3    3    0  502 -0.91197607708E+03  0.18184065765E+03 -0.68567415548E+03  0.11553861044E+04  0.12699999809E+01 0.  1.
</event>
<event>
 5   0  0.1144271E-06  0.2211624E+04  0.7818609E-02  0.8513605E-01
       -1   -1    0    0    0  501  0.00000000000E+00  0.00000000000E+00  0.67819689706E+03  0.67819689708E+03  0.50400001928E-02 0. -1.
        1   -1    0    0  501    0  0.00000000000E+00  0.00000000000E+00 -0.18030459580E+04  0.18030459580E+04  0.50400001928E-02 0.  1.
    10030    2    1    2    0    0  0.00000000000E+00  0.00000000000E+00 -0.11248490609E+04  0.24812428551E+04  0.22116239952E+04 0.  0.
        3    1    3    3  502    0  0.25506956173E+03  0.10417981403E+04 -0.86433362646E+03  0.13774891922E+04  0.10100000352E+00 0.  1.
       -3    1    3    3    0  502 -0.25506956173E+03 -0.10417981403E+04 -0.26051543445E+03  0.11037536629E+04  0.10100000352E+00 0. -1.
</event>
<event>
 5   0  0.1146827E-06  0.2200837E+04  0.7818609E-02  0.8518080E-01
        1   -1    0    0  501    0  0.00000000000E+00  0.00000000000E+00  0.10230438469E+04  0.10230438469E+04  0.50400001928E-02 0.  1.
       -1   -1    0    0    0  501  0.00000000000E+00  0.00000000000E+00 -0.11836456521E+04  0.11836456521E+04  0.50400001928E-02 0. -1.
    10030    2    1    2    0    0  0.00000000000E+00  0.00000000000E+00 -0.16060180525E+03  0.22066894990E+04  0.22008374782E+04 0.  0.
        4    1    3    3  502    0  0.27703485822E+03 -0.71767222119E+03 -0.86923366432E+03  0.11607628982E+04  0.12699999809E+01 0. -1.
       -4    1    3    3    0  502 -0.27703485822E+03  0.71767222119E+03  0.70863185908E+03  0.10459266008E+04  0.12699999809E+01 0.  1.
</event>
<event>
 5   0  0.2581058E-06  0.2199673E+04  0.7818609E-02  0.8518564E-01
       -2   -1    0    0    0  501  0.00000000000E+00  0.00000000000E+00  0.11504749288E+04  0.11504749288E+04  0.25500000920E-02 0.  1.
        2   -1    0    0  501    0  0.00000000000E+00  0.00000000000E+00 -0.10514266641E+04  0.10514266641E+04  0.25500000920E-02 0. -1.
    10030    2    1    2    0    0  0.00000000000E+00  0.00000000000E+00  0.99048264693E+02  0.22019015929E+04  0.21996727179E+04 0.  0.
        1    1    3    3  502    0  0.47966618379E+02  0.99422939496E+03 -0.41876088751E+03  0.10798859047E+04  0.50400001928E-02 0. -1.
       -1    1    3    3    0  502 -0.47966618379E+02 -0.99422939496E+03  0.51780915221E+03  0.11220156881E+04  0.50400001928E-02 0.  1.
</event>
<event>
 5   0  0.1107101E-06  0.2200325E+04  0.7818609E-02  0.8518293E-01
        1   -1    0    0  501    0  0.00000000000E+00  0.00000000000E+00  0.15286007838E+04  0.15286007838E+04  0.50400001928E-02 0. -1.
       -1   -1    0    0    0  501  0.00000000000E+00  0.00000000000E+00 -0.79180768666E+03  0.79180768667E+03  0.50400001928E-02 0.  1.
    10030    2    1    2    0    0  0.00000000000E+00  0.00000000000E+00  0.73679309712E+03  0.23204084705E+04  0.22003252945E+04 0.  0.
        1    1    3    3  502    0  0.28553294654E+03 -0.10148986960E+04  0.36901738177E+02  0.10549455745E+04  0.50400001928E-02 0.  1.
       -1    1    3    3    0  502 -0.28553294654E+03  0.10148986960E+04  0.69989135895E+03  0.12654628960E+04  0.50400001928E-02 0. -1.
</event>
<event>
 5   0  0.2524749E-06  0.2199538E+04  0.7818609E-02  0.8518620E-01
       -2   -1    0    0    0  501  0.00000000000E+00  0.00000000000E+00  0.48828640837E+03  0.48828640838E+03  0.25500000920E-02 0.  1.
        2   -1    0    0  501    0  0.00000000000E+00  0.00000000000E+00 -0.24770129028E+04  0.24770129028E+04  0.25500000920E-02 0. -1.
    10030    2    1    2    0    0  0.00000000000E+00  0.00000000000E+00 -0.19887264945E+04  0.29652993112E+04  0.21995378913E+04 0.  0.
        4    1    3    3  502    0 -0.45484064954E+03 -0.86121388998E+03 -0.30572460400E+03  0.10208028836E+04  0.12699999809E+01 0.  1.
       -4    1    3    3    0  502  0.45484064954E+03  0.86121388998E+03 -0.16830018905E+04  0.19444964276E+04  0.12699999809E+01 0. -1.
</event>
<event>
 5   0  0.2556869E-06  0.2197305E+04  0.7818609E-02  0.8519551E-01
       -2   -1    0    0    0  501  0.00000000000E+00  0.00000000000E+00  0.86662878270E+03  0.86662878270E+03  0.25500000920E-02 0.  1.
        2   -1    0    0  501    0  0.00000000000E+00  0.00000000000E+00 -0.13927966488E+04  0.13927966488E+04  0.25500000920E-02 0. -1.
    10030    2    1    2    0    0  0.00000000000E+00  0.00000000000E+00 -0.52616786607E+03  0.22594254315E+04  0.21973053172E+04 0.  0.
        5    1    3    3  502    0  0.86915397845E+03  0.67026285953E+03 -0.31276799756E+03  0.11412829839E+04  0.46999998093E+01 0. -1.
       -5    1    3    3    0  502 -0.86915397845E+03 -0.67026285953E+03 -0.21339986852E+03  0.11181424475E+04  0.46999998093E+01 0.  1.
</event>
<event>
 5   0  0.2556869E-06  0.2200265E+04  0.7818609E-02  0.8518318E-01
        2   -1    0    0  501    0  0.00000000000E+00  0.00000000000E+00  0.12159573766E+04  0.12159573766E+04  0.25500000920E-02 0.  1.
       -2   -1    0    0    0  501  0.00000000000E+00  0.00000000000E+00 -0.99534008793E+03  0.99534008793E+03  0.25500000920E-02 0. -1.
    10030    2    1    2    0    0  0.00000000000E+00  0.00000000000E+00  0.22061728868E+03  0.22112974646E+04  0.22002646406E+04 0.  0.
        5    1    3    3  502    0 -0.30884168662E+03  0.44603559074E+03  0.10721541277E+04  0.12016103775E+04  0.46999998093E+01 0.  1.
       -5    1    3    3    0  502  0.30884168662E+03 -0.44603559074E+03 -0.85153683904E+03  0.10096870871E+04  0.46999998093E+01 0. -1.
</event>
<event>
 5   0  0.1146827E-06  0.2200179E+04  0.7818609E-02  0.8518354E-01
        1   -1    0    0  501    0  0.00000000000E+00  0.00000000000E+00  0.14570210051E+04  0.14570210051E+04  0.50400001928E-02 0.  1.
       -1   -1    0    0    0  501  0.00000000000E+00  0.00000000000E+00 -0.83059672578E+03  0.83059672580E+03  0.50400001928E-02 0. -1.
    10030    2    1    2    0    0  0.00000000000E+00  0.00000000000E+00  0.62642427930E+03  0.22876177309E+04  0.22001789711E+04 0.  0.
        4    1    3    3  502    0  0.27709104436E+03 -0.12034937709E+02 -0.79364692948E+03  0.84071478407E+03  0.12699999809E+01 0. -1.
       -4    1    3    3    0  502 -0.27709104436E+03  0.12034937709E+02  0.14200712088E+04  0.14469029468E+04  0.12699999809E+01 0.  1.
</event>
<event>
 5   0  0.1146827E-06  0.2201191E+04  0.7818609E-02  0.8517933E-01
        1   -1    0    0  501    0  0.00000000000E+00  0.00000000000E+00  0.10998912133E+04  0.10998912133E+04  0.50400001928E-02 0.  1.
       -1   -1    0    0    0  501  0.00000000000E+00  0.00000000000E+00 -0.11013000893E+04  0.11013000893E+04  0.50400001928E-02 0. -1.
    10030    2    1    2    0    0  0.00000000000E+00  0.00000000000E+00 -0.14088760080E+01  0.22011913026E+04  0.22011908517E+04 0.  0.
        4    1    3    3  502    0  0.18486941854E+03 -0.59272072261E+03  0.90803890302E+03  0.11000140086E+04  0.12699999809E+01 0.  1.
       -4    1    3    3    0  502 -0.18486941854E+03  0.59272072261E+03 -0.90944777903E+03  0.11011772939E+04  0.12699999809E+01 0. -1.
</event>
<event>
 5   0  0.1107101E-06  0.2200846E+04  0.7818609E-02  0.8518076E-01
        1   -1    0    0  501    0  0.00000000000E+00  0.00000000000E+00  0.25122102945E+04  0.25122102945E+04  0.50400001928E-02 0.  1.
       -1   -1    0    0    0  501  0.00000000000E+00  0.00000000000E+00 -0.48201816456E+03  0.48201816458E+03  0.50400001928E-02 0. -1.
    10030    2    1    2    0    0  0.00000000000E+00  0.00000000000E+00  0.20301921299E+04  0.29942284591E+04  0.22008461965E+04 0.  0.
        1    1    3    3  502    0  0.10161953577E+04 -0.41654617529E+02  0.44345904348E+03  0.11095242383E+04  0.50400001928E-02 0. -1.
       -1    1    3    3    0  502 -0.10161953577E+04  0.41654617529E+02  0.15867330864E+04  0.18847042208E+04  0.50400001928E-02 0.  1.
</event>
<event>
 5   0  0.2556869E-06  0.2195638E+04  0.7818609E-02  0.8520246E-01
        2   -1    0    0  501    0  0.00000000000E+00  0.00000000000E+00  0.12030155308E+04  0.12030155308E+04  0.25500000920E-02 0.  1.
       -2   -1    0    0    0  501  0.00000000000E+00  0.00000000000E+00 -0.10018217096E+04  0.10018217096E+04  0.25500000920E-02 0. -1.
    10030    2    1    2    0    0  0.00000000000E+00  0.00000000000E+00  0.20119382117E+03  0.22048372404E+04  0.21956384727E+04 0.  0.
        5    1    3    3  502    0 -0.32104897624E+03 -0.66581424366E+03  0.91566482157E+03  0.11767944628E+04  0.46999998093E+01 0.  1.
       -5    1    3    3    0  502  0.32104897624E+03  0.66581424366E+03 -0.71447100039E+03  0.10280427776E+04  0.46999998093E+01 0. -1.
</event>
<event>
 5   0  0.2581058E-06  0.2200054E+04  0.7818609E-02  0.8518406E-01
        2   -1    0    0  501    0  0.00000000000E+00  0.00000000000E+00  0.15689558891E+04  0.15689558891E+04  0.25500000920E-02 0.  1.
       -2   -1    0    0    0  501  0.00000000000E+00  0.00000000000E+00 -0.77125122702E+03  0.77125122702E+03  0.25500000920E-02 0. -1.
    10030    2    1    2    0    0  0.00000000000E+00  0.00000000000E+00  0.79770466212E+03  0.23402071162E+04  0.22000537763E+04 0.  0.
        1    1    3    3  502    0  0.83146981633E+03 -0.70430703344E+03  0.55900505284E+03  0.12246946974E+04  0.50400001928E-02 0.  1.
       -1    1    3    3    0  502 -0.83146981633E+03  0.70430703344E+03  0.23869960928E+03  0.11155124187E+04  0.50400001928E-02 0. -1.
</event>
<event>
 5   0  0.2581058E-06  0.2201647E+04  0.7818609E-02  0.8517743E-01
       -2   -1    0    0    0  501  0.00000000000E+00  0.00000000000E+00  0.87890755039E+03  0.87890755039E+03  0.25500000920E-02 0. -1.
        2   -1    0    0  501    0  0.00000000000E+00  0.00000000000E+00 -0.13787705397E+04  0.13787705397E+04  0.25500000920E-02 0.  1.
    10030    2    1    2    0    0  0.00000000000E+00  0.00000000000E+00 -0.49986298934E+03  0.22576780901E+04  0.22016465090E+04 0.  0.
        1    1    3    3  502    0  0.81194169121E+03  0.58556061846E+03  0.21963193612E+03  0.10248749852E+04  0.50400001928E-02 0. -1.
       -1    1    3    3    0  502 -0.81194169121E+03 -0.58556061846E+03 -0.71949492546E+03  0.12328031050E+04  0.50400001928E-02 0.  1.
</event>
<event>
 5   0  0.2581058E-06  0.2196440E+04  0.7818609E-02  0.8519911E-01
        2   -1    0    0  501    0  0.00000000000E+00  0.00000000000E+00  0.98293171366E+03  0.98293171366E+03  0.25500000920E-02 0.  1.
       -2   -1    0    0    0  501  0.00000000000E+00  0.00000000000E+00 -0.12270305307E+04  0.12270305307E+04  0.25500000920E-02 0. -1.
    10030    2    1    2    0    0  0.00000000000E+00  0.00000000000E+00 -0.24409881705E+03  0.22099622444E+04  0.21964400490E+04 0.  0.
        1    1    3    3  502    0  0.86997866452E+02  0.33727705647E+03  0.92588207459E+03  0.98923306539E+03  0.50400001928E-02 0.  1.
       -1    1    3    3    0  502 -0.86997866452E+02 -0.33727705647E+03 -0.11699808916E+04  0.12207291790E+04  0.50400001928E-02 0. -1.
</event>
<event>
 5   0  0.1082209E-06  0.2198136E+04  0.7818609E-02  0.8519204E-01
        1   -1    0    0  501    0  0.00000000000E+00  0.00000000000E+00  0.24720786929E+04  0.24720786929E+04  0.50400001928E-02 0.  1.
       -1   -1    0    0    0  501  0.00000000000E+00  0.00000000000E+00 -0.48863766102E+03  0.48863766105E+03  0.50400001928E-02 0. -1.
    10030    2    1    2    0    0  0.00000000000E+00  0.00000000000E+00  0.19834410319E+04  0.29607163540E+04  0.21981362564E+04 0.  0.
        2    1    3    3  502    0  0.92320286113E+03 -0.23928648747E+03  0.17274764039E+04  0.19732552476E+04  0.25500000920E-02 0.  1.
       -2    1    3    3    0  502 -0.92320286113E+03  0.23928648747E+03  0.25596462796E+03  0.98746110641E+03  0.25500000920E-02 0. -1.
</event>
<event>
 5   0  0.1137869E-06  0.2199606E+04  0.7818609E-02  0.8518592E-01
       -1   -1    0    0    0  501  0.00000000000E+00  0.00000000000E+00  0.12276374196E+04  0.12276374196E+04  0.50400001928E-02 0.  1.
        1   -1    0    0  501    0  0.00000000000E+00  0.00000000000E+00 -0.98528016656E+03  0.98528016657E+03  0.50400001928E-02 0. -1.
    10030    2    1    2    0    0  0.00000000000E+00  0.00000000000E+00  0.24235725308E+03  0.22129175862E+04  0.21996061478E+04 0.  0.
        5    1    3    3  502    0  0.77640924530E+03  0.41345015252E+03 -0.54296211799E+03  0.10337225432E+04  0.46999998093E+01 0. -1.
       -5    1    3    3    0  502 -0.77640924530E+03 -0.41345015252E+03  0.78531937107E+03  0.11791950430E+04  0.46999998093E+01 0.  1.
</event>
<event>
 5   0  0.2556869E-06  0.2199686E+04  0.7818609E-02  0.8518559E-01
       -2   -1    0    0    0  501  0.00000000000E+00  0.00000000000E+00  0.69428864790E+03  0.69428864791E+03  0.25500000920E-02 0. -1.
        2   -1    0    0  501    0  0.00000000000E+00  0.00000000000E+00 -0.17422937727E+04  0.17422937727E+04  0.25500000920E-02 0.  1.
    10030    2    1    2    0    0  0.00000000000E+00  0.00000000000E+00 -0.10480051248E+04  0.24365824206E+04  0.21996861482E+04 0.  0.
        5    1    3    3  502    0 -0.44212022731E+03 -0.73778690134E+03  0.23526018942E+03  0.89172263284E+03  0.46999998093E+01 0. -1.
       -5    1    3    3    0  502  0.44212022731E+03  0.73778690134E+03 -0.12832653142E+04  0.15448597877E+04  0.46999998093E+01 0.  1.
</event>
<event>
 5   0  0.1146827E-06  0.2200266E+04  0.7818609E-02  0.8518317E-01
        1   -1    0    0  501    0  0.00000000000E+00  0.00000000000E+00  0.13853181817E+04  0.13853181817E+04  0.50400001928E-02 0.  1.
       -1   -1    0    0    0  501  0.00000000000E+00  0.00000000000E+00 -0.87365659901E+03  0.87365659902E+03  0.50400001928E-02 0. -1.
    10030    2    1    2    0    0  0.00000000000E+00  0.00000000000E+00  0.51166158272E+03  0.22589747808E+04  0.22002657760E+04 0.  0.
        4    1    3    3  502    0  0.61714124400E+03  0.52264280609E+03  0.10215681146E+04  0.13029281805E+04  0.12699999809E+01 0.  1.
       -4    1    3    3    0  502 -0.61714124400E+03 -0.52264280609E+03 -0.50990653187E+03  0.95604660030E+03  0.12699999809E+01 0. -1.
</event>
<event>
 5   0  0.2606154E-06  0.2200555E+04  0.7818609E-02  0.8518197E-01
        2   -1    0    0  501    0  0.00000000000E+00  0.00000000000E+00  0.13726423860E+04  0.13726423860E+04  0.25500000920E-02 0.  1.
       -2   -1    0    0    0  501  0.00000000000E+00  0.00000000000E+00 -0.88195659293E+03  0.88195659293E+03  0.25500000920E-02 0. -1.
    10030    2    1    2    0    0  0.00000000000E+00  0.00000000000E+00  0.49068579310E+03  0.22545989790E+04  0.22005553864E+04 0.  0.
        2    1    3    3  502    0  0.53628827675E+03 -0.83950425784E+03 -0.23329014223E+03  0.10231308837E+04  0.25500000920E-02 0.  1.
       -2    1    3    3    0  502 -0.53628827675E+03  0.83950425784E+03  0.72397593533E+03  0.12314680953E+04  0.25500000920E-02 0. -1.
</event>
<event>
 5   0  0.1107101E-06  0.2186006E+04  0.7818609E-02  0.8524275E-01
       -1   -1    0    0    0  501  0.00000000000E+00  0.00000000000E+00  0.57173761990E+03  0.57173761992E+03  0.50400001928E-02 0. -1.
        1   -1    0    0  501    0  0.00000000000E+00  0.00000000000E+00 -0.20895175170E+04  0.20895175170E+04  0.50400001928E-02 0.  1.
    10030    2    1    2    0    0  0.00000000000E+00  0.00000000000E+00 -0.15177798971E+04  0.26612551370E+04  0.21860061957E+04 0.  0.
        1    1    3    3  502    0  0.32873003121E+02 -0.10825888797E+04 -0.93771368780E+03  0.14326151881E+04  0.50400001928E-02 0. -1.
       -1    1    3    3    0  502 -0.32873003121E+02  0.10825888797E+04 -0.58006620933E+03  0.12286399489E+04  0.50400001928E-02 0.  1.
</event>
<event>
 5   0  0.2532239E-06  0.2200213E+04  0.7818609E-02  0.8518339E-01
       -2   -1    0    0    0  501  0.00000000000E+00  0.00000000000E+00  0.85371298537E+03  0.85371298537E+03  0.25500000920E-02 0. -1.
        2   -1    0    0  501    0  0.00000000000E+00  0.00000000000E+00 -0.14176129122E+04  0.14176129122E+04  0.25500000920E-02 0.  1.
    10030    2    1    2    0    0  0.00000000000E+00  0.00000000000E+00 -0.56389992684E+03  0.22713258976E+04  0.22002132182E+04 0.  0.
        3    1    3    3  502    0  0.12191409823E+03  0.15852005116E+02  0.84659918701E+03  0.85547912134E+03  0.10100000352E+00 0. -1.
       -3    1    3    3    0  502 -0.12191409823E+03 -0.15852005116E+02 -0.14104991138E+04  0.14158467762E+04  0.10100000352E+00 0.  1.
</event>
<event>
 5   0  0.2556869E-06  0.2186752E+04  0.7818609E-02  0.8523963E-01
        2   -1    0    0  501    0  0.00000000000E+00  0.00000000000E+00  0.12438024200E+04  0.12438024200E+04  0.25500000920E-02 0. -1.
       -2   -1    0    0    0  501  0.00000000000E+00  0.00000000000E+00 -0.96114195957E+03  0.96114195958E+03  0.25500000920E-02 0.  1.
    10030    2    1    2    0    0  0.00000000000E+00  0.00000000000E+00  0.28266046040E+03  0.22049443796E+04  0.21867516505E+04 0.  0.
        5    1    3    3  502    0 -0.48994131861E+03  0.37692351508E+03  0.10506839465E+04  0.12190458061E+04  0.46999998093E+01 0. -1.
       -5    1    3    3    0  502  0.48994131861E+03 -0.37692351508E+03 -0.76802348612E+03  0.98589857345E+03  0.46999998093E+01 0.  1.
</event>
<event>
 5   0  0.1107101E-06  0.2199445E+04  0.7818609E-02  0.8518659E-01
       -1   -1    0    0    0  501  0.00000000000E+00  0.00000000000E+00  0.57225390653E+03  0.57225390655E+03  0.50400001928E-02 0. -1.
        1   -1    0    0  501    0  0.00000000000E+00  0.00000000000E+00 -0.21133786576E+04  0.21133786577E+04  0.50400001928E-02 0.  1.
    10030    2    1    2    0    0  0.00000000000E+00  0.00000000000E+00 -0.15411247511E+04  0.26856325642E+04  0.21994446507E+04 0.  0.
        1    1    3    3  502    0  0.53749656855E+03  0.22195409566E+03  0.36915777212E+03  0.68879869521E+03  0.50400001928E-02 0. -1.
       -1    1    3    3    0  502 -0.53749656855E+03 -0.22195409566E+03 -0.19102825232E+04  0.19968338690E+04  0.50400001928E-02 0.  1.
</event>
<event>
 5   0  0.1146827E-06  0.2199815E+04  0.7818609E-02  0.8518505E-01
       -1   -1    0    0    0  501  0.00000000000E+00  0.00000000000E+00  0.10107569713E+04  0.10107569713E+04  0.50400001928E-02 0.  1.
        1   -1    0    0  501    0  0.00000000000E+00  0.00000000000E+00 -0.11969214892E+04  0.11969214892E+04  0.50400001928E-02 0. -1.
    10030    2    1    2    0    0  0.00000000000E+00  0.00000000000E+00 -0.18616451786E+03  0.22076784605E+04  0.21998152098E+04 0.  0.
        4    1    3    3  502    0  0.41546873059E+03 -0.60792039395E+03  0.72691466909E+03  0.10346922347E+04  0.12699999809E+01 0.  1.
       -4    1    3    3    0  502 -0.41546873059E+03  0.60792039395E+03 -0.91307918695E+03  0.11729862258E+04  0.12699999809E+01 0. -1.
</event>
<event>
 5   0  0.1137869E-06  0.2193585E+04  0.7818609E-02  0.8521103E-01
        1   -1    0    0  501    0  0.00000000000E+00  0.00000000000E+00  0.14627789496E+04  0.14627789496E+04  0.50400001928E-02 0.  1.
       -1   -1    0    0    0  501  0.00000000000E+00  0.00000000000E+00 -0.82237541164E+03  0.82237541166E+03  0.50400001928E-02 0. -1.
    10030    2    1    2    0    0  0.00000000000E+00  0.00000000000E+00  0.64040353792E+03  0.22851543612E+04  0.21935846834E+04 0.  0.
        5    1    3    3  502    0  0.31435990998E+03  0.93855753826E+03  0.81238482957E+03  0.12805091202E+04  0.46999998093E+01 0.  1.
       -5    1    3    3    0  502 -0.31435990998E+03 -0.93855753826E+03 -0.17198129165E+03  0.10046452410E+04  0.46999998093E+01 0. -1.
</event>
<event>
 5   0  0.1137869E-06  0.2199358E+04  0.7818609E-02  0.8518695E-01
        1   -1    0    0  501    0  0.00000000000E+00  0.00000000000E+00  0.14305311769E+04  0.14305311770E+04  0.50400001928E-02 0.  1.
       -1   -1    0    0    0  501  0.00000000000E+00  0.00000000000E+00 -0.84534612944E+03  0.84534612945E+03  0.50400001928E-02 0. -1.
    10030    2    1    2    0    0  0.00000000000E+00  0.00000000000E+00  0.58518504751E+03  0.22758773064E+04  0.21993580823E+04 0.  0.
        5    1    3    3  502    0  0.44163308586E+03 -0.68297890191E+03  0.10584585289E+04  0.13348619818E+04  0.46999998093E+01 0. -1.
       -5    1    3    3    0  502 -0.44163308586E+03  0.68297890191E+03 -0.47327348140E+03  0.94101532462E+03  0.46999998093E+01 0.  1.
</event>
<event>
 5   0  0.2556869E-06  0.2200522E+04  0.7818609E-02  0.8518211E-01
       -2   -1    0    0    0  501  0.00000000000E+00  0.00000000000E+00  0.15716834250E+04  0.15716834251E+04  0.25500000920E-02 0.  1.
        2   -1    0    0  501    0  0.00000000000E+00  0.00000000000E+00 -0.77024082531E+03  0.77024082531E+03  0.25500000920E-02 0. -1.
    10030    2    1    2    0    0  0.00000000000E+00  0.00000000000E+00  0.80144259974E+03  0.23419242504E+04  0.22005224275E+04 0.  0.
        5    1    3    3  502    0  0.95777280829E+01 -0.84408218740E+03  0.11517485380E+04  0.14279752297E+04  0.46999998093E+01 0.  1.
       -5    1    3    3    0  502 -0.95777280829E+01  0.84408218740E+03 -0.35030593824E+03  0.91394902064E+03  0.46999998093E+01 0. -1.
</event>
<event>
 5   0  0.2556869E-06  0.2200280E+04  0.7818609E-02  0.8518312E-01
       -2   -1    0    0    0  501  0.00000000000E+00  0.00000000000E+00  0.11060053026E+04  0.11060053026E+04  0.25500000920E-02 0.  1.
        2   -1    0    0  501    0  0.00000000000E+00  0.00000000000E+00 -0.10943057108E+04  0.10943057108E+04  0.25500000920E-02 0. -1.
    10030    2    1    2    0    0  0.00000000000E+00  0.00000000000E+00  0.11699591845E+02  0.22003110134E+04  0.22002799084E+04 0.  0.
        5    1    3    3  502    0 -0.77953826006E+03 -0.75909597085E+03 -0.15656936186E+03  0.10992918843E+04  0.46999998093E+01 0.  1.
       -5    1    3    3    0  502  0.77953826006E+03  0.75909597085E+03  0.16826895370E+03  0.11010191291E+04  0.46999998093E+01 0. -1.
</event>
<event>
 5   0  0.2532239E-06  0.2211633E+04  0.7818609E-02  0.8513602E-01
       -2   -1    0    0    0  501  0.00000000000E+00  0.00000000000E+00  0.52498972840E+03  0.52498972841E+03  0.25500000920E-02 0.  1.
        2   -1    0    0  501    0  0.00000000000E+00  0.00000000000E+00 -0.23292464352E+04  0.23292464352E+04  0.25500000920E-02 0. -1.
    10030    2    1    2    0    0  0.00000000000E+00  0.00000000000E+00 -0.18042567068E+04  0.28542361636E+04  0.22116332910E+04 0.  0.
        3    1    3    3  502    0  0.91184372180E+03 -0.60376913931E+03 -0.69072012148E+03  0.12934799739E+04  0.10100000352E+00 0.  1.
       -3    1    3    3    0  502 -0.91184372180E+03  0.60376913931E+03 -0.11135365853E+04  0.15607561897E+04  0.10100000352E+00 0. -1.
</event>
<event>
 5   0  0.2556869E-06  0.2200123E+04  0.7818609E-02  0.8518377E-01
       -2   -1    0    0    0  501  0.00000000000E+00  0.00000000000E+00  0.80126147786E+03  0.80126147787E+03  0.25500000920E-02 0. -1.
        2   -1    0    0  501    0  0.00000000000E+00  0.00000000000E+00 -0.15102880637E+04  0.15102880637E+04  0.25500000920E-02 0.  1.
    10030    2    1    2    0    0  0.00000000000E+00  0.00000000000E+00 -0.70902658582E+03  0.23115495416E+04  0.22001233110E+04 0.  0.
        5    1    3    3  502    0  0.79325272193E+03 -0.14141765843E+03  0.43232456035E+03  0.91442629580E+03  0.46999998093E+01 0. -1.
       -5    1    3    3    0  502 -0.79325272193E+03  0.14141765843E+03 -0.11413511462E+04  0.13971232458E+04  0.46999998093E+01 0.  1.
</event>
<event>
 5   0  0.1082209E-06  0.2196888E+04  0.7818609E-02  0.8519724E-01
        1   -1    0    0  501    0  0.00000000000E+00  0.00000000000E+00  0.16352316800E+04  0.16352316800E+04  0.50400001928E-02 0. -1.
       -1   -1    0    0    0  501  0.00000000000E+00  0.00000000000E+00 -0.73786446577E+03  0.73786446579E+03  0.50400001928E-02 0.  1.
    10030    2    1    2    0    0  0.00000000000E+00  0.00000000000E+00  0.89736721425E+03  0.23730961458E+04  0.21968881173E+04 0.  0.
        2    1    3    3  502    0 -0.32456417652E+03  0.10007180303E+04  0.10743211726E+03  0.10575065676E+04  0.25500000920E-02 0. -1.
       -2    1    3    3    0  502  0.32456417652E+03 -0.10007180303E+04  0.78993509699E+03  0.13155895782E+04  0.25500000920E-02 0.  1.
</event>
<event>
 5   0  0.2532239E-06  0.2199756E+04  0.7818609E-02  0.8518530E-01
       -2   -1    0    0    0  501  0.00000000000E+00  0.00000000000E+00  0.95359761641E+03  0.95359761641E+03  0.25500000920E-02 0.  1.
        2   -1    0    0  501    0  0.00000000000E+00  0.00000000000E+00 -0.12685978973E+04  0.12685978973E+04  0.25500000920E-02 0. -1.
    10030    2    1    2    0    0  0.00000000000E+00  0.00000000000E+00 -0.31500028091E+03  0.22221955137E+04  0.21997562875E+04 0.  0.
        3    1    3    3  502    0 -0.83904111418E+03  0.61086218786E+03 -0.52534269127E+03  0.11632401116E+04  0.10100000352E+00 0.  1.
       -3    1    3    3    0  502  0.83904111418E+03 -0.61086218786E+03  0.21034241036E+03  0.10589554021E+04  0.10100000352E+00 0. -1.
</event>
<event>
 5   0  0.2524749E-06  0.2200339E+04  0.7818609E-02  0.8518287E-01
        2   -1    0    0  501    0  0.00000000000E+00  0.00000000000E+00  0.16813095856E+04  0.16813095856E+04  0.25500000920E-02 0.  1.
       -2   -1    0    0    0  501  0.00000000000E+00  0.00000000000E+00 -0.71989868467E+03  0.71989868467E+03  0.25500000920E-02 0. -1.
    10030    2    1    2    0    0  0.00000000000E+00  0.00000000000E+00  0.96141090091E+03  0.24012082703E+04  0.22003386641E+04 0.  0.
        4    1    3    3  502    0 -0.91923468991E+03  0.28030536136E+03  0.10651394908E+04  0.14346035196E+04  0.12699999809E+01 0.  1.
       -4    1    3    3    0  502  0.91923468991E+03 -0.28030536136E+03 -0.10372858987E+03  0.96660475066E+03  0.12699999809E+01 0. -1.
</event>
<event>
 5   0  0.2532239E-06  0.2200425E+04  0.7818609E-02  0.8518251E-01
        2   -1    0    0  501    0  0.00000000000E+00  0.00000000000E+00  0.70799602250E+03  0.70799602250E+03  0.25500000920E-02 0. -1.
       -2   -1    0    0    0  501  0.00000000000E+00  0.00000000000E+00 -0.17097095338E+04  0.17097095338E+04  0.25500000920E-02 0.  1.
    10030    2    1    2    0    0  0.00000000000E+00  0.00000000000E+00 -0.10017135113E+04  0.24177055563E+04  0.22004250040E+04 0.  0.
        3    1    3    3  502    0  0.95870628563E+03  0.42325975349E+03 -0.86889687181E+03  0.13613406426E+04  0.10100000352E+00 0.  1.
       -3    1    3    3    0  502 -0.95870628563E+03 -0.42325975349E+03 -0.13281663948E+03  0.10563649137E+04  0.10100000352E+00 0. -1.
</event>
<event>
 5   0  0.1082209E-06  0.2196721E+04  0.7818609E-02  0.8519794E-01
       -1   -1    0    0    0  501  0.00000000000E+00  0.00000000000E+00  0.12398010276E+04  0.12398010277E+04  0.50400001928E-02 0. -1.
        1   -1    0    0  501    0  0.00000000000E+00  0.00000000000E+00 -0.97305569876E+03  0.97305569878E+03  0.50400001928E-02 0.  1.
    10030    2    1    2    0    0  0.00000000000E+00  0.00000000000E+00  0.26674532888E+03  0.22128567264E+04  0.21967206971E+04 0.  0.
        2    1    3    3  502    0 -0.87424366147E+03 -0.34363142236E+03 -0.44002811452E+03  0.10373086694E+04  0.25500000920E-02 0. -1.
       -2    1    3    3    0  502  0.87424366147E+03  0.34363142236E+03  0.70677344340E+03  0.11755480570E+04  0.25500000920E-02 0.  1.
</event>
<event>
 5   0  0.2606154E-06  0.2201929E+04  0.7818609E-02  0.8517626E-01
        2   -1    0    0  501    0  0.00000000000E+00  0.00000000000E+00  0.67347967876E+03  0.67347967876E+03  0.25500000920E-02 0.  1.
       -2   -1    0    0    0  501  0.00000000000E+00  0.00000000000E+00 -0.17997915423E+04  0.17997915423E+04  0.25500000920E-02 0. -1.
    10030    2    1    2    0    0  0.00000000000E+00  0.00000000000E+00 -0.11263118635E+04  0.24732712210E+04  0.22019291812E+04 0.  0.
        2    1    3    3  502    0  0.10901078057E+03 -0.40942539974E+03 -0.17045527826E+04  0.17564204215E+04  0.25500000920E-02 0. -1.
       -2    1    3    3    0  502 -0.10901078057E+03  0.40942539974E+03  0.57824091913E+03  0.71685079954E+03  0.25500000920E-02 0.  1.
</event>
<event>
 5   0  0.1146827E-06  0.2214255E+04  0.7818609E-02  0.8512518E-01
        1   -1    0    0  501    0  0.00000000000E+00  0.00000000000E+00  0.12362877433E+04  0.12362877433E+04  0.50400001928E-02 0. -1.
       -1   -1    0    0    0  501  0.00000000000E+00  0.00000000000E+00 -0.99146142489E+03  0.99146142490E+03  0.50400001928E-02 0.  1.
    10030    2    1    2    0    0  0.00000000000E+00  0.00000000000E+00  0.24482631839E+03  0.22277491682E+04  0.22142552766E+04 0.  0.
        4    1    3    3  502    0  0.38145218265E+03 -0.10127492843E+04 -0.11259783312E+03  0.10880472258E+04  0.12699999809E+01 0.  1.
       -4    1    3    3    0  502 -0.38145218265E+03  0.10127492843E+04  0.35742415150E+03  0.11397019424E+04  0.12699999809E+01 0. -1.
</event>
<event>
 5   0  0.1146827E-06  0.2199865E+04  0.7818609E-02  0.8518484E-01
        1   -1    0    0  501    0  0.00000000000E+00  0.00000000000E+00  0.12626390757E+04  0.12626390757E+04  0.50400001928E-02 0.  1.
       -1   -1    0    0    0  501  0.00000000000E+00  0.00000000000E+00 -0.95819258323E+03  0.95819258325E+03  0.50400001928E-02 0. -1.
    10030    2    1    2    0    0  0.00000000000E+00  0.00000000000E+00  0.30444649248E+03  0.22208316590E+04  0.21998649028E+04 0.  0.
        4    1    3    3  502    0  0.34977490422E+03 -0.77901025374E+03  0.85212043552E+03  0.12063624284E+04  0.12699999809E+01 0.  1.
       -4    1    3    3    0  502 -0.34977490422E+03  0.77901025374E+03 -0.54767394304E+03  0.10144692306E+04  0.12699999809E+01 0. -1.
</event>
<event>
 5   0  0.2524749E-06  0.2203294E+04  0.7818609E-02  0.8517058E-01
       -2   -1    0    0    0  501  0.00000000000E+00  0.00000000000E+00  0.77695478535E+03  0.77695478536E+03  0.25500000920E-02 0.  1.
        2   -1    0    0  501    0  0.00000000000E+00  0.00000000000E+00 -0.15620291318E+04  0.15620291318E+04  0.25500000920E-02 0. -1.
    10030    2    1    2    0    0  0.00000000000E+00  0.00000000000E+00 -0.78507434649E+03  0.23389839172E+04  0.22032939058E+04 0.  0.
        4    1    3    3  502    0  0.76794955110E+03  0.66974726625E+03  0.51957106515E+02  0.10202985188E+04  0.12699999809E+01 0. -1.
       -4    1    3    3    0  502 -0.76794955110E+03 -0.66974726625E+03 -0.83703145301E+03  0.13186853984E+04  0.12699999809E+01 0.  1.
</event>
<event>
 5   0  0.1144271E-06  0.2200103E+04  0.7818609E-02  0.8518385E-01
       -1   -1    0    0    0  501  0.00000000000E+00  0.00000000000E+00  0.66020220167E+03  0.66020220168E+03  0.50400001928E-02 0. -1.
        1   -1    0    0  501    0  0.00000000000E+00  0.00000000000E+00 -0.18329435065E+04  0.18329435065E+04  0.50400001928E-02 0.  1.
    10030    2    1    2    0    0  0.00000000000E+00  0.00000000000E+00 -0.11727413048E+04  0.24931457082E+04  0.22001030326E+04 0.  0.
        3    1    3    3  502    0 -0.57288998056E+02 -0.51334552653E+03  0.51423394851E+03  0.72886365180E+03  0.10100000352E+00 0. -1.
       -3    1    3    3    0  502  0.57288998056E+02  0.51334552653E+03 -0.16869752533E+04  0.17642820564E+04  0.10100000352E+00 0.  1.
</event>
<event>
 5   0  0.1082209E-06  0.2200309E+04  0.7818609E-02  0.8518299E-01
       -1   -1    0    0    0  501  0.00000000000E+00  0.00000000000E+00  0.10666178363E+04  0.10666178363E+04  0.50400001928E-02 0.  1.
        1   -1    0    0  501    0  0.00000000000E+00  0.00000000000E+00 -0.11347457826E+04  0.11347457826E+04  0.50400001928E-02 0. -1.
    10030    2    1    2    0    0  0.00000000000E+00  0.00000000000E+00 -0.68127946347E+02  0.22013636189E+04  0.22003091523E+04 0.  0.
        2    1    3    3  502    0  0.87558144782E+03 -0.51616123529E+03  0.38717794349E+03  0.10876451869E+04  0.25500000920E-02 0.  1.
       -2    1    3    3    0  502 -0.87558144782E+03  0.51616123529E+03 -0.45530588984E+03  0.11137184321E+04  0.25500000920E-02 0. -1.
</event>
<event>
 5   0  0.2532239E-06  0.2200084E+04  0.7818609E-02  0.8518393E-01
       -2   -1    0    0    0  501  0.00000000000E+00  0.00000000000E+00  0.65662478694E+03  0.65662478694E+03  0.25500000920E-02 0. -1.
        2   -1    0    0  501    0  0.00000000000E+00  0.00000000000E+00 -0.18428983179E+04  0.18428983179E+04  0.25500000920E-02 0.  1.
    10030    2    1    2    0    0  0.00000000000E+00  0.00000000000E+00 -0.11862735309E+04  0.24995231048E+04  0.22000842851E+04 0.  0.
        3    1    3    3  502    0  0.93282827472E+03  0.21321496809E+03  0.23363923045E+02  0.95717035884E+03  0.10100000352E+00 0. -1.
       -3    1    3    3    0  502 -0.93282827472E+03 -0.21321496809E+03 -0.12096374540E+04  0.15423527460E+04  0.10100000352E+00 0.  1.
</event>
<event>
 5   0  0.2532239E-06  0.2196727E+04  0.7818609E-02  0.8519792E-01
        2   -1    0    0  501    0  0.00000000000E+00  0.00000000000E+00  0.13694400153E+04  0.13694400153E+04  0.25500000920E-02 0.  1.
       -2   -1    0    0    0  501  0.00000000000E+00  0.00000000000E+00 -0.88094571758E+03  0.88094571758E+03  0.25500000920E-02 0. -1.
    10030    2    1    2    0    0  0.00000000000E+00  0.00000000000E+00  0.48849429774E+03  0.22503857329E+04  0.21967269443E+04 0.  0.
        3    1    3    3  502    0  0.24464460130E+02 -0.10724141296E+04  0.48608938904E+03  0.11776898911E+04  0.10100000352E+00 0.  1.
       -3    1    3    3    0  502 -0.24464460130E+02  0.10724141296E+04  0.24049086999E+01  0.10726958418E+04  0.10100000352E+00 0. -1.
</event>
<event>
 5   0  0.2524749E-06  0.2198904E+04  0.7818609E-02  0.8518885E-01
        2   -1    0    0  501    0  0.00000000000E+00  0.00000000000E+00  0.11204811621E+04  0.11204811621E+04  0.25500000920E-02 0. -1.
       -2   -1    0    0    0  501  0.00000000000E+00  0.00000000000E+00 -0.10788170428E+04  0.10788170428E+04  0.25500000920E-02 0.  1.
    10030    2    1    2    0    0  0.00000000000E+00  0.00000000000E+00  0.41664119306E+02  0.21992982048E+04  0.21989035211E+04 0.  0.
        4    1    3    3  502    0  0.85628345968E+03  0.68956279450E+03  0.29456249978E+02  0.10998124815E+04  0.12699999809E+01 0. -1.
       -4    1    3    3    0  502 -0.85628345968E+03 -0.68956279450E+03  0.12207869327E+02  0.10994857234E+04  0.12699999809E+01 0.  1.
</event>
<event>
 5   0  0.1107101E-06  0.2198962E+04  0.7818609E-02  0.8518860E-01
        1   -1    0    0  501    0  0.00000000000E+00  0.00000000000E+00  0.11915953602E+04  0.11915953602E+04  0.50400001928E-02 0. -1.
       -1   -1    0    0    0  501  0.00000000000E+00  0.00000000000E+00 -0.10144876011E+04  0.10144876011E+04  0.50400001928E-02 0.  1.
    10030    2    1    2    0    0  0.00000000000E+00  0.00000000000E+00  0.17710775908E+03  0.22060829614E+04  0.21989622266E+04 0.  0.
        1    1    3    3  502    0  0.90609806600E+03  0.17759488973E+03  0.68739976685E+03  0.11511177566E+04  0.50400001928E-02 0. -1.
       -1    1    3    3    0  502 -0.90609806600E+03 -0.17759488973E+03 -0.51029200777E+03  0.10549652048E+04  0.50400001928E-02 0.  1.
</event>
<event>
 5   0  0.2524749E-06  0.2199989E+04  0.7818609E-02  0.8518433E-01
       -2   -1    0    0    0  501  0.00000000000E+00  0.00000000000E+00  0.71079167471E+03  0.71079167472E+03  0.25500000920E-02 0. -1.
        2   -1    0    0  501    0  0.00000000000E+00  0.00000000000E+00 -0.17023099967E+04  0.17023099967E+04  0.25500000920E-02 0.  1.
    10030    2    1    2    0    0  0.00000000000E+00  0.00000000000E+00 -0.99151832200E+03  0.24131016714E+04  0.21999888849E+04 0.  0.
        4    1    3    3  502    0 -0.44287096940E+03 -0.11000804524E+03 -0.15935882734E+04  0.16576373739E+04  0.12699999809E+01 0.  1.
       -4    1    3    3    0  502  0.44287096940E+03  0.11000804524E+03  0.60206995137E+03  0.75546429750E+03  0.12699999809E+01 0. -1.
</event>
<event>
 5   0  0.1144271E-06  0.2198526E+04  0.7818609E-02  0.8519042E-01
       -1   -1    0    0    0  501  0.00000000000E+00  0.00000000000E+00  0.93111971359E+03  0.93111971360E+03  0.50400001928E-02 0.  1.
        1   -1    0    0  501    0  0.00000000000E+00  0.00000000000E+00 -0.12977702181E+04  0.12977702181E+04  0.50400001928E-02 0. -1.
    10030    2    1    2    0    0  0.00000000000E+00  0.00000000000E+00 -0.36665050446E+03  0.22288899317E+04  0.21985262644E+04 0.  0.
        3    1    3    3  502    0  0.54330235439E+03  0.80579846046E+03  0.33747250170E+03  0.10287741768E+04  0.10100000352E+00 0.  1.
       -3    1    3    3    0  502 -0.54330235439E+03 -0.80579846046E+03 -0.70412300617E+03  0.12001157549E+04  0.10100000352E+00 0. -1.
</event>
<event>
 5   0  0.2532239E-06  0.2199253E+04  0.7818609E-02  0.8518739E-01
        2   -1    0    0  501    0  0.00000000000E+00  0.00000000000E+00  0.38228201792E+03  0.38228201793E+03  0.25500000920E-02 0.  1.
       -2   -1    0    0    0  501  0.00000000000E+00  0.00000000000E+00 -0.31630523496E+04  0.31630523496E+04  0.25500000920E-02 0. -1.
    10030    2    1    2    0    0  0.00000000000E+00  0.00000000000E+00 -0.27807703317E+04  0.35453343675E+04  0.21992526322E+04 0.  0.
        3    1    3    3  502    0 -0.10691295166E+04  0.17257996341E+03 -0.10830079535E+04  0.15315769665E+04  0.10100000352E+00 0.  1.
       -3    1    3    3    0  502  0.10691295166E+04 -0.17257996341E+03 -0.16977623782E+04  0.20137574010E+04  0.10100000352E+00 0. -1.
</event>
<event>
 5   0  0.2532239E-06  0.2200383E+04  0.7818609E-02  0.8518269E-01
       -2   -1    0    0    0  501  0.00000000000E+00  0.00000000000E+00  0.66149084503E+03  0.66149084503E+03  0.25500000920E-02 0. -1.
        2   -1    0    0  501    0  0.00000000000E+00  0.00000000000E+00 -0.18298390739E+04  0.18298390739E+04  0.25500000920E-02 0.  1.
    10030    2    1    2    0    0  0.00000000000E+00  0.00000000000E+00 -0.11683482288E+04  0.24913299189E+04  0.22003834168E+04 0.  0.
        3    1    3    3  502    0 -0.28134374354E+03  0.14923969382E+03  0.60815918692E+03  0.68650156232E+03  0.10100000352E+00 0. -1.
       -3    1    3    3    0  502  0.28134374354E+03 -0.14923969382E+03 -0.17765074158E+04  0.18048283566E+04  0.10100000352E+00 0.  1.
</event>
<event>
 5   0  0.1146827E-06  0.2199709E+04  0.7818609E-02  0.8518549E-01
       -1   -1    0    0    0  501  0.00000000000E+00  0.00000000000E+00  0.16071818839E+04  0.16071818839E+04  0.50400001928E-02 0.  1.
        1   -1    0    0  501    0  0.00000000000E+00  0.00000000000E+00 -0.75267147751E+03  0.75267147752E+03  0.50400001928E-02 0. -1.
    10030    2    1    2    0    0  0.00000000000E+00  0.00000000000E+00  0.85451040641E+03  0.23598533614E+04  0.21997090382E+04 0.  0.
        4    1    3    3  502    0  0.91794383901E+02  0.95183301669E+03  0.10101987982E+04  0.13910124102E+04  0.12699999809E+01 0.  1.
       -4    1    3    3    0  502 -0.91794383901E+02 -0.95183301669E+03 -0.15568839177E+03  0.96884095125E+03  0.12699999809E+01 0. -1.
</event>
<event>
 5   0  0.1107101E-06  0.2198797E+04  0.7818609E-02  0.8518929E-01
       -1   -1    0    0    0  501  0.00000000000E+00  0.00000000000E+00  0.88720384455E+03  0.88720384456E+03  0.50400001928E-02 0.  1.
        1   -1    0    0  501    0  0.00000000000E+00  0.00000000000E+00 -0.13623448422E+04  0.13623448422E+04  0.50400001928E-02 0. -1.
    10030    2    1    2    0    0  0.00000000000E+00  0.00000000000E+00 -0.47514099768E+03  0.22495486868E+04  0.21987974729E+04 0.  0.
        1    1    3    3  502    0  0.22933256679E+03 -0.10625059160E+04 -0.68947157176E+02  0.10891583715E+04  0.50400001928E-02 0. -1.
       -1    1    3    3    0  502 -0.22933256679E+03  0.10625059160E+04 -0.40619384050E+03  0.11603903153E+04  0.50400001928E-02 0.  1.
</event>
<event>
 5   0  0.2581058E-06  0.2200111E+04  0.7818609E-02  0.8518382E-01
        2   -1    0    0  501    0  0.00000000000E+00  0.00000000000E+00  0.18002097517E+04  0.18002097517E+04  0.25500000920E-02 0.  1.
       -2   -1    0    0    0  501  0.00000000000E+00  0.00000000000E+00 -0.67221200764E+03  0.67221200765E+03  0.25500000920E-02 0. -1.
    10030    2    1    2    0    0  0.00000000000E+00  0.00000000000E+00  0.11279977440E+04  0.24724217593E+04  0.22001114620E+04 0.  0.
        1    1    3    3  502    0 -0.72022097586E+03 -0.76037795055E+03  0.18585409302E+03  0.10636891584E+04  0.50400001928E-02 0.  1.
       -1    1    3    3    0  502  0.72022097586E+03  0.76037795055E+03  0.94214365099E+03  0.14087326009E+04  0.50400001928E-02 0. -1.
</event>
<event>
 5   0  0.1146827E-06  0.2199349E+04  0.7818609E-02  0.8518699E-01
        1   -1    0    0  501    0  0.00000000000E+00  0.00000000000E+00  0.16957703527E+04  0.16957703527E+04  0.50400001928E-02 0.  1.
       -1   -1    0    0    0  501  0.00000000000E+00  0.00000000000E+00 -0.71311766783E+03  0.71311766784E+03  0.50400001928E-02 0. -1.
    10030    2    1    2    0    0  0.00000000000E+00  0.00000000000E+00  0.98265268483E+03  0.24088880205E+04  0.21993488119E+04 0.  0.
        4    1    3    3  502    0  0.38151655948E+03  0.77706480493E+03 -0.25144145337E+03  0.90144828670E+03  0.12699999809E+01 0. -1.
       -4    1    3    3    0  502 -0.38151655948E+03 -0.77706480493E+03  0.12340941382E+04  0.15074397338E+04  0.12699999809E+01 0.  1.
</event>
<event>
 5   0  0.2556869E-06  0.2201032E+04  0.7818609E-02  0.8517999E-01
       -2   -1    0    0    0  501  0.00000000000E+00  0.00000000000E+00  0.58382739737E+03  0.58382739738E+03  0.25500000920E-02 0.  1.
        2   -1    0    0  501    0  0.00000000000E+00  0.00000000000E+00 -0.20744754476E+04  0.20744754476E+04  0.25500000920E-02 0. -1.
    10030    2    1    2    0    0  0.00000000000E+00  0.00000000000E+00 -0.14906480503E+04  0.26583028450E+04  0.22010321229E+04 0.  0.
        5    1    3    3  502    0 -0.68436501856E+03  0.48545974276E+03  0.11471717863E+03  0.84688178723E+03  0.46999998093E+01 0.  1.
       -5    1    3    3    0  502  0.68436501856E+03 -0.48545974276E+03 -0.16053652289E+04  0.18114210578E+04  0.46999998093E+01 0. -1.
</event>
<event>
 5   0  0.1082209E-06  0.2200760E+04  0.7818609E-02  0.8518112E-01
        1   -1    0    0  501    0  0.00000000000E+00  0.00000000000E+00  0.16447663863E+04  0.16447663864E+04  0.50400001928E-02 0. -1.
       -1   -1    0    0    0  501  0.00000000000E+00  0.00000000000E+00 -0.73617490261E+03  0.73617490263E+03  0.50400001928E-02 0.  1.
    10030    2    1    2    0    0  0.00000000000E+00  0.00000000000E+00  0.90859148374E+03  0.23809412890E+04  0.22007596273E+04 0.  0.
        2    1    3    3  502    0  0.96496400350E+03  0.71928598657E+02 -0.11253367232E+03  0.97416275784E+03  0.25500000920E-02 0.  1.
       -2    1    3    3    0  502 -0.96496400350E+03 -0.71928598657E+02  0.10211251561E+04  0.14067785311E+04  0.25500000920E-02 0. -1.
</event>
<event>
 5   0  0.1137869E-06  0.2200064E+04  0.7818609E-02  0.8518402E-01
        1   -1    0    0  501    0  0.00000000000E+00  0.00000000000E+00  0.20082587005E+04  0.20082587005E+04  0.50400001928E-02 0. -1.
       -1   -1    0    0    0  501  0.00000000000E+00  0.00000000000E+00 -0.60254694361E+03  0.60254694363E+03  0.50400001928E-02 0.  1.
    10030    2    1    2    0    0  0.00000000000E+00  0.00000000000E+00  0.14057117569E+04  0.26108056441E+04  0.22000637645E+04 0.  0.
        5    1    3    3  502    0  0.24388585038E+03 -0.85297871794E+03 -0.68947930754E+02  0.88984768833E+03  0.46999998093E+01 0.  1.
       -5    1    3    3    0  502 -0.24388585038E+03  0.85297871794E+03  0.14746596876E+04  0.17209579558E+04  0.46999998093E+01 0. -1.
</event>
<event>
 5   0  0.1107101E-06  0.2202032E+04  0.7818609E-02  0.8517583E-01
        1   -1    0    0  501    0  0.00000000000E+00  0.00000000000E+00  0.13867240817E+04  0.13867240817E+04  0.50400001928E-02 0.  1.
       -1   -1    0    0    0  501  0.00000000000E+00  0.00000000000E+00 -0.87417235311E+03  0.87417235313E+03  0.50400001928E-02 0. -1.
    10030    2    1    2    0    0  0.00000000000E+00  0.00000000000E+00  0.51255172861E+03  0.22608964349E+04  0.22020316561E+04 0.  0.
        1    1    3    3  502    0  0.57963256572E+03  0.91921574229E+03  0.74615769625E+02  0.10892653512E+04  0.50400001928E-02 0. -1.
       -1    1    3    3    0  502 -0.57963256572E+03 -0.91921574229E+03  0.43793595899E+03  0.11716310837E+04  0.50400001928E-02 0.  1.
</event>
<event>
 5   0  0.2556869E-06  0.2200522E+04  0.7818609E-02  0.8518211E-01
       -2   -1    0    0    0  501  0.00000000000E+00  0.00000000000E+00  0.10760444245E+04  0.10760444245E+04  0.25500000920E-02 0. -1.
        2   -1    0    0  501    0  0.00000000000E+00  0.00000000000E+00 -0.11250225089E+04  0.11250225089E+04  0.25500000920E-02 0.  1.
    10030    2    1    2    0    0  0.00000000000E+00  0.00000000000E+00 -0.48978084411E+02  0.22010669334E+04  0.22005219364E+04 0.  0.
        5    1    3    3  502    0  0.80067083125E+03  0.31634684752E+03  0.66081055683E+03  0.10852841978E+04  0.46999998093E+01 0. -1.
       -5    1    3    3    0  502 -0.80067083125E+03 -0.31634684752E+03 -0.70978864124E+03  0.11157827356E+04  0.46999998093E+01 0.  1.
</event>
<event>
 5   0  0.1082209E-06  0.2201985E+04  0.7818609E-02  0.8517602E-01
        1   -1    0    0  501    0  0.00000000000E+00  0.00000000000E+00  0.22830256647E+04  0.22830256647E+04  0.50400001928E-02 0. -1.
       -1   -1    0    0    0  501  0.00000000000E+00  0.00000000000E+00 -0.53095512795E+03  0.53095512797E+03  0.50400001928E-02 0.  1.
    10030    2    1    2    0    0  0.00000000000E+00  0.00000000000E+00  0.17520705368E+04  0.28139807927E+04  0.22019847265E+04 0.  0.
        2    1    3    3  502    0  0.10219506985E+04 -0.40656695866E+03  0.81208436309E+03  0.13671726061E+04  0.25500000920E-02 0.  1.
       -2    1    3    3    0  502 -0.10219506985E+04  0.40656695866E+03  0.93998617366E+03  0.14468081866E+04  0.25500000920E-02 0. -1.
</event>
<event>
 5   0  0.1144271E-06  0.2198415E+04  0.7818609E-02  0.8519088E-01
       -1   -1    0    0    0  501  0.00000000000E+00  0.00000000000E+00  0.10387834780E+04  0.10387834780E+04  0.50400001928E-02 0. -1.
        1   -1    0    0  501    0  0.00000000000E+00  0.00000000000E+00 -0.11631465010E+04  0.11631465010E+04  0.50400001928E-02 0.  1.
    10030    2    1    2    0    0  0.00000000000E+00  0.00000000000E+00 -0.12436302297E+03  0.22019299790E+04  0.21984152181E+04 0.  0.
        3    1    3    3  502    0 -0.34767526290E+03  0.82805071739E+03  0.57263877291E+03  0.10651109113E+04  0.10100000352E+00 0. -1.
       -3    1    3    3    0  502  0.34767526290E+03 -0.82805071739E+03 -0.69700179588E+03  0.11368190677E+04  0.10100000352E+00 0.  1.
</event>
<event>
 5   0  0.2532239E-06  0.2200229E+04  0.7818609E-02  0.8518333E-01
        2   -1    0    0  501    0  0.00000000000E+00  0.00000000000E+00  0.12765254123E+04  0.12765254123E+04  0.25500000920E-02 0. -1.
       -2   -1    0    0    0  501  0.00000000000E+00  0.00000000000E+00 -0.94808319567E+03  0.94808319567E+03  0.25500000920E-02 0.  1.
    10030    2    1    2    0    0  0.00000000000E+00  0.00000000000E+00  0.32844221660E+03  0.22246086079E+04  0.22002293446E+04 0.  0.
        3    1    3    3  502    0 -0.13379878523E+03 -0.47159568823E+03  0.11599928870E+04  0.12593204978E+04  0.10100000352E+00 0. -1.
       -3    1    3    3    0  502  0.13379878523E+03  0.47159568823E+03 -0.83155067036E+03  0.96528811018E+03  0.10100000352E+00 0.  1.
</event>
<event>
 5   0  0.2556869E-06  0.2199876E+04  0.7818609E-02  0.8518480E-01
       -2   -1    0    0    0  501  0.00000000000E+00  0.00000000000E+00  0.55546477137E+03  0.55546477137E+03  0.25500000920E-02 0.  1.
        2   -1    0    0  501    0  0.00000000000E+00  0.00000000000E+00 -0.21781109319E+04  0.21781109319E+04  0.25500000920E-02 0. -1.
    10030    2    1    2    0    0  0.00000000000E+00  0.00000000000E+00 -0.16226461606E+04  0.27335757033E+04  0.21998762609E+04 0.  0.
        5    1    3    3  502    0 -0.23955585211E+03  0.10131731944E+04 -0.37035631765E+03  0.11050306874E+04  0.46999998093E+01 0.  1.
       -5    1    3    3    0  502  0.23955585211E+03 -0.10131731944E+04 -0.12522898429E+04  0.16285450159E+04  0.46999998093E+01 0. -1.
</event>
<event>
 5   0  0.2581058E-06  0.2195801E+04  0.7818609E-02  0.8520178E-01
       -2   -1    0    0    0  501  0.00000000000E+00  0.00000000000E+00  0.59624394907E+03  0.59624394907E+03  0.25500000920E-02 0.  1.
        2   -1    0    0  501    0  0.00000000000E+00  0.00000000000E+00 -0.20216322819E+04  0.20216322819E+04  0.25500000920E-02 0. -1.
    10030    2    1    2    0    0  0.00000000000E+00  0.00000000000E+00 -0.14253883328E+04  0.26178762309E+04  0.21958014622E+04 0.  0.
        1    1    3    3  502    0  0.21252578745E+02 -0.54303832492E+03 -0.18500259309E+04  0.19281955916E+04  0.50400001928E-02 0. -1.
       -1    1    3    3    0  502 -0.21252578745E+02  0.54303832492E+03  0.42463759815E+03  0.68968063930E+03  0.50400001928E-02 0.  1.
</event>
<event>
 5   0  0.1146827E-06  0.2199666E+04  0.7818609E-02  0.8518567E-01
       -1   -1    0    0    0  501  0.00000000000E+00  0.00000000000E+00  0.85496732151E+03  0.85496732153E+03  0.50400001928E-02 0.  1.
        1   -1    0    0  501    0  0.00000000000E+00  0.00000000000E+00 -0.14148288075E+04  0.14148288075E+04  0.50400001928E-02 0. -1.
    10030    2    1    2    0    0  0.00000000000E+00  0.00000000000E+00 -0.55986148596E+03  0.22697961290E+04  0.21996657891E+04 0.  0.
        4    1    3    3  502    0 -0.10761920080E+04 -0.81321920381E+01 -0.46042812653E+02  0.10772079299E+04  0.12699999809E+01 0. -1.
       -4    1    3    3    0  502  0.10761920080E+04  0.81321920381E+01 -0.51381867330E+03  0.11925881991E+04  0.12699999809E+01 0.  1.
</event>
<event>
 5   0  0.1144271E-06  0.2200182E+04  0.7818609E-02  0.8518352E-01
       -1   -1    0    0    0  501  0.00000000000E+00  0.00000000000E+00  0.13539698481E+04  0.13539698481E+04  0.50400001928E-02 0.  1.
        1   -1    0    0  501    0  0.00000000000E+00  0.00000000000E+00 -0.89381642075E+03  0.89381642076E+03  0.50400001928E-02 0. -1.
    10030    2    1    2    0    0  0.00000000000E+00  0.00000000000E+00  0.46015342735E+03  0.22477862689E+04  0.22001822501E+04 0.  0.
        3    1    3    3  502    0  0.61747131471E+03 -0.23136706282E+02 -0.69977761911E+03  0.93353888942E+03  0.10100000352E+00 0. -1.
       -3    1    3    3    0  502 -0.61747131471E+03  0.23136706282E+02  0.11599310465E+04  0.13142473795E+04  0.10100000352E+00 0.  1.
</event>
<event>
 5   0  0.1107101E-06  0.2199943E+04  0.7818609E-02  0.8518452E-01
        1   -1    0    0  501    0  0.00000000000E+00  0.00000000000E+00  0.99395520732E+03  0.99395520733E+03  0.50400001928E-02 0.  1.
       -1   -1    0    0    0  501  0.00000000000E+00  0.00000000000E+00 -0.12172954943E+04  0.12172954943E+04  0.50400001928E-02 0. -1.
    10030    2    1    2    0    0  0.00000000000E+00  0.00000000000E+00 -0.22334028700E+03  0.22112507017E+04  0.21999429042E+04 0.  0.
        1    1    3    3  502    0 -0.10432233538E+04 -0.56308674723E+02 -0.45760710901E+03  0.11405656048E+04  0.50400001928E-02 0. -1.
       -1    1    3    3    0  502  0.10432233538E+04  0.56308674723E+02  0.23426682201E+03  0.10706850968E+04  0.50400001928E-02 0.  1.
</event>
<event>
 5   0  0.2606154E-06  0.2199198E+04  0.7818609E-02  0.8518762E-01
       -2   -1    0    0    0  501  0.00000000000E+00  0.00000000000E+00  0.79081980644E+03  0.79081980645E+03  0.25500000920E-02 0. -1.
        2   -1    0    0  501    0  0.00000000000E+00  0.00000000000E+00 -0.15289429034E+04  0.15289429034E+04  0.25500000920E-02 0.  1.
    10030    2    1    2    0    0  0.00000000000E+00  0.00000000000E+00 -0.73812309692E+03  0.23197627098E+04  0.21991983366E+04 0.  0.
        2    1    3    3  502    0 -0.85310460954E+03  0.35502685341E+03  0.25967498212E+03  0.95982427444E+03  0.25500000920E-02 0.  1.
       -2    1    3    3    0  502  0.85310460954E+03 -0.35502685341E+03 -0.99779807904E+03  0.13599384354E+04  0.25500000920E-02 0. -1.
</event>
<event>
 5   0  0.1107101E-06  0.2201406E+04  0.7818609E-02  0.8517843E-01
       -1   -1    0    0    0  501  0.00000000000E+00  0.00000000000E+00  0.10296396309E+04  0.10296396309E+04  0.50400001928E-02 0. -1.
        1   -1    0    0  501    0  0.00000000000E+00  0.00000000000E+00 -0.11766713263E+04  0.11766713263E+04  0.50400001928E-02 0.  1.
    10030    2    1    2    0    0  0.00000000000E+00  0.00000000000E+00 -0.14703169545E+03  0.22063109572E+04  0.22014063052E+04 0.  0.
        1    1    3    3  502    0 -0.99706357832E+03  0.35630718157E+03 -0.37494637255E+03  0.11232432369E+04  0.50400001928E-02 0.  1.
       -1    1    3    3    0  502  0.99706357832E+03 -0.35630718157E+03  0.22791467710E+03  0.10830677204E+04  0.50400001928E-02 0. -1.
</event>
<event>
 5   0  0.1082209E-06  0.2199553E+04  0.7818609E-02  0.8518614E-01
        1   -1    0    0  501    0  0.00000000000E+00  0.00000000000E+00  0.16285207609E+04  0.16285207609E+04  0.50400001928E-02 0. -1.
       -1   -1    0    0    0  501  0.00000000000E+00  0.00000000000E+00 -0.74270356610E+03  0.74270356612E+03  0.50400001928E-02 0.  1.
    10030    2    1    2    0    0  0.00000000000E+00  0.00000000000E+00  0.88581719476E+03  0.23712243270E+04  0.21995528424E+04 0.  0.
        2    1    3    3  502    0  0.57505095629E+03 -0.50358895813E+03  0.12953325075E+04  0.15040517764E+04  0.25500000920E-02 0. -1.
       -2    1    3    3    0  502 -0.57505095629E+03  0.50358895813E+03 -0.40951531276E+03  0.86717255057E+03  0.25500000920E-02 0.  1.
</event>
<event>
 5   0  0.1146827E-06  0.2198970E+04  0.7818609E-02  0.8518857E-01
        1   -1    0    0  501    0  0.00000000000E+00  0.00000000000E+00  0.12233036463E+04  0.12233036463E+04  0.50400001928E-02 0.  1.
       -1   -1    0    0    0  501  0.00000000000E+00  0.00000000000E+00 -0.98819892817E+03  0.98819892818E+03  0.50400001928E-02 0. -1.
    10030    2    1    2    0    0  0.00000000000E+00  0.00000000000E+00  0.23510471808E+03  0.22115025744E+04  0.21989700790E+04 0.  0.
        4    1    3    3  502    0 -0.57478850289E+03 -0.90132513496E+03 -0.14100608846E+03  0.10782639528E+04  0.12699999809E+01 0.  1.
       -4    1    3    3    0  502  0.57478850289E+03  0.90132513496E+03  0.37611080654E+03  0.11332386217E+04  0.12699999809E+01 0. -1.
</event>
<event>
 5   0  0.2532239E-06  0.2199836E+04  0.7818609E-02  0.8518496E-01
        2   -1    0    0  501    0  0.00000000000E+00  0.00000000000E+00  0.16222227620E+04  0.16222227620E+04  0.25500000920E-02 0. -1.
       -2   -1    0    0    0  501  0.00000000000E+00  0.00000000000E+00 -0.74577923900E+03  0.74577923900E+03  0.25500000920E-02 0.  1.
    10030    2    1    2    0    0  0.00000000000E+00  0.00000000000E+00  0.87644352300E+03  0.23680020010E+04  0.21998364093E+04 0.  0.
        3    1    3    3  502    0 -0.65884157524E+03  0.55843129184E+03  0.11713922078E+04  0.14553616196E+04  0.10100000352E+00 0. -1.
       -3    1    3    3    0  502  0.65884157524E+03 -0.55843129184E+03 -0.29494868481E+03  0.91264038144E+03  0.10100000352E+00 0.  1.
</event>
<event>
 5   0  0.2532239E-06  0.2200779E+04  0.7818609E-02  0.8518104E-01
        2   -1    0    0  501    0  0.00000000000E+00  0.00000000000E+00  0.22539402083E+04  0.22539402083E+04  0.25500000920E-02 0.  1.
       -2   -1    0    0    0  501  0.00000000000E+00  0.00000000000E+00 -0.53721809812E+03  0.53721809812E+03  0.25500000920E-02 0. -1.
    10030    2    1    2    0    0  0.00000000000E+00  0.00000000000E+00  0.17167221102E+04  0.27911583064E+04  0.22007793819E+04 0.  0.
        3    1    3    3  502    0  0.45752238014E+02 -0.10671952498E+04  0.11935715196E+04  0.16017527746E+04  0.10100000352E+00 0. -1.
       -3    1    3    3    0  502 -0.45752238014E+02  0.10671952498E+04  0.52315059056E+03  0.11894055318E+04  0.10100000352E+00 0.  1.
</event>
<event>
 5   0  0.1082209E-06  0.2200394E+04  0.7818609E-02  0.8518264E-01
       -1   -1    0    0    0  501  0.00000000000E+00  0.00000000000E+00  0.13911208768E+04  0.13911208768E+04  0.50400001928E-02 0. -1.
        1   -1    0    0  501    0  0.00000000000E+00  0.00000000000E+00 -0.87011412579E+03  0.87011412580E+03  0.50400001928E-02 0.  1.
    10030    2    1    2    0    0  0.00000000000E+00  0.00000000000E+00  0.52100675097E+03  0.22612350026E+04  0.22003944424E+04 0.  0.
        2    1    3    3  502    0  0.39556948583E+03 -0.72249276665E+03 -0.48902112984E+03  0.95792102045E+03  0.25500000920E-02 0.  1.
       -2    1    3    3    0  502 -0.39556948583E+03  0.72249276665E+03  0.10100278808E+04  0.13033139821E+04  0.25500000920E-02 0. -1.
</event>
<event>
 5   0  0.1137869E-06  0.2200081E+04  0.7818609E-02  0.8518394E-01
       -1   -1    0    0    0  501  0.00000000000E+00  0.00000000000E+00  0.10535610767E+04  0.10535610767E+04  0.50400001928E-02 0. -1.
        1   -1    0    0  501    0  0.00000000000E+00  0.00000000000E+00 -0.11485704874E+04  0.11485704874E+04  0.50400001928E-02 0.  1.
    10030    2    1    2    0    0  0.00000000000E+00  0.00000000000E+00 -0.95009410662E+02  0.22021315641E+04  0.22000810525E+04 0.  0.
        5    1    3    3  502    0 -0.92636180656E+03  0.50603461655E+03  0.26238009594E+03  0.10876960212E+04  0.46999998093E+01 0. -1.
       -5    1    3    3    0  502  0.92636180656E+03 -0.50603461655E+03 -0.35738950660E+03  0.11144355429E+04  0.46999998093E+01 0.  1.
</event>
<event>
 5   0  0.2556869E-06  0.2199759E+04  0.7818609E-02  0.8518529E-01
       -2   -1    0    0    0  501  0.00000000000E+00  0.00000000000E+00  0.66513320237E+03  0.66513320238E+03  0.25500000920E-02 0. -1.
        2   -1    0    0  501    0  0.00000000000E+00  0.00000000000E+00 -0.18187853673E+04  0.18187853673E+04  0.25500000920E-02 0.  1.
    10030    2    1    2    0    0  0.00000000000E+00  0.00000000000E+00 -0.11536521649E+04  0.24839185696E+04  0.21997586556E+04 0.  0.
        5    1    3    3  502    0 -0.14680772892E+03  0.82486705949E+03  0.22779074584E+03  0.86825623464E+03  0.46999998093E+01 0. -1.
       -5    1    3    3    0  502  0.14680772892E+03 -0.82486705949E+03 -0.13814429107E+04  0.16156623350E+04  0.46999998093E+01 0.  1.
</event>
<event>
 5   0  0.2581058E-06  0.2200383E+04  0.7818609E-02  0.8518269E-01
        2   -1    0    0  501    0  0.00000000000E+00  0.00000000000E+00  0.14091495705E+04  0.14091495705E+04  0.25500000920E-02 0. -1.
       -2   -1    0    0    0  501  0.00000000000E+00  0.00000000000E+00 -0.85897260012E+03  0.85897260012E+03  0.25500000920E-02 0.  1.
    10030    2    1    2    0    0  0.00000000000E+00  0.00000000000E+00  0.55017697035E+03  0.22681221706E+04  0.22003825763E+04 0.  0.
        1    1    3    3  502    0 -0.69022068864E+03 -0.63098070270E+03 -0.32230444107E+03  0.98915185839E+03  0.50400001928E-02 0.  1.
       -1    1    3    3    0  502  0.69022068864E+03  0.63098070270E+03  0.87248141142E+03  0.12789703122E+04  0.50400001928E-02 0. -1.
</event>
<event>
 5   0  0.1137869E-06  0.2199711E+04  0.7818609E-02  0.8518549E-01
       -1   -1    0    0    0  501  0.00000000000E+00  0.00000000000E+00  0.10004902972E+04  0.10004902972E+04  0.50400001928E-02 0. -1.
        1   -1    0    0  501    0  0.00000000000E+00  0.00000000000E+00 -0.12090889727E+04  0.12090889727E+04  0.50400001928E-02 0.  1.
    10030    2    1    2    0    0  0.00000000000E+00  0.00000000000E+00 -0.20859867551E+03  0.22095792699E+04  0.21997106952E+04 0.  0.
        5    1    3    3  502    0  0.74480220334E+03 -0.61001620520E+03 -0.63848360910E+03  0.11552201097E+04  0.46999998093E+01 0.  1.
       -5    1    3    3    0  502 -0.74480220334E+03  0.61001620520E+03  0.42988493358E+03  0.10543591603E+04  0.46999998093E+01 0. -1.
</event>
<event>
 5   0  0.1146827E-06  0.2200022E+04  0.7818609E-02  0.8518419E-01
        1   -1    0    0  501    0  0.00000000000E+00  0.00000000000E+00  0.93521921274E+03  0.93521921276E+03  0.50400001928E-02 0.  1.
       -1   -1    0    0    0  501  0.00000000000E+00  0.00000000000E+00 -0.12938404735E+04  0.12938404735E+04  0.50400001928E-02 0. -1.
    10030    2    1    2    0    0  0.00000000000E+00  0.00000000000E+00 -0.35862126076E+03  0.22290596863E+04  0.22000222445E+04 0.  0.
        4    1    3    3  502    0  0.71254638845E+03 -0.52170269556E+03 -0.84380740301E+03  0.12214371062E+04  0.12699999809E+01 0. -1.
       -4    1    3    3    0  502 -0.71254638845E+03  0.52170269556E+03  0.48518614224E+03  0.10076225800E+04  0.12699999809E+01 0.  1.
</event>
<event>
 5   0  0.2524749E-06  0.2199272E+04  0.7818609E-02  0.8518731E-01
        2   -1    0    0  501    0  0.00000000000E+00  0.00000000000E+00  0.16291459953E+04  0.16291459953E+04  0.25500000920E-02 0.  1.
       -2   -1    0    0    0  501  0.00000000000E+00  0.00000000000E+00 -0.74222872782E+03  0.74222872783E+03  0.25500000920E-02 0. -1.
    10030    2    1    2    0    0  0.00000000000E+00  0.00000000000E+00  0.88691726749E+03  0.23713747231E+04  0.21992716608E+04 0.  0.
        4    1    3    3  502    0 -0.95468988300E+03  0.49080164689E+03  0.18630380818E+03  0.10895089495E+04  0.12699999809E+01 0. -1.
       -4    1    3    3    0  502  0.95468988300E+03 -0.49080164689E+03  0.70061345931E+03  0.12818657736E+04  0.12699999809E+01 0.  1.
</event>
<event>
 5   0  0.2532239E-06  0.2202680E+04  0.7818609E-02  0.8517313E-01
        2   -1    0    0  501    0  0.00000000000E+00  0.00000000000E+00  0.15444516539E+04  0.15444516539E+04  0.25500000920E-02 0. -1.
       -2   -1    0    0    0  501  0.00000000000E+00  0.00000000000E+00 -0.78535967099E+03  0.78535967099E+03  0.25500000920E-02 0.  1.
    10030    2    1    2    0    0  0.00000000000E+00  0.00000000000E+00  0.75909198290E+03  0.23298113249E+04  0.22026802244E+04 0.  0.
        3    1    3    3  502    0 -0.83319928546E+03  0.69510645061E+03  0.57899219874E+03  0.12298886142E+04  0.10100000352E+00 0.  1.
       -3    1    3    3    0  502  0.83319928546E+03 -0.69510645061E+03  0.18009978416E+03  0.10999227107E+04  0.10100000352E+00 0. -1.
</event>
<event>
 5   0  0.2556869E-06  0.2200163E+04  0.7818609E-02  0.8518360E-01
       -2   -1    0    0    0  501  0.00000000000E+00  0.00000000000E+00  0.14360930702E+04  0.14360930702E+04  0.25500000920E-02 0.  1.
        2   -1    0    0  501    0  0.00000000000E+00  0.00000000000E+00 -0.84268893178E+03  0.84268893179E+03  0.25500000920E-02 0. -1.
    10030    2    1    2    0    0  0.00000000000E+00  0.00000000000E+00  0.59340413837E+03  0.22787820019E+04  0.22001633896E+04 0.  0.
        5    1    3    3  502    0  0.62830361335E+03 -0.83350451848E+03 -0.63075335620E+02  0.10457034957E+04  0.46999998093E+01 0. -1.
       -5    1    3    3    0  502 -0.62830361335E+03  0.83350451848E+03  0.65647947399E+03  0.12330785063E+04  0.46999998093E+01 0.  1.
</event>
<event>
 5   0  0.2556869E-06  0.2199311E+04  0.7818609E-02  0.8518715E-01
       -2   -1    0    0    0  501  0.00000000000E+00  0.00000000000E+00  0.10350974444E+04  0.10350974444E+04  0.25500000920E-02 0. -1.
        2   -1    0    0  501    0  0.00000000000E+00  0.00000000000E+00 -0.11682400942E+04  0.11682400942E+04  0.25500000920E-02 0.  1.
    10030    2    1    2    0    0  0.00000000000E+00  0.00000000000E+00 -0.13314264980E+03  0.22033375386E+04  0.21993111067E+04 0.  0.
        5    1    3    3  502    0 -0.49224952560E+03  0.79627064991E+02  0.91530981150E+03  0.10423359372E+04  0.46999998093E+01 0. -1.
       -5    1    3    3    0  502  0.49224952560E+03 -0.79627064991E+02 -0.10484524613E+04  0.11610016014E+04  0.46999998093E+01 0.  1.
</event>
<event>
 5   0  0.2556869E-06  0.2197548E+04  0.7818609E-02  0.8519449E-01
       -2   -1    0    0    0  501  0.00000000000E+00  0.00000000000E+00  0.66507700681E+03  0.66507700681E+03  0.25500000920E-02 0.  1.
        2   -1    0    0  501    0  0.00000000000E+00  0.00000000000E+00 -0.18152857883E+04  0.18152857883E+04  0.25500000920E-02 0. -1.
    10030    2    1    2    0    0  0.00000000000E+00  0.00000000000E+00 -0.11502087815E+04  0.24803627952E+04  0.21975484874E+04 0.  0.
        5    1    3    3  502    0  0.23249415732E+02  0.63923932499E+03 -0.15834503447E+04  0.17077776594E+04  0.46999998093E+01 0. -1.
       -5    1    3    3    0  502 -0.23249415732E+02 -0.63923932499E+03  0.43324156314E+03  0.77258513575E+03  0.46999998093E+01 0.  1.
</event>
<event>
 5   0  0.1137869E-06  0.2199919E+04  0.7818609E-02  0.8518462E-01
        1   -1    0    0  501    0  0.00000000000E+00  0.00000000000E+00  0.13266714106E+04  0.13266714107E+04  0.50400001928E-02 0. -1.
       -1   -1    0    0    0  501  0.00000000000E+00  0.00000000000E+00 -0.91199029332E+03  0.91199029334E+03  0.50400001928E-02 0.  1.
    10030    2    1    2    0    0  0.00000000000E+00  0.00000000000E+00  0.41468111732E+03  0.22386617040E+04  0.21999194976E+04 0.  0.
        5    1    3    3  502    0 -0.53282607658E+03  0.77455852854E+03 -0.37371857406E+03  0.10116976844E+04  0.46999998093E+01 0.  1.
       -5    1    3    3    0  502  0.53282607658E+03 -0.77455852854E+03  0.78839969138E+03  0.12269640196E+04  0.46999998093E+01 0. -1.
</event>
<event>
 5   0  0.2581058E-06  0.2199403E+04  0.7818609E-02  0.8518677E-01
       -2   -1    0    0    0  501  0.00000000000E+00  0.00000000000E+00  0.99334426294E+03  0.99334426295E+03  0.25500000920E-02 0. -1.
        2   -1    0    0  501    0  0.00000000000E+00  0.00000000000E+00 -0.12174463955E+04  0.12174463955E+04  0.25500000920E-02 0.  1.
    10030    2    1    2    0    0  0.00000000000E+00  0.00000000000E+00 -0.22410213252E+03  0.22107906584E+04  0.21994030030E+04 0.  0.
        1    1    3    3  502    0 -0.77898258123E+03 -0.77599198800E+03 -0.13128032823E+03  0.11073445498E+04  0.50400001928E-02 0.  1.
       -1    1    3    3    0  502  0.77898258123E+03  0.77599198800E+03 -0.92821804296E+02  0.11034461086E+04  0.50400001928E-02 0. -1.
</event>
<event>
 5   0  0.1082209E-06  0.2186843E+04  0.7818609E-02  0.8523924E-01
        1   -1    0    0  501    0  0.00000000000E+00  0.00000000000E+00  0.12399974653E+04  0.12399974654E+04  0.50400001928E-02 0. -1.
       -1   -1    0    0    0  501  0.00000000000E+00  0.00000000000E+00 -0.96417213094E+03  0.96417213095E+03  0.50400001928E-02 0.  1.
    10030    2    1    2    0    0  0.00000000000E+00  0.00000000000E+00  0.27582533441E+03  0.22041695963E+04  0.21868433858E+04 0.  0.
        2    1    3    3  502    0  0.28198670082E+03 -0.35632070130E+03  0.11403223293E+04  0.12275243200E+04  0.25500000920E-02 0. -1.
       -2    1    3    3    0  502 -0.28198670082E+03  0.35632070130E+03 -0.86449699485E+03  0.97664527630E+03  0.25500000920E-02 0.  1.
</event>
<event>
 5   0  0.1082209E-06  0.2200524E+04  0.7818609E-02  0.8518210E-01
       -1   -1    0    0    0  501  0.00000000000E+00  0.00000000000E+00  0.55641634854E+03  0.55641634857E+03  0.50400001928E-02 0.  1.
        1   -1    0    0  501    0  0.00000000000E+00  0.00000000000E+00 -0.21756657093E+04  0.21756657093E+04  0.50400001928E-02 0. -1.
    10030    2    1    2    0    0  0.00000000000E+00  0.00000000000E+00 -0.16192493608E+04  0.27320820579E+04  0.22005235465E+04 0.  0.
        2    1    3    3  502    0  0.51538718159E+03 -0.40802520488E+03 -0.19050630521E+04  0.20152850288E+04  0.25500000920E-02 0. -1.
       -2    1    3    3    0  502 -0.51538718159E+03  0.40802520488E+03  0.28581369133E+03  0.71679702910E+03  0.25500000920E-02 0.  1.
</event>
<event>
 5   0  0.1144271E-06  0.2198012E+04  0.7818609E-02  0.8519256E-01
        1   -1    0    0  501    0  0.00000000000E+00  0.00000000000E+00  0.10708374684E+04  0.10708374684E+04  0.50400001928E-02 0. -1.
       -1   -1    0    0    0  501  0.00000000000E+00  0.00000000000E+00 -0.11279159977E+04  0.11279159977E+04  0.50400001928E-02 0.  1.
    10030    2    1    2    0    0  0.00000000000E+00  0.00000000000E+00 -0.57078529345E+02  0.21987534661E+04  0.21980124763E+04 0.  0.
        3    1    3    3  502    0  0.81712615227E+03  0.73376902004E+03  0.12736950754E+02  0.10983052233E+04  0.10100000352E+00 0.  1.
       -3    1    3    3    0  502 -0.81712615227E+03 -0.73376902004E+03 -0.69815480100E+02  0.11004482427E+04  0.10100000352E+00 0. -1.
</event>
<event>
 5   0  0.2581058E-06  0.2199630E+04  0.7818609E-02  0.8518582E-01
       -2   -1    0    0    0  501  0.00000000000E+00  0.00000000000E+00  0.12883770410E+04  0.12883770410E+04  0.25500000920E-02 0. -1.
        2   -1    0    0  501    0  0.00000000000E+00  0.00000000000E+00 -0.93884979751E+03  0.93884979751E+03  0.25500000920E-02 0.  1.
    10030    2    1    2    0    0  0.00000000000E+00  0.00000000000E+00  0.34952724352E+03  0.22272268386E+04  0.21996295362E+04 0.  0.
        1    1    3    3  502    0  0.68138675218E+03 -0.35099799481E+03 -0.62386848083E+03  0.98828102269E+03  0.50400001928E-02 0.  1.
       -1    1    3    3    0  502 -0.68138675218E+03  0.35099799481E+03  0.97339572435E+03  0.12389458159E+04  0.50400001928E-02 0. -1.
</event>
<event>
 5   0  0.1146827E-06  0.2191679E+04  0.7818609E-02  0.8521899E-01
       -1   -1    0    0    0  501  0.00000000000E+00  0.00000000000E+00  0.10299593234E+04  0.10299593234E+04  0.50400001928E-02 0. -1.
        1   -1    0    0  501    0  0.00000000000E+00  0.00000000000E+00 -0.11659341204E+04  0.11659341204E+04  0.50400001928E-02 0.  1.
    10030    2    1    2    0    0  0.00000000000E+00  0.00000000000E+00 -0.13597479697E+03  0.21958934438E+04  0.21916794636E+04 0.  0.
        4    1    3    3  502    0 -0.41015684160E+03 -0.37306965225E+03 -0.10150314972E+04  0.11565898812E+04  0.12699999809E+01 0.  1.
       -4    1    3    3    0  502  0.41015684160E+03  0.37306965225E+03  0.87905670020E+03  0.10393035626E+04  0.12699999809E+01 0. -1.
</event>
<event>
 5   0  0.1146827E-06  0.2198840E+04  0.7818609E-02  0.8518911E-01
       -1   -1    0    0    0  501  0.00000000000E+00  0.00000000000E+00  0.10196070073E+04  0.10196070073E+04  0.50400001928E-02 0.  1.
        1   -1    0    0  501    0  0.00000000000E+00  0.00000000000E+00 -0.11854803891E+04  0.11854803891E+04  0.50400001928E-02 0. -1.
    10030    2    1    2    0    0  0.00000000000E+00  0.00000000000E+00 -0.16587338184E+03  0.22050873964E+04  0.21988397957E+04 0.  0.
        4    1    3    3  502    0  0.25144296689E+03  0.20618416518E+02 -0.11560583493E+04  0.11832671738E+04  0.12699999809E+01 0. -1.
       -4    1    3    3    0  502 -0.25144296689E+03 -0.20618416518E+02  0.99018496746E+03  0.10218202226E+04  0.12699999809E+01 0.  1.
</event>
<event>
 5   0  0.1137869E-06  0.2201390E+04  0.7818609E-02  0.8517850E-01
       -1   -1    0    0    0  501  0.00000000000E+00  0.00000000000E+00  0.81731647180E+03  0.81731647182E+03  0.50400001928E-02 0. -1.
        1   -1    0    0  501    0  0.00000000000E+00  0.00000000000E+00 -0.14823260586E+04  0.14823260586E+04  0.50400001928E-02 0.  1.
    10030    2    1    2    0    0  0.00000000000E+00  0.00000000000E+00 -0.66500958678E+03  0.22996425304E+04  0.22013900193E+04 0.  0.
        5    1    3    3  502    0  0.95913401147E+02 -0.26688767429E+02 -0.14776024595E+04  0.14809600904E+04  0.46999998093E+01 0.  1.
       -5    1    3    3    0  502 -0.95913401147E+02  0.26688767429E+02  0.81259287274E+03  0.81868244005E+03  0.46999998093E+01 0. -1.
</event>
<event>
 5   0  0.2606154E-06  0.2200444E+04  0.7818609E-02  0.8518243E-01
        2   -1    0    0  501    0  0.00000000000E+00  0.00000000000E+00  0.10191267846E+04  0.10191267846E+04  0.25500000920E-02 0.  1.
       -2   -1    0    0    0  501  0.00000000000E+00  0.00000000000E+00 -0.11877706279E+04  0.11877706279E+04  0.25500000920E-02 0. -1.
    10030    2    1    2    0    0  0.00000000000E+00  0.00000000000E+00 -0.16864384328E+03  0.22068974124E+04  0.22004443740E+04 0.  0.
        2    1    3    3  502    0 -0.30982528884E+03  0.75306581797E+03  0.65770522498E+03  0.10467454317E+04  0.25500000920E-02 0.  1.
       -2    1    3    3    0  502  0.30982528884E+03 -0.75306581797E+03 -0.82634906826E+03  0.11601519807E+04  0.25500000920E-02 0. -1.
</event>
<event>
 5   0  0.2524749E-06  0.2199807E+04  0.7818609E-02  0.8518508E-01
       -2   -1    0    0    0  501  0.00000000000E+00  0.00000000000E+00  0.11377744326E+04  0.11377744326E+04  0.25500000920E-02 0. -1.
        2   -1    0    0  501    0  0.00000000000E+00  0.00000000000E+00 -0.10632933333E+04  0.10632933333E+04  0.25500000920E-02 0.  1.
    10030    2    1    2    0    0  0.00000000000E+00  0.00000000000E+00  0.74481099362E+02  0.22010677659E+04  0.21998072361E+04 0.  0.
        4    1    3    3  502    0 -0.43465883368E+03  0.91564995285E+03 -0.39013792982E+03  0.10860719843E+04  0.12699999809E+01 0.  1.
       -4    1    3    3    0  502  0.43465883368E+03 -0.91564995285E+03  0.46461902919E+03  0.11149957816E+04  0.12699999809E+01 0. -1.
</event>
<event>
 5   0  0.2556869E-06  0.2200441E+04  0.7818609E-02  0.8518244E-01
        2   -1    0    0  501    0  0.00000000000E+00  0.00000000000E+00  0.21411852145E+04  0.21411852145E+04  0.25500000920E-02 0.  1.
       -2   -1    0    0    0  501  0.00000000000E+00  0.00000000000E+00 -0.56533427678E+03  0.56533427678E+03  0.25500000920E-02 0. -1.
    10030    2    1    2    0    0  0.00000000000E+00  0.00000000000E+00  0.15758509377E+04  0.27065194913E+04  0.22004412237E+04 0.  0.
        5    1    3    3  502    0 -0.37145298095E+03  0.74274711931E+03  0.16755763148E+04  0.18700878795E+04  0.46999998093E+01 0.  1.
       -5    1    3    3    0  502  0.37145298095E+03 -0.74274711931E+03 -0.99725377127E+02  0.83643161175E+03  0.46999998093E+01 0. -1.
</event>
<event>
 5   0  0.2532239E-06  0.2199463E+04  0.7818609E-02  0.8518652E-01
        2   -1    0    0  501    0  0.00000000000E+00  0.00000000000E+00  0.17243140391E+04  0.17243140391E+04  0.25500000920E-02 0. -1.
       -2   -1    0    0    0  501  0.00000000000E+00  0.00000000000E+00 -0.70138553828E+03  0.70138553828E+03  0.25500000920E-02 0.  1.
    10030    2    1    2    0    0  0.00000000000E+00  0.00000000000E+00  0.10229285008E+04  0.24256995774E+04  0.21994625984E+04 0.  0.
        3    1    3    3  502    0  0.21732265806E+03  0.13208223372E+03  0.16914390570E+04  0.17104505102E+04  0.10100000352E+00 0. -1.
       -3    1    3    3    0  502 -0.21732265806E+03 -0.13208223372E+03 -0.66851055617E+03  0.71524906717E+03  0.10100000352E+00 0.  1.
</event>
<event>
 5   0  0.2556869E-06  0.2199610E+04  0.7818609E-02  0.8518590E-01
       -2   -1    0    0    0  501  0.00000000000E+00  0.00000000000E+00  0.86920465280E+03  0.86920465280E+03  0.25500000920E-02 0.  1.
        2   -1    0    0  501    0  0.00000000000E+00  0.00000000000E+00 -0.13915839856E+04  0.13915839856E+04  0.25500000920E-02 0. -1.
    10030    2    1    2    0    0  0.00000000000E+00  0.00000000000E+00 -0.52237933279E+03  0.22607886384E+04  0.21996102155E+04 0.  0.
        5    1    3    3  502    0 -0.95797952730E+03  0.41861279626E+03 -0.61213596841E+03  0.12114842061E+04  0.46999998093E+01 0. -1.
       -5    1    3    3    0  502  0.95797952730E+03 -0.41861279626E+03  0.89756635626E+02  0.10493044323E+04  0.46999998093E+01 0.  1.
</event>
<event>
 5   0  0.2606154E-06  0.2199982E+04  0.7818609E-02  0.8518436E-01
        2   -1    0    0  501    0  0.00000000000E+00  0.00000000000E+00  0.17622002345E+04  0.17622002345E+04  0.25500000920E-02 0. -1.
       -2   -1    0    0    0  501  0.00000000000E+00  0.00000000000E+00 -0.68663046971E+03  0.68663046972E+03  0.25500000920E-02 0.  1.
    10030    2    1    2    0    0  0.00000000000E+00  0.00000000000E+00  0.10755697648E+04  0.24488307042E+04  0.21999821588E+04 0.  0.
        2    1    3    3  502    0 -0.39424882809E+03 -0.18983218122E+03  0.16611544998E+04  0.17178191603E+04  0.25500000920E-02 0. -1.
       -2    1    3    3    0  502  0.39424882809E+03  0.18983218122E+03 -0.58558473498E+03  0.73101154390E+03  0.25500000920E-02 0.  1.
</event>
<event>
 5   0  0.1107101E-06  0.2199584E+04  0.7818609E-02  0.8518601E-01
        1   -1    0    0  501    0  0.00000000000E+00  0.00000000000E+00  0.11582954299E+04  0.11582954299E+04  0.50400001928E-02 0. -1.
       -1   -1    0    0    0  501  0.00000000000E+00  0.00000000000E+00 -0.10442437786E+04  0.10442437786E+04  0.50400001928E-02 0.  1.
    10030    2    1    2    0    0  0.00000000000E+00  0.00000000000E+00  0.11405165131E+03  0.22025392085E+04  0.21995843212E+04 0.  0.
        1    1    3    3  502    0  0.66336275651E+03 -0.39317903346E+03 -0.72818504351E+03  0.10606098985E+04  0.50400001928E-02 0.  1.
       -1    1    3    3    0  502 -0.66336275651E+03  0.39317903346E+03  0.84223669482E+03  0.11419293101E+04  0.50400001928E-02 0. -1.
</event>
<event>
 5   0  0.1146827E-06  0.2195664E+04  0.7818609E-02  0.8520235E-01
        1   -1    0    0  501    0  0.00000000000E+00  0.00000000000E+00  0.19623179093E+04  0.19623179093E+04  0.50400001928E-02 0.  1.
       -1   -1    0    0    0  501  0.00000000000E+00  0.00000000000E+00 -0.61418953674E+03  0.61418953676E+03  0.50400001928E-02 0. -1.
    10030    2    1    2    0    0  0.00000000000E+00  0.00000000000E+00  0.13481283726E+04  0.25765074461E+04  0.21956640250E+04 0.  0.
        4    1    3    3  502    0 -0.99826096774E+03  0.45267774209E+03  0.60180945568E+03  0.12504472527E+04  0.12699999809E+01 0. -1.
       -4    1    3    3    0  502  0.99826096774E+03 -0.45267774209E+03  0.74631891688E+03  0.13260601934E+04  0.12699999809E+01 0.  1.
</event>
<event>
 5   0  0.2524749E-06  0.2199776E+04  0.7818609E-02  0.8518521E-01
        2   -1    0    0  501    0  0.00000000000E+00  0.00000000000E+00  0.12259208775E+04  0.12259208775E+04  0.25500000920E-02 0. -1.
       -2   -1    0    0    0  501  0.00000000000E+00  0.00000000000E+00 -0.98681229734E+03  0.98681229734E+03  0.25500000920E-02 0.  1.
    10030    2    1    2    0    0  0.00000000000E+00  0.00000000000E+00  0.23910858012E+03  0.22127331748E+04  0.21997761681E+04 0.  0.
        4    1    3    3  502    0  0.72926886946E+03 -0.18984606345E+03  0.92544593878E+03  0.11934514696E+04  0.12699999809E+01 0. -1.
       -4    1    3    3    0  502 -0.72926886946E+03  0.18984606345E+03 -0.68633735867E+03  0.10192817052E+04  0.12699999809E+01 0.  1.
</event>
<event>
 5   0  0.2524749E-06  0.2200153E+04  0.7818609E-02  0.8518365E-01
        2   -1    0    0  501    0  0.00000000000E+00  0.00000000000E+00  0.94461046382E+03  0.94461046383E+03  0.25500000920E-02 0. -1.
       -2   -1    0    0    0  501  0.00000000000E+00  0.00000000000E+00 -0.12811292188E+04  0.12811292188E+04  0.25500000920E-02 0.  1.
    10030    2    1    2    0    0  0.00000000000E+00  0.00000000000E+00 -0.33651875499E+03  0.22257396826E+04  0.22001527816E+04 0.  0.
        4    1    3    3  502    0  0.69496962631E+03 -0.11956321353E+03 -0.10224057000E+04  0.12420117438E+04  0.12699999809E+01 0.  1.
       -4    1    3    3    0  502 -0.69496962631E+03  0.11956321353E+03  0.68588694496E+03  0.98372793886E+03  0.12699999809E+01 0. -1.
</event>
<event>
 5   0  0.1082209E-06  0.2199888E+04  0.7818609E-02  0.8518475E-01
        1   -1    0    0  501    0  0.00000000000E+00  0.00000000000E+00  0.13524105596E+04  0.13524105596E+04  0.50400001928E-02 0.  1.
       -1   -1    0    0    0  501  0.00000000000E+00  0.00000000000E+00 -0.89460724222E+03  0.89460724223E+03  0.50400001928E-02 0. -1.
    10030    2    1    2    0    0  0.00000000000E+00  0.00000000000E+00  0.45780331742E+03  0.22470178019E+04  0.21998875254E+04 0.  0.
        2    1    3    3  502    0 -0.74697919994E+03  0.32619452514E+02 -0.59512499907E+03  0.95562320940E+03  0.25500000920E-02 0. -1.
       -2    1    3    3    0  502  0.74697919994E+03 -0.32619452514E+02  0.10529283165E+04  0.12913945925E+04  0.25500000920E-02 0.  1.
</event>
<event>
 5   0  0.1082209E-06  0.2199333E+04  0.7818609E-02  0.8518706E-01
        1   -1    0    0  501    0  0.00000000000E+00  0.00000000000E+00  0.10569912344E+04  0.10569912344E+04  0.50400001928E-02 0. -1.
       -1   -1    0    0    0  501  0.00000000000E+00  0.00000000000E+00 -0.11440649769E+04  0.11440649769E+04  0.50400001928E-02 0.  1.
    10030    2    1    2    0    0  0.00000000000E+00  0.00000000000E+00 -0.87073742471E+02  0.22010562113E+04  0.21993332191E+04 0.  0.
        2    1    3    3  502    0 -0.68018684396E+02 -0.92388995822E+03  0.54943676628E+03  0.10770700796E+04  0.25500000920E-02 0. -1.
       -2    1    3    3    0  502  0.68018684396E+02  0.92388995822E+03 -0.63651050875E+03  0.11239861316E+04  0.25500000920E-02 0.  1.
</event>
<event>
 5   0  0.2606154E-06  0.2199656E+04  0.7818609E-02  0.8518571E-01
       -2   -1    0    0    0  501  0.00000000000E+00  0.00000000000E+00  0.80373887623E+03  0.80373887624E+03  0.25500000920E-02 0.  1.
        2   -1    0    0  501    0  0.00000000000E+00  0.00000000000E+00 -0.15049935948E+04  0.15049935948E+04  0.25500000920E-02 0. -1.
    10030    2    1    2    0    0  0.00000000000E+00  0.00000000000E+00 -0.70125471853E+03  0.23087324710E+04  0.21996562100E+04 0.  0.
        2    1    3    3  502    0  0.77347079606E+03  0.63536965601E+03  0.12767869763E+03  0.10090854879E+04  0.25500000920E-02 0. -1.
       -2    1    3    3    0  502 -0.77347079606E+03 -0.63536965601E+03 -0.82893341617E+03  0.12996469831E+04  0.25500000920E-02 0.  1.
</event>
<event>
 5   0  0.2532239E-06  0.2199145E+04  0.7818609E-02  0.8518784E-01
        2   -1    0    0  501    0  0.00000000000E+00  0.00000000000E+00  0.15107343897E+04  0.15107343897E+04  0.25500000920E-02 0.  1.
       -2   -1    0    0    0  501  0.00000000000E+00  0.00000000000E+00 -0.80031229273E+03  0.80031229273E+03  0.25500000920E-02 0. -1.
    10030    2    1    2    0    0  0.00000000000E+00  0.00000000000E+00  0.71042209698E+03  0.23110466824E+04  0.21991446548E+04 0.  0.
        3    1    3    3  502    0 -0.42170146444E+03 -0.94083271473E+03 -0.46415129413E+02  0.10320623512E+04  0.10100000352E+00 0. -1.
       -3    1    3    3    0  502  0.42170146444E+03  0.94083271473E+03  0.75683722640E+03  0.12789843313E+04  0.10100000352E+00 0.  1.
</event>
<event>
 5   0  0.2606154E-06  0.2199743E+04  0.7818609E-02  0.8518535E-01
       -2   -1    0    0    0  501  0.00000000000E+00  0.00000000000E+00  0.13195005353E+04  0.13195005353E+04  0.25500000920E-02 0.  1.
        2   -1    0    0  501    0  0.00000000000E+00  0.00000000000E+00 -0.91679909472E+03  0.91679909472E+03  0.25500000920E-02 0. -1.
    10030    2    1    2    0    0  0.00000000000E+00  0.00000000000E+00  0.40270144053E+03  0.22362996300E+04  0.21997426179E+04 0.  0.
        2    1    3    3  502    0 -0.10919109543E+04  0.80933023457E+01  0.33538203485E+03  0.11422854911E+04  0.25500000920E-02 0.  1.
       -2    1    3    3    0  502  0.10919109543E+04 -0.80933023457E+01  0.67319405682E+02  0.10940141389E+04  0.25500000920E-02 0. -1.
</event>
<event>
 5   0  0.2581058E-06  0.2200607E+04  0.7818609E-02  0.8518176E-01
       -2   -1    0    0    0  501  0.00000000000E+00  0.00000000000E+00  0.54272400185E+03  0.54272400185E+03  0.25500000920E-02 0. -1.
        2   -1    0    0  501    0  0.00000000000E+00  0.00000000000E+00 -0.22307243718E+04  0.22307243718E+04  0.25500000920E-02 0.  1.
    10030    2    1    2    0    0  0.00000000000E+00  0.00000000000E+00 -0.16880003699E+04  0.27734483736E+04  0.22006068782E+04 0.  0.
        1    1    3    3  502    0 -0.77104559766E+03  0.31403815723E+03  0.62667343282E+02  0.83490027776E+03  0.50400001928E-02 0. -1.
       -1    1    3    3    0  502  0.77104559766E+03 -0.31403815723E+03 -0.17506677132E+04  0.19385480959E+04  0.50400001928E-02 0.  1.
</event>
<event>
 5   0  0.1137869E-06  0.2200347E+04  0.7818609E-02  0.8518284E-01
        1   -1    0    0  501    0  0.00000000000E+00  0.00000000000E+00  0.14160265393E+04  0.14160265393E+04  0.50400001928E-02 0.  1.
       -1   -1    0    0    0  501  0.00000000000E+00  0.00000000000E+00 -0.85477324947E+03  0.85477324949E+03  0.50400001928E-02 0. -1.
    10030    2    1    2    0    0  0.00000000000E+00  0.00000000000E+00  0.56125328982E+03  0.22707997888E+04  0.22003468875E+04 0.  0.
        5    1    3    3  502    0 -0.70452217653E+03  0.80306292308E+03  0.93450644136E+01  0.10683496506E+04  0.46999998093E+01 0. -1.
       -5    1    3    3    0  502  0.70452217653E+03 -0.80306292308E+03  0.55190822541E+03  0.12024501382E+04  0.46999998093E+01 0.  1.
</event>
<event>
 5   0  0.2556869E-06  0.2184307E+04  0.7818609E-02  0.8524988E-01
       -2   -1    0    0    0  501  0.00000000000E+00  0.00000000000E+00  0.11607454583E+04  0.11607454583E+04  0.25500000920E-02 0.  1.
        2   -1    0    0  501    0  0.00000000000E+00  0.00000000000E+00 -0.10276150756E+04  0.10276150756E+04  0.25500000920E-02 0. -1.
    10030    2    1    2    0    0  0.00000000000E+00  0.00000000000E+00  0.13313038267E+03  0.21883605339E+04  0.21843072420E+04 0.  0.
        5    1    3    3  502    0 -0.56998267672E+03  0.57832281046E+03 -0.66515982580E+03  0.10496652841E+04  0.46999998093E+01 0. -1.
       -5    1    3    3    0  502  0.56998267672E+03 -0.57832281046E+03  0.79829020846E+03  0.11386952497E+04  0.46999998093E+01 0.  1.
</event>
<event>
 5   0  0.2524749E-06  0.2198228E+04  0.7818609E-02  0.8519166E-01
       -2   -1    0    0    0  501  0.00000000000E+00  0.00000000000E+00  0.90678302535E+03  0.90678302535E+03  0.25500000920E-02 0.  1.
        2   -1    0    0  501    0  0.00000000000E+00  0.00000000000E+00 -0.13322385360E+04  0.13322385360E+04  0.25500000920E-02 0. -1.
    10030    2    1    2    0    0  0.00000000000E+00  0.00000000000E+00 -0.42545551066E+03  0.22390215614E+04  0.21982277318E+04 0.  0.
        4    1    3    3  502    0 -0.40772779106E+03  0.83202218425E+03  0.38946879767E+03  0.10050822971E+04  0.12699999809E+01 0.  1.
       -4    1    3    3    0  502  0.40772779106E+03 -0.83202218425E+03 -0.81492430833E+03  0.12339392643E+04  0.12699999809E+01 0. -1.
</event>
<event>
 5   0  0.2606154E-06  0.2198996E+04  0.7818609E-02  0.8518846E-01
        2   -1    0    0  501    0  0.00000000000E+00  0.00000000000E+00  0.11962582341E+04  0.11962582341E+04  0.25500000920E-02 0. -1.
       -2   -1    0    0    0  501  0.00000000000E+00  0.00000000000E+00 -0.10105645915E+04  0.10105645915E+04  0.25500000920E-02 0.  1.
    10030    2    1    2    0    0  0.00000000000E+00  0.00000000000E+00  0.18569364262E+03  0.22068228256E+04  0.21989963290E+04 0.  0.
        2    1    3    3  502    0  0.35406128598E+02  0.10956380574E+04  0.17811903925E+03  0.11105866643E+04  0.25500000920E-02 0.  1.
       -2    1    3    3    0  502 -0.35406128598E+02 -0.10956380574E+04  0.75746033754E+01  0.10962361613E+04  0.25500000920E-02 0. -1.
</event>
<event>
 5   0  0.1144271E-06  0.2200113E+04  0.7818609E-02  0.8518381E-01
        1   -1    0    0  501    0  0.00000000000E+00  0.00000000000E+00  0.18591430541E+04  0.18591430541E+04  0.50400001928E-02 0.  1.
       -1   -1    0    0    0  501  0.00000000000E+00  0.00000000000E+00 -0.65090433326E+03  0.65090433328E+03  0.50400001928E-02 0. -1.
    10030    2    1    2    0    0  0.00000000000E+00  0.00000000000E+00  0.12082387209E+04  0.25100473874E+04  0.22001129699E+04 0.  0.
        3    1    3    3  502    0  0.64299446361E+03  0.64954659319E+03  0.13025451662E+04  0.15912185825E+04  0.10100000352E+00 0.  1.
       -3    1    3    3    0  502 -0.64299446361E+03 -0.64954659319E+03 -0.94306445362E+02  0.91882880494E+03  0.10100000352E+00 0. -1.
</event>
<event>
 5   0  0.1137869E-06  0.2200199E+04  0.7818609E-02  0.8518345E-01
        1   -1    0    0  501    0  0.00000000000E+00  0.00000000000E+00  0.15201544212E+04  0.15201544212E+04  0.50400001928E-02 0.  1.
       -1   -1    0    0    0  501  0.00000000000E+00  0.00000000000E+00 -0.79611586990E+03  0.79611586992E+03  0.50400001928E-02 0. -1.
    10030    2    1    2    0    0  0.00000000000E+00  0.00000000000E+00  0.72403855128E+03  0.23162702911E+04  0.22001991359E+04 0.  0.
        5    1    3    3  502    0  0.39451178058E+03  0.43781064615E+03 -0.61589832569E+03  0.85244973135E+03  0.46999998093E+01 0. -1.
       -5    1    3    3    0  502 -0.39451178058E+03 -0.43781064615E+03  0.13399368770E+04  0.14638205598E+04  0.46999998093E+01 0.  1.
</event>
<event>
 5   0  0.2581058E-06  0.2203050E+04  0.7818609E-02  0.8517160E-01
        2   -1    0    0  501    0  0.00000000000E+00  0.00000000000E+00  0.26269177968E+04  0.26269177968E+04  0.25500000920E-02 0. -1.
       -2   -1    0    0    0  501  0.00000000000E+00  0.00000000000E+00 -0.46189403246E+03  0.46189403246E+03  0.25500000920E-02 0.  1.
    10030    2    1    2    0    0  0.00000000000E+00  0.00000000000E+00  0.21650237644E+04  0.30888118293E+04  0.22030502982E+04 0.  0.
        1    1    3    3  502    0 -0.89533175603E+03 -0.56106634081E+03  0.15190537010E+04  0.18503887534E+04  0.50400001928E-02 0. -1.
       -1    1    3    3    0  502  0.89533175603E+03  0.56106634081E+03  0.64597006340E+03  0.12384230759E+04  0.50400001928E-02 0.  1.
</event>
<event>
 5   0  0.2556869E-06  0.2199763E+04  0.7818609E-02  0.8518527E-01
       -2   -1    0    0    0  501  0.00000000000E+00  0.00000000000E+00  0.55298505910E+03  0.55298505911E+03  0.25500000920E-02 0.  1.
        2   -1    0    0  501    0  0.00000000000E+00  0.00000000000E+00 -0.21876523358E+04  0.21876523358E+04  0.25500000920E-02 0. -1.
    10030    2    1    2    0    0  0.00000000000E+00  0.00000000000E+00 -0.16346672767E+04  0.27406373949E+04  0.21997627656E+04 0.  0.
        5    1    3    3  502    0  0.20375803459E+03  0.27237643688E+03 -0.21204599644E+04  0.21475751002E+04  0.46999998093E+01 0. -1.
       -5    1    3    3    0  502 -0.20375803459E+03 -0.27237643688E+03  0.48579268773E+03  0.59306229476E+03  0.46999998093E+01 0.  1.
</event>
<event>
 5   0  0.2556869E-06  0.2199388E+04  0.7818609E-02  0.8518683E-01
        2   -1    0    0  501    0  0.00000000000E+00  0.00000000000E+00  0.12272958295E+04  0.12272958295E+04  0.25500000920E-02 0. -1.
       -2   -1    0    0    0  501  0.00000000000E+00  0.00000000000E+00 -0.98535872061E+03  0.98535872062E+03  0.25500000920E-02 0.  1.
    10030    2    1    2    0    0  0.00000000000E+00  0.00000000000E+00  0.24193710888E+03  0.22126545501E+04  0.21993877770E+04 0.  0.
        5    1    3    3  502    0  0.83364633966E+03  0.22046973456E+03  0.80753027251E+03  0.11813976276E+04  0.46999998093E+01 0. -1.
       -5    1    3    3    0  502 -0.83364633966E+03 -0.22046973456E+03 -0.56559316363E+03  0.10312569225E+04  0.46999998093E+01 0.  1.
</event>
<event>
 5   0  0.1146827E-06  0.2200186E+04  0.7818609E-02  0.8518351E-01
        1   -1    0    0  501    0  0.00000000000E+00  0.00000000000E+00  0.18781731426E+04  0.18781731426E+04  0.50400001928E-02 0.  1.
       -1   -1    0    0    0  501  0.00000000000E+00  0.00000000000E+00 -0.64435211685E+03  0.64435211687E+03  0.50400001928E-02 0. -1.
    10030    2    1    2    0    0  0.00000000000E+00  0.00000000000E+00  0.12338210257E+04  0.25225252594E+04  0.22001862105E+04 0.  0.
        4    1    3    3  502    0 -0.88620856148E+03 -0.19182673369E+03  0.13311015552E+04  0.16105887350E+04  0.12699999809E+01 0.  1.
       -4    1    3    3    0  502  0.88620856148E+03  0.19182673369E+03 -0.97280529530E+02  0.91193652439E+03  0.12699999809E+01 0. -1.
</event>
<event>
 5   0  0.1146827E-06  0.2202378E+04  0.7818609E-02  0.8517439E-01
       -1   -1    0    0    0  501  0.00000000000E+00  0.00000000000E+00  0.10144379842E+04  0.10144379842E+04  0.50400001928E-02 0. -1.
        1   -1    0    0  501    0  0.00000000000E+00  0.00000000000E+00 -0.11953590180E+04  0.11953590180E+04  0.50400001928E-02 0.  1.
    10030    2    1    2    0    0  0.00000000000E+00  0.00000000000E+00 -0.18092103378E+03  0.22097970022E+04  0.22023783441E+04 0.  0.
        4    1    3    3  502    0  0.17000778537E+03 -0.45477298915E+03 -0.10821697681E+04  0.11860919604E+04  0.12699999809E+01 0.  1.
       -4    1    3    3    0  502 -0.17000778537E+03  0.45477298915E+03  0.90124873428E+03  0.10237050418E+04  0.12699999809E+01 0. -1.
</event>
<event>
 5   0  0.1082209E-06  0.2204121E+04  0.7818609E-02  0.8516715E-01
       -1   -1    0    0    0  501  0.00000000000E+00  0.00000000000E+00  0.95068342807E+03  0.95068342808E+03  0.50400001928E-02 0.  1.
        1   -1    0    0  501    0  0.00000000000E+00  0.00000000000E+00 -0.12775413088E+04  0.12775413088E+04  0.50400001928E-02 0. -1.
    10030    2    1    2    0    0  0.00000000000E+00  0.00000000000E+00 -0.32685788075E+03  0.22282247369E+04  0.22041210048E+04 0.  0.
        2    1    3    3  502    0 -0.43158657630E+03  0.14116350317E+02  0.86159765761E+03  0.96375140352E+03  0.25500000920E-02 0.  1.
       -2    1    3    3    0  502  0.43158657630E+03 -0.14116350317E+02 -0.11884555384E+04  0.12644733334E+04  0.25500000920E-02 0. -1.
</event>
<event>
 5   0  0.2581058E-06  0.2199834E+04  0.7818609E-02  0.8518497E-01
       -2   -1    0    0    0  501  0.00000000000E+00  0.00000000000E+00  0.14503244499E+04  0.14503244499E+04  0.25500000920E-02 0. -1.
        2   -1    0    0  501    0  0.00000000000E+00  0.00000000000E+00 -0.83417004797E+03  0.83417004797E+03  0.25500000920E-02 0.  1.
    10030    2    1    2    0    0  0.00000000000E+00  0.00000000000E+00  0.61615440195E+03  0.22844944979E+04  0.21998338264E+04 0.  0.
        1    1    3    3  502    0 -0.96507370878E+02 -0.10718083560E+04  0.54427351872E+03  0.12059521084E+04  0.50400001928E-02 0. -1.
       -1    1    3    3    0  502  0.96507370878E+02  0.10718083560E+04  0.71880883229E+02  0.10785423895E+04  0.50400001928E-02 0.  1.
</event>
<event>
 5   0  0.2556869E-06  0.2196259E+04  0.7818609E-02  0.8519987E-01
        2   -1    0    0  501    0  0.00000000000E+00  0.00000000000E+00  0.15612825831E+04  0.15612825831E+04  0.25500000920E-02 0. -1.
       -2   -1    0    0    0  501  0.00000000000E+00  0.00000000000E+00 -0.77237024971E+03  0.77237024972E+03  0.25500000920E-02 0.  1.
    10030    2    1    2    0    0  0.00000000000E+00  0.00000000000E+00  0.78891233343E+03  0.23336528329E+04  0.21962588359E+04 0.  0.
        5    1    3    3  502    0 -0.99735031792E+03  0.40676398159E+03  0.62160898082E+03  0.12436174687E+04  0.46999998093E+01 0. -1.
       -5    1    3    3    0  502  0.99735031792E+03 -0.40676398159E+03  0.16730335261E+03  0.10900353642E+04  0.46999998093E+01 0.  1.
</event>
<event>
 5   0  0.2532239E-06  0.2199683E+04  0.7818609E-02  0.8518560E-01
        2   -1    0    0  501    0  0.00000000000E+00  0.00000000000E+00  0.13357184115E+04  0.13357184115E+04  0.25500000920E-02 0. -1.
       -2   -1    0    0    0  501  0.00000000000E+00  0.00000000000E+00 -0.90561857357E+03  0.90561857358E+03  0.25500000920E-02 0.  1.
    10030    2    1    2    0    0  0.00000000000E+00  0.00000000000E+00  0.43009983795E+03  0.22413369851E+04  0.21996830704E+04 0.  0.
        3    1    3    3  502    0 -0.50652653483E+03 -0.48700670337E+03 -0.64708506560E+03  0.95522968544E+03  0.10100000352E+00 0.  1.
       -3    1    3    3    0  502  0.50652653483E+03  0.48700670337E+03  0.10771849035E+04  0.12861072997E+04  0.10100000352E+00 0. -1.
</event>
<event>
 5   0  0.1146827E-06  0.2200160E+04  0.7818609E-02  0.8518362E-01
        1   -1    0    0  501    0  0.00000000000E+00  0.00000000000E+00  0.98687694974E+03  0.98687694975E+03  0.50400001928E-02 0.  1.
       -1   -1    0    0    0  501  0.00000000000E+00  0.00000000000E+00 -0.12262681185E+04  0.12262681185E+04  0.50400001928E-02 0. -1.
    10030    2    1    2    0    0  0.00000000000E+00  0.00000000000E+00 -0.23939116872E+03  0.22131450682E+04  0.22001597581E+04 0.  0.
        4    1    3    3  502    0 -0.32100504890E+03 -0.90042402381E+03 -0.66730410119E+03  0.11658061762E+04  0.12699999809E+01 0. -1.
       -4    1    3    3    0  502  0.32100504890E+03  0.90042402381E+03  0.42791293247E+03  0.10473388920E+04  0.12699999809E+01 0.  1.
</event>
<event>
 5   0  0.2581058E-06  0.2206164E+04  0.7818609E-02  0.8515867E-01
       -2   -1    0    0    0  501  0.00000000000E+00  0.00000000000E+00  0.56602750029E+03  0.56602750029E+03  0.25500000920E-02 0.  1.
        2   -1    0    0  501    0  0.00000000000E+00  0.00000000000E+00 -0.21497006651E+04  0.21497006651E+04  0.25500000920E-02 0. -1.
    10030    2    1    2    0    0  0.00000000000E+00  0.00000000000E+00 -0.15836731648E+04  0.27157281654E+04  0.22061638143E+04 0.  0.
        1    1    3    3  502    0  0.19256062867E+03 -0.52765643741E+03  0.37680281258E+03  0.67637361809E+03  0.50400001928E-02 0.  1.
       -1    1    3    3    0  502 -0.19256062867E+03  0.52765643741E+03 -0.19604759774E+04  0.20393545473E+04  0.50400001928E-02 0. -1.
</event>
<event>
 5   0  0.1146827E-06  0.2199604E+04  0.7818609E-02  0.8518593E-01
       -1   -1    0    0    0  501  0.00000000000E+00  0.00000000000E+00  0.15620238113E+04  0.15620238113E+04  0.50400001928E-02 0. -1.
        1   -1    0    0  501    0  0.00000000000E+00  0.00000000000E+00 -0.77435705187E+03  0.77435705189E+03  0.50400001928E-02 0.  1.
    10030    2    1    2    0    0  0.00000000000E+00  0.00000000000E+00  0.78766675946E+03  0.23363808632E+04  0.21996037403E+04 0.  0.
        4    1    3    3  502    0 -0.68964641089E+03 -0.75313475609E+03  0.82756093653E+03  0.13144135002E+04  0.12699999809E+01 0.  1.
       -4    1    3    3    0  502  0.68964641089E+03  0.75313475609E+03 -0.39894177074E+02  0.10219673631E+04  0.12699999809E+01 0. -1.
</event>
<event>
 5   0  0.2532239E-06  0.2199938E+04  0.7818609E-02  0.8518454E-01
        2   -1    0    0  501    0  0.00000000000E+00  0.00000000000E+00  0.20177370717E+04  0.20177370717E+04  0.25500000920E-02 0. -1.
       -2   -1    0    0    0  501  0.00000000000E+00  0.00000000000E+00 -0.59964792927E+03  0.59964792928E+03  0.25500000920E-02 0.  1.
    10030    2    1    2    0    0  0.00000000000E+00  0.00000000000E+00  0.14180891425E+04  0.26173850010E+04  0.21999380508E+04 0.  0.
        3    1    3    3  502    0 -0.71106691716E+03 -0.61151329506E+03  0.13928863078E+04  0.16791953273E+04  0.10100000352E+00 0. -1.
       -3    1    3    3    0  502  0.71106691716E+03  0.61151329506E+03  0.25202834668E+02  0.93818967367E+03  0.10100000352E+00 0.  1.
</event>
<event>
 5   0  0.2524749E-06  0.2200710E+04  0.7818609E-02  0.8518132E-01
       -2   -1    0    0    0  501  0.00000000000E+00  0.00000000000E+00  0.74670092477E+03  0.74670092478E+03  0.25500000920E-02 0. -1.
        2   -1    0    0  501    0  0.00000000000E+00  0.00000000000E+00 -0.16215080352E+04  0.16215080352E+04  0.25500000920E-02 0.  1.
    10030    2    1    2    0    0  0.00000000000E+00  0.00000000000E+00 -0.87480711040E+03  0.23682089600E+04  0.22007103848E+04 0.  0.
        4    1    3    3  502    0  0.76909432227E+03 -0.15001551383E+03  0.39390132375E+03  0.87702371501E+03  0.12699999809E+01 0. -1.
       -4    1    3    3    0  502 -0.76909432227E+03  0.15001551383E+03 -0.12687084342E+04  0.14911852449E+04  0.12699999809E+01 0.  1.
</event>
<event>
 5   0  0.1107101E-06  0.2198604E+04  0.7818609E-02  0.8519009E-01
        1   -1    0    0  501    0  0.00000000000E+00  0.00000000000E+00  0.10905721162E+04  0.10905721162E+04  0.50400001928E-02 0. -1.
       -1   -1    0    0    0  501  0.00000000000E+00  0.00000000000E+00 -0.11081015192E+04  0.11081015192E+04  0.50400001928E-02 0.  1.
    10030    2    1    2    0    0  0.00000000000E+00  0.00000000000E+00 -0.17529402960E+02  0.21986736354E+04  0.21986037558E+04 0.  0.
        1    1    3    3  502    0  0.76460859101E+03 -0.49066343584E+03  0.61019577078E+03  0.10944020209E+04  0.50400001928E-02 0. -1.
       -1    1    3    3    0  502 -0.76460859101E+03  0.49066343584E+03 -0.62772517374E+03  0.11042716145E+04  0.50400001928E-02 0.  1.
</event>
<event>
 5   0  0.2581058E-06  0.2199750E+04  0.7818609E-02  0.8518532E-01
        2   -1    0    0  501    0  0.00000000000E+00  0.00000000000E+00  0.85642630914E+03  0.85642630914E+03  0.25500000920E-02 0.  1.
       -2   -1    0    0    0  501  0.00000000000E+00  0.00000000000E+00 -0.14125262157E+04  0.14125262157E+04  0.25500000920E-02 0. -1.
    10030    2    1    2    0    0  0.00000000000E+00  0.00000000000E+00 -0.55609990657E+03  0.22689525249E+04  0.21997496344E+04 0.  0.
        1    1    3    3  502    0 -0.10396353111E+04 -0.35778671839E+03 -0.24759660272E+03  0.11270124194E+04  0.50400001928E-02 0.  1.
       -1    1    3    3    0  502  0.10396353111E+04  0.35778671839E+03 -0.30850330385E+03  0.11419401054E+04  0.50400001928E-02 0. -1.
</event>
<event>
 5   0  0.1137869E-06  0.2199792E+04  0.7818609E-02  0.8518515E-01
       -1   -1    0    0    0  501  0.00000000000E+00  0.00000000000E+00  0.85606696161E+03  0.85606696162E+03  0.50400001928E-02 0. -1.
        1   -1    0    0  501    0  0.00000000000E+00  0.00000000000E+00 -0.14131736790E+04  0.14131736790E+04  0.50400001928E-02 0.  1.
    10030    2    1    2    0    0  0.00000000000E+00  0.00000000000E+00 -0.55710671743E+03  0.22692406407E+04  0.21997920790E+04 0.  0.
        5    1    3    3  502    0  0.15997743842E+02 -0.18993018400E+03 -0.13959969935E+04  0.14089567411E+04  0.46999998093E+01 0.  1.
       -5    1    3    3    0  502 -0.15997743842E+02  0.18993018400E+03  0.83889027603E+03  0.86028389955E+03  0.46999998093E+01 0. -1.
</event>
<event>
 5   0  0.1137869E-06  0.2199741E+04  0.7818609E-02  0.8518536E-01
       -1   -1    0    0    0  501  0.00000000000E+00  0.00000000000E+00  0.10342889793E+04  0.10342889793E+04  0.50400001928E-02 0. -1.
        1   -1    0    0  501    0  0.00000000000E+00  0.00000000000E+00 -0.11696108714E+04  0.11696108714E+04  0.50400001928E-02 0.  1.
    10030    2    1    2    0    0  0.00000000000E+00  0.00000000000E+00 -0.13532189208E+03  0.22038998507E+04  0.21997414706E+04 0.  0.
        5    1    3    3  502    0  0.24024004955E+03  0.82437008560E+03 -0.75626818444E+03  0.11442311726E+04  0.46999998093E+01 0.  1.
       -5    1    3    3    0  502 -0.24024004955E+03 -0.82437008560E+03  0.62094629236E+03  0.10596686781E+04  0.46999998093E+01 0. -1.
</event>
<event>
 5   0  0.1146827E-06  0.2199339E+04  0.7818609E-02  0.8518703E-01
       -1   -1    0    0    0  501  0.00000000000E+00  0.00000000000E+00  0.95749841156E+03  0.95749841157E+03  0.50400001928E-02 0. -1.
        1   -1    0    0  501    0  0.00000000000E+00  0.00000000000E+00 -0.12629500571E+04  0.12629500571E+04  0.50400001928E-02 0.  1.
    10030    2    1    2    0    0  0.00000000000E+00  0.00000000000E+00 -0.30545164554E+03  0.22204484687E+04  0.21993386948E+04 0.  0.
        4    1    3    3  502    0 -0.38473644721E+03 -0.78605574162E+02 -0.11897508541E+04  0.12528805521E+04  0.12699999809E+01 0.  1.
       -4    1    3    3    0  502  0.38473644721E+03  0.78605574162E+02  0.88429920854E+03  0.96756791660E+03  0.12699999809E+01 0. -1.
</event>
<event>
 5   0  0.1144271E-06  0.2196859E+04  0.7818609E-02  0.8519737E-01
        1   -1    0    0  501    0  0.00000000000E+00  0.00000000000E+00  0.17259556557E+04  0.17259556557E+04  0.50400001928E-02 0. -1.
       -1   -1    0    0    0  501  0.00000000000E+00  0.00000000000E+00 -0.69906036335E+03  0.69906036337E+03  0.50400001928E-02 0.  1.
    10030    2    1    2    0    0  0.00000000000E+00  0.00000000000E+00  0.10268952923E+04  0.24250160190E+04  0.21968588373E+04 0.  0.
        3    1    3    3  502    0 -0.34631244431E+03 -0.33724547259E+03  0.16022327696E+04  0.16735640639E+04  0.10100000352E+00 0. -1.
       -3    1    3    3    0  502  0.34631244431E+03  0.33724547259E+03 -0.57533747729E+03  0.75145195511E+03  0.10100000352E+00 0.  1.
</event>
<event>
 5   0  0.1144271E-06  0.2199918E+04  0.7818609E-02  0.8518462E-01
       -1   -1    0    0    0  501  0.00000000000E+00  0.00000000000E+00  0.73296137630E+03  0.73296137631E+03  0.50400001928E-02 0. -1.
        1   -1    0    0  501    0  0.00000000000E+00  0.00000000000E+00 -0.16507136124E+04  0.16507136124E+04  0.50400001928E-02 0.  1.
    10030    2    1    2    0    0  0.00000000000E+00  0.00000000000E+00 -0.91775223606E+03  0.23836749887E+04  0.21999175632E+04 0.  0.
        3    1    3    3  502    0 -0.51419981505E+03  0.97184196505E+03 -0.42408392536E+03  0.11784419548E+04  0.10100000352E+00 0. -1.
       -3    1    3    3    0  502  0.51419981505E+03 -0.97184196505E+03 -0.49366831070E+03  0.12052330339E+04  0.10100000352E+00 0.  1.
</event>
<event>
 5   0  0.1146827E-06  0.2197703E+04  0.7818609E-02  0.8519385E-01
        1   -1    0    0  501    0  0.00000000000E+00  0.00000000000E+00  0.63223635134E+03  0.63223635136E+03  0.50400001928E-02 0.  1.
       -1   -1    0    0    0  501  0.00000000000E+00  0.00000000000E+00 -0.19098461041E+04  0.19098461041E+04  0.50400001928E-02 0. -1.
    10030    2    1    2    0    0  0.00000000000E+00  0.00000000000E+00 -0.12776097528E+04  0.25420824555E+04  0.21977025573E+04 0.  0.
        4    1    3    3  502    0 -0.58955968357E+03  0.43473464768E+03 -0.15862386595E+04  0.17472062077E+04  0.12699999809E+01 0. -1.
       -4    1    3    3    0  502  0.58955968357E+03 -0.43473464768E+03  0.30862890671E+03  0.79487624782E+03  0.12699999809E+01 0.  1.
</event>
<event>
 5   0  0.1144271E-06  0.2196012E+04  0.7818609E-02  0.8520090E-01
        1   -1    0    0  501    0  0.00000000000E+00  0.00000000000E+00  0.89462839141E+03  0.89462839143E+03  0.50400001928E-02 0.  1.
       -1   -1    0    0    0  501  0.00000000000E+00  0.00000000000E+00 -0.13476178294E+04  0.13476178294E+04  0.50400001928E-02 0. -1.
    10030    2    1    2    0    0  0.00000000000E+00  0.00000000000E+00 -0.45298943795E+03  0.22422462208E+04  0.21960119954E+04 0.  0.
        3    1    3    3  502    0 -0.67154561397E+02  0.46775179952E+03  0.78549041039E+03  0.91667697478E+03  0.10100000352E+00 0.  1.
       -3    1    3    3    0  502  0.67154561397E+02 -0.46775179952E+03 -0.12384798483E+04  0.13255692460E+04  0.10100000352E+00 0. -1.
</event>
<event>
 5   0  0.1107101E-06  0.2197497E+04  0.7818609E-02  0.8519471E-01
       -1   -1    0    0    0  501  0.00000000000E+00  0.00000000000E+00  0.79652852781E+03  0.79652852782E+03  0.50400001928E-02 0.  1.
        1   -1    0    0  501    0  0.00000000000E+00  0.00000000000E+00 -0.15156369730E+04  0.15156369731E+04  0.50400001928E-02 0. -1.
    10030    2    1    2    0    0  0.00000000000E+00  0.00000000000E+00 -0.71910844524E+03  0.23121655009E+04  0.21974968367E+04 0.  0.
        1    1    3    3  502    0  0.51546743893E+03  0.74728825081E+03 -0.10108041450E+04  0.13586285107E+04  0.50400001928E-02 0. -1.
       -1    1    3    3    0  502 -0.51546743893E+03 -0.74728825081E+03  0.29169569978E+03  0.95353699021E+03  0.50400001928E-02 0.  1.
</event>
<event>
 5   0  0.1137869E-06  0.2195907E+04  0.7818609E-02  0.8520133E-01
        1   -1    0    0  501    0  0.00000000000E+00  0.00000000000E+00  0.85811730445E+03  0.85811730447E+03  0.50400001928E-02 0. -1.
       -1   -1    0    0    0  501  0.00000000000E+00  0.00000000000E+00 -0.14048222372E+04  0.14048222372E+04  0.50400001928E-02 0.  1.
    10030    2    1    2    0    0  0.00000000000E+00  0.00000000000E+00 -0.54670493279E+03  0.22629395417E+04  0.21959073491E+04 0.  0.
        5    1    3    3  502    0 -0.86796111092E+03 -0.55961956230E+03 -0.65749079918E+03  0.12242739831E+04  0.46999998093E+01 0.  1.
       -5    1    3    3    0  502  0.86796111092E+03  0.55961956230E+03  0.11078586640E+03  0.10386655587E+04  0.46999998093E+01 0. -1.
</event>
<event>
 5   0  0.2532239E-06  0.2198542E+04  0.7818609E-02  0.8519035E-01
        2   -1    0    0  501    0  0.00000000000E+00  0.00000000000E+00  0.15197349452E+04  0.15197349452E+04  0.25500000920E-02 0.  1.
       -2   -1    0    0    0  501  0.00000000000E+00  0.00000000000E+00 -0.79513684630E+03  0.79513684630E+03  0.25500000920E-02 0. -1.
    10030    2    1    2    0    0  0.00000000000E+00  0.00000000000E+00  0.72459809890E+03  0.23148717915E+04  0.21985424731E+04 0.  0.
        3    1    3    3  502    0 -0.50339932086E+03 -0.19230814188E+03  0.13711206117E+04  0.14732158836E+04  0.10100000352E+00 0.  1.
       -3    1    3    3    0  502  0.50339932086E+03  0.19230814188E+03 -0.64652251275E+03  0.84165590794E+03  0.10100000352E+00 0. -1.
</event>
<event>
 5   0  0.2606154E-06  0.2198154E+04  0.7818609E-02  0.8519197E-01
        2   -1    0    0  501    0  0.00000000000E+00  0.00000000000E+00  0.17858485097E+04  0.17858485097E+04  0.25500000920E-02 0.  1.
       -2   -1    0    0    0  501  0.00000000000E+00  0.00000000000E+00 -0.67641222615E+03  0.67641222616E+03  0.25500000920E-02 0. -1.
    10030    2    1    2    0    0  0.00000000000E+00  0.00000000000E+00  0.11094362835E+04  0.24622607358E+04  0.21981535579E+04 0.  0.
        2    1    3    3  502    0 -0.67066837729E+03 -0.22027196957E+03 -0.38890661176E+03  0.80595543646E+03  0.25500000920E-02 0. -1.
       -2    1    3    3    0  502  0.67066837729E+03  0.22027196957E+03  0.14983428953E+04  0.16563052994E+04  0.25500000920E-02 0.  1.
</event>
<event>
 5   0  0.1137869E-06  0.2200191E+04  0.7818609E-02  0.8518349E-01
        1   -1    0    0  501    0  0.00000000000E+00  0.00000000000E+00  0.11745989710E+04  0.11745989710E+04  0.50400001928E-02 0. -1.
       -1   -1    0    0    0  501  0.00000000000E+00  0.00000000000E+00 -0.10303178174E+04  0.10303178174E+04  0.50400001928E-02 0.  1.
    10030    2    1    2    0    0  0.00000000000E+00  0.00000000000E+00  0.14428115358E+03  0.22049167884E+04  0.22001911264E+04 0.  0.
        5    1    3    3  502    0  0.19393999825E+03  0.95370356899E+03  0.58610168714E+03  0.11360900044E+04  0.46999998093E+01 0.  1.
       -5    1    3    3    0  502 -0.19393999825E+03 -0.95370356899E+03 -0.44182053357E+03  0.10688267840E+04  0.46999998093E+01 0. -1.
</event>
<event>
 5   0  0.2532239E-06  0.2199811E+04  0.7818609E-02  0.8518507E-01
       -2   -1    0    0    0  501  0.00000000000E+00  0.00000000000E+00  0.88049684846E+03  0.88049684846E+03  0.25500000920E-02 0. -1.
        2   -1    0    0  501    0  0.00000000000E+00  0.00000000000E+00 -0.13739874436E+04  0.13739874436E+04  0.25500000920E-02 0.  1.
    10030    2    1    2    0    0  0.00000000000E+00  0.00000000000E+00 -0.49349059513E+03  0.22544842920E+04  0.21998105499E+04 0.  0.
        3    1    3    3  502    0 -0.52641639639E+03 -0.27140435503E+03  0.70312176200E+03  0.91932299477E+03  0.10100000352E+00 0. -1.
       -3    1    3    3    0  502  0.52641639639E+03  0.27140435503E+03 -0.11966123571E+04  0.13351612973E+04  0.10100000352E+00 0.  1.
</event>
<event>
 5   0  0.2581058E-06  0.2198870E+04  0.7818609E-02  0.8518899E-01
       -2   -1    0    0    0  501  0.00000000000E+00  0.00000000000E+00  0.82482525418E+03  0.82482525419E+03  0.25500000920E-02 0. -1.
        2   -1    0    0  501    0  0.00000000000E+00  0.00000000000E+00 -0.14654706064E+04  0.14654706064E+04  0.25500000920E-02 0.  1.
    10030    2    1    2    0    0  0.00000000000E+00  0.00000000000E+00 -0.64064535218E+03  0.22902958606E+04  0.21988698601E+04 0.  0.
        1    1    3    3  502    0 -0.24389600956E+03  0.78059786095E+03  0.44503486017E+03  0.93106085236E+03  0.50400001928E-02 0. -1.
       -1    1    3    3    0  502  0.24389600956E+03 -0.78059786095E+03 -0.10856802123E+04  0.13592350082E+04  0.50400001928E-02 0.  1.
</event>
<event>
 5   0  0.2524749E-06  0.2201131E+04  0.7818609E-02  0.8517958E-01
       -2   -1    0    0    0  501  0.00000000000E+00  0.00000000000E+00  0.95190947379E+03  0.95190947380E+03  0.25500000920E-02 0. -1.
        2   -1    0    0  501    0  0.00000000000E+00  0.00000000000E+00 -0.12724363987E+04  0.12724363987E+04  0.25500000920E-02 0.  1.
    10030    2    1    2    0    0  0.00000000000E+00  0.00000000000E+00 -0.32052692488E+03  0.22243458725E+04  0.22011308573E+04 0.  0.
        4    1    3    3  502    0 -0.58504973870E+03  0.33670329415E+02 -0.11016602790E+04  0.12478276608E+04  0.12699999809E+01 0.  1.
       -4    1    3    3    0  502  0.58504973870E+03 -0.33670329415E+02  0.78113335414E+03  0.97651821165E+03  0.12699999809E+01 0. -1.
</event>
<event>
 5   0  0.2606154E-06  0.2199734E+04  0.7818609E-02  0.8518539E-01
       -2   -1    0    0    0  501  0.00000000000E+00  0.00000000000E+00  0.14830406549E+04  0.14830406549E+04  0.25500000920E-02 0.  1.
        2   -1    0    0  501    0  0.00000000000E+00  0.00000000000E+00 -0.81569388321E+03  0.81569388322E+03  0.25500000920E-02 0. -1.
    10030    2    1    2    0    0  0.00000000000E+00  0.00000000000E+00  0.66734677164E+03  0.22987345381E+04  0.21997337936E+04 0.  0.
        2    1    3    3  502    0 -0.68909948173E+03 -0.45205309109E+03 -0.42745899850E+03  0.92840254647E+03  0.25500000920E-02 0. -1.
       -2    1    3    3    0  502  0.68909948173E+03  0.45205309109E+03  0.10948057701E+04  0.13703319916E+04  0.25500000920E-02 0.  1.
</event>
<event>
 5   0  0.1137869E-06  0.2202704E+04  0.7818609E-02  0.8517303E-01
       -1   -1    0    0    0  501  0.00000000000E+00  0.00000000000E+00  0.45409788598E+03  0.45409788601E+03  0.50400001928E-02 0.  1.
        1   -1    0    0  501    0  0.00000000000E+00  0.00000000000E+00 -0.26711787452E+04  0.26711787452E+04  0.50400001928E-02 0. -1.
    10030    2    1    2    0    0  0.00000000000E+00  0.00000000000E+00 -0.22170808593E+04  0.31252766313E+04  0.22027043572E+04 0.  0.
        5    1    3    3  502    0  0.87496452277E+03  0.42877415444E+03 -0.38015860503E+03  0.10459220079E+04  0.46999998093E+01 0.  1.
       -5    1    3    3    0  502 -0.87496452277E+03 -0.42877415444E+03 -0.18369222542E+04  0.20793546234E+04  0.46999998093E+01 0. -1.
</event>
<event>
 5   0  0.2606154E-06  0.2200451E+04  0.7818609E-02  0.8518240E-01
        2   -1    0    0  501    0  0.00000000000E+00  0.00000000000E+00  0.20355647654E+04  0.20355647654E+04  0.25500000920E-02 0. -1.
       -2   -1    0    0    0  501  0.00000000000E+00  0.00000000000E+00 -0.59467355532E+03  0.59467355532E+03  0.25500000920E-02 0.  1.
    10030    2    1    2    0    0  0.00000000000E+00  0.00000000000E+00  0.14408912100E+04  0.26302383207E+04  0.22004513502E+04 0.  0.
        2    1    3    3  502    0 -0.37452279789E+02 -0.83892781111E+03  0.15701256059E+04  0.17805889373E+04  0.25500000920E-02 0. -1.
       -2    1    3    3    0  502  0.37452279789E+02  0.83892781111E+03 -0.12923439585E+03  0.84964938333E+03  0.25500000920E-02 0.  1.
</event>
<event>
 5   0  0.1137869E-06  0.2197138E+04  0.7818609E-02  0.8519620E-01
       -1   -1    0    0    0  501  0.00000000000E+00  0.00000000000E+00  0.61869150093E+03  0.61869150096E+03  0.50400001928E-02 0. -1.
        1   -1    0    0  501    0  0.00000000000E+00  0.00000000000E+00 -0.19506549831E+04  0.19506549831E+04  0.50400001928E-02 0.  1.
    10030    2    1    2    0    0  0.00000000000E+00  0.00000000000E+00 -0.13319634822E+04  0.25693464841E+04  0.21971378285E+04 0.  0.
        5    1    3    3  502    0  0.10050422842E+03  0.10412575008E+04 -0.27372783429E+03  0.10813266390E+04  0.46999998093E+01 0. -1.
       -5    1    3    3    0  502 -0.10050422842E+03 -0.10412575008E+04 -0.10582356479E+04  0.14880198451E+04  0.46999998093E+01 0.  1.
</event>
<event>
 5   0  0.1146827E-06  0.2199290E+04  0.7818609E-02  0.8518724E-01
       -1   -1    0    0    0  501  0.00000000000E+00  0.00000000000E+00  0.82698468070E+03  0.82698468072E+03  0.50400001928E-02 0. -1.
        1   -1    0    0  501    0  0.00000000000E+00  0.00000000000E+00 -0.14622022020E+04  0.14622022020E+04  0.50400001928E-02 0.  1.
    10030    2    1    2    0    0  0.00000000000E+00  0.00000000000E+00 -0.63521752133E+03  0.22891868828E+04  0.21992897228E+04 0.  0.
        4    1    3    3  502    0 -0.18860305692E+03  0.99874831049E+03  0.11924647813E+03  0.10233721885E+04  0.12699999809E+01 0.  1.
       -4    1    3    3    0  502  0.18860305692E+03 -0.99874831049E+03 -0.75446399947E+03  0.12658146942E+04  0.12699999809E+01 0. -1.
</event>
<event>
 5   0  0.1082209E-06  0.2193712E+04  0.7818609E-02  0.8521050E-01
       -1   -1    0    0    0  501  0.00000000000E+00  0.00000000000E+00  0.79701481680E+03  0.79701481681E+03  0.50400001928E-02 0. -1.
        1   -1    0    0  501    0  0.00000000000E+00  0.00000000000E+00 -0.15094990896E+04  0.15094990897E+04  0.50400001928E-02 0.  1.
    10030    2    1    2    0    0  0.00000000000E+00  0.00000000000E+00 -0.71248427285E+03  0.23065139065E+04  0.21937120508E+04 0.  0.
        2    1    3    3  502    0  0.16241307689E+03  0.38234452089E+03 -0.14235908045E+04  0.14829619412E+04  0.25500000920E-02 0.  1.
       -2    1    3    3    0  502 -0.16241307689E+03 -0.38234452089E+03  0.71110653166E+03  0.82355196532E+03  0.25500000920E-02 0. -1.
</event>
<event>
 5   0  0.1146827E-06  0.2200439E+04  0.7818609E-02  0.8518246E-01
        1   -1    0    0  501    0  0.00000000000E+00  0.00000000000E+00  0.89887741278E+03  0.89887741279E+03  0.50400001928E-02 0. -1.
       -1   -1    0    0    0  501  0.00000000000E+00  0.00000000000E+00 -0.13466603195E+04  0.13466603195E+04  0.50400001928E-02 0.  1.
    10030    2    1    2    0    0  0.00000000000E+00  0.00000000000E+00 -0.44778290675E+03  0.22455377323E+04  0.22004386326E+04 0.  0.
        4    1    3    3  502    0 -0.88131003124E+03 -0.11027076493E+03  0.43873468834E+03  0.99063452010E+03  0.12699999809E+01 0. -1.
       -4    1    3    3    0  502  0.88131003124E+03  0.11027076493E+03 -0.88651759510E+03  0.12549032122E+04  0.12699999809E+01 0.  1.
</event>
<event>
 5   0  0.2581058E-06  0.2199831E+04  0.7818609E-02  0.8518498E-01
       -2   -1    0    0    0  501  0.00000000000E+00  0.00000000000E+00  0.94870409169E+03  0.94870409170E+03  0.25500000920E-02 0.  1.
        2   -1    0    0  501    0  0.00000000000E+00  0.00000000000E+00 -0.12752282164E+04  0.12752282164E+04  0.25500000920E-02 0. -1.
    10030    2    1    2    0    0  0.00000000000E+00  0.00000000000E+00 -0.32652412470E+03  0.22239323081E+04  0.21998311087E+04 0.  0.
        1    1    3    3  502    0 -0.46570163658E+03  0.81238010495E+03 -0.74662373670E+03  0.11976169895E+04  0.50400001928E-02 0.  1.
       -1    1    3    3    0  502  0.46570163658E+03 -0.81238010495E+03  0.42009961199E+03  0.10263153186E+04  0.50400001928E-02 0. -1.
</event>
<event>
 5   0  0.2524749E-06  0.2199650E+04  0.7818609E-02  0.8518574E-01
        2   -1    0    0  501    0  0.00000000000E+00  0.00000000000E+00  0.13860026872E+04  0.13860026872E+04  0.25500000920E-02 0. -1.
       -2   -1    0    0    0  501  0.00000000000E+00  0.00000000000E+00 -0.87273644291E+03  0.87273644291E+03  0.25500000920E-02 0.  1.
    10030    2    1    2    0    0  0.00000000000E+00  0.00000000000E+00  0.51326624430E+03  0.22587391301E+04  0.21996500223E+04 0.  0.
        4    1    3    3  502    0  0.66328533243E+03 -0.84570260585E+03  0.49625355169E+03  0.11838198893E+04  0.12699999809E+01 0. -1.
       -4    1    3    3    0  502 -0.66328533243E+03  0.84570260585E+03  0.17012692612E+02  0.10749192409E+04  0.12699999809E+01 0.  1.
</event>
<event>
 5   0  0.1144271E-06  0.2199399E+04  0.7818609E-02  0.8518678E-01
       -1   -1    0    0    0  501  0.00000000000E+00  0.00000000000E+00  0.86157244778E+03  0.86157244780E+03  0.50400001928E-02 0.  1.
        1   -1    0    0  501    0  0.00000000000E+00  0.00000000000E+00 -0.14036412533E+04  0.14036412534E+04  0.50400001928E-02 0. -1.
    10030    2    1    2    0    0  0.00000000000E+00  0.00000000000E+00 -0.54206880556E+03  0.22652137012E+04  0.21993986728E+04 0.  0.
        3    1    3    3  502    0 -0.28452349430E+03  0.95517910868E+03  0.20765086616E+03  0.10180567965E+04  0.10100000352E+00 0.  1.
       -3    1    3    3    0  502  0.28452349430E+03 -0.95517910868E+03 -0.74971967172E+03  0.12471569047E+04  0.10100000352E+00 0. -1.
</event>
<event>
 5   0  0.2532239E-06  0.2200215E+04  0.7818609E-02  0.8518338E-01
        2   -1    0    0  501    0  0.00000000000E+00  0.00000000000E+00  0.14806050145E+04  0.14806050145E+04  0.25500000920E-02 0.  1.
       -2   -1    0    0    0  501  0.00000000000E+00  0.00000000000E+00 -0.81739359736E+03  0.81739359736E+03  0.25500000920E-02 0. -1.
    10030    2    1    2    0    0  0.00000000000E+00  0.00000000000E+00  0.66321141713E+03  0.22979986119E+04  0.22002154977E+04 0.  0.
        3    1    3    3  502    0 -0.83884320544E+03  0.58359279829E+03 -0.93930693979E+02  0.10261878303E+04  0.10100000352E+00 0.  1.
       -3    1    3    3    0  502  0.83884320544E+03 -0.58359279829E+03  0.75714211111E+03  0.12718107816E+04  0.10100000352E+00 0. -1.
</event>
<event>
 5   0  0.1144271E-06  0.2198594E+04  0.7818609E-02  0.8519014E-01
        1   -1    0    0  501    0  0.00000000000E+00  0.00000000000E+00  0.17039812217E+04  0.17039812217E+04  0.50400001928E-02 0. -1.
       -1   -1    0    0    0  501  0.00000000000E+00  0.00000000000E+00 -0.70919427613E+03  0.70919427614E+03  0.50400001928E-02 0.  1.
    10030    2    1    2    0    0  0.00000000000E+00  0.00000000000E+00  0.99478694559E+03  0.24131754979E+04  0.21985938498E+04 0.  0.
        3    1    3    3  502    0  0.61113347763E+03  0.90739845929E+03  0.37919047906E+03  0.11578607520E+04  0.10100000352E+00 0.  1.
       -3    1    3    3    0  502 -0.61113347763E+03 -0.90739845929E+03  0.61559646652E+03  0.12553147459E+04  0.10100000352E+00 0. -1.
</event>
<event>
 5   0  0.1082209E-06  0.2199915E+04  0.7818609E-02  0.8518464E-01
       -1   -1    0    0    0  501  0.00000000000E+00  0.00000000000E+00  0.15138984585E+04  0.15138984585E+04  0.50400001928E-02 0. -1.
        1   -1    0    0  501    0  0.00000000000E+00  0.00000000000E+00 -0.79919909411E+03  0.79919909413E+03  0.50400001928E-02 0.  1.
    10030    2    1    2    0    0  0.00000000000E+00  0.00000000000E+00  0.71469936436E+03  0.23130975526E+04  0.21999147953E+04 0.  0.
        2    1    3    3  502    0 -0.31609805276E+03 -0.85685052733E+03 -0.28721107340E+03  0.95739281689E+03  0.25500000920E-02 0.  1.
       -2    1    3    3    0  502  0.31609805276E+03  0.85685052733E+03  0.10019104378E+04  0.13557047357E+04  0.25500000920E-02 0. -1.
</event>
<event>
 5   0  0.2606154E-06  0.2199338E+04  0.7818609E-02  0.8518704E-01
       -2   -1    0    0    0  501  0.00000000000E+00  0.00000000000E+00  0.10970577203E+04  0.10970577203E+04  0.25500000920E-02 0.  1.
        2   -1    0    0  501    0  0.00000000000E+00  0.00000000000E+00 -0.11022866957E+04  0.11022866957E+04  0.25500000920E-02 0. -1.
    10030    2    1    2    0    0  0.00000000000E+00  0.00000000000E+00 -0.52289753847E+01  0.21993444160E+04  0.21993382000E+04 0.  0.
        2    1    3    3  502    0  0.75704181963E+03  0.76773656696E+03 -0.21881032665E+03  0.11001862169E+04  0.25500000920E-02 0. -1.
       -2    1    3    3    0  502 -0.75704181963E+03 -0.76773656696E+03  0.21358135127E+03  0.10991581990E+04  0.25500000920E-02 0.  1.
</event>
<event>
 5   0  0.1137869E-06  0.2200395E+04  0.7818609E-02  0.8518264E-01
       -1   -1    0    0    0  501  0.00000000000E+00  0.00000000000E+00  0.68742537155E+03  0.68742537157E+03  0.50400001928E-02 0. -1.
        1   -1    0    0  501    0  0.00000000000E+00  0.00000000000E+00 -0.17608234180E+04  0.17608234180E+04  0.50400001928E-02 0.  1.
    10030    2    1    2    0    0  0.00000000000E+00  0.00000000000E+00 -0.10733980464E+04  0.24482487896E+04  0.22003951394E+04 0.  0.
        5    1    3    3  502    0  0.21776803432E+03  0.86116037116E+03  0.18556880854E+03  0.90745687189E+03  0.46999998093E+01 0. -1.
       -5    1    3    3    0  502 -0.21776803432E+03 -0.86116037116E+03 -0.12589668550E+04  0.15407919177E+04  0.46999998093E+01 0.  1.
</event>
<event>
 5   0  0.1107101E-06  0.2197827E+04  0.7818609E-02  0.8519333E-01
       -1   -1    0    0    0  501  0.00000000000E+00  0.00000000000E+00  0.97973506924E+03  0.97973506925E+03  0.50400001928E-02 0. -1.
        1   -1    0    0  501    0  0.00000000000E+00  0.00000000000E+00 -0.12325893600E+04  0.12325893600E+04  0.50400001928E-02 0.  1.
    10030    2    1    2    0    0  0.00000000000E+00  0.00000000000E+00 -0.25285429079E+03  0.22123244293E+04  0.21978271288E+04 0.  0.
        1    1    3    3  502    0 -0.64076692120E+03 -0.85410709999E+03  0.13515201058E+03  0.10762654187E+04  0.50400001928E-02 0.  1.
       -1    1    3    3    0  502  0.64076692120E+03  0.85410709999E+03 -0.38800630137E+03  0.11360590106E+04  0.50400001928E-02 0. -1.
</event>
<event>
 5   0  0.2524749E-06  0.2202466E+04  0.7818609E-02  0.8517402E-01
        2   -1    0    0  501    0  0.00000000000E+00  0.00000000000E+00  0.10985184377E+04  0.10985184377E+04  0.25500000920E-02 0. -1.
       -2   -1    0    0    0  501  0.00000000000E+00  0.00000000000E+00 -0.11039545983E+04  0.11039545983E+04  0.25500000920E-02 0.  1.
    10030    2    1    2    0    0  0.00000000000E+00  0.00000000000E+00 -0.54361605387E+01  0.22024730360E+04  0.22024663272E+04 0.  0.
        4    1    3    3  502    0  0.68314582136E+03 -0.52172719418E+03 -0.69106993497E+03  0.11029355132E+04  0.12699999809E+01 0.  1.
       -4    1    3    3    0  502 -0.68314582136E+03  0.52172719418E+03  0.68563377443E+03  0.10995375228E+04  0.12699999809E+01 0. -1.
</event>
<event>
 5   0  0.1107101E-06  0.2200389E+04  0.7818609E-02  0.8518266E-01
        1   -1    0    0  501    0  0.00000000000E+00  0.00000000000E+00  0.15084395772E+04  0.15084395772E+04  0.50400001928E-02 0. -1.
       -1   -1    0    0    0  501  0.00000000000E+00  0.00000000000E+00 -0.80243724117E+03  0.80243724118E+03  0.50400001928E-02 0.  1.
    10030    2    1    2    0    0  0.00000000000E+00  0.00000000000E+00  0.70600233599E+03  0.23108768183E+04  0.22003891408E+04 0.  0.
        1    1    3    3  502    0  0.26316823159E+03 -0.73707050733E+03 -0.45906370194E+03  0.90734223607E+03  0.50400001928E-02 0.  1.
       -1    1    3    3    0  502 -0.26316823159E+03  0.73707050733E+03  0.11650660379E+04  0.14035345823E+04  0.50400001928E-02 0. -1.
</event>
<event>
 5   0  0.2524749E-06  0.2199949E+04  0.7818609E-02  0.8518449E-01
       -2   -1    0    0    0  501  0.00000000000E+00  0.00000000000E+00  0.72876136661E+03  0.72876136662E+03  0.25500000920E-02 0.  1.
        2   -1    0    0  501    0  0.00000000000E+00  0.00000000000E+00 -0.16602742460E+04  0.16602742460E+04  0.25500000920E-02 0. -1.
    10030    2    1    2    0    0  0.00000000000E+00  0.00000000000E+00 -0.93151287936E+03  0.23890356126E+04  0.21999488435E+04 0.  0.
        4    1    3    3  502    0  0.94764299499E+03  0.19147798891E+03  0.10398070313E+03  0.97237064215E+03  0.12699999809E+01 0.  1.
       -4    1    3    3    0  502 -0.94764299499E+03 -0.19147798891E+03 -0.10354935825E+04  0.14166649704E+04  0.12699999809E+01 0. -1.
</event>
<event>
 5   0  0.2556869E-06  0.2201312E+04  0.7818609E-02  0.8517882E-01
        2   -1    0    0  501    0  0.00000000000E+00  0.00000000000E+00  0.76973348471E+03  0.76973348471E+03  0.25500000920E-02 0.  1.
       -2   -1    0    0    0  501  0.00000000000E+00  0.00000000000E+00 -0.15738481137E+04  0.15738481137E+04  0.25500000920E-02 0. -1.
    10030    2    1    2    0    0  0.00000000000E+00  0.00000000000E+00 -0.80411462895E+03  0.23435815984E+04  0.22013119660E+04 0.  0.
        5    1    3    3  502    0  0.26748882006E+03 -0.80897651073E+03 -0.11438132045E+04  0.14262973044E+04  0.46999998093E+01 0. -1.
       -5    1    3    3    0  502 -0.26748882006E+03  0.80897651073E+03  0.33969857552E+03  0.91728429398E+03  0.46999998093E+01 0.  1.
</event>
<event>
 5   0  0.1146827E-06  0.2200621E+04  0.7818609E-02  0.8518170E-01
       -1   -1    0    0    0  501  0.00000000000E+00  0.00000000000E+00  0.60489346546E+03  0.60489346548E+03  0.50400001928E-02 0.  1.
        1   -1    0    0  501    0  0.00000000000E+00  0.00000000000E+00 -0.20014822187E+04  0.20014822187E+04  0.50400001928E-02 0. -1.
    10030    2    1    2    0    0  0.00000000000E+00  0.00000000000E+00 -0.13965887533E+04  0.26063756842E+04  0.22006212899E+04 0.  0.
        4    1    3    3  502    0  0.43990351465E+03 -0.80107640183E+02 -0.18890249010E+04  0.19412235898E+04  0.12699999809E+01 0. -1.
       -4    1    3    3    0  502 -0.43990351465E+03  0.80107640183E+02  0.49243614771E+03  0.66515209440E+03  0.12699999809E+01 0.  1.
</event>
<event>
 5   0  0.2556869E-06  0.2200036E+04  0.7818609E-02  0.8518413E-01
       -2   -1    0    0    0  501  0.00000000000E+00  0.00000000000E+00  0.40785880937E+03  0.40785880938E+03  0.25500000920E-02 0. -1.
        2   -1    0    0  501    0  0.00000000000E+00  0.00000000000E+00 -0.29668092002E+04  0.29668092002E+04  0.25500000920E-02 0.  1.
    10030    2    1    2    0    0  0.00000000000E+00  0.00000000000E+00 -0.25589503908E+04  0.33746680096E+04  0.22000356979E+04 0.  0.
        5    1    3    3  502    0 -0.10674956573E+04  0.87579677962E+02 -0.16638732205E+04  0.19788161517E+04  0.46999998093E+01 0. -1.
       -5    1    3    3    0  502  0.10674956573E+04 -0.87579677962E+02 -0.89507717038E+03  0.13958518579E+04  0.46999998093E+01 0.  1.
</event>
<event>
 5   0  0.1082209E-06  0.2198413E+04  0.7818609E-02  0.8519089E-01
        1   -1    0    0  501    0  0.00000000000E+00  0.00000000000E+00  0.12278799185E+04  0.12278799185E+04  0.50400001928E-02 0.  1.
       -1   -1    0    0    0  501  0.00000000000E+00  0.00000000000E+00 -0.98401686851E+03  0.98401686852E+03  0.50400001928E-02 0. -1.
    10030    2    1    2    0    0  0.00000000000E+00  0.00000000000E+00  0.24386304997E+03  0.22118967870E+04  0.21984126567E+04 0.  0.
        2    1    3    3  502    0  0.10186935383E+04 -0.20492229484E+03 -0.23877105295E+03  0.10661807012E+04  0.25500000920E-02 0. -1.
       -2    1    3    3    0  502 -0.10186935383E+04  0.20492229484E+03  0.48263410292E+03  0.11457160858E+04  0.25500000920E-02 0.  1.
</event>
<event>
 5   0  0.2606154E-06  0.2199685E+04  0.7818609E-02  0.8518559E-01
       -2   -1    0    0    0  501  0.00000000000E+00  0.00000000000E+00  0.72808819156E+03  0.72808819157E+03  0.25500000920E-02 0.  1.
        2   -1    0    0  501    0  0.00000000000E+00  0.00000000000E+00 -0.16614105474E+04  0.16614105474E+04  0.25500000920E-02 0. -1.
    10030    2    1    2    0    0  0.00000000000E+00  0.00000000000E+00 -0.93332235588E+03  0.23894987390E+04  0.21996848874E+04 0.  0.
        2    1    3    3  502    0  0.55261485641E+03 -0.14391410918E+03 -0.14877513590E+04  0.15935804205E+04  0.25500000920E-02 0. -1.
       -2    1    3    3    0  502 -0.55261485641E+03  0.14391410918E+03  0.55442900309E+03  0.79591831856E+03  0.25500000920E-02 0.  1.
</event>
<event>
 5   0  0.1137869E-06  0.2199505E+04  0.7818609E-02  0.8518634E-01
        1   -1    0    0  501    0  0.00000000000E+00  0.00000000000E+00  0.93237217090E+03  0.93237217092E+03  0.50400001928E-02 0.  1.
       -1   -1    0    0    0  501  0.00000000000E+00  0.00000000000E+00 -0.12971806683E+04  0.12971806683E+04  0.50400001928E-02 0. -1.
    10030    2    1    2    0    0  0.00000000000E+00  0.00000000000E+00 -0.36480849744E+03  0.22295528393E+04  0.21995046313E+04 0.  0.
        5    1    3    3  502    0 -0.85230662095E+03  0.34270743078E+03  0.43046961097E+03  0.10144955077E+04  0.46999998093E+01 0.  1.
       -5    1    3    3    0  502  0.85230662095E+03 -0.34270743078E+03 -0.79527810841E+03  0.12150573315E+04  0.46999998093E+01 0. -1.
</event>
</LesHouchesEvents>
